Generated by trjconv : CNT in water t=   1.00000
33518
    1C        C    1   2.843   2.769   4.746
    1C        C    2   2.899   2.719   4.865
    1C        C    3   2.842   2.770   4.983
    1C        C    4   2.852   2.773   4.258
    1C        C    5   2.904   2.730   4.382
    1C        C    6   2.846   2.771   4.504
    1C        C    7   3.015   2.640   4.624
    1C        C    8   2.897   2.719   4.625
    1C        C    9   3.074   2.598   4.745
    1C        C   10   3.009   2.630   4.866
    1C        C   11   3.184   2.494   4.977
    1C        C   12   3.063   2.565   4.978
    1C        C   13   2.847   2.766   3.773
    1C        C   14   2.901   2.724   3.896
    1C        C   15   2.850   2.781   4.015
    1C        C   16   3.015   2.642   4.136
    1C        C   17   2.902   2.726   4.134
    1C        C   18   3.079   2.613   4.259
    1C        C   19   3.017   2.646   4.381
    1C        C   20   3.210   2.554   4.502
    1C        C   21   3.079   2.608   4.502
    1C        C   22   3.278   2.532   4.624
    1C        C   23   3.206   2.545   4.745
    1C        C   24   3.414   2.486   4.867
    1C        C   25   3.272   2.505   4.865
    1C        C   26   3.490   2.471   4.984
    1C        C   27   2.846   2.766   3.284
    1C        C   28   2.903   2.715   3.403
    1C        C   29   2.852   2.769   3.524
    1C        C   30   3.015   2.642   3.651
    1C        C   31   2.899   2.722   3.649
    1C        C   32   3.077   2.603   3.772
    1C        C   33   3.013   2.638   3.893
    1C        C   34   3.207   2.550   4.017
    1C        C   35   3.075   2.601   4.014
    1C        C   36   3.277   2.533   4.139
    1C        C   37   3.209   2.559   4.260
    1C        C   38   3.416   2.501   4.384
    1C        C   39   3.279   2.535   4.381
    1C        C   40   3.488   2.493   4.505
    1C        C   41   3.417   2.506   4.626
    1C        C   42   3.630   2.481   4.746
    1C        C   43   3.488   2.483   4.745
    1C        C   44   3.705   2.488   4.865
    1C        C   45   3.629   2.483   4.982
    1C        C   46   2.839   2.753   2.792
    1C        C   47   2.897   2.714   2.914
    1C        C   48   2.846   2.761   3.038
    1C        C   49   3.014   2.639   3.159
    1C        C   50   2.896   2.717   3.162
    1C        C   51   3.079   2.604   3.280
    1C        C   52   3.020   2.637   3.404
    1C        C   53   3.205   2.544   3.528
    1C        C   54   3.077   2.605   3.530
    1C        C   55   3.276   2.523   3.648
    1C        C   56   3.208   2.549   3.769
    1C        C   57   3.411   2.503   3.897
    1C        C   58   3.272   2.529   3.894
    1C        C   59   3.489   2.501   4.014
    1C        C   60   3.416   2.507   4.135
    1C        C   61   3.624   2.505   4.261
    1C        C   62   3.483   2.501   4.259
    1C        C   63   3.700   2.512   4.380
    1C        C   64   3.629   2.501   4.502
    1C        C   65   3.835   2.538   4.621
    1C        C   66   3.699   2.501   4.624
    1C        C   67   3.907   2.558   4.742
    1C        C   68   3.841   2.526   4.863
    1C        C   69   4.055   2.583   4.974
    1C        C   70   3.925   2.529   4.974
    1C        C   71   2.823   2.731   2.308
    1C        C   72   2.883   2.692   2.429
    1C        C   73   2.833   2.747   2.549
    1C        C   74   3.009   2.626   2.672
    1C        C   75   2.889   2.701   2.670
    1C        C   76   3.074   2.598   2.795
    1C        C   77   3.014   2.635   2.917
    1C        C   78   3.207   2.544   3.038
    1C        C   79   3.076   2.598   3.039
    1C        C   80   3.273   2.523   3.161
    1C        C   81   3.208   2.547   3.284
    1C        C   82   3.413   2.498   3.401
    1C        C   83   3.274   2.524   3.407
    1C        C   84   3.482   2.502   3.525
    1C        C   85   3.417   2.507   3.650
    1C        C   86   3.622   2.508   3.765
    1C        C   87   3.482   2.497   3.775
    1C        C   88   3.691   2.511   3.888
    1C        C   89   3.630   2.505   4.015
    1C        C   90   3.833   2.548   4.132
    1C        C   91   3.696   2.516   4.140
    1C        C   92   3.898   2.573   4.255
    1C        C   93   3.836   2.549   4.380
    1C        C   94   4.031   2.632   4.498
    1C        C   95   3.904   2.569   4.502
    1C        C   96   4.092   2.668   4.620
    1C        C   97   4.033   2.624   4.740
    1C        C   98   4.191   2.767   4.859
    1C        C   99   4.101   2.657   4.860
    1C        C  100   4.214   2.844   4.974
    1C        C  101   2.822   2.728   2.069
    1C        C  102   2.992   2.593   2.188
    1C        C  103   2.874   2.674   2.188
    1C        C  104   3.064   2.573   2.309
    1C        C  105   3.004   2.619   2.429
    1C        C  106   3.200   2.534   2.550
    1C        C  107   3.070   2.590   2.550
    1C        C  108   3.270   2.520   2.672
    1C        C  109   3.203   2.541   2.794
    1C        C  110   3.410   2.493   2.915
    1C        C  111   3.271   2.518   2.915
    1C        C  112   3.480   2.492   3.038
    1C        C  113   3.413   2.503   3.162
    1C        C  114   3.629   2.500   3.280
    1C        C  115   3.488   2.494   3.281
    1C        C  116   3.692   2.513   3.406
    1C        C  117   3.623   2.507   3.529
    1C        C  118   3.838   2.547   3.647
    1C        C  119   3.700   2.514   3.647
    1C        C  120   3.896   2.570   3.773
    1C        C  121   3.828   2.544   3.894
    1C        C  122   4.024   2.643   4.013
    1C        C  123   3.902   2.572   4.012
    1C        C  124   4.085   2.678   4.136
    1C        C  125   4.023   2.638   4.256
    1C        C  126   4.197   2.765   4.376
    1C        C  127   4.089   2.674   4.376
    1C        C  128   4.247   2.818   4.497
    1C        C  129   4.198   2.762   4.617
    1C        C  130   4.326   2.935   4.740
    1C        C  131   4.244   2.819   4.738
    1C        C  132   4.353   3.007   4.858
    1C        C  133   4.285   2.964   4.973
    1C        C  134   3.169   2.460   2.083
    1C        C  135   3.037   2.508   2.083
    1C        C  136   3.259   2.477   2.190
    1C        C  137   3.196   2.519   2.309
    1C        C  138   3.406   2.477   2.427
    1C        C  139   3.267   2.502   2.430
    1C        C  140   3.478   2.477   2.548
    1C        C  141   3.409   2.495   2.670
    1C        C  142   3.621   2.493   2.790
    1C        C  143   3.480   2.486   2.792
    1C        C  144   3.690   2.505   2.912
    1C        C  145   3.621   2.499   3.036
    1C        C  146   3.831   2.542   3.156
    1C        C  147   3.696   2.502   3.155
    1C        C  148   3.900   2.563   3.278
    1C        C  149   3.830   2.541   3.398
    1C        C  150   4.024   2.628   3.523
    1C        C  151   3.898   2.565   3.520
    1C        C  152   4.083   2.671   3.644
    1C        C  153   4.021   2.636   3.766
    1C        C  154   4.194   2.760   3.887
    1C        C  155   4.078   2.679   3.887
    1C        C  156   4.245   2.811   4.008
    1C        C  157   4.195   2.766   4.133
    1C        C  158   4.338   2.924   4.254
    1C        C  159   4.248   2.815   4.254
    1C        C  160   4.374   2.986   4.376
    1C        C  161   4.331   2.931   4.498
    1C        C  162   4.443   3.114   4.616
    1C        C  163   4.369   2.994   4.619
    1C        C  164   4.469   3.184   4.737
    1C        C  165   4.433   3.124   4.859
    1C        C  166   4.518   3.321   4.974
    1C        C  167   4.483   3.187   4.973
    1C        C  168   3.477   2.439   2.072
    1C        C  169   3.399   2.461   2.187
    1C        C  170   3.618   2.468   2.307
    1C        C  171   3.476   2.465   2.305
    1C        C  172   3.693   2.483   2.426
    1C        C  173   3.619   2.486   2.546
    1C        C  174   3.827   2.537   2.668
    1C        C  175   3.690   2.503   2.667
    1C        C  176   3.894   2.564   2.790
    1C        C  177   3.826   2.541   2.911
    1C        C  178   4.021   2.630   3.032
    1C        C  179   3.894   2.568   3.032
    1C        C  180   4.085   2.665   3.153
    1C        C  181   4.026   2.628   3.276
    1C        C  182   4.194   2.752   3.398
    1C        C  183   4.084   2.663   3.400
    1C        C  184   4.246   2.803   3.519
    1C        C  185   4.193   2.759   3.643
    1C        C  186   4.337   2.916   3.766
    1C        C  187   4.248   2.806   3.764
    1C        C  188   4.375   2.978   3.887
    1C        C  189   4.336   2.919   4.009
    1C        C  190   4.444   3.103   4.130
    1C        C  191   4.377   2.979   4.130
    1C        C  192   4.475   3.171   4.250
    1C        C  193   4.441   3.111   4.374
    1C        C  194   4.509   3.315   4.492
    1C        C  195   4.472   3.178   4.494
    1C        C  196   4.524   3.387   4.613
    1C        C  197   4.509   3.320   4.736
    1C        C  198   4.555   3.535   4.852
    1C        C  199   4.536   3.393   4.855
    1C        C  200   4.575   3.620   4.966
    1C        C  201   3.615   2.419   2.071
    1C        C  202   3.826   2.510   2.182
    1C        C  203   3.690   2.463   2.184
    1C        C  204   3.898   2.537   2.301
    1C        C  205   3.830   2.518   2.423
    1C        C  206   4.019   2.616   2.543
    1C        C  207   3.894   2.550   2.545
    1C        C  208   4.083   2.655   2.663
    1C        C  209   4.021   2.625   2.787
    1C        C  210   4.197   2.745   2.908
    1C        C  211   4.082   2.663   2.909
    1C        C  212   4.250   2.796   3.029
    1C        C  213   4.199   2.748   3.151
    1C        C  214   4.333   2.910   3.273
    1C        C  215   4.246   2.798   3.275
    1C        C  216   4.374   2.971   3.393
    1C        C  217   4.334   2.913   3.516
    1C        C  218   4.431   3.098   3.638
    1C        C  219   4.370   2.970   3.640
    1C        C  220   4.458   3.169   3.757
    1C        C  221   4.431   3.108   3.882
    1C        C  222   4.499   3.304   4.003
    1C        C  223   4.463   3.167   4.006
    1C        C  224   4.513   3.376   4.123
    1C        C  225   4.510   3.308   4.247
    1C        C  226   4.519   3.522   4.366
    1C        C  227   4.520   3.381   4.368
    1C        C  228   4.515   3.596   4.487
    1C        C  229   4.527   3.528   4.610
    1C        C  230   4.500   3.740   4.726
    1C        C  231   4.541   3.604   4.729
    1C        C  232   4.490   3.818   4.844
    1C        C  233   4.539   3.755   4.959
    1C        C  234   4.019   2.606   2.064
    1C        C  235   3.895   2.542   2.064
    1C        C  236   4.085   2.644   2.181
    1C        C  237   4.020   2.609   2.302
    1C        C  238   4.198   2.734   2.421
    1C        C  239   4.083   2.650   2.422
    1C        C  240   4.253   2.780   2.542
    1C        C  241   4.197   2.738   2.665
    1C        C  242   4.337   2.902   2.783
    1C        C  243   4.248   2.792   2.785
    1C        C  244   4.378   2.959   2.906
    1C        C  245   4.340   2.905   3.031
    1C        C  246   4.440   3.094   3.147
    1C        C  247   4.379   2.967   3.152
    1C        C  248   4.457   3.160   3.271
    1C        C  249   4.434   3.099   3.396
    1C        C  250   4.501   3.301   3.512
    1C        C  251   4.461   3.166   3.518
    1C        C  252   4.509   3.369   3.636
    1C        C  253   4.496   3.305   3.761
    1C        C  254   4.520   3.516   3.878
    1C        C  255   4.515   3.375   3.882
    1C        C  256   4.516   3.587   4.000
    1C        C  257   4.515   3.517   4.123
    1C        C  258   4.488   3.730   4.240
    1C        C  259   4.510   3.591   4.243
    1C        C  260   4.472   3.803   4.360
    1C        C  261   4.482   3.733   4.482
    1C        C  262   4.421   3.937   4.604
    1C        C  263   4.468   3.803   4.604
    1C        C  264   4.396   4.009   4.723
    1C        C  265   4.430   3.946   4.844
    1C        C  266   4.313   4.129   4.960
    1C        C  267   4.395   4.017   4.960
    1C        C  268   4.265   2.769   2.063
    1C        C  269   4.201   2.725   2.180
    1C        C  270   4.342   2.891   2.300
    1C        C  271   4.253   2.780   2.299
    1C        C  272   4.378   2.956   2.421
    1C        C  273   4.341   2.890   2.540
    1C        C  274   4.445   3.080   2.662
    1C        C  275   4.376   2.957   2.659
    1C        C  276   4.472   3.150   2.782
    1C        C  277   4.445   3.083   2.903
    1C        C  278   4.503   3.291   3.025
    1C        C  279   4.471   3.154   3.023
    1C        C  280   4.510   3.364   3.146
    1C        C  281   4.498   3.295   3.268
    1C        C  282   4.515   3.510   3.390
    1C        C  283   4.513   3.368   3.388
    1C        C  284   4.513   3.583   3.510
    1C        C  285   4.513   3.510   3.631
    1C        C  286   4.491   3.721   3.752
    1C        C  287   4.514   3.582   3.753
    1C        C  288   4.474   3.791   3.873
    1C        C  289   4.495   3.727   3.997
    1C        C  290   4.422   3.929   4.114
    1C        C  291   4.475   3.799   4.117
    1C        C  292   4.392   3.994   4.236
    1C        C  293   4.428   3.937   4.361
    1C        C  294   4.324   4.124   4.478
    1C        C  295   4.396   4.002   4.482
    1C        C  296   4.285   4.187   4.598
    1C        C  297   4.328   4.134   4.722
    1C        C  298   4.200   4.313   4.840
    1C        C  299   4.284   4.197   4.842
    1C        C  300   4.167   4.397   4.951
    1C        C  301   4.350   2.879   2.063
    1C        C  302   4.470   3.065   2.177
    1C        C  303   4.397   2.942   2.179
    1C        C  304   4.480   3.141   2.296
    1C        C  305   4.449   3.078   2.419
    1C        C  306   4.509   3.282   2.536
    1C        C  307   4.475   3.145   2.540
    1C        C  308   4.518   3.356   2.656
    1C        C  309   4.507   3.287   2.779
    1C        C  310   4.522   3.498   2.898
    1C        C  311   4.518   3.357   2.901
    1C        C  312   4.514   3.571   3.018
    1C        C  313   4.514   3.506   3.144
    1C        C  314   4.489   3.717   3.263
    1C        C  315   4.511   3.577   3.266
    1C        C  316   4.476   3.786   3.385
    1C        C  317   4.490   3.723   3.511
    1C        C  318   4.424   3.927   3.627
    1C        C  319   4.472   3.794   3.632
    1C        C  320   4.396   3.989   3.751
    1C        C  321   4.418   3.921   3.872
    1C        C  322   4.314   4.111   3.990
    1C        C  323   4.385   3.989   3.991
    1C        C  324   4.277   4.171   4.113
    1C        C  325   4.321   4.115   4.235
    1C        C  326   4.188   4.284   4.352
    1C        C  327   4.281   4.178   4.355
    1C        C  328   4.137   4.334   4.474
    1C        C  329   4.191   4.293   4.598
    1C        C  330   4.028   4.436   4.710
    1C        C  331   4.145   4.356   4.715
    1C        C  332   3.971   4.488   4.829
    1C        C  333   4.050   4.473   4.944
    1C        C  334   4.555   3.266   2.065
    1C        C  335   4.538   3.127   2.067
    1C        C  336   4.538   3.350   2.176
    1C        C  337   4.512   3.280   2.296
    1C        C  338   4.523   3.496   2.412
    1C        C  339   4.523   3.355   2.415
    1C        C  340   4.518   3.568   2.533
    1C        C  341   4.520   3.497   2.655
    1C        C  342   4.491   3.709   2.775
    1C        C  343   4.519   3.570   2.776
    1C        C  344   4.476   3.781   2.895
    1C        C  345   4.492   3.711   3.017
    1C        C  346   4.424   3.913   3.140
    1C        C  347   4.471   3.780   3.138
    1C        C  348   4.393   3.983   3.259
    1C        C  349   4.426   3.918   3.380
    1C        C  350   4.325   4.107   3.503
    1C        C  351   4.397   3.985   3.501
    1C        C  352   4.278   4.167   3.622
    1C        C  353   4.321   4.109   3.743
    1C        C  354   4.175   4.264   3.867
    1C        C  355   4.275   4.164   3.865
    1C        C  356   4.124   4.320   3.987
    1C        C  357   4.180   4.273   4.108
    1C        C  358   4.012   4.403   4.231
    1C        C  359   4.130   4.325   4.229
    1C        C  360   3.950   4.444   4.351
    1C        C  361   4.018   4.410   4.470
    1C        C  362   3.832   4.518   4.594
    1C        C  363   3.960   4.460   4.589
    1C        C  364   3.763   4.551   4.713
    1C        C  365   3.840   4.542   4.830
    1C        C  366   3.626   4.589   4.950
    1C        C  367   3.764   4.570   4.945
    1C        C  368   4.508   3.567   2.054
    1C        C  369   4.525   3.490   2.170
    1C        C  370   4.499   3.706   2.287
    1C        C  371   4.518   3.566   2.289
    1C        C  372   4.479   3.774   2.408
    1C        C  373   4.500   3.708   2.531
    1C        C  374   4.428   3.910   2.649
    1C        C  375   4.477   3.778   2.652
    1C        C  376   4.395   3.973   2.771
    1C        C  377   4.425   3.913   2.895
    1C        C  378   4.318   4.096   3.011
    1C        C  379   4.392   3.975   3.017
    1C        C  380   4.274   4.150   3.134
    1C        C  381   4.314   4.100   3.259
    1C        C  382   4.175   4.258   3.376
    1C        C  383   4.277   4.160   3.382
    1C        C  384   4.121   4.302   3.498
    1C        C  385   4.173   4.262   3.623
    1C        C  386   4.004   4.389   3.742
    1C        C  387   4.120   4.309   3.745
    1C        C  388   3.943   4.431   3.863
    1C        C  389   4.005   4.396   3.984
    1C        C  390   3.820   4.490   4.107
    1C        C  391   3.949   4.433   4.109
    1C        C  392   3.751   4.516   4.228
    1C        C  393   3.824   4.509   4.348
    1C        C  394   3.621   4.554   4.472
    1C        C  395   3.760   4.530   4.472
    1C        C  396   3.548   4.562   4.593
    1C        C  397   3.622   4.564   4.713
    1C        C  398   3.410   4.551   4.838
    1C        C  399   3.550   4.569   4.834
    1C        C  400   3.341   4.514   4.954
    1C        C  401   4.506   3.706   2.049
    1C        C  402   4.452   3.916   2.166
    1C        C  403   4.490   3.780   2.167
    1C        C  404   4.409   3.977   2.286
    1C        C  405   4.431   3.907   2.407
    1C        C  406   4.329   4.098   2.527
    1C        C  407   4.400   3.975   2.527
    1C        C  408   4.275   4.148   2.647
    1C        C  409   4.315   4.089   2.769
    1C        C  410   4.177   4.254   2.891
    1C        C  411   4.271   4.149   2.889
    1C        C  412   4.125   4.305   3.013
    1C        C  413   4.178   4.254   3.133
    1C        C  414   4.004   4.382   3.255
    1C        C  415   4.122   4.304   3.253
    1C        C  416   3.940   4.412   3.377
    1C        C  417   4.003   4.381   3.499
    1C        C  418   3.812   4.476   3.618
    1C        C  419   3.942   4.422   3.619
    1C        C  420   3.749   4.505   3.742
    1C        C  421   3.812   4.486   3.867
    1C        C  422   3.606   4.532   3.984
    1C        C  423   3.746   4.513   3.989
    1C        C  424   3.543   4.537   4.110
    1C        C  425   3.611   4.539   4.234
    1C        C  426   3.400   4.548   4.354
    1C        C  427   3.541   4.554   4.356
    1C        C  428   3.335   4.546   4.479
    1C        C  429   3.407   4.556   4.600
    1C        C  430   3.193   4.518   4.720
    1C        C  431   3.332   4.547   4.720
    1C        C  432   3.123   4.496   4.842
    1C        C  433   3.204   4.491   4.956
    1C        C  434   4.383   4.124   2.053
    1C        C  435   4.441   3.997   2.052
    1C        C  436   4.301   4.163   2.164
    1C        C  437   4.333   4.097   2.286
    1C        C  438   4.179   4.249   2.402
    1C        C  439   4.283   4.153   2.405
    1C        C  440   4.127   4.299   2.524
    1C        C  441   4.177   4.250   2.646
    1C        C  442   4.004   4.373   2.764
    1C        C  443   4.121   4.295   2.768
    1C        C  444   3.944   4.409   2.887
    1C        C  445   4.004   4.378   3.011
    1C        C  446   3.814   4.475   3.128
    1C        C  447   3.944   4.419   3.132
    1C        C  448   3.749   4.494   3.252
    1C        C  449   3.811   4.469   3.377
    1C        C  450   3.604   4.528   3.497
    1C        C  451   3.742   4.498   3.497
    1C        C  452   3.540   4.544   3.622
    1C        C  453   3.612   4.540   3.743
    1C        C  454   3.396   4.541   3.865
    1C        C  455   3.537   4.546   3.862
    1C        C  456   3.328   4.534   3.989
    1C        C  457   3.402   4.545   4.109
    1C        C  458   3.196   4.496   4.239
    1C        C  459   3.331   4.535   4.231
    1C        C  460   3.126   4.481   4.361
    1C        C  461   3.197   4.518   4.478
    1C        C  462   2.997   4.436   4.602
    1C        C  463   3.125   4.496   4.598
    1C        C  464   2.928   4.403   4.721
    1C        C  465   2.989   4.447   4.842
    1C        C  466   2.801   4.341   4.956
    1C        C  467   2.908   4.431   4.959
    1C        C  468   4.119   4.282   2.041
    1C        C  469   4.185   4.247   2.160
    1C        C  470   4.004   4.368   2.280
    1C        C  471   4.128   4.298   2.280
    1C        C  472   3.942   4.403   2.402
    1C        C  473   4.008   4.376   2.524
    1C        C  474   3.810   4.464   2.646
    1C        C  475   3.941   4.411   2.643
    1C        C  476   3.745   4.492   2.768
    1C        C  477   3.816   4.469   2.888
    1C        C  478   3.605   4.521   3.012
    1C        C  479   3.743   4.494   3.007
    1C        C  480   3.534   4.528   3.134
    1C        C  481   3.610   4.517   3.253
    1C        C  482   3.396   4.530   3.378
    1C        C  483   3.537   4.532   3.373
    1C        C  484   3.324   4.528   3.499
    1C        C  485   3.398   4.536   3.619
    1C        C  486   3.191   4.500   3.743
    1C        C  487   3.328   4.532   3.742
    1C        C  488   3.126   4.476   3.867
    1C        C  489   3.191   4.498   3.990
    1C        C  490   3.002   4.417   4.114
    1C        C  491   3.129   4.480   4.116
    1C        C  492   2.943   4.382   4.237
    1C        C  493   2.998   4.423   4.360
    1C        C  494   2.827   4.301   4.482
    1C        C  495   2.935   4.392   4.483
    1C        C  496   2.776   4.252   4.604
    1C        C  497   2.820   4.311   4.725
    1C        C  498   2.664   4.164   4.845
    1C        C  499   2.751   4.275   4.843
    1C        C  500   2.592   4.118   4.956
    1C        C  501   4.002   4.356   2.043
    1C        C  502   3.813   4.464   2.154
    1C        C  503   3.941   4.405   2.159
    1C        C  504   3.743   4.478   2.276
    1C        C  505   3.810   4.454   2.398
    1C        C  506   3.607   4.506   2.519
    1C        C  507   3.747   4.482   2.521
    1C        C  508   3.534   4.515   2.640
    1C        C  509   3.606   4.515   2.761
    1C        C  510   3.400   4.527   2.886
    1C        C  511   3.541   4.526   2.886
    1C        C  512   3.323   4.523   3.005
    1C        C  513   3.393   4.530   3.128
    1C        C  514   3.191   4.490   3.255
    1C        C  515   3.329   4.523   3.253
    1C        C  516   3.121   4.469   3.376
    1C        C  517   3.186   4.497   3.498
    1C        C  518   2.996   4.413   3.626
    1C        C  519   3.121   4.479   3.622
    1C        C  520   2.938   4.377   3.750
    1C        C  521   2.999   4.415   3.872
    1C        C  522   2.834   4.282   3.997
    1C        C  523   2.942   4.373   3.994
    1C        C  524   2.784   4.236   4.121
    1C        C  525   2.835   4.291   4.241
    1C        C  526   2.693   4.132   4.365
    1C        C  527   2.778   4.244   4.362
    1C        C  528   2.652   4.074   4.487
    1C        C  529   2.688   4.141   4.606
    1C        C  530   2.585   3.958   4.733
    1C        C  531   2.642   4.088   4.728
    1C        C  532   2.538   3.899   4.854
    1C        C  533   2.526   3.995   4.960
    1C        C  534   3.614   4.557   2.036
    1C        C  535   3.748   4.516   2.042
    1C        C  536   3.537   4.533   2.154
    1C        C  537   3.604   4.508   2.277
    1C        C  538   3.393   4.516   2.398
    1C        C  539   3.534   4.515   2.399
    1C        C  540   3.324   4.512   2.522
    1C        C  541   3.392   4.514   2.645
    1C        C  542   3.185   4.485   2.763
    1C        C  543   3.323   4.514   2.768
    1C        C  544   3.123   4.465   2.888
    1C        C  545   3.187   4.487   3.012
    1C        C  546   2.996   4.399   3.130
    1C        C  547   3.121   4.464   3.135
    1C        C  548   2.940   4.365   3.256
    1C        C  549   2.995   4.404   3.380
    1C        C  550   2.828   4.283   3.506
    1C        C  551   2.938   4.371   3.505
    1C        C  552   2.775   4.232   3.628
    1C        C  553   2.829   4.287   3.746
    1C        C  554   2.704   4.122   3.875
    1C        C  555   2.788   4.236   3.871
    1C        C  556   2.660   4.062   3.995
    1C        C  557   2.698   4.124   4.116
    1C        C  558   2.603   3.942   4.246
    1C        C  559   2.660   4.071   4.242
    1C        C  560   2.568   3.879   4.368
    1C        C  561   2.587   3.949   4.489
    1C        C  562   2.528   3.749   4.614
    1C        C  563   2.563   3.886   4.613
    1C        C  564   2.516   3.680   4.737
    1C        C  565   2.521   3.757   4.856
    1C        C  566   2.535   3.546   4.976
    1C        C  567   2.522   3.684   4.976
    1C        C  568   3.328   4.471   2.041
    1C        C  569   3.396   4.512   2.157
    1C        C  570   3.183   4.473   2.280
    1C        C  571   3.321   4.509   2.277
    1C        C  572   3.116   4.454   2.403
    1C        C  573   3.186   4.482   2.522
    1C        C  574   2.987   4.402   2.649
    1C        C  575   3.115   4.462   2.642
    1C        C  576   2.927   4.364   2.771
    1C        C  577   2.997   4.400   2.888
    1C        C  578   2.828   4.269   3.015
    1C        C  579   2.935   4.360   3.009
    1C        C  580   2.782   4.223   3.141
    1C        C  581   2.831   4.275   3.263
    1C        C  582   2.696   4.114   3.382
    1C        C  583   2.779   4.229   3.385
    1C        C  584   2.664   4.058   3.508
    1C        C  585   2.698   4.114   3.633
    1C        C  586   2.595   3.933   3.751
    1C        C  587   2.663   4.056   3.757
    1C        C  588   2.571   3.876   3.878
    1C        C  589   2.597   3.936   4.004
    1C        C  590   2.537   3.735   4.124
    1C        C  591   2.576   3.871   4.127
    1C        C  592   2.520   3.673   4.250
    1C        C  593   2.530   3.743   4.373
    1C        C  594   2.513   3.532   4.496
    1C        C  595   2.520   3.673   4.495
    1C        C  596   2.516   3.464   4.620
    1C        C  597   2.514   3.538   4.740
    1C        C  598   2.528   3.325   4.862
    1C        C  599   2.525   3.466   4.861
    1C        C  600   2.529   3.248   4.979
    1C        C  601   3.196   4.431   2.044
    1C        C  602   2.983   4.389   2.160
    1C        C  603   3.117   4.440   2.159
    1C        C  604   2.923   4.355   2.285
    1C        C  605   2.986   4.398   2.404
    1C        C  606   2.818   4.275   2.527
    1C        C  607   2.925   4.367   2.527
    1C        C  608   2.768   4.222   2.649
    1C        C  609   2.818   4.274   2.771
    1C        C  610   2.687   4.109   2.895
    1C        C  611   2.774   4.221   2.894
    1C        C  612   2.656   4.052   3.020
    1C        C  613   2.694   4.112   3.142
    1C        C  614   2.591   3.924   3.267
    1C        C  615   2.655   4.050   3.263
    1C        C  616   2.566   3.866   3.393
    1C        C  617   2.596   3.934   3.513
    1C        C  618   2.529   3.727   3.636
    1C        C  619   2.563   3.864   3.632
    1C        C  620   2.520   3.666   3.763
    1C        C  621   2.532   3.740   3.883
    1C        C  622   2.515   3.525   4.006
    1C        C  623   2.519   3.666   4.002
    1C        C  624   2.513   3.461   4.132
    1C        C  625   2.509   3.532   4.254
    1C        C  626   2.540   3.321   4.376
    1C        C  627   2.511   3.460   4.375
    1C        C  628   2.561   3.254   4.499
    1C        C  629   2.538   3.324   4.620
    1C        C  630   2.592   3.119   4.740
    1C        C  631   2.546   3.253   4.742
    1C        C  632   2.614   3.047   4.861
    1C        C  633   2.563   3.112   4.978
    1C        C  634   2.780   4.301   2.052
    1C        C  635   2.894   4.382   2.049
    1C        C  636   2.743   4.231   2.168
    1C        C  637   2.807   4.272   2.287
    1C        C  638   2.675   4.110   2.410
    1C        C  639   2.758   4.224   2.410
    1C        C  640   2.643   4.048   2.533
    1C        C  641   2.682   4.111   2.654
    1C        C  642   2.582   3.922   2.778
    1C        C  643   2.642   4.050   2.775
    1C        C  644   2.562   3.856   2.901
    1C        C  645   2.597   3.924   3.020
    1C        C  646   2.527   3.725   3.149
    1C        C  647   2.570   3.860   3.143
    1C        C  648   2.516   3.655   3.271
    1C        C  649   2.530   3.730   3.390
    1C        C  650   2.507   3.519   3.520
    1C        C  651   2.516   3.660   3.513
    1C        C  652   2.509   3.450   3.643
    1C        C  653   2.511   3.525   3.763
    1C        C  654   2.534   3.313   3.889
    1C        C  655   2.513   3.452   3.884
    1C        C  656   2.551   3.250   4.014
    1C        C  657   2.528   3.320   4.135
    1C        C  658   2.605   3.119   4.259
    1C        C  659   2.553   3.250   4.255
    1C        C  660   2.635   3.053   4.380
    1C        C  661   2.601   3.119   4.500
    1C        C  662   2.706   2.933   4.623
    1C        C  663   2.632   3.053   4.621
    1C        C  664   2.752   2.878   4.745
    1C        C  665   2.695   2.929   4.865
    1C        C  666   2.745   2.869   4.981
    1C        C  667   2.677   4.025   2.054
    1C        C  668   2.679   4.105   2.169
    1C        C  669   2.580   3.915   2.292
    1C        C  670   2.641   4.043   2.290
    1C        C  671   2.554   3.849   2.414
    1C        C  672   2.584   3.920   2.533
    1C        C  673   2.520   3.720   2.660
    1C        C  674   2.559   3.855   2.656
    1C        C  675   2.509   3.648   2.781
    1C        C  676   2.528   3.719   2.902
    1C        C  677   2.507   3.514   3.031
    1C        C  678   2.514   3.655   3.027
    1C        C  679   2.507   3.439   3.151
    1C        C  680   2.510   3.514   3.271
    1C        C  681   2.536   3.310   3.403
    1C        C  682   2.511   3.449   3.397
    1C        C  683   2.556   3.237   3.522
    1C        C  684   2.536   3.312   3.641
    1C        C  685   2.605   3.116   3.772
    1C        C  686   2.555   3.247   3.765
    1C        C  687   2.637   3.050   3.893
    1C        C  688   2.603   3.119   4.012
    1C        C  689   2.709   2.938   4.139
    1C        C  690   2.634   3.057   4.135
    1C        C  691   2.758   2.878   4.258
    1C        C  692   2.712   2.935   4.379
    1C        C  693   2.749   2.874   4.502
    1C        C  694   2.627   3.894   2.057
    1C        C  695   2.525   3.706   2.176
    1C        C  696   2.574   3.838   2.174
    1C        C  697   2.508   3.637   2.298
    1C        C  698   2.522   3.712   2.417
    1C        C  699   2.488   3.505   2.541
    1C        C  700   2.502   3.646   2.541
    1C        C  701   2.495   3.434   2.663
    1C        C  702   2.497   3.507   2.785
    1C        C  703   2.529   3.302   2.909
    1C        C  704   2.508   3.442   2.909
    1C        C  705   2.545   3.233   3.031
    1C        C  706   2.532   3.300   3.154
    1C        C  707   2.595   3.107   3.277
    1C        C  708   2.551   3.241   3.281
    1C        C  709   2.629   3.042   3.397
    1C        C  710   2.606   3.105   3.522
    1C        C  711   2.709   2.932   3.647
    1C        C  712   2.633   3.051   3.650
    1C        C  713   2.755   2.873   3.767
    1C        C  714   2.714   2.932   3.889
    1C        C  715   2.753   2.884   4.016
    1C        C  716   2.445   3.499   2.063
    1C        C  717   2.492   3.631   2.062
    1C        C  718   2.462   3.422   2.183
    1C        C  719   2.479   3.498   2.302
    1C        C  720   2.510   3.288   2.425
    1C        C  721   2.483   3.427   2.424
    1C        C  722   2.534   3.222   2.548
    1C        C  723   2.521   3.296   2.668
    1C        C  724   2.592   3.095   2.791
    1C        C  725   2.544   3.227   2.790
    1C        C  726   2.622   3.035   2.915
    1C        C  727   2.593   3.100   3.037
    1C        C  728   2.707   2.920   3.158
    1C        C  729   2.628   3.037   3.158
    1C        C  730   2.753   2.873   3.283
    1C        C  731   2.710   2.927   3.406
    1C        C  732   2.755   2.871   3.528
    1C        C  733   2.495   3.198   2.073
    1C        C  734   2.487   3.281   2.185
    1C        C  735   2.576   3.083   2.306
    1C        C  736   2.519   3.213   2.306
    1C        C  737   2.611   3.020   2.428
    1C        C  738   2.583   3.090   2.547
    1C        C  739   2.699   2.912   2.671
    1C        C  740   2.618   3.028   2.669
    1C        C  741   2.744   2.858   2.793
    1C        C  742   2.701   2.917   2.914
    1C        C  743   2.751   2.866   3.035
    1C        C  744   2.545   3.068   2.074
    1C        C  745   2.684   2.896   2.188
    1C        C  746   2.607   3.014   2.187
    1C        C  747   2.729   2.838   2.308
    1C        C  748   2.689   2.902   2.427
    1C        C  749   2.738   2.851   2.549
    1C        C  750   2.738   2.839   2.071
    1C        C  751   3.655   2.298   1.994
    1C        O  752   3.649   2.180   2.037
    1C        O  753   3.622   2.300   1.857
    1C        C  754   4.600   3.057   1.953
    1C        O  755   4.538   3.040   1.845
    1C        O  756   4.738   3.035   1.937
    1C        C  757   4.448   4.234   1.978
    1C        O  758   4.448   4.354   2.016
    1C        O  759   4.426   4.248   1.840
    1C        C  760   3.581   4.667   1.943
    1C        O  761   3.518   4.771   1.976
    1C        O  762   3.559   4.639   1.807
    1C        C  763   2.869   4.505   1.970
    1C        O  764   2.913   4.511   1.851
    1C        O  765   2.791   4.613   2.012
    1C        C  766   2.331   3.473   1.972
    1C        O  767   2.356   3.435   1.855
    1C        O  768   2.202   3.441   2.016
    1C        C  769   4.680   3.594   5.067
    1C        O  770   4.665   3.622   5.189
    1C        O  771   4.813   3.619   5.034
    1C        C  772   4.266   4.430   5.056
    1C        O  773   4.242   4.403   5.177
    1C        O  774   4.348   4.543   5.041
    1C        C  775   4.143   2.534   5.082
    1C        O  776   4.237   2.453   5.059
    1C        O  777   4.125   2.521   5.220
    1C        C  778   2.893   4.553   5.041
    1C        O  779   2.857   4.665   4.996
    1C        O  780   2.894   4.544   5.181
    1C        C  781   2.504   3.040   5.093
    1C        O  782   2.378   3.036   5.100
    1C        O  783   2.562   3.038   5.219
    1C        C  784   2.424   3.991   5.068
    1C        O  785   2.311   4.045   5.055
    1C        O  786   2.454   3.953   5.199
    1C        C  787   2.947   2.430   1.995
    1C        O  788   2.956   2.441   1.870
    1C        O  789   2.908   2.303   2.034
    1C        C  790   3.160   2.357   5.027
    1C        O  791   3.149   2.252   4.959
    1C        O  792   3.166   2.330   5.165
    1C        H  793   4.267   3.035   5.050
    1C        H  794   4.209   2.798   5.070
    1C        H  795   4.501   3.125   5.059
    1C        H  796   4.559   3.362   5.064
    1C        H  797   4.591   3.815   5.031
    1C        H  798   4.464   4.013   5.042
    1C        H  799   4.335   4.192   5.044
    1C        H  800   4.020   4.520   5.035
    1C        H  801   3.817   4.613   5.027
    1C        H  802   3.588   4.661   5.019
    1C        H  803   3.396   4.463   5.031
    1C        H  804   3.169   4.428   5.035
    1C        H  805   3.877   2.538   5.070
    1C        H  806   3.680   2.443   5.068
    1C        H  807   3.022   2.590   5.074
    1C        H  808   3.443   2.456   5.078
    1C        H  809   2.894   2.772   5.076
    1C        H  810   2.680   2.856   5.066
    1C        H  811   2.551   3.295   5.073
    1C        H  812   2.570   3.499   5.066
    1C        H  813   2.506   3.733   5.070
    1C        H  814   2.554   4.195   5.020
    1C        H  815   2.755   4.318   5.049
    1C        H  816   2.746   2.900   1.983
    1C        H  817   2.869   2.708   1.976
    1C        H  818   3.191   2.372   2.026
    1C        H  819   3.433   2.460   1.977
    1C        H  820   3.857   2.515   1.968
    1C        H  821   4.078   2.595   1.975
    1C        H  822   4.255   2.714   1.972
    1C        H  823   4.344   2.936   1.972
    1C        H  824   4.599   3.307   1.977
    1C        H  825   4.500   3.523   1.957
    1C        H  826   4.536   3.757   1.960
    1C        H  827   3.816   4.552   1.968
    1C        H  828   3.956   4.366   1.947
    1C        H  829   4.159   4.248   1.948
    1C        H  830   4.496   3.966   1.965
    1C        H  831   2.670   3.824   1.989
    1C        H  832   2.670   4.066   1.955
    1C        H  833   2.739   4.269   1.958
    1C        H  834   3.382   4.451   1.952
    1C        H  835   3.142   4.432   1.951
    1C        H  836   2.573   3.025   1.980
    1C        H  837   2.460   3.241   1.981
    1C        H  838   2.507   3.674   1.966
    2V3OU   H29  839   2.792   3.550   0.705
    2V3OU   C27  840   2.778   3.502   0.805
    2V3OU   H27  841   2.720   3.570   0.874
    2V3OU   H28  842   2.726   3.405   0.785
    2V3OU   O11  843   2.905   3.477   0.865
    2V3OU   C15  844   2.920   3.397   0.977
    2V3OU   C13  845   3.051   3.373   1.025
    2V3OU   C14  846   3.076   3.267   1.113
    2V3OU   C16  847   2.976   3.181   1.157
    2V3OU    H6  848   2.997   3.105   1.233
    2V3OU   C12  849   3.216   3.225   1.134
    2V3OU    O2  850   3.245   3.121   1.198
    2V3OU   C10  851   3.327   3.305   1.080
    2V3OU    C8  852   3.459   3.270   1.107
    2V3OU   O10  853   3.491   3.151   1.164
    2V3OU   H26  854   3.405   3.118   1.194
    2V3OU    C6  855   3.565   3.353   1.058
    2V3OU    C5  856   3.536   3.466   0.983
    2V3OU    C4  857   3.702   3.296   1.053
    2V3OU    H4  858   3.727   3.232   1.143
    2V3OU    H5  859   3.710   3.233   0.959
    2V3OU    C2  860   3.815   3.399   1.045
    2V3OU    O6  861   3.811   3.477   1.165
    2V3OU   H21  862   3.759   3.556   1.145
    2V3OU    C3  863   3.781   3.493   0.929
    2V3OU    H2  864   3.862   3.571   0.929
    2V3OU    H3  865   3.781   3.435   0.834
    2V3OU   C25  866   3.952   3.332   1.033
    2V3OU    O7  867   4.008   3.296   0.930
    2V3OU   C26  868   4.033   3.293   1.156
    2V3OU   H22  869   4.062   3.384   1.215
    2V3OU   H23  870   4.124   3.235   1.126
    2V3OU    O8  871   3.963   3.207   1.242
    2V3OU   H24  872   3.923   3.265   1.309
    2V3OU    C1  873   3.645   3.561   0.946
    2V3OU    H1  874   3.628   3.619   0.850
    2V3OU    O3  875   3.653   3.654   1.054
    2V3OU   C19  876   3.616   3.791   1.041
    2V3OU    H9  877   3.518   3.796   0.984
    2V3OU    O4  878   3.714   3.848   0.957
    2V3OU   C20  879   3.844   3.875   1.011
    2V3OU   H10  880   3.892   3.774   1.028
    2V3OU   C24  881   3.611   3.854   1.180
    2V3OU   H16  882   3.542   3.789   1.239
    2V3OU   H17  883   3.567   3.955   1.160
    2V3OU   C23  884   3.751   3.874   1.240
    2V3OU   H15  885   3.789   3.768   1.256
    2V3OU    N1  886   3.741   3.951   1.362
    2V3OU   H19  887   3.814   3.922   1.424
    2V3OU   H20  888   3.651   3.929   1.400
    2V3OU   C21  889   3.849   3.949   1.144
    2V3OU   H11  890   3.947   3.915   1.188
    2V3OU    O5  891   3.830   4.090   1.146
    2V3OU   H18  892   3.783   4.100   1.230
    2V3OU   C22  893   3.915   3.947   0.897
    2V3OU   H12  894   3.867   4.046   0.874
    2V3OU   H13  895   3.905   3.888   0.802
    2V3OU   H14  896   4.023   3.958   0.922
    2V3OU   C11  897   3.159   3.466   0.991
    2V3OU    O1  898   3.136   3.589   0.978
    2V3OU    C9  899   3.299   3.422   1.003
    2V3OU    C7  900   3.401   3.504   0.956
    2V3OU    O9  901   3.384   3.621   0.884
    2V3OU   H25  902   3.287   3.632   0.878
    2V3OU   C17  903   2.820   3.316   1.033
    2V3OU    H7  904   2.716   3.340   1.011
    2V3OU   C18  905   2.845   3.209   1.118
    2V3OU    H8  906   2.756   3.151   1.145
    3SOL     OW  907   0.673   4.438   1.172
    3SOL    HW1  908   0.618   4.521   1.172
    3SOL    HW2  909   0.676   4.399   1.264
    4SOL     OW  910   6.110   1.992   2.533
    4SOL    HW1  911   6.050   2.062   2.495
    4SOL    HW2  912   6.147   2.022   2.621
    5SOL     OW  913   4.419   3.199   0.412
    5SOL    HW1  914   4.429   3.211   0.313
    5SOL    HW2  915   4.373   3.112   0.431
    6SOL     OW  916   3.402   2.694   0.526
    6SOL    HW1  917   3.378   2.706   0.430
    6SOL    HW2  918   3.331   2.642   0.573
    7SOL     OW  919   5.837   0.977   1.581
    7SOL    HW1  920   5.805   0.940   1.494
    7SOL    HW2  921   5.765   0.968   1.650
    8SOL     OW  922   3.114   2.203   2.906
    8SOL    HW1  923   3.112   2.115   2.953
    8SOL    HW2  924   3.207   2.224   2.877
    9SOL     OW  925   6.658   4.143   6.675
    9SOL    HW1  926   6.633   4.213   6.608
    9SOL    HW2  927   6.730   4.084   6.637
   10SOL     OW  928   6.600   4.126   1.815
   10SOL    HW1  929   6.638   4.206   1.767
   10SOL    HW2  930   6.672   4.059   1.831
   11SOL     OW  931   4.001   6.652   0.811
   11SOL    HW1  932   4.018   6.688   0.720
   11SOL    HW2  933   3.911   6.683   0.843
   12SOL     OW  934   5.442   6.651   2.355
   12SOL    HW1  935   5.502   6.730   2.367
   12SOL    HW2  936   5.456   6.586   2.430
   13SOL     OW  937   2.174   6.477   2.016
   13SOL    HW1  938   2.176   6.431   1.927
   13SOL    HW2  939   2.166   6.576   2.001
   14SOL     OW  940   2.709   0.397   3.149
   14SOL    HW1  941   2.699   0.493   3.177
   14SOL    HW2  942   2.788   0.357   3.195
   15SOL     OW  943   2.646   6.859   6.192
   15SOL    HW1  944   2.731   6.865   6.140
   15SOL    HW2  945   2.568   6.867   6.130
   16SOL     OW  946   6.186   1.590   0.272
   16SOL    HW1  947   6.091   1.620   0.277
   16SOL    HW2  948   6.190   1.491   0.277
   17SOL     OW  949   4.134   5.338   4.059
   17SOL    HW1  950   4.180   5.313   4.144
   17SOL    HW2  951   4.093   5.429   4.070
   18SOL     OW  952   1.092   0.193   6.965
   18SOL    HW1  953   1.021   0.141   7.012
   18SOL    HW2  954   1.051   0.272   6.920
   19SOL     OW  955   0.673   0.065   0.811
   19SOL    HW1  956   0.679   0.163   0.793
   19SOL    HW2  957   0.622   0.050   0.896
   20SOL     OW  958   3.519   0.093   4.644
   20SOL    HW1  959   3.579   0.127   4.717
   20SOL    HW2  960   3.444   0.158   4.630
   21SOL     OW  961   2.829   3.056   1.412
   21SOL    HW1  962   2.784   3.130   1.461
   21SOL    HW2  963   2.928   3.068   1.416
   22SOL     OW  964   2.032   1.117   5.207
   22SOL    HW1  965   2.045   1.035   5.262
   22SOL    HW2  966   1.935   1.142   5.207
   23SOL     OW  967   2.682   6.692   4.313
   23SOL    HW1  968   2.588   6.660   4.299
   23SOL    HW2  969   2.715   6.733   4.228
   24SOL     OW  970   4.762   1.749   5.107
   24SOL    HW1  971   4.752   1.651   5.121
   24SOL    HW2  972   4.857   1.776   5.125
   25SOL     OW  973   2.650   6.097   0.774
   25SOL    HW1  974   2.562   6.049   0.769
   25SOL    HW2  975   2.644   6.170   0.842
   26SOL     OW  976   5.903   0.750   3.000
   26SOL    HW1  977   5.822   0.702   3.032
   26SOL    HW2  978   5.980   0.686   2.997
   27SOL     OW  979   6.170   6.788   2.471
   27SOL    HW1  980   6.167   6.887   2.460
   27SOL    HW2  981   6.213   6.747   2.391
   28SOL     OW  982   2.524   1.023   0.266
   28SOL    HW1  983   2.548   1.086   0.192
   28SOL    HW2  984   2.606   1.000   0.317
   29SOL     OW  985   4.906   3.224   1.857
   29SOL    HW1  986   4.852   3.156   1.907
   29SOL    HW2  987   4.954   3.180   1.781
   30SOL     OW  988   3.936   1.151   7.018
   30SOL    HW1  989   3.887   1.133   6.933
   30SOL    HW2  990   4.000   1.076   0.013
   31SOL     OW  991   1.249   1.844   5.059
   31SOL    HW1  992   1.283   1.751   5.075
   31SOL    HW2  993   1.265   1.869   4.964
   32SOL     OW  994   6.230   1.766   2.660
   32SOL    HW1  995   6.326   1.792   2.670
   32SOL    HW2  996   6.184   1.831   2.600
   33SOL     OW  997   1.574   1.112   4.747
   33SOL    HW1  998   1.485   1.152   4.727
   33SOL    HW2  999   1.631   1.114   4.665
   34SOL     OW 1000   0.864   1.032   4.639
   34SOL    HW1 1001   0.963   1.033   4.656
   34SOL    HW2 1002   0.824   0.951   4.681
   35SOL     OW 1003   4.679   2.181   6.364
   35SOL    HW1 1004   4.609   2.252   6.366
   35SOL    HW2 1005   4.652   2.109   6.300
   36SOL     OW 1006   1.026   2.708   6.719
   36SOL    HW1 1007   1.107   2.670   6.677
   36SOL    HW2 1008   0.971   2.755   6.650
   37SOL     OW 1009   3.641   6.639   1.966
   37SOL    HW1 1010   3.598   6.721   1.929
   37SOL    HW2 1011   3.573   6.566   1.974
   38SOL     OW 1012   6.569   5.375   1.229
   38SOL    HW1 1013   6.590   5.300   1.292
   38SOL    HW2 1014   6.479   5.413   1.252
   39SOL     OW 1015   0.119   2.684   6.432
   39SOL    HW1 1016   0.056   2.654   6.504
   39SOL    HW2 1017   0.077   2.666   6.343
   40SOL     OW 1018   0.052   2.101   1.957
   40SOL    HW1 1019   0.113   2.029   1.992
   40SOL    HW2 1020   0.107   2.171   1.912
   41SOL     OW 1021   0.690   1.644   6.244
   41SOL    HW1 1022   0.759   1.577   6.269
   41SOL    HW2 1023   0.732   1.716   6.189
   42SOL     OW 1024   4.471   6.603   0.508
   42SOL    HW1 1025   4.448   6.550   0.427
   42SOL    HW2 1026   4.423   6.565   0.587
   43SOL     OW 1027   4.441   5.211   5.720
   43SOL    HW1 1028   4.452   5.139   5.789
   43SOL    HW2 1029   4.344   5.232   5.709
   44SOL     OW 1030   0.862   4.964   6.790
   44SOL    HW1 1031   0.823   5.033   6.851
   44SOL    HW2 1032   0.807   4.880   6.796
   45SOL     OW 1033   2.465   6.894   0.508
   45SOL    HW1 1034   2.380   6.923   0.464
   45SOL    HW2 1035   2.512   6.827   0.450
   46SOL     OW 1036   0.614   5.438   4.069
   46SOL    HW1 1037   0.612   5.400   3.976
   46SOL    HW2 1038   0.697   5.408   4.116
   47SOL     OW 1039   6.767   4.304   2.667
   47SOL    HW1 1040   6.786   4.386   2.613
   47SOL    HW2 1041   6.770   4.224   2.609
   48SOL     OW 1042   0.985   1.989   5.295
   48SOL    HW1 1043   0.922   2.067   5.290
   48SOL    HW2 1044   1.054   2.007   5.365
   49SOL     OW 1045   5.563   3.657   6.726
   49SOL    HW1 1046   5.573   3.659   6.627
   49SOL    HW2 1047   5.486   3.598   6.751
   50SOL     OW 1048   0.762   4.139   4.497
   50SOL    HW1 1049   0.694   4.092   4.554
   50SOL    HW2 1050   0.854   4.109   4.522
   51SOL     OW 1051   2.248   6.452   1.425
   51SOL    HW1 1052   2.185   6.527   1.406
   51SOL    HW2 1053   2.236   6.422   1.520
   52SOL     OW 1054   0.628   2.441   2.327
   52SOL    HW1 1055   0.728   2.437   2.338
   52SOL    HW2 1056   0.585   2.437   2.418
   53SOL     OW 1057   4.632   6.731   3.709
   53SOL    HW1 1058   4.643   6.635   3.736
   53SOL    HW2 1059   4.719   6.765   3.673
   54SOL     OW 1060   4.795   4.357   5.546
   54SOL    HW1 1061   4.757   4.265   5.554
   54SOL    HW2 1062   4.893   4.352   5.531
   55SOL     OW 1063   4.636   2.688   1.400
   55SOL    HW1 1064   4.548   2.641   1.409
   55SOL    HW2 1065   4.703   2.643   1.458
   56SOL     OW 1066   6.764   0.920   1.863
   56SOL    HW1 1067   6.800   0.887   1.950
   56SOL    HW2 1068   6.728   1.012   1.875
   57SOL     OW 1069   4.957   0.640   6.536
   57SOL    HW1 1070   5.053   0.628   6.512
   57SOL    HW2 1071   4.947   0.720   6.595
   58SOL     OW 1072   6.651   0.798   6.889
   58SOL    HW1 1073   6.719   0.724   6.882
   58SOL    HW2 1074   6.587   0.791   6.813
   59SOL     OW 1075   0.782   0.231   5.549
   59SOL    HW1 1076   0.732   0.298   5.603
   59SOL    HW2 1077   0.756   0.138   5.578
   60SOL     OW 1078   4.493   6.700   5.755
   60SOL    HW1 1079   4.543   6.618   5.783
   60SOL    HW2 1080   4.490   6.764   5.831
   61SOL     OW 1081   3.312   0.497   5.576
   61SOL    HW1 1082   3.232   0.457   5.531
   61SOL    HW2 1083   3.287   0.585   5.617
   62SOL     OW 1084   2.999   0.495   4.491
   62SOL    HW1 1085   3.048   0.516   4.407
   62SOL    HW2 1086   3.010   0.398   4.513
   63SOL     OW 1087   0.016   3.818   4.351
   63SOL    HW1 1088   0.116   3.815   4.349
   63SOL    HW2 1089   7.006   3.795   4.443
   64SOL     OW 1090   6.866   1.667   6.281
   64SOL    HW1 1091   6.779   1.662   6.331
   64SOL    HW2 1092   6.942   1.665   6.346
   65SOL     OW 1093   1.511   4.507   5.226
   65SOL    HW1 1094   1.437   4.531   5.288
   65SOL    HW2 1095   1.594   4.486   5.278
   66SOL     OW 1096   2.900   1.008   1.017
   66SOL    HW1 1097   2.805   0.977   1.021
   66SOL    HW2 1098   2.960   0.929   1.010
   67SOL     OW 1099   4.699   5.192   4.411
   67SOL    HW1 1100   4.681   5.150   4.500
   67SOL    HW2 1101   4.760   5.133   4.358
   68SOL     OW 1102   5.426   2.492   6.994
   68SOL    HW1 1103   5.461   2.567   6.937
   68SOL    HW2 1104   5.426   2.407   6.941
   69SOL     OW 1105   2.615   3.435   5.653
   69SOL    HW1 1106   2.668   3.507   5.698
   69SOL    HW2 1107   2.667   3.350   5.652
   70SOL     OW 1108   5.438   0.922   3.697
   70SOL    HW1 1109   5.445   0.867   3.780
   70SOL    HW2 1110   5.362   0.986   3.705
   71SOL     OW 1111   1.782   4.382   1.640
   71SOL    HW1 1112   1.704   4.321   1.652
   71SOL    HW2 1113   1.867   4.330   1.649
   72SOL     OW 1114   4.055   5.601   4.054
   72SOL    HW1 1115   4.065   5.622   3.957
   72SOL    HW2 1116   3.970   5.639   4.088
   73SOL     OW 1117   3.385   2.794   7.011
   73SOL    HW1 1118   3.392   2.810   6.912
   73SOL    HW2 1119   3.290   2.777   0.014
   74SOL     OW 1120   5.255   6.845   4.796
   74SOL    HW1 1121   5.284   6.905   4.722
   74SOL    HW2 1122   5.333   6.823   4.855
   75SOL     OW 1123   3.768   5.596   5.493
   75SOL    HW1 1124   3.804   5.654   5.420
   75SOL    HW2 1125   3.679   5.631   5.522
   76SOL     OW 1126   2.380   2.962   1.021
   76SOL    HW1 1127   2.372   2.930   0.927
   76SOL    HW2 1128   2.337   3.052   1.030
   77SOL     OW 1129   6.176   4.066   6.807
   77SOL    HW1 1130   6.255   4.013   6.778
   77SOL    HW2 1131   6.152   4.132   6.735
   78SOL     OW 1132   6.043   6.844   5.396
   78SOL    HW1 1133   6.043   6.925   5.337
   78SOL    HW2 1134   6.041   6.872   5.492
   79SOL     OW 1135   3.358   6.376   0.484
   79SOL    HW1 1136   3.437   6.330   0.443
   79SOL    HW2 1137   3.316   6.436   0.416
   80SOL     OW 1138   0.557   1.509   4.424
   80SOL    HW1 1139   0.577   1.567   4.345
   80SOL    HW2 1140   0.640   1.496   4.478
   81SOL     OW 1141   1.133   5.553   2.697
   81SOL    HW1 1142   1.116   5.613   2.619
   81SOL    HW2 1143   1.141   5.608   2.780
   82SOL     OW 1144   6.490   4.278   5.893
   82SOL    HW1 1145   6.470   4.287   5.795
   82SOL    HW2 1146   6.552   4.352   5.921
   83SOL     OW 1147   5.496   6.987   5.017
   83SOL    HW1 1148   5.409   6.938   5.017
   83SOL    HW2 1149   5.494   0.037   4.947
   84SOL     OW 1150   6.822   2.911   2.226
   84SOL    HW1 1151   6.872   2.903   2.140
   84SOL    HW2 1152   6.725   2.893   2.210
   85SOL     OW 1153   1.275   1.151   5.031
   85SOL    HW1 1154   1.360   1.203   5.028
   85SOL    HW2 1155   1.283   1.070   4.973
   86SOL     OW 1156   1.657   0.959   3.833
   86SOL    HW1 1157   1.709   0.958   3.747
   86SOL    HW2 1158   1.683   0.879   3.888
   87SOL     OW 1159   4.518   7.016   1.497
   87SOL    HW1 1160   4.519   7.000   1.596
   87SOL    HW2 1161   4.494   0.089   1.480
   88SOL     OW 1162   5.546   0.728   1.447
   88SOL    HW1 1163   5.579   0.774   1.530
   88SOL    HW2 1164   5.526   0.632   1.469
   89SOL     OW 1165   1.862   2.050   5.453
   89SOL    HW1 1166   1.776   2.077   5.411
   89SOL    HW2 1167   1.935   2.112   5.423
   90SOL     OW 1168   5.645   6.050   3.265
   90SOL    HW1 1169   5.549   6.076   3.275
   90SOL    HW2 1170   5.653   5.951   3.265
   91SOL     OW 1171   5.538   5.196   3.762
   91SOL    HW1 1172   5.505   5.225   3.852
   91SOL    HW2 1173   5.579   5.274   3.714
   92SOL     OW 1174   3.508   5.615   1.039
   92SOL    HW1 1175   3.575   5.605   1.112
   92SOL    HW2 1176   3.422   5.651   1.076
   93SOL     OW 1177   3.341   4.969   5.505
   93SOL    HW1 1178   3.418   4.960   5.569
   93SOL    HW2 1179   3.269   4.904   5.531
   94SOL     OW 1180   1.848   6.269   2.393
   94SOL    HW1 1181   1.904   6.234   2.319
   94SOL    HW2 1182   1.752   6.243   2.379
   95SOL     OW 1183   0.138   0.248   4.132
   95SOL    HW1 1184   0.056   0.299   4.158
   95SOL    HW2 1185   0.131   0.220   4.036
   96SOL     OW 1186   1.878   6.827   4.487
   96SOL    HW1 1187   1.815   6.887   4.537
   96SOL    HW2 1188   1.955   6.803   4.546
   97SOL     OW 1189   6.622   1.814   3.819
   97SOL    HW1 1190   6.615   1.879   3.743
   97SOL    HW2 1191   6.605   1.861   3.905
   98SOL     OW 1192   4.909   1.158   5.427
   98SOL    HW1 1193   4.948   1.186   5.515
   98SOL    HW2 1194   4.810   1.172   5.429
   99SOL     OW 1195   4.907   1.064   0.848
   99SOL    HW1 1196   4.939   0.979   0.806
   99SOL    HW2 1197   4.982   1.106   0.900
  100SOL     OW 1198   6.377   5.991   1.046
  100SOL    HW1 1199   6.280   5.970   1.036
  100SOL    HW2 1200   6.403   5.984   1.142
  101SOL     OW 1201   1.585   6.669   3.267
  101SOL    HW1 1202   1.651   6.740   3.292
  101SOL    HW2 1203   1.582   6.660   3.167
  102SOL     OW 1204   4.759   0.759   2.216
  102SOL    HW1 1205   4.824   0.684   2.199
  102SOL    HW2 1206   4.783   0.804   2.302
  103SOL     OW 1207   4.733   0.912   3.085
  103SOL    HW1 1208   4.740   0.849   3.008
  103SOL    HW2 1209   4.813   0.903   3.143
  104SOL     OW 1210   6.511   6.431   2.376
  104SOL    HW1 1211   6.596   6.484   2.375
  104SOL    HW2 1212   6.532   6.334   2.383
  105SOL     OW 1213   5.774   1.174   5.648
  105SOL    HW1 1214   5.859   1.215   5.615
  105SOL    HW2 1215   5.770   1.078   5.620
  106SOL     OW 1216   4.260   6.772   0.845
  106SOL    HW1 1217   4.278   6.825   0.928
  106SOL    HW2 1218   4.169   6.730   0.851
  107SOL     OW 1219   2.781   3.750   6.965
  107SOL    HW1 1220   2.853   3.730   6.899
  107SOL    HW2 1221   2.817   3.811   0.014
  108SOL     OW 1222   4.316   4.223   5.584
  108SOL    HW1 1223   4.252   4.179   5.521
  108SOL    HW2 1224   4.408   4.189   5.566
  109SOL     OW 1225   6.003   1.085   2.415
  109SOL    HW1 1226   6.027   1.017   2.346
  109SOL    HW2 1227   5.909   1.071   2.446
  110SOL     OW 1228   3.882   6.327   4.009
  110SOL    HW1 1229   3.964   6.305   3.957
  110SOL    HW2 1230   3.876   6.426   4.023
  111SOL     OW 1231   3.460   1.332   3.116
  111SOL    HW1 1232   3.386   1.331   3.049
  111SOL    HW2 1233   3.428   1.292   3.202
  112SOL     OW 1234   0.051   1.738   0.243
  112SOL    HW1 1235   7.005   1.699   0.305
  112SOL    HW2 1236   0.080   1.827   0.278
  113SOL     OW 1237   0.133   6.967   3.394
  113SOL    HW1 1238   0.079   0.010   3.447
  113SOL    HW2 1239   0.162   6.892   3.453
  114SOL     OW 1240   1.643   5.769   0.577
  114SOL    HW1 1241   1.555   5.743   0.617
  114SOL    HW2 1242   1.656   5.868   0.587
  115SOL     OW 1243   5.159   1.150   5.596
  115SOL    HW1 1244   5.210   1.180   5.515
  115SOL    HW2 1245   5.122   1.059   5.579
  116SOL     OW 1246   6.306   3.693   2.812
  116SOL    HW1 1247   6.233   3.689   2.744
  116SOL    HW2 1248   6.267   3.716   2.901
  117SOL     OW 1249   0.398   6.726   6.325
  117SOL    HW1 1250   0.457   6.647   6.307
  117SOL    HW2 1251   0.356   6.756   6.240
  118SOL     OW 1252   2.895   1.582   3.643
  118SOL    HW1 1253   2.902   1.516   3.568
  118SOL    HW2 1254   2.977   1.639   3.646
  119SOL     OW 1255   6.988   2.464   6.846
  119SOL    HW1 1256   6.917   2.412   6.800
  119SOL    HW2 1257   6.954   2.496   6.935
  120SOL     OW 1258   4.188   5.789   1.607
  120SOL    HW1 1259   4.266   5.846   1.630
  120SOL    HW2 1260   4.192   5.762   1.510
  121SOL     OW 1261   3.025   2.620   6.494
  121SOL    HW1 1262   2.970   2.557   6.548
  121SOL    HW2 1263   3.001   2.714   6.519
  122SOL     OW 1264   1.377   3.835   4.482
  122SOL    HW1 1265   1.366   3.902   4.555
  122SOL    HW2 1266   1.457   3.858   4.427
  123SOL     OW 1267   6.575   2.203   1.994
  123SOL    HW1 1268   6.511   2.132   1.967
  123SOL    HW2 1269   6.600   2.192   2.090
  124SOL     OW 1270   4.862   3.690   1.888
  124SOL    HW1 1271   4.811   3.613   1.927
  124SOL    HW2 1272   4.828   3.710   1.796
  125SOL     OW 1273   2.219   3.221   1.356
  125SOL    HW1 1274   2.235   3.123   1.360
  125SOL    HW2 1275   2.220   3.259   1.449
  126SOL     OW 1276   3.881   4.979   0.569
  126SOL    HW1 1277   3.948   5.027   0.513
  126SOL    HW2 1278   3.902   4.882   0.572
  127SOL     OW 1279   0.189   5.930   6.251
  127SOL    HW1 1280   0.108   5.873   6.254
  127SOL    HW2 1281   0.188   5.985   6.167
  128SOL     OW 1282   5.189   1.964   7.004
  128SOL    HW1 1283   5.130   1.921   6.936
  128SOL    HW2 1284   5.273   1.910   7.015
  129SOL     OW 1285   2.470   3.911   6.812
  129SOL    HW1 1286   2.469   3.944   6.717
  129SOL    HW2 1287   2.403   3.963   6.865
  130SOL     OW 1288   1.322   1.923   4.765
  130SOL    HW1 1289   1.389   1.853   4.738
  130SOL    HW2 1290   1.230   1.888   4.750
  131SOL     OW 1291   6.149   1.497   2.645
  131SOL    HW1 1292   6.150   1.595   2.626
  131SOL    HW2 1293   6.240   1.468   2.675
  132SOL     OW 1294   0.952   1.582   2.653
  132SOL    HW1 1295   0.928   1.538   2.740
  132SOL    HW2 1296   1.031   1.641   2.666
  133SOL     OW 1297   0.038   5.824   2.978
  133SOL    HW1 1298   0.028   5.732   2.940
  133SOL    HW2 1299   6.970   5.861   3.001
  134SOL     OW 1300   0.960   3.734   2.989
  134SOL    HW1 1301   1.012   3.730   2.903
  134SOL    HW2 1302   0.998   3.667   3.053
  135SOL     OW 1303   5.001   0.802   4.413
  135SOL    HW1 1304   5.021   0.747   4.495
  135SOL    HW2 1305   5.077   0.864   4.396
  136SOL     OW 1306   4.867   5.710   6.021
  136SOL    HW1 1307   4.952   5.750   6.054
  136SOL    HW2 1308   4.832   5.646   6.090
  137SOL     OW 1309   4.047   1.163   5.794
  137SOL    HW1 1310   4.079   1.181   5.887
  137SOL    HW2 1311   3.962   1.213   5.778
  138SOL     OW 1312   5.473   4.821   5.518
  138SOL    HW1 1313   5.380   4.818   5.481
  138SOL    HW2 1314   5.508   4.915   5.510
  139SOL     OW 1315   3.703   5.340   5.077
  139SOL    HW1 1316   3.786   5.303   5.036
  139SOL    HW2 1317   3.702   5.320   5.175
  140SOL     OW 1318   6.594   3.983   4.415
  140SOL    HW1 1319   6.521   3.918   4.395
  140SOL    HW2 1320   6.580   4.022   4.506
  141SOL     OW 1321   1.741   2.374   2.885
  141SOL    HW1 1322   1.838   2.353   2.892
  141SOL    HW2 1323   1.717   2.393   2.790
  142SOL     OW 1324   0.984   4.671   0.904
  142SOL    HW1 1325   1.018   4.584   0.867
  142SOL    HW2 1326   1.033   4.747   0.860
  143SOL     OW 1327   5.410   4.975   1.894
  143SOL    HW1 1328   5.331   5.020   1.936
  143SOL    HW2 1329   5.487   4.975   1.959
  144SOL     OW 1330   3.170   6.726   0.499
  144SOL    HW1 1331   3.197   6.788   0.425
  144SOL    HW2 1332   3.125   6.646   0.459
  145SOL     OW 1333   6.086   6.035   1.007
  145SOL    HW1 1334   6.133   6.107   1.058
  145SOL    HW2 1335   5.996   6.018   1.048
  146SOL     OW 1336   0.351   4.303   0.647
  146SOL    HW1 1337   0.251   4.304   0.640
  146SOL    HW2 1338   0.388   4.239   0.579
  147SOL     OW 1339   5.983   2.723   1.022
  147SOL    HW1 1340   5.917   2.702   0.950
  147SOL    HW2 1341   6.046   2.645   1.032
  148SOL     OW 1342   0.829   5.448   5.220
  148SOL    HW1 1343   0.733   5.463   5.241
  148SOL    HW2 1344   0.866   5.377   5.279
  149SOL     OW 1345   3.041   1.132   0.026
  149SOL    HW1 1346   3.120   1.193   0.032
  149SOL    HW2 1347   2.985   1.142   0.108
  150SOL     OW 1348   6.489   5.698   5.195
  150SOL    HW1 1349   6.512   5.793   5.175
  150SOL    HW2 1350   6.573   5.647   5.214
  151SOL     OW 1351   5.131   0.589   1.797
  151SOL    HW1 1352   5.079   0.674   1.788
  151SOL    HW2 1353   5.165   0.561   1.707
  152SOL     OW 1354   3.137   0.595   4.231
  152SOL    HW1 1355   3.109   0.680   4.276
  152SOL    HW2 1356   3.215   0.614   4.171
  153SOL     OW 1357   0.666   0.115   2.421
  153SOL    HW1 1358   0.592   0.092   2.484
  153SOL    HW2 1359   0.698   0.208   2.438
  154SOL     OW 1360   0.656   0.939   2.821
  154SOL    HW1 1361   0.696   0.956   2.731
  154SOL    HW2 1362   0.611   0.849   2.821
  155SOL     OW 1363   1.469   1.329   3.409
  155SOL    HW1 1364   1.475   1.307   3.507
  155SOL    HW2 1365   1.387   1.384   3.392
  156SOL     OW 1366   6.731   2.255   1.180
  156SOL    HW1 1367   6.821   2.274   1.140
  156SOL    HW2 1368   6.740   2.188   1.253
  157SOL     OW 1369   0.752   2.571   3.093
  157SOL    HW1 1370   0.697   2.504   3.042
  157SOL    HW2 1371   0.699   2.605   3.171
  158SOL     OW 1372   2.262   1.075   3.216
  158SOL    HW1 1373   2.165   1.098   3.218
  158SOL    HW2 1374   2.314   1.146   3.265
  159SOL     OW 1375   4.841   3.959   1.128
  159SOL    HW1 1376   4.834   3.895   1.205
  159SOL    HW2 1377   4.906   3.924   1.061
  160SOL     OW 1378   6.804   4.589   6.543
  160SOL    HW1 1379   6.840   4.525   6.475
  160SOL    HW2 1380   6.722   4.634   6.507
  161SOL     OW 1381   2.553   4.644   5.002
  161SOL    HW1 1382   2.636   4.649   5.058
  161SOL    HW2 1383   2.478   4.608   5.057
  162SOL     OW 1384   4.483   6.079   2.543
  162SOL    HW1 1385   4.514   6.172   2.562
  162SOL    HW2 1386   4.512   6.018   2.617
  163SOL     OW 1387   5.954   6.739   1.344
  163SOL    HW1 1388   5.861   6.715   1.373
  163SOL    HW2 1389   5.968   6.837   1.358
  164SOL     OW 1390   6.093   3.271   2.149
  164SOL    HW1 1391   6.125   3.365   2.159
  164SOL    HW2 1392   6.084   3.250   2.052
  165SOL     OW 1393   6.721   3.807   6.731
  165SOL    HW1 1394   6.793   3.787   6.798
  165SOL    HW2 1395   6.632   3.799   6.775
  166SOL     OW 1396   1.446   6.805   0.797
  166SOL    HW1 1397   1.440   6.884   0.859
  166SOL    HW2 1398   1.367   6.805   0.736
  167SOL     OW 1399   6.642   2.623   2.511
  167SOL    HW1 1400   6.566   2.622   2.445
  167SOL    HW2 1401   6.614   2.673   2.593
  168SOL     OW 1402   2.296   5.098   0.982
  168SOL    HW1 1403   2.244   5.067   1.061
  168SOL    HW2 1404   2.333   5.189   1.000
  169SOL     OW 1405   1.023   0.592   1.165
  169SOL    HW1 1406   1.075   0.672   1.133
  169SOL    HW2 1407   0.946   0.576   1.103
  170SOL     OW 1408   0.033   1.995   3.891
  170SOL    HW1 1409   0.075   1.910   3.922
  170SOL    HW2 1410   0.091   2.072   3.917
  171SOL     OW 1411   3.266   4.077   0.905
  171SOL    HW1 1412   3.279   4.063   1.004
  171SOL    HW2 1413   3.355   4.076   0.860
  172SOL     OW 1414   0.043   3.129   1.282
  172SOL    HW1 1415   6.982   3.076   1.264
  172SOL    HW2 1416   0.030   3.183   1.366
  173SOL     OW 1417   0.081   6.373   5.212
  173SOL    HW1 1418   0.061   6.376   5.310
  173SOL    HW2 1419   0.179   6.385   5.197
  174SOL     OW 1420   2.500   5.798   3.193
  174SOL    HW1 1421   2.546   5.764   3.111
  174SOL    HW2 1422   2.444   5.878   3.169
  175SOL     OW 1423   6.934   4.960   3.583
  175SOL    HW1 1424   6.843   4.953   3.624
  175SOL    HW2 1425   6.924   4.977   3.485
  176SOL     OW 1426   2.536   6.267   6.975
  176SOL    HW1 1427   2.449   6.218   6.984
  176SOL    HW2 1428   2.518   6.361   6.945
  177SOL     OW 1429   4.805   1.830   2.321
  177SOL    HW1 1430   4.717   1.789   2.295
  177SOL    HW2 1431   4.797   1.930   2.316
  178SOL     OW 1432   6.038   4.066   6.063
  178SOL    HW1 1433   6.112   3.999   6.069
  178SOL    HW2 1434   5.950   4.019   6.066
  179SOL     OW 1435   3.756   6.848   0.557
  179SOL    HW1 1436   3.691   6.874   0.628
  179SOL    HW2 1437   3.759   6.748   0.550
  180SOL     OW 1438   0.857   2.665   0.395
  180SOL    HW1 1439   0.852   2.648   0.296
  180SOL    HW2 1440   0.953   2.662   0.424
  181SOL     OW 1441   2.955   3.417   3.827
  181SOL    HW1 1442   3.011   3.445   3.750
  181SOL    HW2 1443   2.991   3.331   3.865
  182SOL     OW 1444   5.416   2.562   4.967
  182SOL    HW1 1445   5.366   2.623   5.028
  182SOL    HW2 1446   5.365   2.477   4.955
  183SOL     OW 1447   6.225   1.175   3.216
  183SOL    HW1 1448   6.150   1.115   3.244
  183SOL    HW2 1449   6.229   1.178   3.116
  184SOL     OW 1450   6.921   4.508   2.184
  184SOL    HW1 1451   6.931   4.440   2.256
  184SOL    HW2 1452   6.988   4.491   2.112
  185SOL     OW 1453   3.189   4.037   5.853
  185SOL    HW1 1454   3.133   4.118   5.873
  185SOL    HW2 1455   3.237   4.050   5.767
  186SOL     OW 1456   5.946   0.058   3.842
  186SOL    HW1 1457   5.884   0.132   3.814
  186SOL    HW2 1458   5.921   0.027   3.933
  187SOL     OW 1459   5.609   0.008   4.306
  187SOL    HW1 1460   5.641   0.068   4.233
  187SOL    HW2 1461   5.525   6.984   4.276
  188SOL     OW 1462   6.052   2.349   5.262
  188SOL    HW1 1463   6.052   2.449   5.254
  188SOL    HW2 1464   6.147   2.316   5.266
  189SOL     OW 1465   1.690   4.993   3.380
  189SOL    HW1 1466   1.641   5.070   3.340
  189SOL    HW2 1467   1.741   4.946   3.308
  190SOL     OW 1468   3.254   1.295   0.065
  190SOL    HW1 1469   3.294   1.346   0.142
  190SOL    HW2 1470   3.328   1.261   0.007
  191SOL     OW 1471   5.116   5.764   6.939
  191SOL    HW1 1472   5.198   5.817   6.959
  191SOL    HW2 1473   5.037   5.808   6.983
  192SOL     OW 1474   6.334   0.919   6.754
  192SOL    HW1 1475   6.244   0.883   6.779
  192SOL    HW2 1476   6.349   1.007   6.798
  193SOL     OW 1477   6.547   3.839   6.980
  193SOL    HW1 1478   6.493   3.867   0.037
  193SOL    HW2 1479   6.554   3.739   6.979
  194SOL     OW 1480   4.373   6.894   4.323
  194SOL    HW1 1481   4.280   6.895   4.361
  194SOL    HW2 1482   4.413   6.985   4.332
  195SOL     OW 1483   6.775   5.555   3.129
  195SOL    HW1 1484   6.823   5.633   3.168
  195SOL    HW2 1485   6.785   5.476   3.190
  196SOL     OW 1486   0.176   0.637   1.359
  196SOL    HW1 1487   0.203   0.733   1.370
  196SOL    HW2 1488   0.256   0.579   1.368
  197SOL     OW 1489   1.847   0.764   0.390
  197SOL    HW1 1490   1.762   0.814   0.375
  197SOL    HW2 1491   1.872   0.769   0.487
  198SOL     OW 1492   3.216   1.409   4.796
  198SOL    HW1 1493   3.174   1.494   4.765
  198SOL    HW2 1494   3.238   1.353   4.716
  199SOL     OW 1495   2.319   0.684   4.358
  199SOL    HW1 1496   2.407   0.649   4.325
  199SOL    HW2 1497   2.286   0.626   4.433
  200SOL     OW 1498   6.367   1.740   0.696
  200SOL    HW1 1499   6.304   1.791   0.754
  200SOL    HW2 1500   6.440   1.801   0.665
  201SOL     OW 1501   0.667   2.123   5.862
  201SOL    HW1 1502   0.675   2.121   5.762
  201SOL    HW2 1503   0.619   2.041   5.893
  202SOL     OW 1504   6.276   6.656   6.916
  202SOL    HW1 1505   6.345   6.595   6.955
  202SOL    HW2 1506   6.287   6.748   6.955
  203SOL     OW 1507   6.204   3.685   6.864
  203SOL    HW1 1508   6.161   3.594   6.865
  203SOL    HW2 1509   6.180   3.734   6.947
  204SOL     OW 1510   6.505   0.272   5.298
  204SOL    HW1 1511   6.579   0.272   5.232
  204SOL    HW2 1512   6.435   0.337   5.271
  205SOL     OW 1513   2.409   5.076   3.301
  205SOL    HW1 1514   2.350   5.154   3.283
  205SOL    HW2 1515   2.504   5.101   3.282
  206SOL     OW 1516   1.006   3.759   1.415
  206SOL    HW1 1517   0.975   3.746   1.509
  206SOL    HW2 1518   1.030   3.855   1.401
  207SOL     OW 1519   0.361   3.234   4.248
  207SOL    HW1 1520   0.289   3.303   4.252
  207SOL    HW2 1521   0.332   3.158   4.191
  208SOL     OW 1522   1.648   3.152   4.899
  208SOL    HW1 1523   1.583   3.078   4.909
  208SOL    HW2 1524   1.638   3.194   4.809
  209SOL     OW 1525   5.887   4.122   2.469
  209SOL    HW1 1526   5.892   4.049   2.402
  209SOL    HW2 1527   5.802   4.115   2.521
  210SOL     OW 1528   4.906   4.422   1.281
  210SOL    HW1 1529   4.962   4.408   1.362
  210SOL    HW2 1530   4.886   4.520   1.271
  211SOL     OW 1531   1.721   0.946   1.757
  211SOL    HW1 1532   1.748   0.860   1.799
  211SOL    HW2 1533   1.765   0.955   1.667
  212SOL     OW 1534   2.523   4.589   2.086
  212SOL    HW1 1535   2.496   4.585   2.182
  212SOL    HW2 1536   2.620   4.610   2.079
  213SOL     OW 1537   0.834   5.416   1.069
  213SOL    HW1 1538   0.843   5.514   1.048
  213SOL    HW2 1539   0.924   5.378   1.090
  214SOL     OW 1540   5.541   6.493   2.140
  214SOL    HW1 1541   5.510   6.528   2.228
  214SOL    HW2 1542   5.591   6.565   2.092
  215SOL     OW 1543   2.422   4.976   2.799
  215SOL    HW1 1544   2.520   4.995   2.794
  215SOL    HW2 1545   2.396   4.953   2.893
  216SOL     OW 1546   1.586   5.921   3.030
  216SOL    HW1 1547   1.574   6.013   3.068
  216SOL    HW2 1548   1.679   5.911   2.995
  217SOL     OW 1549   0.151   4.632   4.343
  217SOL    HW1 1550   0.223   4.562   4.337
  217SOL    HW2 1551   0.130   4.667   4.252
  218SOL     OW 1552   3.572   3.037   5.724
  218SOL    HW1 1553   3.535   3.118   5.770
  218SOL    HW2 1554   3.610   3.063   5.635
  219SOL     OW 1555   5.409   1.802   1.117
  219SOL    HW1 1556   5.332   1.767   1.065
  219SOL    HW2 1557   5.377   1.840   1.204
  220SOL     OW 1558   2.068   6.971   0.543
  220SOL    HW1 1559   2.044   6.946   0.450
  220SOL    HW2 1560   1.995   6.944   0.606
  221SOL     OW 1561   5.003   4.305   2.094
  221SOL    HW1 1562   5.059   4.299   2.177
  221SOL    HW2 1563   5.056   4.273   2.015
  222SOL     OW 1564   1.187   4.652   6.874
  222SOL    HW1 1565   1.260   4.584   6.884
  222SOL    HW2 1566   1.215   4.722   6.809
  223SOL     OW 1567   5.965   1.428   5.575
  223SOL    HW1 1568   6.049   1.430   5.629
  223SOL    HW2 1569   5.929   1.520   5.564
  224SOL     OW 1570   4.033   3.078   5.781
  224SOL    HW1 1571   4.088   3.020   5.841
  224SOL    HW2 1572   3.971   3.020   5.727
  225SOL     OW 1573   3.964   6.386   6.184
  225SOL    HW1 1574   4.037   6.445   6.220
  225SOL    HW2 1575   3.940   6.416   6.092
  226SOL     OW 1576   1.807   2.335   0.852
  226SOL    HW1 1577   1.738   2.404   0.874
  226SOL    HW2 1578   1.845   2.354   0.762
  227SOL     OW 1579   1.118   3.524   1.811
  227SOL    HW1 1580   1.180   3.565   1.744
  227SOL    HW2 1581   1.075   3.444   1.772
  228SOL     OW 1582   0.724   6.872   2.641
  228SOL    HW1 1583   0.719   6.901   2.545
  228SOL    HW2 1584   0.787   6.795   2.649
  229SOL     OW 1585   4.218   0.858   6.093
  229SOL    HW1 1586   4.311   0.843   6.126
  229SOL    HW2 1587   4.222   0.905   6.005
  230SOL     OW 1588   5.570   3.593   5.678
  230SOL    HW1 1589   5.555   3.535   5.758
  230SOL    HW2 1590   5.482   3.628   5.645
  231SOL     OW 1591   4.946   1.634   0.658
  231SOL    HW1 1592   4.993   1.596   0.579
  231SOL    HW2 1593   4.990   1.601   0.742
  232SOL     OW 1594   1.520   2.929   4.984
  232SOL    HW1 1595   1.424   2.907   5.005
  232SOL    HW2 1596   1.570   2.844   4.968
  233SOL     OW 1597   3.376   1.870   3.460
  233SOL    HW1 1598   3.320   1.787   3.453
  233SOL    HW2 1599   3.444   1.870   3.387
  234SOL     OW 1600   5.587   6.015   0.516
  234SOL    HW1 1601   5.617   5.992   0.423
  234SOL    HW2 1602   5.660   6.065   0.563
  235SOL     OW 1603   5.060   3.301   2.764
  235SOL    HW1 1604   5.068   3.202   2.775
  235SOL    HW2 1605   5.017   3.341   2.844
  236SOL     OW 1606   3.795   3.246   5.952
  236SOL    HW1 1607   3.708   3.275   5.912
  236SOL    HW2 1608   3.779   3.211   6.045
  237SOL     OW 1609   5.873   3.622   3.354
  237SOL    HW1 1610   5.956   3.665   3.391
  237SOL    HW2 1611   5.854   3.538   3.405
  238SOL     OW 1612   6.519   2.020   0.868
  238SOL    HW1 1613   6.526   1.921   0.860
  238SOL    HW2 1614   6.485   2.059   0.783
  239SOL     OW 1615   1.361   3.381   0.485
  239SOL    HW1 1616   1.349   3.386   0.386
  239SOL    HW2 1617   1.295   3.442   0.530
  240SOL     OW 1618   4.956   3.246   4.116
  240SOL    HW1 1619   4.889   3.171   4.123
  240SOL    HW2 1620   4.978   3.280   4.207
  241SOL     OW 1621   1.980   2.616   3.798
  241SOL    HW1 1622   1.993   2.681   3.724
  241SOL    HW2 1623   1.942   2.664   3.878
  242SOL     OW 1624   4.056   3.084   1.890
  242SOL    HW1 1625   4.156   3.091   1.897
  242SOL    HW2 1626   4.023   3.149   1.822
  243SOL     OW 1627   4.395   3.052   6.316
  243SOL    HW1 1628   4.415   3.129   6.376
  243SOL    HW2 1629   4.480   3.019   6.273
  244SOL     OW 1630   4.930   3.496   4.834
  244SOL    HW1 1631   4.958   3.422   4.896
  244SOL    HW2 1632   4.882   3.566   4.887
  245SOL     OW 1633   3.071   0.885   2.902
  245SOL    HW1 1634   3.110   0.813   2.844
  245SOL    HW2 1635   2.978   0.858   2.929
  246SOL     OW 1636   0.005   1.227   2.406
  246SOL    HW1 1637   0.012   1.209   2.504
  246SOL    HW2 1638   6.964   1.302   2.390
  247SOL     OW 1639   2.374   0.155   1.712
  247SOL    HW1 1640   2.417   0.160   1.622
  247SOL    HW2 1641   2.417   0.222   1.773
  248SOL     OW 1642   2.991   3.426   1.533
  248SOL    HW1 1643   3.080   3.386   1.512
  248SOL    HW2 1644   2.972   3.501   1.469
  249SOL     OW 1645   4.481   6.142   6.062
  249SOL    HW1 1646   4.438   6.101   5.981
  249SOL    HW2 1647   4.523   6.070   6.117
  250SOL     OW 1648   4.228   2.528   6.923
  250SOL    HW1 1649   4.221   2.488   6.831
  250SOL    HW2 1650   4.227   2.456   6.991
  251SOL     OW 1651   4.279   5.025   4.745
  251SOL    HW1 1652   4.264   5.088   4.821
  251SOL    HW2 1653   4.332   4.946   4.777
  252SOL     OW 1654   6.343   6.070   5.309
  252SOL    HW1 1655   6.273   6.021   5.361
  252SOL    HW2 1656   6.313   6.164   5.292
  253SOL     OW 1657   4.137   5.542   5.821
  253SOL    HW1 1658   4.101   5.536   5.729
  253SOL    HW2 1659   4.229   5.581   5.819
  254SOL     OW 1660   6.863   2.476   5.686
  254SOL    HW1 1661   6.854   2.573   5.662
  254SOL    HW2 1662   6.947   2.462   5.738
  255SOL     OW 1663   1.345   5.115   6.944
  255SOL    HW1 1664   1.349   5.114   6.844
  255SOL    HW2 1665   1.286   5.042   6.976
  256SOL     OW 1666   5.058   2.134   5.196
  256SOL    HW1 1667   5.011   2.207   5.145
  256SOL    HW2 1668   5.078   2.166   5.288
  257SOL     OW 1669   5.085   6.837   2.090
  257SOL    HW1 1670   5.063   6.746   2.055
  257SOL    HW2 1671   5.156   6.829   2.160
  258SOL     OW 1672   2.421   3.280   5.965
  258SOL    HW1 1673   2.417   3.316   6.058
  258SOL    HW2 1674   2.329   3.253   5.935
  259SOL     OW 1675   3.097   0.698   3.835
  259SOL    HW1 1676   3.066   0.749   3.915
  259SOL    HW2 1677   3.118   0.762   3.761
  260SOL     OW 1678   3.892   5.381   3.278
  260SOL    HW1 1679   3.843   5.342   3.200
  260SOL    HW2 1680   3.856   5.342   3.362
  261SOL     OW 1681   3.292   4.944   6.265
  261SOL    HW1 1682   3.293   5.025   6.205
  261SOL    HW2 1683   3.378   4.894   6.254
  262SOL     OW 1684   0.850   3.672   6.051
  262SOL    HW1 1685   0.867   3.730   5.971
  262SOL    HW2 1686   0.917   3.599   6.053
  263SOL     OW 1687   2.041   0.326   3.445
  263SOL    HW1 1688   2.089   0.240   3.432
  263SOL    HW2 1689   2.107   0.400   3.456
  264SOL     OW 1690   6.624   3.439   6.403
  264SOL    HW1 1691   6.712   3.405   6.371
  264SOL    HW2 1692   6.639   3.525   6.453
  265SOL     OW 1693   6.661   0.592   2.754
  265SOL    HW1 1694   6.598   0.631   2.686
  265SOL    HW2 1695   6.752   0.585   2.714
  266SOL     OW 1696   2.871   0.469   5.369
  266SOL    HW1 1697   2.896   0.420   5.286
  266SOL    HW2 1698   2.774   0.455   5.388
  267SOL     OW 1699   2.146   6.755   1.972
  267SOL    HW1 1700   2.054   6.777   2.006
  267SOL    HW2 1701   2.196   6.840   1.954
  268SOL     OW 1702   4.189   2.302   0.307
  268SOL    HW1 1703   4.099   2.260   0.317
  268SOL    HW2 1704   4.255   2.254   0.365
  269SOL     OW 1705   5.435   2.202   6.928
  269SOL    HW1 1706   5.340   2.199   6.959
  269SOL    HW2 1707   5.441   2.162   6.836
  270SOL     OW 1708   5.701   1.112   0.592
  270SOL    HW1 1709   5.661   1.202   0.573
  270SOL    HW2 1710   5.743   1.076   0.509
  271SOL     OW 1711   0.889   5.430   6.359
  271SOL    HW1 1712   0.888   5.330   6.359
  271SOL    HW2 1713   0.821   5.463   6.294
  272SOL     OW 1714   3.485   5.537   3.222
  272SOL    HW1 1715   3.401   5.558   3.171
  272SOL    HW2 1716   3.498   5.438   3.226
  273SOL     OW 1717   1.570   5.888   6.247
  273SOL    HW1 1718   1.580   5.837   6.332
  273SOL    HW2 1719   1.659   5.898   6.203
  274SOL     OW 1720   4.367   1.619   3.507
  274SOL    HW1 1721   4.451   1.565   3.506
  274SOL    HW2 1722   4.326   1.618   3.416
  275SOL     OW 1723   6.043   0.926   1.013
  275SOL    HW1 1724   5.955   0.899   1.052
  275SOL    HW2 1725   6.085   0.996   1.072
  276SOL     OW 1726   0.621   6.323   3.927
  276SOL    HW1 1727   0.707   6.308   3.878
  276SOL    HW2 1728   0.545   6.320   3.862
  277SOL     OW 1729   2.051   4.774   1.536
  277SOL    HW1 1730   1.998   4.757   1.453
  277SOL    HW2 1731   2.037   4.699   1.600
  278SOL     OW 1732   1.235   3.306   3.726
  278SOL    HW1 1733   1.223   3.219   3.677
  278SOL    HW2 1734   1.171   3.310   3.803
  279SOL     OW 1735   6.157   1.171   3.563
  279SOL    HW1 1736   6.142   1.085   3.514
  279SOL    HW2 1737   6.254   1.177   3.589
  280SOL     OW 1738   1.637   5.351   2.254
  280SOL    HW1 1739   1.678   5.340   2.164
  280SOL    HW2 1740   1.548   5.304   2.257
  281SOL     OW 1741   2.293   4.725   1.084
  281SOL    HW1 1742   2.284   4.811   1.034
  281SOL    HW2 1743   2.204   4.700   1.122
  282SOL     OW 1744   1.856   1.637   4.714
  282SOL    HW1 1745   1.905   1.666   4.797
  282SOL    HW2 1746   1.914   1.576   4.661
  283SOL     OW 1747   2.692   2.573   6.800
  283SOL    HW1 1748   2.617   2.627   6.761
  283SOL    HW2 1749   2.730   2.514   6.729
  284SOL     OW 1750   0.329   3.900   3.887
  284SOL    HW1 1751   0.232   3.889   3.867
  284SOL    HW2 1752   0.350   3.863   3.977
  285SOL     OW 1753   5.403   3.814   4.320
  285SOL    HW1 1754   5.356   3.838   4.405
  285SOL    HW2 1755   5.381   3.883   4.250
  286SOL     OW 1756   2.786   3.911   1.371
  286SOL    HW1 1757   2.815   4.006   1.383
  286SOL    HW2 1758   2.768   3.870   1.461
  287SOL     OW 1759   0.187   3.123   6.592
  287SOL    HW1 1760   0.204   3.027   6.613
  287SOL    HW2 1761   0.255   3.180   6.639
  288SOL     OW 1762   5.879   3.810   2.496
  288SOL    HW1 1763   5.793   3.771   2.530
  288SOL    HW2 1764   5.862   3.858   2.410
  289SOL     OW 1765   3.723   6.206   6.634
  289SOL    HW1 1766   3.695   6.233   6.726
  289SOL    HW2 1767   3.763   6.284   6.586
  290SOL     OW 1768   1.959   0.566   4.905
  290SOL    HW1 1769   2.006   0.532   4.824
  290SOL    HW2 1770   1.917   0.654   4.886
  291SOL     OW 1771   6.678   1.154   3.125
  291SOL    HW1 1772   6.772   1.122   3.127
  291SOL    HW2 1773   6.628   1.104   3.053
  292SOL     OW 1774   3.803   6.796   3.792
  292SOL    HW1 1775   3.763   6.704   3.787
  292SOL    HW2 1776   3.733   6.861   3.822
  293SOL     OW 1777   3.399   5.023   2.993
  293SOL    HW1 1778   3.310   5.021   3.038
  293SOL    HW2 1779   3.392   4.974   2.906
  294SOL     OW 1780   4.798   0.483   0.426
  294SOL    HW1 1781   4.829   0.449   0.338
  294SOL    HW2 1782   4.699   0.471   0.433
  295SOL     OW 1783   5.765   0.560   4.600
  295SOL    HW1 1784   5.821   0.597   4.525
  295SOL    HW2 1785   5.738   0.466   4.578
  296SOL     OW 1786   2.424   2.090   2.810
  296SOL    HW1 1787   2.483   2.011   2.792
  296SOL    HW2 1788   2.428   2.153   2.733
  297SOL     OW 1789   1.821   4.593   2.142
  297SOL    HW1 1790   1.864   4.660   2.081
  297SOL    HW2 1791   1.881   4.576   2.220
  298SOL     OW 1792   6.396   5.150   0.695
  298SOL    HW1 1793   6.368   5.145   0.599
  298SOL    HW2 1794   6.403   5.246   0.722
  299SOL     OW 1795   5.442   2.722   3.493
  299SOL    HW1 1796   5.362   2.664   3.508
  299SOL    HW2 1797   5.455   2.735   3.395
  300SOL     OW 1798   6.127   0.057   1.659
  300SOL    HW1 1799   6.155   6.988   1.690
  300SOL    HW2 1800   6.103   0.113   1.738
  301SOL     OW 1801   5.572   2.647   5.821
  301SOL    HW1 1802   5.480   2.642   5.783
  301SOL    HW2 1803   5.636   2.599   5.762
  302SOL     OW 1804   1.355   5.739   4.992
  302SOL    HW1 1805   1.316   5.805   5.056
  302SOL    HW2 1806   1.439   5.776   4.953
  303SOL     OW 1807   6.285   0.212   3.326
  303SOL    HW1 1808   6.222   0.154   3.377
  303SOL    HW2 1809   6.359   0.156   3.288
  304SOL     OW 1810   3.627   0.604   4.155
  304SOL    HW1 1811   3.688   0.674   4.193
  304SOL    HW2 1812   3.619   0.529   4.220
  305SOL     OW 1813   1.331   3.594   0.262
  305SOL    HW1 1814   1.402   3.567   0.197
  305SOL    HW2 1815   1.348   3.687   0.294
  306SOL     OW 1816   1.400   1.283   2.889
  306SOL    HW1 1817   1.378   1.207   2.952
  306SOL    HW2 1818   1.340   1.278   2.810
  307SOL     OW 1819   3.015   7.003   1.123
  307SOL    HW1 1820   3.074   6.924   1.105
  307SOL    HW2 1821   3.072   0.063   1.130
  308SOL     OW 1822   0.668   4.875   4.118
  308SOL    HW1 1823   0.613   4.958   4.130
  308SOL    HW2 1824   0.763   4.894   4.140
  309SOL     OW 1825   3.625   4.580   5.336
  309SOL    HW1 1826   3.719   4.612   5.328
  309SOL    HW2 1827   3.613   4.497   5.282
  310SOL     OW 1828   1.152   5.887   6.656
  310SOL    HW1 1829   1.145   5.952   6.732
  310SOL    HW2 1830   1.174   5.796   6.693
  311SOL     OW 1831   6.612   0.840   1.021
  311SOL    HW1 1832   6.588   0.867   1.114
  311SOL    HW2 1833   6.650   0.748   1.022
  312SOL     OW 1834   3.805   1.637   6.438
  312SOL    HW1 1835   3.714   1.649   6.398
  312SOL    HW2 1836   3.844   1.727   6.458
  313SOL     OW 1837   6.662   5.024   1.117
  313SOL    HW1 1838   6.658   4.962   1.039
  313SOL    HW2 1839   6.657   5.118   1.084
  314SOL     OW 1840   3.675   6.402   2.861
  314SOL    HW1 1841   3.733   6.405   2.780
  314SOL    HW2 1842   3.619   6.319   2.860
  315SOL     OW 1843   0.480   3.698   3.014
  315SOL    HW1 1844   0.476   3.599   2.997
  315SOL    HW2 1845   0.510   3.714   3.108
  316SOL     OW 1846   2.148   3.284   4.250
  316SOL    HW1 1847   2.138   3.273   4.349
  316SOL    HW2 1848   2.171   3.196   4.210
  317SOL     OW 1849   6.751   1.584   1.047
  317SOL    HW1 1850   6.766   1.531   1.131
  317SOL    HW2 1851   6.657   1.571   1.016
  318SOL     OW 1852   2.619   4.123   0.621
  318SOL    HW1 1853   2.665   4.196   0.570
  318SOL    HW2 1854   2.685   4.052   0.644
  319SOL     OW 1855   0.346   1.665   6.173
  319SOL    HW1 1856   0.425   1.707   6.216
  319SOL    HW2 1857   0.362   1.655   6.075
  320SOL     OW 1858   5.830   3.724   3.095
  320SOL    HW1 1859   5.852   3.714   3.191
  320SOL    HW2 1860   5.783   3.642   3.062
  321SOL     OW 1861   1.758   1.182   1.904
  321SOL    HW1 1862   1.687   1.249   1.881
  321SOL    HW2 1863   1.741   1.096   1.856
  322SOL     OW 1864   3.651   3.335   5.525
  322SOL    HW1 1865   3.750   3.327   5.540
  322SOL    HW2 1866   3.632   3.419   5.474
  323SOL     OW 1867   1.586   4.398   2.909
  323SOL    HW1 1868   1.673   4.362   2.875
  323SOL    HW2 1869   1.528   4.423   2.832
  324SOL     OW 1870   0.215   2.654   4.369
  324SOL    HW1 1871   0.125   2.610   4.371
  324SOL    HW2 1872   0.263   2.635   4.455
  325SOL     OW 1873   2.056   1.631   2.452
  325SOL    HW1 1874   2.111   1.653   2.533
  325SOL    HW2 1875   1.959   1.641   2.475
  326SOL     OW 1876   2.169   3.977   4.628
  326SOL    HW1 1877   2.217   4.064   4.617
  326SOL    HW2 1878   2.154   3.936   4.538
  327SOL     OW 1879   6.272   4.357   6.109
  327SOL    HW1 1880   6.248   4.298   6.186
  327SOL    HW2 1881   6.320   4.303   6.040
  328SOL     OW 1882   3.547   5.255   3.261
  328SOL    HW1 1883   3.496   5.215   3.337
  328SOL    HW2 1884   3.643   5.227   3.265
  329SOL     OW 1885   3.462   3.971   1.788
  329SOL    HW1 1886   3.472   3.959   1.887
  329SOL    HW2 1887   3.497   3.890   1.742
  330SOL     OW 1888   2.886   2.107   1.018
  330SOL    HW1 1889   2.834   2.026   1.043
  330SOL    HW2 1890   2.978   2.100   1.057
  331SOL     OW 1891   6.543   3.692   5.290
  331SOL    HW1 1892   6.571   3.597   5.300
  331SOL    HW2 1893   6.489   3.721   5.368
  332SOL     OW 1894   3.922   1.670   3.304
  332SOL    HW1 1895   3.827   1.685   3.332
  332SOL    HW2 1896   3.926   1.591   3.243
  333SOL     OW 1897   4.614   6.348   0.296
  333SOL    HW1 1898   4.534   6.318   0.347
  333SOL    HW2 1899   4.585   6.399   0.215
  334SOL     OW 1900   5.049   6.968   2.562
  334SOL    HW1 1901   4.985   6.945   2.489
  334SOL    HW2 1902   5.012   0.023   2.614
  335SOL     OW 1903   2.962   0.287   1.997
  335SOL    HW1 1904   2.920   0.377   1.984
  335SOL    HW2 1905   3.051   0.286   1.952
  336SOL     OW 1906   3.802   1.035   4.966
  336SOL    HW1 1907   3.794   1.001   5.060
  336SOL    HW2 1908   3.796   1.135   4.966
  337SOL     OW 1909   1.093   3.649   2.397
  337SOL    HW1 1910   1.046   3.621   2.481
  337SOL    HW2 1911   1.034   3.630   2.319
  338SOL     OW 1912   2.496   2.513   1.138
  338SOL    HW1 1913   2.433   2.590   1.131
  338SOL    HW2 1914   2.566   2.533   1.206
  339SOL     OW 1915   4.858   0.378   2.533
  339SOL    HW1 1916   4.903   0.333   2.455
  339SOL    HW2 1917   4.777   0.427   2.500
  340SOL     OW 1918   5.225   3.606   4.508
  340SOL    HW1 1919   5.262   3.603   4.415
  340SOL    HW2 1920   5.276   3.544   4.567
  341SOL     OW 1921   3.782   4.177   5.365
  341SOL    HW1 1922   3.703   4.214   5.316
  341SOL    HW2 1923   3.866   4.207   5.320
  342SOL     OW 1924   5.757   3.396   1.012
  342SOL    HW1 1925   5.752   3.297   1.005
  342SOL    HW2 1926   5.665   3.435   1.006
  343SOL     OW 1927   2.162   0.228   2.010
  343SOL    HW1 1928   2.121   0.201   2.097
  343SOL    HW2 1929   2.185   0.325   2.013
  344SOL     OW 1930   4.803   6.843   0.074
  344SOL    HW1 1931   4.761   6.911   0.135
  344SOL    HW2 1932   4.837   6.766   0.129
  345SOL     OW 1933   1.271   0.903   4.932
  345SOL    HW1 1934   1.181   0.864   4.912
  345SOL    HW2 1935   1.334   0.883   4.857
  346SOL     OW 1936   2.023   0.241   5.264
  346SOL    HW1 1937   2.070   0.195   5.189
  346SOL    HW2 1938   1.960   0.309   5.228
  347SOL     OW 1939   5.217   5.621   5.952
  347SOL    HW1 1940   5.225   5.534   6.001
  347SOL    HW2 1941   5.179   5.691   6.014
  348SOL     OW 1942   2.687   6.759   3.750
  348SOL    HW1 1943   2.710   6.795   3.659
  348SOL    HW2 1944   2.588   6.768   3.765
  349SOL     OW 1945   2.491   5.163   1.675
  349SOL    HW1 1946   2.588   5.178   1.659
  349SOL    HW2 1947   2.445   5.145   1.587
  350SOL     OW 1948   5.161   3.176   1.579
  350SOL    HW1 1949   5.124   3.115   1.509
  350SOL    HW2 1950   5.218   3.123   1.642
  351SOL     OW 1951   3.179   1.687   0.311
  351SOL    HW1 1952   3.161   1.588   0.308
  351SOL    HW2 1953   3.093   1.736   0.324
  352SOL     OW 1954   3.210   1.724   6.256
  352SOL    HW1 1955   3.159   1.783   6.194
  352SOL    HW2 1956   3.161   1.718   6.343
  353SOL     OW 1957   1.963   6.285   1.401
  353SOL    HW1 1958   1.941   6.201   1.450
  353SOL    HW2 1959   1.983   6.358   1.467
  354SOL     OW 1960   5.267   0.233   2.400
  354SOL    HW1 1961   5.304   0.300   2.464
  354SOL    HW2 1962   5.275   0.141   2.440
  355SOL     OW 1963   0.723   0.681   2.683
  355SOL    HW1 1964   0.785   0.754   2.656
  355SOL    HW2 1965   0.666   0.654   2.605
  356SOL     OW 1966   2.522   6.965   2.861
  356SOL    HW1 1967   2.512   6.965   2.761
  356SOL    HW2 1968   2.545   6.873   2.892
  357SOL     OW 1969   1.251   4.862   4.221
  357SOL    HW1 1970   1.271   4.951   4.261
  357SOL    HW2 1971   1.240   4.795   4.294
  358SOL     OW 1972   5.048   0.683   3.476
  358SOL    HW1 1973   4.972   0.621   3.494
  358SOL    HW2 1974   5.099   0.650   3.396
  359SOL     OW 1975   0.673   1.658   0.431
  359SOL    HW1 1976   0.761   1.685   0.393
  359SOL    HW2 1977   0.611   1.633   0.356
  360SOL     OW 1978   5.470   6.602   6.452
  360SOL    HW1 1979   5.432   6.645   6.370
  360SOL    HW2 1980   5.401   6.543   6.494
  361SOL     OW 1981   2.804   0.212   2.221
  361SOL    HW1 1982   2.840   0.269   2.147
  361SOL    HW2 1983   2.787   0.119   2.187
  362SOL     OW 1984   2.653   3.498   0.426
  362SOL    HW1 1985   2.725   3.544   0.373
  362SOL    HW2 1986   2.690   3.416   0.469
  363SOL     OW 1987   4.740   4.566   4.289
  363SOL    HW1 1988   4.663   4.526   4.238
  363SOL    HW2 1989   4.820   4.572   4.229
  364SOL     OW 1990   2.472   5.919   6.369
  364SOL    HW1 1991   2.484   6.016   6.349
  364SOL    HW2 1992   2.375   5.895   6.359
  365SOL     OW 1993   4.817   6.477   2.875
  365SOL    HW1 1994   4.869   6.456   2.792
  365SOL    HW2 1995   4.727   6.513   2.849
  366SOL     OW 1996   5.551   1.339   0.603
  366SOL    HW1 1997   5.583   1.404   0.534
  366SOL    HW2 1998   5.500   1.388   0.674
  367SOL     OW 1999   0.284   2.531   2.855
  367SOL    HW1 2000   0.336   2.589   2.917
  367SOL    HW2 2001   0.327   2.532   2.764
  368SOL     OW 2002   6.887   4.972   4.438
  368SOL    HW1 2003   6.793   4.945   4.460
  368SOL    HW2 2004   6.896   5.071   4.447
  369SOL     OW 2005   0.882   3.559   2.194
  369SOL    HW1 2006   0.862   3.549   2.097
  369SOL    HW2 2007   0.804   3.524   2.248
  370SOL     OW 2008   3.835   2.314   6.468
  370SOL    HW1 2009   3.749   2.350   6.432
  370SOL    HW2 2010   3.909   2.378   6.449
  371SOL     OW 2011   3.489   2.225   5.898
  371SOL    HW1 2012   3.488   2.145   5.958
  371SOL    HW2 2013   3.571   2.223   5.841
  372SOL     OW 2014   2.480   5.767   0.033
  372SOL    HW1 2015   2.465   5.677   0.075
  372SOL    HW2 2016   2.531   5.825   0.096
  373SOL     OW 2017   6.299   0.079   6.890
  373SOL    HW1 2018   6.379   0.054   6.836
  373SOL    HW2 2019   6.232   0.004   6.887
  374SOL     OW 2020   4.957   0.843   0.712
  374SOL    HW1 2021   4.911   0.882   0.632
  374SOL    HW2 2022   4.955   0.744   0.708
  375SOL     OW 2023   6.686   3.589   2.563
  375SOL    HW1 2024   6.768   3.641   2.537
  375SOL    HW2 2025   6.711   3.493   2.576
  376SOL     OW 2026   2.573   4.142   5.348
  376SOL    HW1 2027   2.543   4.232   5.315
  376SOL    HW2 2028   2.525   4.070   5.296
  377SOL     OW 2029   4.675   0.862   3.464
  377SOL    HW1 2030   4.586   0.863   3.509
  377SOL    HW2 2031   4.674   0.795   3.390
  378SOL     OW 2032   6.116   2.161   5.798
  378SOL    HW1 2033   6.157   2.222   5.865
  378SOL    HW2 2034   6.164   2.073   5.799
  379SOL     OW 2035   6.464   2.358   0.744
  379SOL    HW1 2036   6.504   2.383   0.832
  379SOL    HW2 2037   6.371   2.322   0.758
  380SOL     OW 2038   6.628   2.365   6.753
  380SOL    HW1 2039   6.626   2.462   6.727
  380SOL    HW2 2040   6.620   2.357   6.852
  381SOL     OW 2041   4.497   4.885   6.724
  381SOL    HW1 2042   4.437   4.926   6.655
  381SOL    HW2 2043   4.545   4.957   6.774
  382SOL     OW 2044   1.660   5.339   6.774
  382SOL    HW1 2045   1.589   5.293   6.721
  382SOL    HW2 2046   1.641   5.330   6.871
  383SOL     OW 2047   6.011   1.965   0.112
  383SOL    HW1 2048   5.929   1.988   0.165
  383SOL    HW2 2049   6.054   2.049   0.078
  384SOL     OW 2050   1.260   5.396   4.772
  384SOL    HW1 2051   1.290   5.313   4.819
  384SOL    HW2 2052   1.338   5.437   4.725
  385SOL     OW 2053   4.797   4.462   0.620
  385SOL    HW1 2054   4.780   4.551   0.662
  385SOL    HW2 2055   4.789   4.390   0.689
  386SOL     OW 2056   2.658   5.777   3.858
  386SOL    HW1 2057   2.640   5.860   3.806
  386SOL    HW2 2058   2.574   5.748   3.903
  387SOL     OW 2059   0.386   0.535   5.618
  387SOL    HW1 2060   0.298   0.579   5.598
  387SOL    HW2 2061   0.387   0.443   5.579
  388SOL     OW 2062   6.963   2.025   5.013
  388SOL    HW1 2063   7.021   2.048   5.091
  388SOL    HW2 2064   6.870   2.009   5.045
  389SOL     OW 2065   5.200   4.138   2.574
  389SOL    HW1 2066   5.241   4.225   2.602
  389SOL    HW2 2067   5.135   4.108   2.644
  390SOL     OW 2068   2.836   2.693   6.995
  390SOL    HW1 2069   2.907   2.737   6.939
  390SOL    HW2 2070   2.760   2.665   6.936
  391SOL     OW 2071   3.851   4.056   3.202
  391SOL    HW1 2072   3.760   4.054   3.243
  391SOL    HW2 2073   3.913   4.109   3.260
  392SOL     OW 2074   1.914   3.085   1.642
  392SOL    HW1 2075   1.819   3.073   1.673
  392SOL    HW2 2076   1.972   3.019   1.688
  393SOL     OW 2077   1.309   6.383   0.582
  393SOL    HW1 2078   1.296   6.366   0.484
  393SOL    HW2 2079   1.220   6.390   0.627
  394SOL     OW 2080   6.380   2.560   6.792
  394SOL    HW1 2081   6.448   2.631   6.773
  394SOL    HW2 2082   6.314   2.594   6.860
  395SOL     OW 2083   0.039   5.992   6.747
  395SOL    HW1 2084   6.981   6.050   6.740
  395SOL    HW2 2085   0.087   5.989   6.659
  396SOL     OW 2086   0.289   0.898   1.429
  396SOL    HW1 2087   0.296   0.860   1.521
  396SOL    HW2 2088   0.252   0.991   1.435
  397SOL     OW 2089   4.889   2.065   4.837
  397SOL    HW1 2090   4.808   2.086   4.782
  397SOL    HW2 2091   4.956   2.019   4.780
  398SOL     OW 2092   0.430   1.470   3.557
  398SOL    HW1 2093   0.488   1.437   3.632
  398SOL    HW2 2094   0.449   1.417   3.475
  399SOL     OW 2095   5.244   4.863   5.396
  399SOL    HW1 2096   5.218   4.934   5.462
  399SOL    HW2 2097   5.235   4.899   5.304
  400SOL     OW 2098   6.578   6.217   3.546
  400SOL    HW1 2099   6.491   6.216   3.498
  400SOL    HW2 2100   6.650   6.183   3.486
  401SOL     OW 2101   1.014   5.652   3.910
  401SOL    HW1 2102   1.008   5.595   3.992
  401SOL    HW2 2103   1.108   5.683   3.898
  402SOL     OW 2104   6.711   0.514   5.024
  402SOL    HW1 2105   6.625   0.510   4.974
  402SOL    HW2 2106   6.787   0.518   4.959
  403SOL     OW 2107   2.938   1.593   4.999
  403SOL    HW1 2108   2.886   1.670   4.963
  403SOL    HW2 2109   2.953   1.606   5.097
  404SOL     OW 2110   3.674   5.609   3.519
  404SOL    HW1 2111   3.769   5.629   3.542
  404SOL    HW2 2112   3.624   5.694   3.504
  405SOL     OW 2113   3.547   5.007   3.566
  405SOL    HW1 2114   3.638   5.033   3.533
  405SOL    HW2 2115   3.538   5.029   3.663
  406SOL     OW 2116   1.197   0.359   0.597
  406SOL    HW1 2117   1.260   0.436   0.608
  406SOL    HW2 2118   1.249   0.274   0.585
  407SOL     OW 2119   2.152   4.449   4.115
  407SOL    HW1 2120   2.221   4.389   4.156
  407SOL    HW2 2121   2.105   4.400   4.042
  408SOL     OW 2122   3.085   1.818   1.796
  408SOL    HW1 2123   3.151   1.827   1.871
  408SOL    HW2 2124   3.026   1.899   1.794
  409SOL     OW 2125   0.421   2.604   1.904
  409SOL    HW1 2126   0.407   2.505   1.909
  409SOL    HW2 2127   0.479   2.627   1.826
  410SOL     OW 2128   1.761   3.636   1.850
  410SOL    HW1 2129   1.740   3.655   1.754
  410SOL    HW2 2130   1.852   3.594   1.856
  411SOL     OW 2131   6.491   1.485   1.917
  411SOL    HW1 2132   6.442   1.449   1.997
  411SOL    HW2 2133   6.544   1.566   1.944
  412SOL     OW 2134   2.760   4.823   3.247
  412SOL    HW1 2135   2.676   4.853   3.291
  412SOL    HW2 2136   2.742   4.742   3.191
  413SOL     OW 2137   6.758   4.498   3.138
  413SOL    HW1 2138   6.712   4.455   3.060
  413SOL    HW2 2139   6.706   4.480   3.222
  414SOL     OW 2140   1.840   0.242   2.393
  414SOL    HW1 2141   1.856   0.331   2.350
  414SOL    HW2 2142   1.824   0.173   2.323
  415SOL     OW 2143   5.733   3.018   1.876
  415SOL    HW1 2144   5.760   2.942   1.936
  415SOL    HW2 2145   5.760   3.105   1.917
  416SOL     OW 2146   6.641   3.791   6.250
  416SOL    HW1 2147   6.650   3.743   6.337
  416SOL    HW2 2148   6.635   3.724   6.176
  417SOL     OW 2149   3.105   2.274   6.184
  417SOL    HW1 2150   3.141   2.265   6.091
  417SOL    HW2 2151   3.141   2.358   6.225
  418SOL     OW 2152   3.812   5.790   6.225
  418SOL    HW1 2153   3.900   5.811   6.269
  418SOL    HW2 2154   3.748   5.757   6.294
  419SOL     OW 2155   5.610   6.450   0.605
  419SOL    HW1 2156   5.562   6.397   0.535
  419SOL    HW2 2157   5.562   6.537   0.618
  420SOL     OW 2158   3.159   6.225   0.623
  420SOL    HW1 2159   3.121   6.137   0.596
  420SOL    HW2 2160   3.230   6.253   0.559
  421SOL     OW 2161   5.487   4.646   3.724
  421SOL    HW1 2162   5.516   4.624   3.631
  421SOL    HW2 2163   5.496   4.744   3.740
  422SOL     OW 2164   4.291   1.457   2.313
  422SOL    HW1 2165   4.265   1.524   2.245
  422SOL    HW2 2166   4.217   1.447   2.381
  423SOL     OW 2167   2.724   0.981   6.835
  423SOL    HW1 2168   2.657   0.906   6.834
  423SOL    HW2 2169   2.676   1.068   6.824
  424SOL     OW 2170   2.038   5.079   3.684
  424SOL    HW1 2171   2.079   4.995   3.649
  424SOL    HW2 2172   2.057   5.086   3.782
  425SOL     OW 2173   3.361   1.281   6.732
  425SOL    HW1 2174   3.274   1.250   6.771
  425SOL    HW2 2175   3.436   1.261   6.796
  426SOL     OW 2176   2.235   2.978   3.626
  426SOL    HW1 2177   2.248   3.076   3.608
  426SOL    HW2 2178   2.235   2.962   3.724
  427SOL     OW 2179   5.209   0.787   5.453
  427SOL    HW1 2180   5.258   0.717   5.504
  427SOL    HW2 2181   5.117   0.755   5.432
  428SOL     OW 2182   2.389   1.353   5.952
  428SOL    HW1 2183   2.473   1.300   5.942
  428SOL    HW2 2184   2.313   1.291   5.973
  429SOL     OW 2185   0.146   6.936   3.773
  429SOL    HW1 2186   0.244   6.924   3.789
  429SOL    HW2 2187   0.094   6.871   3.830
  430SOL     OW 2188   1.833   1.256   4.139
  430SOL    HW1 2189   1.920   1.304   4.153
  430SOL    HW2 2190   1.812   1.253   4.041
  431SOL     OW 2191   2.801   0.450   1.274
  431SOL    HW1 2192   2.812   0.439   1.175
  431SOL    HW2 2193   2.758   0.368   1.312
  432SOL     OW 2194   6.208   1.992   2.129
  432SOL    HW1 2195   6.209   1.914   2.191
  432SOL    HW2 2196   6.199   2.077   2.181
  433SOL     OW 2197   1.594   3.502   6.790
  433SOL    HW1 2198   1.528   3.437   6.751
  433SOL    HW2 2199   1.545   3.582   6.826
  434SOL     OW 2200   4.178   6.143   2.547
  434SOL    HW1 2201   4.141   6.122   2.637
  434SOL    HW2 2202   4.231   6.066   2.513
  435SOL     OW 2203   2.407   2.052   6.031
  435SOL    HW1 2204   2.349   2.020   6.106
  435SOL    HW2 2205   2.385   2.148   6.012
  436SOL     OW 2206   5.786   5.926   2.577
  436SOL    HW1 2207   5.872   5.963   2.542
  436SOL    HW2 2208   5.725   6.001   2.602
  437SOL     OW 2209   6.437   1.719   6.270
  437SOL    HW1 2210   6.513   1.674   6.318
  437SOL    HW2 2211   6.372   1.756   6.337
  438SOL     OW 2212   0.597   2.903   1.493
  438SOL    HW1 2213   0.685   2.952   1.497
  438SOL    HW2 2214   0.549   2.915   1.579
  439SOL     OW 2215   0.410   1.404   6.240
  439SOL    HW1 2216   0.485   1.355   6.194
  439SOL    HW2 2217   0.426   1.502   6.234
  440SOL     OW 2218   2.858   1.684   1.689
  440SOL    HW1 2219   2.938   1.697   1.748
  440SOL    HW2 2220   2.785   1.745   1.717
  441SOL     OW 2221   1.257   4.274   2.880
  441SOL    HW1 2222   1.209   4.187   2.865
  441SOL    HW2 2223   1.268   4.321   2.793
  442SOL     OW 2224   3.510   3.389   4.380
  442SOL    HW1 2225   3.553   3.314   4.329
  442SOL    HW2 2226   3.412   3.391   4.358
  443SOL     OW 2227   5.328   2.844   2.614
  443SOL    HW1 2228   5.379   2.929   2.629
  443SOL    HW2 2229   5.238   2.851   2.658
  444SOL     OW 2230   4.047   2.175   1.142
  444SOL    HW1 2231   4.088   2.232   1.071
  444SOL    HW2 2232   3.962   2.217   1.174
  445SOL     OW 2233   2.916   6.452   4.003
  445SOL    HW1 2234   2.920   6.406   4.092
  445SOL    HW2 2235   2.882   6.545   4.015
  446SOL     OW 2236   6.274   0.332   6.842
  446SOL    HW1 2237   6.362   0.344   6.795
  446SOL    HW2 2238   6.276   0.248   6.895
  447SOL     OW 2239   5.949   3.259   0.028
  447SOL    HW1 2240   5.980   3.182   6.994
  447SOL    HW2 2241   5.862   3.235   0.072
  448SOL     OW 2242   3.600   7.021   5.212
  448SOL    HW1 2243   3.605   6.921   5.214
  448SOL    HW2 2244   3.557   0.027   5.126
  449SOL     OW 2245   1.148   4.691   4.634
  449SOL    HW1 2246   1.074   4.678   4.700
  449SOL    HW2 2247   1.236   4.680   4.680
  450SOL     OW 2248   6.608   3.402   4.706
  450SOL    HW1 2249   6.648   3.347   4.633
  450SOL    HW2 2250   6.527   3.355   4.742
  451SOL     OW 2251   3.141   1.427   6.268
  451SOL    HW1 2252   3.198   1.349   6.293
  451SOL    HW2 2253   3.198   1.505   6.246
  452SOL     OW 2254   4.446   4.900   0.517
  452SOL    HW1 2255   4.427   4.811   0.559
  452SOL    HW2 2256   4.513   4.889   0.444
  453SOL     OW 2257   4.584   0.703   0.142
  453SOL    HW1 2258   4.514   0.636   0.168
  453SOL    HW2 2259   4.580   0.718   0.043
  454SOL     OW 2260   0.259   2.707   3.699
  454SOL    HW1 2261   0.218   2.798   3.701
  454SOL    HW2 2262   0.240   2.663   3.611
  455SOL     OW 2263   5.792   5.827   0.104
  455SOL    HW1 2264   5.854   5.882   0.160
  455SOL    HW2 2265   5.830   5.816   0.012
  456SOL     OW 2266   0.785   0.965   2.584
  456SOL    HW1 2267   0.871   0.989   2.628
  456SOL    HW2 2268   0.769   1.026   2.506
  457SOL     OW 2269   3.108   5.811   0.370
  457SOL    HW1 2270   3.085   5.752   0.447
  457SOL    HW2 2271   3.174   5.766   0.311
  458SOL     OW 2272   3.537   1.512   4.678
  458SOL    HW1 2273   3.503   1.500   4.772
  458SOL    HW2 2274   3.483   1.583   4.632
  459SOL     OW 2275   3.889   0.869   3.940
  459SOL    HW1 2276   3.890   0.906   4.032
  459SOL    HW2 2277   3.981   0.873   3.901
  460SOL     OW 2278   0.872   1.405   6.105
  460SOL    HW1 2279   0.935   1.411   6.028
  460SOL    HW2 2280   0.911   1.453   6.184
  461SOL     OW 2281   0.759   0.586   5.222
  461SOL    HW1 2282   0.808   0.508   5.263
  461SOL    HW2 2283   0.817   0.668   5.229
  462SOL     OW 2284   3.605   3.797   5.173
  462SOL    HW1 2285   3.542   3.803   5.096
  462SOL    HW2 2286   3.639   3.888   5.196
  463SOL     OW 2287   5.446   6.176   2.842
  463SOL    HW1 2288   5.488   6.150   2.755
  463SOL    HW2 2289   5.347   6.168   2.834
  464SOL     OW 2290   4.858   5.733   5.157
  464SOL    HW1 2291   4.919   5.672   5.207
  464SOL    HW2 2292   4.912   5.802   5.109
  465SOL     OW 2293   1.211   5.328   1.005
  465SOL    HW1 2294   1.155   5.280   0.938
  465SOL    HW2 2295   1.164   5.330   1.093
  466SOL     OW 2296   4.058   4.838   3.974
  466SOL    HW1 2297   3.976   4.888   3.946
  466SOL    HW2 2298   4.126   4.903   4.008
  467SOL     OW 2299   6.711   0.195   0.772
  467SOL    HW1 2300   6.775   0.131   0.729
  467SOL    HW2 2301   6.741   0.212   0.866
  468SOL     OW 2302   2.269   6.898   6.425
  468SOL    HW1 2303   2.251   6.995   6.408
  468SOL    HW2 2304   2.267   6.849   6.338
  469SOL     OW 2305   4.374   5.000   5.379
  469SOL    HW1 2306   4.383   4.915   5.326
  469SOL    HW2 2307   4.331   5.070   5.322
  470SOL     OW 2308   2.733   4.863   2.493
  470SOL    HW1 2309   2.763   4.800   2.564
  470SOL    HW2 2310   2.633   4.864   2.489
  471SOL     OW 2311   1.707   2.252   4.350
  471SOL    HW1 2312   1.761   2.168   4.363
  471SOL    HW2 2313   1.610   2.229   4.345
  472SOL     OW 2314   4.203   3.861   5.806
  472SOL    HW1 2315   4.223   3.846   5.902
  472SOL    HW2 2316   4.135   3.934   5.797
  473SOL     OW 2317   6.076   3.754   2.679
  473SOL    HW1 2318   6.060   3.788   2.772
  473SOL    HW2 2319   5.999   3.781   2.621
  474SOL     OW 2320   4.564   5.235   4.161
  474SOL    HW1 2321   4.642   5.240   4.222
  474SOL    HW2 2322   4.556   5.142   4.125
  475SOL     OW 2323   5.230   1.693   0.679
  475SOL    HW1 2324   5.191   1.649   0.599
  475SOL    HW2 2325   5.281   1.775   0.651
  476SOL     OW 2326   0.665   2.873   0.434
  476SOL    HW1 2327   0.677   2.923   0.519
  476SOL    HW2 2328   0.747   2.820   0.414
  477SOL     OW 2329   6.113   6.118   4.406
  477SOL    HW1 2330   6.206   6.120   4.368
  477SOL    HW2 2331   6.109   6.049   4.479
  478SOL     OW 2332   6.268   5.898   1.491
  478SOL    HW1 2333   6.233   5.812   1.454
  478SOL    HW2 2334   6.309   5.882   1.581
  479SOL     OW 2335   4.130   3.356   2.188
  479SOL    HW1 2336   4.136   3.256   2.185
  479SOL    HW2 2337   4.165   3.388   2.277
  480SOL     OW 2338   6.374   6.912   1.015
  480SOL    HW1 2339   6.400   6.839   0.952
  480SOL    HW2 2340   6.431   6.907   1.097
  481SOL     OW 2341   5.586   6.504   6.937
  481SOL    HW1 2342   5.587   6.405   6.923
  481SOL    HW2 2343   5.495   6.540   6.919
  482SOL     OW 2344   3.885   5.702   2.238
  482SOL    HW1 2345   3.985   5.698   2.244
  482SOL    HW2 2346   3.855   5.660   2.152
  483SOL     OW 2347   6.419   2.655   5.358
  483SOL    HW1 2348   6.439   2.638   5.261
  483SOL    HW2 2349   6.465   2.738   5.387
  484SOL     OW 2350   2.479   5.796   4.161
  484SOL    HW1 2351   2.427   5.771   4.079
  484SOL    HW2 2352   2.541   5.871   4.140
  485SOL     OW 2353   5.270   3.189   0.720
  485SOL    HW1 2354   5.258   3.093   0.744
  485SOL    HW2 2355   5.337   3.196   0.645
  486SOL     OW 2356   6.422   6.361   5.715
  486SOL    HW1 2357   6.356   6.307   5.767
  486SOL    HW2 2358   6.513   6.319   5.722
  487SOL     OW 2359   5.750   1.545   6.922
  487SOL    HW1 2360   5.840   1.534   6.965
  487SOL    HW2 2361   5.760   1.588   6.833
  488SOL     OW 2362   1.955   6.516   3.910
  488SOL    HW1 2363   1.880   6.576   3.936
  488SOL    HW2 2364   1.990   6.468   3.990
  489SOL     OW 2365   2.286   4.577   5.140
  489SOL    HW1 2366   2.216   4.632   5.187
  489SOL    HW2 2367   2.241   4.508   5.083
  490SOL     OW 2368   0.850   3.991   4.827
  490SOL    HW1 2369   0.849   3.956   4.733
  490SOL    HW2 2370   0.916   4.066   4.834
  491SOL     OW 2371   6.672   3.153   2.111
  491SOL    HW1 2372   6.617   3.194   2.184
  491SOL    HW2 2373   6.750   3.106   2.152
  492SOL     OW 2374   1.835   2.249   6.005
  492SOL    HW1 2375   1.894   2.184   6.052
  492SOL    HW2 2376   1.782   2.202   5.935
  493SOL     OW 2377   2.260   5.508   3.923
  493SOL    HW1 2378   2.277   5.419   3.965
  493SOL    HW2 2379   2.207   5.494   3.839
  494SOL     OW 2380   2.475   6.507   2.376
  494SOL    HW1 2381   2.406   6.559   2.426
  494SOL    HW2 2382   2.563   6.555   2.380
  495SOL     OW 2383   3.716   4.954   6.084
  495SOL    HW1 2384   3.775   5.035   6.077
  495SOL    HW2 2385   3.674   4.936   5.995
  496SOL     OW 2386   5.004   0.240   2.350
  496SOL    HW1 2387   5.021   0.195   2.263
  496SOL    HW2 2388   5.089   0.248   2.402
  497SOL     OW 2389   4.249   2.620   1.085
  497SOL    HW1 2390   4.224   2.643   1.179
  497SOL    HW2 2391   4.204   2.683   1.021
  498SOL     OW 2392   0.624   0.178   0.283
  498SOL    HW1 2393   0.589   0.110   0.218
  498SOL    HW2 2394   0.711   0.214   0.249
  499SOL     OW 2395   2.623   6.416   6.527
  499SOL    HW1 2396   2.582   6.477   6.460
  499SOL    HW2 2397   2.560   6.339   6.544
  500SOL     OW 2398   6.273   1.835   6.436
  500SOL    HW1 2399   6.204   1.872   6.374
  500SOL    HW2 2400   6.246   1.854   6.530
  501SOL     OW 2401   2.104   2.068   4.939
  501SOL    HW1 2402   2.109   2.124   4.856
  501SOL    HW2 2403   2.028   2.100   4.996
  502SOL     OW 2404   3.293   2.785   6.526
  502SOL    HW1 2405   3.210   2.777   6.582
  502SOL    HW2 2406   3.284   2.864   6.465
  503SOL     OW 2407   3.942   4.851   1.564
  503SOL    HW1 2408   3.910   4.934   1.518
  503SOL    HW2 2409   3.863   4.794   1.588
  504SOL     OW 2410   6.318   0.311   6.464
  504SOL    HW1 2411   6.324   0.239   6.395
  504SOL    HW2 2412   6.411   0.340   6.489
  505SOL     OW 2413   0.298   3.869   5.631
  505SOL    HW1 2414   0.233   3.832   5.698
  505SOL    HW2 2415   0.318   3.799   5.563
  506SOL     OW 2416   3.242   6.165   2.475
  506SOL    HW1 2417   3.252   6.186   2.378
  506SOL    HW2 2418   3.310   6.217   2.528
  507SOL     OW 2419   2.141   6.888   3.383
  507SOL    HW1 2420   2.136   6.949   3.462
  507SOL    HW2 2421   2.113   6.937   3.301
  508SOL     OW 2422   0.369   4.440   3.067
  508SOL    HW1 2423   0.343   4.381   2.991
  508SOL    HW2 2424   0.417   4.386   3.136
  509SOL     OW 2425   4.347   0.121   5.427
  509SOL    HW1 2426   4.313   0.174   5.504
  509SOL    HW2 2427   4.447   0.127   5.423
  510SOL     OW 2428   6.519   4.779   6.852
  510SOL    HW1 2429   6.586   4.844   6.887
  510SOL    HW2 2430   6.438   4.829   6.819
  511SOL     OW 2431   6.820   2.454   0.758
  511SOL    HW1 2432   6.784   2.361   0.750
  511SOL    HW2 2433   6.848   2.471   0.852
  512SOL     OW 2434   2.036   1.382   4.678
  512SOL    HW1 2435   2.130   1.364   4.707
  512SOL    HW2 2436   2.036   1.418   4.585
  513SOL     OW 2437   5.824   5.666   1.971
  513SOL    HW1 2438   5.810   5.739   2.038
  513SOL    HW2 2439   5.809   5.702   1.879
  514SOL     OW 2440   5.324   0.918   5.227
  514SOL    HW1 2441   5.261   0.995   5.215
  514SOL    HW2 2442   5.296   0.865   5.307
  515SOL     OW 2443   3.375   0.279   6.628
  515SOL    HW1 2444   3.393   0.369   6.589
  515SOL    HW2 2445   3.289   0.244   6.592
  516SOL     OW 2446   0.577   5.658   2.469
  516SOL    HW1 2447   0.606   5.562   2.459
  516SOL    HW2 2448   0.617   5.696   2.553
  517SOL     OW 2449   3.322   5.234   0.270
  517SOL    HW1 2450   3.354   5.239   0.364
  517SOL    HW2 2451   3.397   5.257   0.208
  518SOL     OW 2452   2.468   0.049   3.128
  518SOL    HW1 2453   2.497   0.143   3.144
  518SOL    HW2 2454   2.459   0.033   3.029
  519SOL     OW 2455   0.429   6.584   3.595
  519SOL    HW1 2456   0.439   6.601   3.497
  519SOL    HW2 2457   0.501   6.631   3.645
  520SOL     OW 2458   3.069   5.711   6.928
  520SOL    HW1 2459   3.108   5.782   6.988
  520SOL    HW2 2460   3.058   5.748   6.836
  521SOL     OW 2461   0.077   0.109   5.025
  521SOL    HW1 2462   0.105   0.013   5.018
  521SOL    HW2 2463   0.059   0.144   4.933
  522SOL     OW 2464   3.170   6.048   5.576
  522SOL    HW1 2465   3.154   6.128   5.634
  522SOL    HW2 2466   3.088   6.028   5.523
  523SOL     OW 2467   1.898   0.084   6.130
  523SOL    HW1 2468   1.823   0.128   6.081
  523SOL    HW2 2469   1.890   7.007   6.121
  524SOL     OW 2470   6.354   1.949   1.685
  524SOL    HW1 2471   6.266   1.994   1.670
  524SOL    HW2 2472   6.415   1.967   1.608
  525SOL     OW 2473   6.786   3.398   3.812
  525SOL    HW1 2474   6.697   3.419   3.773
  525SOL    HW2 2475   6.857   3.410   3.742
  526SOL     OW 2476   4.236   5.906   5.147
  526SOL    HW1 2477   4.309   5.928   5.211
  526SOL    HW2 2478   4.150   5.946   5.180
  527SOL     OW 2479   6.594   1.747   0.346
  527SOL    HW1 2480   6.621   1.839   0.375
  527SOL    HW2 2481   6.671   1.684   0.360
  528SOL     OW 2482   0.068   1.482   3.196
  528SOL    HW1 2483   0.007   1.489   3.118
  528SOL    HW2 2484   0.035   1.412   3.259
  529SOL     OW 2485   1.217   2.150   5.467
  529SOL    HW1 2486   1.253   2.074   5.412
  529SOL    HW2 2487   1.270   2.159   5.551
  530SOL     OW 2488   3.366   4.479   1.671
  530SOL    HW1 2489   3.387   4.382   1.661
  530SOL    HW2 2490   3.442   4.526   1.718
  531SOL     OW 2491   0.183   1.101   5.885
  531SOL    HW1 2492   0.167   1.190   5.927
  531SOL    HW2 2493   0.097   1.066   5.848
  532SOL     OW 2494   3.451   1.341   6.497
  532SOL    HW1 2495   3.441   1.320   6.594
  532SOL    HW2 2496   3.383   1.290   6.445
  533SOL     OW 2497   3.383   6.886   4.553
  533SOL    HW1 2498   3.411   6.981   4.545
  533SOL    HW2 2499   3.393   6.856   4.648
  534SOL     OW 2500   1.559   4.356   0.908
  534SOL    HW1 2501   1.552   4.392   0.815
  534SOL    HW2 2502   1.553   4.256   0.905
  535SOL     OW 2503   5.113   3.916   3.774
  535SOL    HW1 2504   5.041   3.976   3.810
  535SOL    HW2 2505   5.073   3.853   3.708
  536SOL     OW 2506   6.401   0.364   0.659
  536SOL    HW1 2507   6.486   0.315   0.677
  536SOL    HW2 2508   6.334   0.342   0.730
  537SOL     OW 2509   3.580   1.925   2.524
  537SOL    HW1 2510   3.577   1.843   2.582
  537SOL    HW2 2511   3.656   1.917   2.460
  538SOL     OW 2512   4.057   5.795   6.881
  538SOL    HW1 2513   4.139   5.853   6.882
  538SOL    HW2 2514   4.033   5.772   6.975
  539SOL     OW 2515   2.941   6.807   6.611
  539SOL    HW1 2516   2.925   6.788   6.514
  539SOL    HW2 2517   2.958   6.721   6.659
  540SOL     OW 2518   1.729   1.506   5.517
  540SOL    HW1 2519   1.691   1.565   5.588
  540SOL    HW2 2520   1.722   1.551   5.428
  541SOL     OW 2521   6.174   5.812   1.920
  541SOL    HW1 2522   6.101   5.879   1.905
  541SOL    HW2 2523   6.175   5.785   2.016
  542SOL     OW 2524   3.817   5.938   6.591
  542SOL    HW1 2525   3.766   5.896   6.516
  542SOL    HW2 2526   3.772   6.022   6.620
  543SOL     OW 2527   6.588   2.354   5.130
  543SOL    HW1 2528   6.495   2.325   5.152
  543SOL    HW2 2529   6.633   2.389   5.213
  544SOL     OW 2530   1.173   1.963   1.142
  544SOL    HW1 2531   1.234   1.905   1.088
  544SOL    HW2 2532   1.101   2.000   1.084
  545SOL     OW 2533   6.877   4.770   0.760
  545SOL    HW1 2534   6.819   4.751   0.680
  545SOL    HW2 2535   6.823   4.816   0.830
  546SOL     OW 2536   0.031   5.793   2.477
  546SOL    HW1 2537   6.984   5.786   2.549
  546SOL    HW2 2538   0.116   5.750   2.508
  547SOL     OW 2539   3.302   6.539   0.259
  547SOL    HW1 2540   3.352   6.490   0.188
  547SOL    HW2 2541   3.321   6.637   0.252
  548SOL     OW 2542   4.097   2.998   6.670
  548SOL    HW1 2543   4.130   2.946   6.591
  548SOL    HW2 2544   4.048   3.079   6.638
  549SOL     OW 2545   4.817   2.795   3.761
  549SOL    HW1 2546   4.732   2.749   3.738
  549SOL    HW2 2547   4.876   2.732   3.812
  550SOL     OW 2548   6.854   5.956   4.197
  550SOL    HW1 2549   6.765   5.973   4.155
  550SOL    HW2 2550   6.909   5.897   4.138
  551SOL     OW 2551   5.254   0.813   6.609
  551SOL    HW1 2552   5.250   0.714   6.622
  551SOL    HW2 2553   5.333   0.835   6.552
  552SOL     OW 2554   1.221   0.314   4.021
  552SOL    HW1 2555   1.307   0.333   3.974
  552SOL    HW2 2556   1.158   0.391   4.006
  553SOL     OW 2557   4.464   2.616   5.788
  553SOL    HW1 2558   4.476   2.619   5.888
  553SOL    HW2 2559   4.406   2.693   5.760
  554SOL     OW 2560   6.487   4.810   0.670
  554SOL    HW1 2561   6.510   4.713   0.677
  554SOL    HW2 2562   6.393   4.819   0.637
  555SOL     OW 2563   4.085   4.536   5.573
  555SOL    HW1 2564   4.116   4.546   5.478
  555SOL    HW2 2565   4.032   4.452   5.583
  556SOL     OW 2566   5.175   6.105   2.836
  556SOL    HW1 2567   5.159   6.066   2.927
  556SOL    HW2 2568   5.208   6.033   2.775
  557SOL     OW 2569   0.369   3.658   6.737
  557SOL    HW1 2570   0.297   3.604   6.781
  557SOL    HW2 2571   0.418   3.711   6.807
  558SOL     OW 2572   3.597   3.688   1.614
  558SOL    HW1 2573   3.647   3.623   1.556
  558SOL    HW2 2574   3.547   3.752   1.556
  559SOL     OW 2575   5.499   1.368   5.687
  559SOL    HW1 2576   5.441   1.428   5.632
  559SOL    HW2 2577   5.579   1.341   5.633
  560SOL     OW 2578   1.747   2.626   3.058
  560SOL    HW1 2579   1.845   2.645   3.045
  560SOL    HW2 2580   1.729   2.530   3.041
  561SOL     OW 2581   6.390   3.966   0.769
  561SOL    HW1 2582   6.350   4.053   0.740
  561SOL    HW2 2583   6.344   3.891   0.721
  562SOL     OW 2584   2.998   6.169   2.601
  562SOL    HW1 2585   2.989   6.084   2.654
  562SOL    HW2 2586   3.086   6.169   2.554
  563SOL     OW 2587   0.742   0.366   3.919
  563SOL    HW1 2588   0.810   0.388   3.848
  563SOL    HW2 2589   0.713   0.450   3.964
  564SOL     OW 2590   6.208   3.152   6.069
  564SOL    HW1 2591   6.221   3.172   6.166
  564SOL    HW2 2592   6.203   3.053   6.056
  565SOL     OW 2593   3.722   3.267   3.505
  565SOL    HW1 2594   3.744   3.300   3.596
  565SOL    HW2 2595   3.739   3.168   3.501
  566SOL     OW 2596   0.921   2.446   3.268
  566SOL    HW1 2597   0.876   2.368   3.312
  566SOL    HW2 2598   0.855   2.495   3.211
  567SOL     OW 2599   1.989   2.574   5.155
  567SOL    HW1 2600   1.910   2.635   5.154
  567SOL    HW2 2601   2.071   2.626   5.183
  568SOL     OW 2602   0.740   0.256   6.567
  568SOL    HW1 2603   0.684   0.326   6.610
  568SOL    HW2 2604   0.681   0.191   6.519
  569SOL     OW 2605   5.237   3.242   5.097
  569SOL    HW1 2606   5.210   3.309   5.027
  569SOL    HW2 2607   5.245   3.288   5.185
  570SOL     OW 2608   2.709   0.411   5.740
  570SOL    HW1 2609   2.768   0.459   5.805
  570SOL    HW2 2610   2.626   0.381   5.787
  571SOL     OW 2611   2.221   4.195   2.387
  571SOL    HW1 2612   2.244   4.212   2.483
  571SOL    HW2 2613   2.195   4.099   2.376
  572SOL     OW 2614   2.882   1.461   4.735
  572SOL    HW1 2615   2.863   1.540   4.677
  572SOL    HW2 2616   2.910   1.493   4.826
  573SOL     OW 2617   0.294   0.169   5.654
  573SOL    HW1 2618   0.230   0.225   5.603
  573SOL    HW2 2619   0.325   0.219   5.735
  574SOL     OW 2620   3.388   1.275   5.556
  574SOL    HW1 2621   3.329   1.226   5.492
  574SOL    HW2 2622   3.337   1.349   5.600
  575SOL     OW 2623   3.711   4.073   6.712
  575SOL    HW1 2624   3.773   4.085   6.789
  575SOL    HW2 2625   3.719   4.151   6.650
  576SOL     OW 2626   0.128   1.146   3.990
  576SOL    HW1 2627   0.103   1.095   3.908
  576SOL    HW2 2628   0.178   1.229   3.964
  577SOL     OW 2629   6.120   0.335   1.393
  577SOL    HW1 2630   6.087   0.254   1.343
  577SOL    HW2 2631   6.219   0.342   1.382
  578SOL     OW 2632   4.326   6.291   1.023
  578SOL    HW1 2633   4.273   6.374   1.006
  578SOL    HW2 2634   4.348   6.247   0.936
  579SOL     OW 2635   0.432   4.133   2.079
  579SOL    HW1 2636   0.482   4.047   2.069
  579SOL    HW2 2637   0.427   4.158   2.176
  580SOL     OW 2638   4.714   4.288   4.877
  580SOL    HW1 2639   4.737   4.191   4.884
  580SOL    HW2 2640   4.672   4.318   4.963
  581SOL     OW 2641   2.791   1.763   4.093
  581SOL    HW1 2642   2.888   1.780   4.112
  581SOL    HW2 2643   2.776   1.763   3.994
  582SOL     OW 2644   6.608   4.637   5.353
  582SOL    HW1 2645   6.586   4.589   5.268
  582SOL    HW2 2646   6.647   4.726   5.331
  583SOL     OW 2647   2.927   6.217   4.900
  583SOL    HW1 2648   2.934   6.306   4.855
  583SOL    HW2 2649   2.933   6.145   4.831
  584SOL     OW 2650   4.103   0.698   4.805
  584SOL    HW1 2651   4.096   0.688   4.705
  584SOL    HW2 2652   4.074   0.790   4.831
  585SOL     OW 2653   3.825   6.608   1.698
  585SOL    HW1 2654   3.744   6.617   1.641
  585SOL    HW2 2655   3.833   6.688   1.758
  586SOL     OW 2656   3.398   6.523   1.125
  586SOL    HW1 2657   3.345   6.466   1.187
  586SOL    HW2 2658   3.372   6.503   1.031
  587SOL     OW 2659   5.818   0.632   3.406
  587SOL    HW1 2660   5.831   0.570   3.483
  587SOL    HW2 2661   5.811   0.580   3.321
  588SOL     OW 2662   2.276   4.175   3.001
  588SOL    HW1 2663   2.342   4.250   2.988
  588SOL    HW2 2664   2.195   4.210   3.047
  589SOL     OW 2665   3.467   5.275   5.427
  589SOL    HW1 2666   3.404   5.230   5.364
  589SOL    HW2 2667   3.452   5.240   5.520
  590SOL     OW 2668   1.756   0.744   6.474
  590SOL    HW1 2669   1.746   0.821   6.537
  590SOL    HW2 2670   1.785   0.663   6.524
  591SOL     OW 2671   2.749   0.294   3.754
  591SOL    HW1 2672   2.698   0.319   3.837
  591SOL    HW2 2673   2.739   0.367   3.686
  592SOL     OW 2674   5.211   1.235   4.112
  592SOL    HW1 2675   5.193   1.286   4.028
  592SOL    HW2 2676   5.144   1.262   4.181
  593SOL     OW 2677   1.146   6.706   6.808
  593SOL    HW1 2678   1.098   6.727   6.723
  593SOL    HW2 2679   1.242   6.734   6.800
  594SOL     OW 2680   2.604   1.215   4.670
  594SOL    HW1 2681   2.680   1.196   4.608
  594SOL    HW2 2682   2.639   1.224   4.763
  595SOL     OW 2683   5.592   3.875   3.006
  595SOL    HW1 2684   5.586   3.870   2.906
  595SOL    HW2 2685   5.634   3.791   3.041
  596SOL     OW 2686   6.772   5.228   5.030
  596SOL    HW1 2687   6.814   5.180   5.107
  596SOL    HW2 2688   6.716   5.164   4.978
  597SOL     OW 2689   3.310   0.856   6.634
  597SOL    HW1 2690   3.253   0.786   6.676
  597SOL    HW2 2691   3.251   0.924   6.589
  598SOL     OW 2692   3.192   2.925   2.225
  598SOL    HW1 2693   3.145   2.989   2.164
  598SOL    HW2 2694   3.162   2.832   2.206
  599SOL     OW 2695   1.718   5.627   2.065
  599SOL    HW1 2696   1.696   5.679   1.983
  599SOL    HW2 2697   1.735   5.691   2.141
  600SOL     OW 2698   0.699   4.502   5.245
  600SOL    HW1 2699   0.738   4.441   5.315
  600SOL    HW2 2700   0.761   4.579   5.230
  601SOL     OW 2701   6.708   0.003   6.012
  601SOL    HW1 2702   6.689   6.943   6.066
  601SOL    HW2 2703   6.696   7.005   5.915
  602SOL     OW 2704   0.444   0.734   3.026
  602SOL    HW1 2705   0.527   0.759   3.075
  602SOL    HW2 2706   0.365   0.750   3.084
  603SOL     OW 2707   1.236   1.247   3.662
  603SOL    HW1 2708   1.173   1.324   3.676
  603SOL    HW2 2709   1.327   1.272   3.694
  604SOL     OW 2710   5.261   2.632   0.919
  604SOL    HW1 2711   5.241   2.644   1.016
  604SOL    HW2 2712   5.181   2.591   0.874
  605SOL     OW 2713   6.076   6.586   1.544
  605SOL    HW1 2714   6.011   6.622   1.477
  605SOL    HW2 2715   6.132   6.661   1.580
  606SOL     OW 2716   2.358   6.641   5.542
  606SOL    HW1 2717   2.303   6.666   5.622
  606SOL    HW2 2718   2.435   6.704   5.534
  607SOL     OW 2719   1.700   3.519   5.733
  607SOL    HW1 2720   1.684   3.593   5.667
  607SOL    HW2 2721   1.719   3.434   5.683
  608SOL     OW 2722   2.505   1.184   6.834
  608SOL    HW1 2723   2.486   1.210   6.739
  608SOL    HW2 2724   2.473   1.257   6.895
  609SOL     OW 2725   3.669   3.077   2.428
  609SOL    HW1 2726   3.759   3.082   2.470
  609SOL    HW2 2727   3.607   3.024   2.486
  610SOL     OW 2728   5.645   2.855   2.767
  610SOL    HW1 2729   5.695   2.867   2.853
  610SOL    HW2 2730   5.576   2.783   2.778
  611SOL     OW 2731   4.218   1.263   2.150
  611SOL    HW1 2732   4.292   1.197   2.133
  611SOL    HW2 2733   4.247   1.328   2.220
  612SOL     OW 2734   4.280   5.250   4.266
  612SOL    HW1 2735   4.267   5.287   4.358
  612SOL    HW2 2736   4.377   5.254   4.242
  613SOL     OW 2737   4.174   6.844   6.309
  613SOL    HW1 2738   4.196   6.921   6.249
  613SOL    HW2 2739   4.111   6.782   6.262
  614SOL     OW 2740   3.149   6.844   6.020
  614SOL    HW1 2741   3.214   6.854   6.095
  614SOL    HW2 2742   3.104   6.755   6.026
  615SOL     OW 2743   0.058   5.073   4.258
  615SOL    HW1 2744   0.157   5.079   4.274
  615SOL    HW2 2745   0.021   4.994   4.306
  616SOL     OW 2746   6.823   2.837   3.844
  616SOL    HW1 2747   6.754   2.785   3.795
  616SOL    HW2 2748   6.880   2.775   3.898
  617SOL     OW 2749   2.843   0.119   6.167
  617SOL    HW1 2750   2.924   0.062   6.172
  617SOL    HW2 2751   2.773   0.073   6.113
  618SOL     OW 2752   2.375   6.737   3.384
  618SOL    HW1 2753   2.284   6.777   3.376
  618SOL    HW2 2754   2.372   6.660   3.448
  619SOL     OW 2755   1.234   3.386   6.967
  619SOL    HW1 2756   1.183   3.413   0.027
  619SOL    HW2 2757   1.307   3.323   6.993
  620SOL     OW 2758   4.848   3.634   1.087
  620SOL    HW1 2759   4.937   3.633   1.041
  620SOL    HW2 2760   4.776   3.648   1.019
  621SOL     OW 2761   0.181   5.870   1.251
  621SOL    HW1 2762   0.084   5.896   1.246
  621SOL    HW2 2763   0.219   5.904   1.337
  622SOL     OW 2764   1.677   1.559   6.943
  622SOL    HW1 2765   1.585   1.546   6.907
  622SOL    HW2 2766   1.675   1.626   7.018
  623SOL     OW 2767   5.901   5.771   5.629
  623SOL    HW1 2768   5.913   5.754   5.531
  623SOL    HW2 2769   5.891   5.684   5.677
  624SOL     OW 2770   6.864   1.349   1.303
  624SOL    HW1 2771   6.823   1.440   1.304
  624SOL    HW2 2772   6.940   1.347   1.239
  625SOL     OW 2773   2.146   1.158   1.726
  625SOL    HW1 2774   2.114   1.197   1.813
  625SOL    HW2 2775   2.125   1.061   1.723
  626SOL     OW 2776   3.885   6.058   5.692
  626SOL    HW1 2777   3.931   5.970   5.703
  626SOL    HW2 2778   3.953   6.131   5.692
  627SOL     OW 2779   4.057   5.054   6.943
  627SOL    HW1 2780   4.002   5.130   6.979
  627SOL    HW2 2781   3.998   4.975   6.928
  628SOL     OW 2782   4.935   3.541   4.073
  628SOL    HW1 2783   5.000   3.557   3.998
  628SOL    HW2 2784   4.943   3.447   4.105
  629SOL     OW 2785   0.911   0.389   1.529
  629SOL    HW1 2786   0.999   0.399   1.483
  629SOL    HW2 2787   0.843   0.448   1.484
  630SOL     OW 2788   2.353   1.117   2.205
  630SOL    HW1 2789   2.424   1.085   2.143
  630SOL    HW2 2790   2.387   1.114   2.299
  631SOL     OW 2791   2.964   1.319   3.767
  631SOL    HW1 2792   2.926   1.377   3.839
  631SOL    HW2 2793   3.059   1.346   3.751
  632SOL     OW 2794   2.893   1.180   0.265
  632SOL    HW1 2795   2.977   1.199   0.316
  632SOL    HW2 2796   2.853   1.094   0.296
  633SOL     OW 2797   2.136   0.132   4.002
  633SOL    HW1 2798   2.228   0.126   4.039
  633SOL    HW2 2799   2.081   0.056   4.035
  634SOL     OW 2800   2.581   5.478   1.754
  634SOL    HW1 2801   2.483   5.499   1.745
  634SOL    HW2 2802   2.602   5.395   1.702
  635SOL     OW 2803   2.797   6.721   1.625
  635SOL    HW1 2804   2.847   6.731   1.539
  635SOL    HW2 2805   2.699   6.734   1.607
  636SOL     OW 2806   5.076   5.284   6.464
  636SOL    HW1 2807   5.060   5.205   6.404
  636SOL    HW2 2808   5.008   5.355   6.445
  637SOL     OW 2809   6.137   4.612   6.378
  637SOL    HW1 2810   6.058   4.571   6.331
  637SOL    HW2 2811   6.111   4.637   6.471
  638SOL     OW 2812   5.438   1.617   3.467
  638SOL    HW1 2813   5.350   1.571   3.478
  638SOL    HW2 2814   5.492   1.606   3.550
  639SOL     OW 2815   3.410   3.537   1.293
  639SOL    HW1 2816   3.402   3.634   1.315
  639SOL    HW2 2817   3.413   3.526   1.194
  640SOL     OW 2818   2.994   3.227   5.308
  640SOL    HW1 2819   2.945   3.308   5.276
  640SOL    HW2 2820   3.023   3.240   5.402
  641SOL     OW 2821   0.823   0.598   4.702
  641SOL    HW1 2822   0.749   0.542   4.666
  641SOL    HW2 2823   0.848   0.565   4.793
  642SOL     OW 2824   0.329   5.120   6.902
  642SOL    HW1 2825   0.308   5.062   6.981
  642SOL    HW2 2826   0.393   5.072   6.842
  643SOL     OW 2827   5.191   6.824   4.425
  643SOL    HW1 2828   5.151   6.733   4.423
  643SOL    HW2 2829   5.246   6.835   4.507
  644SOL     OW 2830   3.319   5.953   2.041
  644SOL    HW1 2831   3.403   6.006   2.056
  644SOL    HW2 2832   3.262   5.956   2.123
  645SOL     OW 2833   0.570   3.056   3.324
  645SOL    HW1 2834   0.668   3.072   3.310
  645SOL    HW2 2835   0.558   2.986   3.394
  646SOL     OW 2836   1.853   3.597   4.267
  646SOL    HW1 2837   1.834   3.509   4.225
  646SOL    HW2 2838   1.771   3.630   4.314
  647SOL     OW 2839   5.562   5.180   0.851
  647SOL    HW1 2840   5.649   5.214   0.815
  647SOL    HW2 2841   5.505   5.257   0.879
  648SOL     OW 2842   4.700   2.088   3.940
  648SOL    HW1 2843   4.785   2.105   3.989
  648SOL    HW2 2844   4.624   2.135   3.985
  649SOL     OW 2845   4.359   4.219   1.420
  649SOL    HW1 2846   4.327   4.292   1.360
  649SOL    HW2 2847   4.320   4.132   1.389
  650SOL     OW 2848   6.097   5.163   0.704
  650SOL    HW1 2849   6.194   5.145   0.692
  650SOL    HW2 2850   6.071   5.245   0.652
  651SOL     OW 2851   1.181   5.627   6.321
  651SOL    HW1 2852   1.239   5.689   6.267
  651SOL    HW2 2853   1.238   5.563   6.372
  652SOL     OW 2854   5.012   2.898   1.623
  652SOL    HW1 2855   4.925   2.878   1.668
  652SOL    HW2 2856   5.086   2.849   1.669
  653SOL     OW 2857   3.812   5.843   2.444
  653SOL    HW1 2858   3.826   5.797   2.357
  653SOL    HW2 2859   3.764   5.782   2.507
  654SOL     OW 2860   0.062   4.178   6.764
  654SOL    HW1 2861   0.105   4.103   6.713
  654SOL    HW2 2862   0.066   4.261   6.709
  655SOL     OW 2863   1.969   1.519   0.899
  655SOL    HW1 2864   1.910   1.521   0.981
  655SOL    HW2 2865   2.052   1.570   0.917
  656SOL     OW 2866   2.738   6.003   0.532
  656SOL    HW1 2867   2.698   6.059   0.605
  656SOL    HW2 2868   2.666   5.975   0.468
  657SOL     OW 2869   3.837   0.492   6.446
  657SOL    HW1 2870   3.834   0.465   6.350
  657SOL    HW2 2871   3.914   0.554   6.461
  658SOL     OW 2872   4.092   5.471   0.102
  658SOL    HW1 2873   4.157   5.442   0.031
  658SOL    HW2 2874   4.141   5.512   0.178
  659SOL     OW 2875   2.915   1.005   6.208
  659SOL    HW1 2876   2.934   1.103   6.215
  659SOL    HW2 2877   2.819   0.992   6.184
  660SOL     OW 2878   2.939   5.966   3.685
  660SOL    HW1 2879   2.959   5.868   3.694
  660SOL    HW2 2880   2.841   5.981   3.701
  661SOL     OW 2881   0.047   5.480   3.221
  661SOL    HW1 2882   6.988   5.422   3.233
  661SOL    HW2 2883   0.026   5.573   3.250
  662SOL     OW 2884   3.715   2.085   0.024
  662SOL    HW1 2885   3.639   2.065   6.985
  662SOL    HW2 2886   3.738   2.182   0.018
  663SOL     OW 2887   1.416   3.801   4.806
  663SOL    HW1 2888   1.383   3.883   4.760
  663SOL    HW2 2889   1.507   3.818   4.845
  664SOL     OW 2890   5.559   0.240   6.160
  664SOL    HW1 2891   5.490   0.254   6.089
  664SOL    HW2 2892   5.529   0.284   6.245
  665SOL     OW 2893   1.893   4.073   2.801
  665SOL    HW1 2894   1.826   4.017   2.751
  665SOL    HW2 2895   1.985   4.039   2.782
  666SOL     OW 2896   4.302   1.384   2.743
  666SOL    HW1 2897   4.334   1.435   2.822
  666SOL    HW2 2898   4.261   1.297   2.773
  667SOL     OW 2899   6.014   6.638   1.111
  667SOL    HW1 2900   5.982   6.681   1.196
  667SOL    HW2 2901   5.967   6.550   1.100
  668SOL     OW 2902   4.963   3.431   6.718
  668SOL    HW1 2903   5.041   3.493   6.724
  668SOL    HW2 2904   4.917   3.443   6.630
  669SOL     OW 2905   5.887   0.547   3.664
  669SOL    HW1 2906   5.892   0.549   3.764
  669SOL    HW2 2907   5.969   0.503   3.628
  670SOL     OW 2908   4.157   1.971   2.301
  670SOL    HW1 2909   4.122   2.062   2.277
  670SOL    HW2 2910   4.256   1.969   2.286
  671SOL     OW 2911   0.901   5.453   1.856
  671SOL    HW1 2912   0.986   5.490   1.818
  671SOL    HW2 2913   0.883   5.363   1.817
  672SOL     OW 2914   6.953   7.000   1.581
  672SOL    HW1 2915   7.010   0.002   1.659
  672SOL    HW2 2916   6.907   6.913   1.599
  673SOL     OW 2917   6.776   6.822   6.323
  673SOL    HW1 2918   6.732   6.793   6.409
  673SOL    HW2 2919   6.720   6.793   6.246
  674SOL     OW 2920   4.913   6.654   4.287
  674SOL    HW1 2921   4.931   6.700   4.199
  674SOL    HW2 2922   4.849   6.579   4.272
  675SOL     OW 2923   0.246   4.776   2.355
  675SOL    HW1 2924   0.193   4.791   2.272
  675SOL    HW2 2925   0.230   4.850   2.420
  676SOL     OW 2926   2.168   5.948   6.552
  676SOL    HW1 2927   2.258   5.955   6.596
  676SOL    HW2 2928   2.102   5.914   6.618
  677SOL     OW 2929   5.406   0.807   1.001
  677SOL    HW1 2930   5.350   0.801   0.919
  677SOL    HW2 2931   5.497   0.768   0.982
  678SOL     OW 2932   0.186   5.512   4.173
  678SOL    HW1 2933   0.166   5.588   4.235
  678SOL    HW2 2934   0.108   5.451   4.167
  679SOL     OW 2935   5.818   0.324   6.085
  679SOL    HW1 2936   5.730   0.279   6.103
  679SOL    HW2 2937   5.823   0.408   6.139
  680SOL     OW 2938   6.238   0.217   3.814
  680SOL    HW1 2939   6.173   0.238   3.887
  680SOL    HW2 2940   6.187   0.187   3.733
  681SOL     OW 2941   4.687   4.761   3.148
  681SOL    HW1 2942   4.662   4.792   3.240
  681SOL    HW2 2943   4.734   4.835   3.100
  682SOL     OW 2944   6.152   2.470   3.715
  682SOL    HW1 2945   6.111   2.395   3.664
  682SOL    HW2 2946   6.206   2.527   3.653
  683SOL     OW 2947   2.828   5.909   6.778
  683SOL    HW1 2948   2.799   5.817   6.751
  683SOL    HW2 2949   2.928   5.912   6.785
  684SOL     OW 2950   5.597   2.292   6.082
  684SOL    HW1 2951   5.690   2.298   6.117
  684SOL    HW2 2952   5.588   2.213   6.022
  685SOL     OW 2953   3.480   6.554   3.101
  685SOL    HW1 2954   3.384   6.533   3.121
  685SOL    HW2 2955   3.490   6.652   3.088
  686SOL     OW 2956   2.572   0.757   5.511
  686SOL    HW1 2957   2.536   0.815   5.438
  686SOL    HW2 2958   2.669   0.738   5.495
  687SOL     OW 2959   0.596   1.156   4.632
  687SOL    HW1 2960   0.619   1.216   4.708
  687SOL    HW2 2961   0.668   1.087   4.620
  688SOL     OW 2962   4.762   3.715   6.562
  688SOL    HW1 2963   4.822   3.639   6.538
  688SOL    HW2 2964   4.704   3.738   6.483
  689SOL     OW 2965   2.134   6.254   6.814
  689SOL    HW1 2966   2.055   6.236   6.873
  689SOL    HW2 2967   2.173   6.167   6.783
  690SOL     OW 2968   5.731   3.200   4.231
  690SOL    HW1 2969   5.818   3.168   4.194
  690SOL    HW2 2970   5.710   3.290   4.193
  691SOL     OW 2971   5.602   6.489   2.875
  691SOL    HW1 2972   5.683   6.448   2.918
  691SOL    HW2 2973   5.520   6.454   2.921
  692SOL     OW 2974   1.809   6.816   3.371
  692SOL    HW1 2975   1.777   6.790   3.462
  692SOL    HW2 2976   1.900   6.857   3.378
  693SOL     OW 2977   5.978   4.117   1.847
  693SOL    HW1 2978   5.923   4.197   1.824
  693SOL    HW2 2979   6.063   4.146   1.892
  694SOL     OW 2980   4.452   5.078   4.529
  694SOL    HW1 2981   4.422   5.145   4.462
  694SOL    HW2 2982   4.390   5.078   4.607
  695SOL     OW 2983   4.514   0.240   4.598
  695SOL    HW1 2984   4.599   0.198   4.629
  695SOL    HW2 2985   4.529   0.338   4.581
  696SOL     OW 2986   6.689   4.316   1.618
  696SOL    HW1 2987   6.724   4.280   1.532
  696SOL    HW2 2988   6.757   4.377   1.659
  697SOL     OW 2989   1.141   6.374   3.431
  697SOL    HW1 2990   1.052   6.345   3.468
  697SOL    HW2 2991   1.154   6.471   3.449
  698SOL     OW 2992   5.635   6.739   5.325
  698SOL    HW1 2993   5.559   6.687   5.286
  698SOL    HW2 2994   5.634   6.832   5.289
  699SOL     OW 2995   4.475   2.831   0.762
  699SOL    HW1 2996   4.457   2.742   0.720
  699SOL    HW2 2997   4.401   2.855   0.824
  700SOL     OW 2998   3.684   0.141   5.434
  700SOL    HW1 2999   3.653   0.085   5.357
  700SOL    HW2 3000   3.609   0.200   5.464
  701SOL     OW 3001   4.563   4.202   1.613
  701SOL    HW1 3002   4.493   4.218   1.544
  701SOL    HW2 3003   4.523   4.208   1.704
  702SOL     OW 3004   3.224   0.836   5.140
  702SOL    HW1 3005   3.273   0.913   5.099
  702SOL    HW2 3006   3.288   0.781   5.193
  703SOL     OW 3007   3.804   3.188   0.711
  703SOL    HW1 3008   3.863   3.174   0.791
  703SOL    HW2 3009   3.856   3.166   0.628
  704SOL     OW 3010   3.368   1.884   0.298
  704SOL    HW1 3011   3.439   1.860   0.232
  704SOL    HW2 3012   3.302   1.809   0.304
  705SOL     OW 3013   6.601   6.709   6.519
  705SOL    HW1 3014   6.510   6.729   6.555
  705SOL    HW2 3015   6.656   6.666   6.590
  706SOL     OW 3016   3.708   0.227   4.814
  706SOL    HW1 3017   3.728   0.152   4.877
  706SOL    HW2 3018   3.775   0.228   4.740
  707SOL     OW 3019   3.841   5.169   4.205
  707SOL    HW1 3020   3.932   5.189   4.242
  707SOL    HW2 3021   3.823   5.071   4.213
  708SOL     OW 3022   2.806   5.671   4.070
  708SOL    HW1 3023   2.866   5.599   4.037
  708SOL    HW2 3024   2.751   5.705   3.994
  709SOL     OW 3025   1.845   6.882   1.726
  709SOL    HW1 3026   1.894   6.949   1.782
  709SOL    HW2 3027   1.765   6.849   1.777
  710SOL     OW 3028   4.758   2.850   3.154
  710SOL    HW1 3029   4.671   2.814   3.119
  710SOL    HW2 3030   4.831   2.785   3.135
  711SOL     OW 3031   6.377   1.280   0.366
  711SOL    HW1 3032   6.391   1.182   0.379
  711SOL    HW2 3033   6.367   1.325   0.455
  712SOL     OW 3034   4.557   4.712   6.244
  712SOL    HW1 3035   4.625   4.646   6.210
  712SOL    HW2 3036   4.542   4.695   6.342
  713SOL     OW 3037   2.501   2.799   5.336
  713SOL    HW1 3038   2.467   2.812   5.428
  713SOL    HW2 3039   2.488   2.882   5.282
  714SOL     OW 3040   3.978   0.028   2.055
  714SOL    HW1 3041   3.932   0.071   1.977
  714SOL    HW2 3042   3.909   7.021   2.122
  715SOL     OW 3043   6.372   4.027   5.883
  715SOL    HW1 3044   6.437   4.103   5.885
  715SOL    HW2 3045   6.390   3.965   5.959
  716SOL     OW 3046   3.023   0.640   3.272
  716SOL    HW1 3047   3.116   0.620   3.240
  716SOL    HW2 3048   2.967   0.669   3.194
  717SOL     OW 3049   5.286   4.515   3.452
  717SOL    HW1 3050   5.218   4.538   3.521
  717SOL    HW2 3051   5.246   4.528   3.361
  718SOL     OW 3052   6.827   1.999   5.735
  718SOL    HW1 3053   6.886   2.079   5.745
  718SOL    HW2 3054   6.842   1.957   5.645
  719SOL     OW 3055   4.570   5.434   2.497
  719SOL    HW1 3056   4.471   5.427   2.480
  719SOL    HW2 3057   4.619   5.379   2.430
  720SOL     OW 3058   3.251   1.366   1.175
  720SOL    HW1 3059   3.202   1.437   1.226
  720SOL    HW2 3060   3.185   1.301   1.137
  721SOL     OW 3061   0.304   2.289   2.997
  721SOL    HW1 3062   0.393   2.329   3.017
  721SOL    HW2 3063   0.251   2.351   2.940
  722SOL     OW 3064   5.756   5.842   2.157
  722SOL    HW1 3065   5.759   5.804   2.249
  722SOL    HW2 3066   5.661   5.860   2.132
  723SOL     OW 3067   1.891   0.358   4.207
  723SOL    HW1 3068   1.890   0.458   4.213
  723SOL    HW2 3069   1.826   0.328   4.137
  724SOL     OW 3070   1.529   1.864   4.442
  724SOL    HW1 3071   1.602   1.917   4.486
  724SOL    HW2 3072   1.481   1.810   4.511
  725SOL     OW 3073   2.150   3.746   3.738
  725SOL    HW1 3074   2.200   3.772   3.820
  725SOL    HW2 3075   2.165   3.814   3.667
  726SOL     OW 3076   1.786   3.216   0.413
  726SOL    HW1 3077   1.704   3.179   0.369
  726SOL    HW2 3078   1.865   3.159   0.388
  727SOL     OW 3079   4.011   5.277   5.443
  727SOL    HW1 3080   4.028   5.179   5.432
  727SOL    HW2 3081   3.935   5.304   5.384
  728SOL     OW 3082   5.660   3.404   4.078
  728SOL    HW1 3083   5.655   3.489   4.026
  728SOL    HW2 3084   5.636   3.327   4.018
  729SOL     OW 3085   6.929   4.516   0.903
  729SOL    HW1 3086   6.969   4.562   0.823
  729SOL    HW2 3087   7.001   4.477   0.959
  730SOL     OW 3088   3.716   1.064   4.175
  730SOL    HW1 3089   3.746   1.109   4.091
  730SOL    HW2 3090   3.783   0.993   4.201
  731SOL     OW 3091   4.991   4.366   4.669
  731SOL    HW1 3092   5.037   4.333   4.751
  731SOL    HW2 3093   5.009   4.303   4.593
  732SOL     OW 3094   4.610   0.655   4.730
  732SOL    HW1 3095   4.559   0.605   4.800
  732SOL    HW2 3096   4.701   0.614   4.720
  733SOL     OW 3097   0.307   5.198   4.352
  733SOL    HW1 3098   0.393   5.207   4.301
  733SOL    HW2 3099   0.327   5.182   4.449
  734SOL     OW 3100   6.534   5.562   3.577
  734SOL    HW1 3101   6.466   5.621   3.532
  734SOL    HW2 3102   6.620   5.612   3.586
  735SOL     OW 3103   4.888   0.524   2.261
  735SOL    HW1 3104   4.888   0.491   2.166
  735SOL    HW2 3105   4.979   0.560   2.284
  736SOL     OW 3106   1.995   1.658   3.050
  736SOL    HW1 3107   1.964   1.642   2.957
  736SOL    HW2 3108   2.095   1.649   3.054
  737SOL     OW 3109   3.108   2.205   6.725
  737SOL    HW1 3110   3.049   2.273   6.769
  737SOL    HW2 3111   3.096   2.117   6.769
  738SOL     OW 3112   1.744   4.967   0.463
  738SOL    HW1 3113   1.675   4.916   0.412
  738SOL    HW2 3114   1.699   5.031   0.525
  739SOL     OW 3115   1.898   0.826   2.528
  739SOL    HW1 3116   1.820   0.784   2.574
  739SOL    HW2 3117   1.982   0.779   2.555
  740SOL     OW 3118   4.345   2.239   2.390
  740SOL    HW1 3119   4.393   2.309   2.337
  740SOL    HW2 3120   4.402   2.157   2.396
  741SOL     OW 3121   3.619   1.319   2.114
  741SOL    HW1 3122   3.551   1.348   2.181
  741SOL    HW2 3123   3.677   1.248   2.154
  742SOL     OW 3124   2.280   0.003   1.913
  742SOL    HW1 3125   2.323   0.022   1.824
  742SOL    HW2 3126   2.226   0.082   1.941
  743SOL     OW 3127   6.964   6.347   3.170
  743SOL    HW1 3128   6.970   6.261   3.221
  743SOL    HW2 3129   0.020   6.405   3.192
  744SOL     OW 3130   6.060   1.135   0.368
  744SOL    HW1 3131   6.076   1.058   0.429
  744SOL    HW2 3132   6.042   1.217   0.423
  745SOL     OW 3133   0.975   6.398   5.159
  745SOL    HW1 3134   1.023   6.386   5.246
  745SOL    HW2 3135   0.879   6.418   5.176
  746SOL     OW 3136   6.613   5.443   6.018
  746SOL    HW1 3137   6.637   5.409   5.927
  746SOL    HW2 3138   6.515   5.459   6.024
  747SOL     OW 3139   2.959   5.060   2.215
  747SOL    HW1 3140   2.948   5.078   2.313
  747SOL    HW2 3141   2.914   4.974   2.192
  748SOL     OW 3142   6.526   5.517   3.066
  748SOL    HW1 3143   6.619   5.548   3.086
  748SOL    HW2 3144   6.475   5.509   3.152
  749SOL     OW 3145   4.862   4.075   5.002
  749SOL    HW1 3146   4.892   3.986   4.969
  749SOL    HW2 3147   4.854   4.074   5.102
  750SOL     OW 3148   2.823   1.836   2.293
  750SOL    HW1 3149   2.782   1.895   2.364
  750SOL    HW2 3150   2.890   1.889   2.241
  751SOL     OW 3151   3.913   0.370   0.560
  751SOL    HW1 3152   3.908   0.271   0.549
  751SOL    HW2 3153   3.839   0.413   0.508
  752SOL     OW 3154   3.074   3.172   4.008
  752SOL    HW1 3155   3.162   3.184   4.053
  752SOL    HW2 3156   3.087   3.122   3.922
  753SOL     OW 3157   3.198   4.080   3.829
  753SOL    HW1 3158   3.257   3.999   3.829
  753SOL    HW2 3159   3.227   4.141   3.903
  754SOL     OW 3160   4.695   0.359   5.592
  754SOL    HW1 3161   4.620   0.425   5.602
  754SOL    HW2 3162   4.657   0.269   5.569
  755SOL     OW 3163   5.270   4.300   5.095
  755SOL    HW1 3164   5.348   4.360   5.111
  755SOL    HW2 3165   5.291   4.208   5.129
  756SOL     OW 3166   3.176   5.926   6.404
  756SOL    HW1 3167   3.111   5.992   6.441
  756SOL    HW2 3168   3.182   5.937   6.305
  757SOL     OW 3169   0.349   0.006   1.392
  757SOL    HW1 3170   0.255   7.007   1.419
  757SOL    HW2 3171   0.366   0.104   1.408
  758SOL     OW 3172   3.943   1.134   6.166
  758SOL    HW1 3173   3.854   1.106   6.129
  758SOL    HW2 3174   3.947   1.234   6.172
  759SOL     OW 3175   0.119   1.871   3.468
  759SOL    HW1 3176   0.168   1.785   3.450
  759SOL    HW2 3177   0.080   1.905   3.383
  760SOL     OW 3178   6.935   6.232   4.531
  760SOL    HW1 3179   7.006   6.165   4.509
  760SOL    HW2 3180   6.848   6.184   4.548
  761SOL     OW 3181   4.959   4.693   5.866
  761SOL    HW1 3182   4.974   4.596   5.885
  761SOL    HW2 3183   4.978   4.747   5.948
  762SOL     OW 3184   4.260   5.908   4.283
  762SOL    HW1 3185   4.246   5.835   4.216
  762SOL    HW2 3186   4.221   5.880   4.371
  763SOL     OW 3187   5.767   1.174   0.035
  763SOL    HW1 3188   5.815   1.170   6.970
  763SOL    HW2 3189   5.688   1.112   0.032
  764SOL     OW 3190   4.872   6.307   4.515
  764SOL    HW1 3191   4.944   6.374   4.501
  764SOL    HW2 3192   4.845   6.306   4.611
  765SOL     OW 3193   5.186   6.529   0.074
  765SOL    HW1 3194   5.209   6.592   0.149
  765SOL    HW2 3195   5.088   6.534   0.057
  766SOL     OW 3196   3.299   1.017   3.694
  766SOL    HW1 3197   3.245   0.981   3.619
  766SOL    HW2 3198   3.390   1.043   3.661
  767SOL     OW 3199   6.323   6.583   3.611
  767SOL    HW1 3200   6.353   6.653   3.676
  767SOL    HW2 3201   6.281   6.507   3.660
  768SOL     OW 3202   3.178   6.213   1.112
  768SOL    HW1 3203   3.189   6.302   1.154
  768SOL    HW2 3204   3.097   6.213   1.053
  769SOL     OW 3205   3.517   1.896   5.365
  769SOL    HW1 3206   3.607   1.935   5.346
  769SOL    HW2 3207   3.454   1.968   5.393
  770SOL     OW 3208   7.013   5.352   5.988
  770SOL    HW1 3209   0.054   5.399   5.926
  770SOL    HW2 3210   0.019   5.257   5.998
  771SOL     OW 3211   1.768   4.803   2.496
  771SOL    HW1 3212   1.782   4.865   2.573
  771SOL    HW2 3213   1.853   4.794   2.444
  772SOL     OW 3214   6.273   4.935   6.912
  772SOL    HW1 3215   6.333   4.951   6.990
  772SOL    HW2 3216   6.307   4.987   6.833
  773SOL     OW 3217   1.276   4.492   3.522
  773SOL    HW1 3218   1.367   4.494   3.480
  773SOL    HW2 3219   1.287   4.499   3.622
  774SOL     OW 3220   1.815   3.031   3.657
  774SOL    HW1 3221   1.765   2.946   3.675
  774SOL    HW2 3222   1.871   3.053   3.737
  775SOL     OW 3223   0.971   4.820   2.433
  775SOL    HW1 3224   0.904   4.781   2.496
  775SOL    HW2 3225   1.049   4.758   2.425
  776SOL     OW 3226   2.302   4.446   0.514
  776SOL    HW1 3227   2.377   4.487   0.566
  776SOL    HW2 3228   2.335   4.423   0.422
  777SOL     OW 3229   1.101   3.369   6.524
  777SOL    HW1 3230   1.082   3.290   6.582
  777SOL    HW2 3231   1.143   3.337   6.439
  778SOL     OW 3232   3.547   5.686   0.140
  778SOL    HW1 3233   3.602   5.603   0.132
  778SOL    HW2 3234   3.581   5.755   0.076
  779SOL     OW 3235   5.407   2.403   3.745
  779SOL    HW1 3236   5.324   2.352   3.767
  779SOL    HW2 3237   5.466   2.405   3.825
  780SOL     OW 3238   6.170   1.544   5.344
  780SOL    HW1 3239   6.206   1.542   5.251
  780SOL    HW2 3240   6.085   1.491   5.348
  781SOL     OW 3241   0.158   4.989   6.601
  781SOL    HW1 3242   0.112   4.928   6.666
  781SOL    HW2 3243   0.223   4.937   6.547
  782SOL     OW 3244   2.124   4.199   5.771
  782SOL    HW1 3245   2.173   4.127   5.721
  782SOL    HW2 3246   2.025   4.187   5.758
  783SOL     OW 3247   0.280   5.300   5.623
  783SOL    HW1 3248   0.304   5.341   5.535
  783SOL    HW2 3249   0.216   5.225   5.608
  784SOL     OW 3250   0.968   5.803   5.764
  784SOL    HW1 3251   0.869   5.795   5.758
  784SOL    HW2 3252   0.999   5.871   5.697
  785SOL     OW 3253   0.445   0.545   3.730
  785SOL    HW1 3254   0.401   0.535   3.819
  785SOL    HW2 3255   0.465   0.455   3.692
  786SOL     OW 3256   6.376   2.111   5.516
  786SOL    HW1 3257   6.287   2.150   5.539
  786SOL    HW2 3258   6.386   2.023   5.561
  787SOL     OW 3259   2.605   6.458   0.355
  787SOL    HW1 3260   2.669   6.397   0.308
  787SOL    HW2 3261   2.627   6.461   0.453
  788SOL     OW 3262   2.141   3.218   2.465
  788SOL    HW1 3263   2.113   3.276   2.389
  788SOL    HW2 3264   2.185   3.136   2.430
  789SOL     OW 3265   3.211   5.380   1.976
  789SOL    HW1 3266   3.295   5.427   1.949
  789SOL    HW2 3267   3.161   5.352   1.895
  790SOL     OW 3268   0.103   3.742   3.556
  790SOL    HW1 3269   0.084   3.838   3.574
  790SOL    HW2 3270   0.155   3.733   3.471
  791SOL     OW 3271   3.807   0.477   3.686
  791SOL    HW1 3272   3.738   0.478   3.759
  791SOL    HW2 3273   3.785   0.547   3.618
  792SOL     OW 3274   3.143   0.936   0.640
  792SOL    HW1 3275   3.180   0.957   0.549
  792SOL    HW2 3276   3.200   0.980   0.709
  793SOL     OW 3277   2.849   5.924   4.170
  793SOL    HW1 3278   2.807   5.984   4.102
  793SOL    HW2 3279   2.849   5.830   4.136
  794SOL     OW 3280   3.544   2.952   1.542
  794SOL    HW1 3281   3.643   2.942   1.542
  794SOL    HW2 3282   3.506   2.909   1.624
  795SOL     OW 3283   3.538   6.538   6.171
  795SOL    HW1 3284   3.457   6.501   6.216
  795SOL    HW2 3285   3.569   6.475   6.100
  796SOL     OW 3286   1.283   2.609   6.608
  796SOL    HW1 3287   1.341   2.686   6.583
  796SOL    HW2 3288   1.273   2.548   6.529
  797SOL     OW 3289   2.457   6.831   6.939
  797SOL    HW1 3290   2.437   6.881   6.855
  797SOL    HW2 3291   2.371   6.798   6.978
  798SOL     OW 3292   5.540   4.356   1.936
  798SOL    HW1 3293   5.560   4.381   2.031
  798SOL    HW2 3294   5.449   4.387   1.911
  799SOL     OW 3295   3.625   3.155   4.264
  799SOL    HW1 3296   3.580   3.086   4.207
  799SOL    HW2 3297   3.661   3.112   4.347
  800SOL     OW 3298   5.250   3.212   3.662
  800SOL    HW1 3299   5.276   3.128   3.614
  800SOL    HW2 3300   5.195   3.188   3.743
  801SOL     OW 3301   1.518   4.340   0.125
  801SOL    HW1 3302   1.471   4.360   0.211
  801SOL    HW2 3303   1.476   4.259   0.083
  802SOL     OW 3304   4.058   2.818   5.923
  802SOL    HW1 3305   4.021   2.727   5.905
  802SOL    HW2 3306   4.137   2.810   5.985
  803SOL     OW 3307   3.243   2.118   3.463
  803SOL    HW1 3308   3.257   2.020   3.475
  803SOL    HW2 3309   3.250   2.141   3.365
  804SOL     OW 3310   4.138   6.994   2.914
  804SOL    HW1 3311   4.085   0.005   2.991
  804SOL    HW2 3312   4.235   6.998   2.936
  805SOL     OW 3313   3.785   1.784   3.690
  805SOL    HW1 3314   3.745   1.705   3.643
  805SOL    HW2 3315   3.745   1.793   3.781
  806SOL     OW 3316   4.393   6.254   5.634
  806SOL    HW1 3317   4.352   6.344   5.620
  806SOL    HW2 3318   4.381   6.226   5.729
  807SOL     OW 3319   1.315   6.630   6.144
  807SOL    HW1 3320   1.295   6.703   6.209
  807SOL    HW2 3321   1.268   6.546   6.171
  808SOL     OW 3322   5.329   1.344   5.093
  808SOL    HW1 3323   5.245   1.368   5.043
  808SOL    HW2 3324   5.369   1.427   5.132
  809SOL     OW 3325   2.770   6.136   3.991
  809SOL    HW1 3326   2.783   6.209   4.059
  809SOL    HW2 3327   2.692   6.158   3.933
  810SOL     OW 3328   3.198   3.233   6.079
  810SOL    HW1 3329   3.099   3.243   6.090
  810SOL    HW2 3330   3.218   3.207   5.984
  811SOL     OW 3331   6.094   5.091   5.493
  811SOL    HW1 3332   6.102   5.097   5.393
  811SOL    HW2 3333   6.146   5.013   5.526
  812SOL     OW 3334   1.786   1.960   0.333
  812SOL    HW1 3335   1.691   1.958   0.363
  812SOL    HW2 3336   1.837   1.887   0.378
  813SOL     OW 3337   3.279   1.190   4.609
  813SOL    HW1 3338   3.203   1.192   4.543
  813SOL    HW2 3339   3.258   1.123   4.681
  814SOL     OW 3340   1.096   4.603   1.831
  814SOL    HW1 3341   1.188   4.565   1.823
  814SOL    HW2 3342   1.102   4.701   1.848
  815SOL     OW 3343   4.059   0.361   3.714
  815SOL    HW1 3344   4.062   0.317   3.624
  815SOL    HW2 3345   3.983   0.425   3.717
  816SOL     OW 3346   4.613   3.766   6.363
  816SOL    HW1 3347   4.584   3.733   6.273
  816SOL    HW2 3348   4.539   3.821   6.403
  817SOL     OW 3349   6.472   5.412   0.844
  817SOL    HW1 3350   6.527   5.409   0.760
  817SOL    HW2 3351   6.382   5.450   0.824
  818SOL     OW 3352   7.005   1.099   5.018
  818SOL    HW1 3353   7.018   1.085   4.920
  818SOL    HW2 3354   6.907   1.096   5.039
  819SOL     OW 3355   5.387   3.964   2.045
  819SOL    HW1 3356   5.320   3.909   2.095
  819SOL    HW2 3357   5.392   3.931   1.951
  820SOL     OW 3358   2.277   1.910   5.292
  820SOL    HW1 3359   2.289   1.936   5.196
  820SOL    HW2 3360   2.360   1.931   5.343
  821SOL     OW 3361   4.491   4.065   6.223
  821SOL    HW1 3362   4.583   4.100   6.201
  821SOL    HW2 3363   4.429   4.142   6.234
  822SOL     OW 3364   0.095   4.054   2.676
  822SOL    HW1 3365   0.012   4.027   2.627
  822SOL    HW2 3366   0.072   4.086   2.767
  823SOL     OW 3367   1.774   3.325   5.173
  823SOL    HW1 3368   1.705   3.271   5.125
  823SOL    HW2 3369   1.861   3.319   5.124
  824SOL     OW 3370   4.343   0.235   6.397
  824SOL    HW1 3371   4.302   0.190   6.476
  824SOL    HW2 3372   4.378   0.325   6.424
  825SOL     OW 3373   6.628   6.557   1.808
  825SOL    HW1 3374   6.653   6.520   1.719
  825SOL    HW2 3375   6.662   6.496   1.880
  826SOL     OW 3376   3.954   2.153   0.294
  826SOL    HW1 3377   3.893   2.228   0.266
  826SOL    HW2 3378   3.918   2.067   0.260
  827SOL     OW 3379   3.509   3.474   4.808
  827SOL    HW1 3380   3.550   3.524   4.884
  827SOL    HW2 3381   3.575   3.406   4.774
  828SOL     OW 3382   0.193   6.150   5.751
  828SOL    HW1 3383   0.198   6.076   5.684
  828SOL    HW2 3384   0.283   6.193   5.760
  829SOL     OW 3385   3.520   2.836   2.227
  829SOL    HW1 3386   3.435   2.888   2.221
  829SOL    HW2 3387   3.509   2.762   2.294
  830SOL     OW 3388   0.881   4.420   6.205
  830SOL    HW1 3389   0.821   4.341   6.190
  830SOL    HW2 3390   0.929   4.442   6.120
  831SOL     OW 3391   5.474   1.511   3.745
  831SOL    HW1 3392   5.469   1.510   3.845
  831SOL    HW2 3393   5.569   1.524   3.717
  832SOL     OW 3394   2.928   2.096   5.071
  832SOL    HW1 3395   2.985   2.163   5.024
  832SOL    HW2 3396   2.984   2.018   5.098
  833SOL     OW 3397   2.947   2.134   6.360
  833SOL    HW1 3398   2.867   2.169   6.409
  833SOL    HW2 3399   2.986   2.207   6.305
  834SOL     OW 3400   5.987   3.541   1.404
  834SOL    HW1 3401   5.915   3.520   1.470
  834SOL    HW2 3402   6.075   3.541   1.451
  835SOL     OW 3403   6.936   6.479   5.039
  835SOL    HW1 3404   6.930   6.410   4.967
  835SOL    HW2 3405   6.984   6.440   5.118
  836SOL     OW 3406   0.137   0.168   3.879
  836SOL    HW1 3407   0.098   0.234   3.816
  836SOL    HW2 3408   0.135   0.077   3.837
  837SOL     OW 3409   0.328   6.933   6.509
  837SOL    HW1 3410   0.347   6.858   6.446
  837SOL    HW2 3411   0.383   6.921   6.592
  838SOL     OW 3412   0.571   5.621   3.300
  838SOL    HW1 3413   0.617   5.542   3.259
  838SOL    HW2 3414   0.506   5.588   3.369
  839SOL     OW 3415   2.130   1.780   0.049
  839SOL    HW1 3416   2.173   1.811   6.987
  839SOL    HW2 3417   2.180   1.815   0.128
  840SOL     OW 3418   4.760   5.112   0.341
  840SOL    HW1 3419   4.847   5.098   0.292
  840SOL    HW2 3420   4.715   5.023   0.352
  841SOL     OW 3421   3.165   4.525   0.505
  841SOL    HW1 3422   3.161   4.455   0.575
  841SOL    HW2 3423   3.210   4.607   0.542
  842SOL     OW 3424   3.735   5.392   0.957
  842SOL    HW1 3425   3.697   5.473   0.915
  842SOL    HW2 3426   3.768   5.330   0.886
  843SOL     OW 3427   1.909   6.836   2.129
  843SOL    HW1 3428   1.811   6.835   2.106
  843SOL    HW2 3429   1.923   6.891   2.211
  844SOL     OW 3430   0.242   6.732   1.756
  844SOL    HW1 3431   0.318   6.783   1.716
  844SOL    HW2 3432   0.264   6.707   1.851
  845SOL     OW 3433   4.235   1.839   1.597
  845SOL    HW1 3434   4.283   1.759   1.559
  845SOL    HW2 3435   4.138   1.833   1.574
  846SOL     OW 3436   1.353   0.244   1.318
  846SOL    HW1 3437   1.316   0.152   1.318
  846SOL    HW2 3438   1.429   0.249   1.382
  847SOL     OW 3439   2.656   2.970   1.601
  847SOL    HW1 3440   2.697   3.028   1.531
  847SOL    HW2 3441   2.726   2.910   1.640
  848SOL     OW 3442   6.538   6.508   1.207
  848SOL    HW1 3443   6.597   6.577   1.164
  848SOL    HW2 3444   6.443   6.539   1.205
  849SOL     OW 3445   5.096   2.850   6.574
  849SOL    HW1 3446   5.039   2.857   6.493
  849SOL    HW2 3447   5.039   2.833   6.654
  850SOL     OW 3448   2.582   0.898   3.860
  850SOL    HW1 3449   2.508   0.837   3.831
  850SOL    HW2 3450   2.578   0.911   3.959
  851SOL     OW 3451   4.608   2.717   6.031
  851SOL    HW1 3452   4.586   2.794   6.091
  851SOL    HW2 3453   4.694   2.675   6.061
  852SOL     OW 3454   0.865   4.560   1.703
  852SOL    HW1 3455   0.837   4.465   1.686
  852SOL    HW2 3456   0.951   4.560   1.754
  853SOL     OW 3457   3.436   2.899   0.710
  853SOL    HW1 3458   3.374   2.883   0.787
  853SOL    HW2 3459   3.446   2.814   0.658
  854SOL     OW 3460   6.922   1.054   5.757
  854SOL    HW1 3461   6.943   1.096   5.669
  854SOL    HW2 3462   6.870   0.970   5.743
  855SOL     OW 3463   4.319   1.721   7.001
  855SOL    HW1 3464   4.321   1.634   0.027
  855SOL    HW2 3465   4.352   1.794   0.039
  856SOL     OW 3466   0.757   6.249   1.484
  856SOL    HW1 3467   0.717   6.162   1.512
  856SOL    HW2 3468   0.716   6.324   1.535
  857SOL     OW 3469   6.933   6.058   5.453
  857SOL    HW1 3470   6.913   6.039   5.549
  857SOL    HW2 3471   7.018   6.012   5.426
  858SOL     OW 3472   3.064   4.807   0.804
  858SOL    HW1 3473   3.040   4.724   0.754
  858SOL    HW2 3474   3.076   4.785   0.901
  859SOL     OW 3475   4.611   5.883   6.203
  859SOL    HW1 3476   4.558   5.891   6.288
  859SOL    HW2 3477   4.706   5.908   6.221
  860SOL     OW 3478   3.770   3.026   6.940
  860SOL    HW1 3479   3.711   3.015   7.020
  860SOL    HW2 3480   3.853   2.972   6.952
  861SOL     OW 3481   0.929   5.068   2.568
  861SOL    HW1 3482   1.007   5.128   2.554
  861SOL    HW2 3483   0.935   4.990   2.505
  862SOL     OW 3484   0.945   4.898   4.164
  862SOL    HW1 3485   0.926   4.927   4.258
  862SOL    HW2 3486   1.034   4.935   4.136
  863SOL     OW 3487   5.139   0.122   1.250
  863SOL    HW1 3488   5.082   0.050   1.210
  863SOL    HW2 3489   5.159   0.191   1.180
  864SOL     OW 3490   5.463   3.620   3.657
  864SOL    HW1 3491   5.515   3.698   3.691
  864SOL    HW2 3492   5.467   3.618   3.557
  865SOL     OW 3493   1.854   4.928   5.110
  865SOL    HW1 3494   1.785   4.876   5.059
  865SOL    HW2 3495   1.902   4.990   5.048
  866SOL     OW 3496   3.726   6.439   0.832
  866SOL    HW1 3497   3.654   6.395   0.779
  866SOL    HW2 3498   3.792   6.369   0.861
  867SOL     OW 3499   5.774   3.522   4.401
  867SOL    HW1 3500   5.834   3.442   4.411
  867SOL    HW2 3501   5.801   3.592   4.467
  868SOL     OW 3502   0.050   1.462   1.941
  868SOL    HW1 3503   0.093   1.378   1.907
  868SOL    HW2 3504   6.975   1.446   1.955
  869SOL     OW 3505   1.520   2.624   2.103
  869SOL    HW1 3506   1.511   2.543   2.160
  869SOL    HW2 3507   1.485   2.604   2.011
  870SOL     OW 3508   3.657   4.379   1.711
  870SOL    HW1 3509   3.667   4.472   1.746
  870SOL    HW2 3510   3.701   4.372   1.622
  871SOL     OW 3511   4.719   1.967   3.395
  871SOL    HW1 3512   4.621   1.981   3.410
  871SOL    HW2 3513   4.737   1.957   3.297
  872SOL     OW 3514   2.412   2.084   5.701
  872SOL    HW1 3515   2.509   2.089   5.724
  872SOL    HW2 3516   2.368   2.171   5.724
  873SOL     OW 3517   4.187   1.169   6.038
  873SOL    HW1 3518   4.266   1.199   6.090
  873SOL    HW2 3519   4.124   1.119   6.097
  874SOL     OW 3520   5.182   4.199   3.028
  874SOL    HW1 3521   5.274   4.160   3.029
  874SOL    HW2 3522   5.186   4.296   3.051
  875SOL     OW 3523   4.734   5.253   2.371
  875SOL    HW1 3524   4.829   5.277   2.355
  875SOL    HW2 3525   4.716   5.161   2.336
  876SOL     OW 3526   5.852   1.674   5.537
  876SOL    HW1 3527   5.840   1.763   5.581
  876SOL    HW2 3528   5.774   1.655   5.478
  877SOL     OW 3529   1.074   3.501   6.114
  877SOL    HW1 3530   1.156   3.474   6.165
  877SOL    HW2 3531   1.085   3.476   6.018
  878SOL     OW 3532   4.244   6.509   4.839
  878SOL    HW1 3533   4.187   6.470   4.767
  878SOL    HW2 3534   4.291   6.590   4.804
  879SOL     OW 3535   6.034   6.916   5.650
  879SOL    HW1 3536   6.063   7.008   5.675
  879SOL    HW2 3537   6.007   6.866   5.732
  880SOL     OW 3538   3.778   2.897   2.845
  880SOL    HW1 3539   3.733   2.979   2.809
  880SOL    HW2 3540   3.772   2.823   2.778
  881SOL     OW 3541   5.531   2.392   6.715
  881SOL    HW1 3542   5.497   2.305   6.678
  881SOL    HW2 3543   5.630   2.388   6.724
  882SOL     OW 3544   1.506   2.410   4.084
  882SOL    HW1 3545   1.597   2.376   4.107
  882SOL    HW2 3546   1.474   2.366   4.000
  883SOL     OW 3547   2.946   6.518   3.078
  883SOL    HW1 3548   2.940   6.573   3.161
  883SOL    HW2 3549   2.883   6.441   3.084
  884SOL     OW 3550   2.703   3.446   6.146
  884SOL    HW1 3551   2.712   3.381   6.070
  884SOL    HW2 3552   2.634   3.515   6.123
  885SOL     OW 3553   4.625   3.275   6.992
  885SOL    HW1 3554   4.543   3.293   6.936
  885SOL    HW2 3555   4.688   3.352   6.983
  886SOL     OW 3556   3.877   1.557   5.916
  886SOL    HW1 3557   3.924   1.638   5.882
  886SOL    HW2 3558   3.881   1.485   5.847
  887SOL     OW 3559   3.106   0.835   5.480
  887SOL    HW1 3560   3.103   0.807   5.384
  887SOL    HW2 3561   3.013   0.840   5.515
  888SOL     OW 3562   0.417   6.419   2.006
  888SOL    HW1 3563   0.470   6.351   2.058
  888SOL    HW2 3564   0.356   6.372   1.943
  889SOL     OW 3565   0.371   4.287   0.920
  889SOL    HW1 3566   0.279   4.291   0.959
  889SOL    HW2 3567   0.370   4.325   0.827
  890SOL     OW 3568   2.422   6.865   4.444
  890SOL    HW1 3569   2.389   6.817   4.363
  890SOL    HW2 3570   2.410   6.807   4.524
  891SOL     OW 3571   4.250   4.719   2.298
  891SOL    HW1 3572   4.150   4.713   2.289
  891SOL    HW2 3573   4.274   4.738   2.393
  892SOL     OW 3574   2.683   4.358   1.194
  892SOL    HW1 3575   2.624   4.340   1.115
  892SOL    HW2 3576   2.628   4.361   1.277
  893SOL     OW 3577   1.179   5.044   2.332
  893SOL    HW1 3578   1.143   4.955   2.360
  893SOL    HW2 3579   1.179   5.106   2.411
  894SOL     OW 3580   1.313   4.349   0.638
  894SOL    HW1 3581   1.410   4.373   0.627
  894SOL    HW2 3582   1.273   4.406   0.710
  895SOL     OW 3583   6.535   5.760   5.939
  895SOL    HW1 3584   6.474   5.819   5.887
  895SOL    HW2 3585   6.550   5.675   5.890
  896SOL     OW 3586   6.541   0.936   5.865
  896SOL    HW1 3587   6.607   0.908   5.795
  896SOL    HW2 3588   6.502   0.854   5.908
  897SOL     OW 3589   6.050   1.206   0.105
  897SOL    HW1 3590   6.068   1.177   0.200
  897SOL    HW2 3591   5.952   1.201   0.087
  898SOL     OW 3592   4.056   1.689   3.871
  898SOL    HW1 3593   4.109   1.710   3.789
  898SOL    HW2 3594   3.959   1.706   3.854
  899SOL     OW 3595   6.376   6.720   6.680
  899SOL    HW1 3596   6.321   6.665   6.618
  899SOL    HW2 3597   6.363   6.688   6.774
  900SOL     OW 3598   4.690   4.576   5.674
  900SOL    HW1 3599   4.731   4.504   5.618
  900SOL    HW2 3600   4.617   4.537   5.730
  901SOL     OW 3601   1.096   0.571   2.306
  901SOL    HW1 3602   1.082   0.486   2.357
  901SOL    HW2 3603   1.062   0.648   2.360
  902SOL     OW 3604   6.931   2.598   2.701
  902SOL    HW1 3605   6.947   2.602   2.603
  902SOL    HW2 3606   6.988   2.667   2.747
  903SOL     OW 3607   5.701   1.787   7.010
  903SOL    HW1 3608   5.718   1.706   6.954
  903SOL    HW2 3609   5.676   1.758   0.080
  904SOL     OW 3610   2.935   0.315   3.280
  904SOL    HW1 3611   2.962   0.374   3.356
  904SOL    HW2 3612   3.017   0.284   3.231
  905SOL     OW 3613   4.928   2.655   5.768
  905SOL    HW1 3614   4.923   2.572   5.712
  905SOL    HW2 3615   4.922   2.629   5.865
  906SOL     OW 3616   5.808   3.244   1.994
  906SOL    HW1 3617   5.777   3.325   2.044
  906SOL    HW2 3618   5.827   3.268   1.899
  907SOL     OW 3619   5.839   5.137   0.769
  907SOL    HW1 3620   5.936   5.157   0.757
  907SOL    HW2 3621   5.799   5.110   0.681
  908SOL     OW 3622   0.863   4.050   3.618
  908SOL    HW1 3623   0.788   4.098   3.663
  908SOL    HW2 3624   0.941   4.111   3.609
  909SOL     OW 3625   5.189   4.209   5.964
  909SOL    HW1 3626   5.215   4.159   5.881
  909SOL    HW2 3627   5.262   4.272   5.989
  910SOL     OW 3628   3.308   4.712   0.625
  910SOL    HW1 3629   3.327   4.804   0.661
  910SOL    HW2 3630   3.393   4.669   0.597
  911SOL     OW 3631   0.677   4.666   5.862
  911SOL    HW1 3632   0.666   4.766   5.861
  911SOL    HW2 3633   0.642   4.629   5.948
  912SOL     OW 3634   5.515   1.838   4.507
  912SOL    HW1 3635   5.477   1.917   4.457
  912SOL    HW2 3636   5.614   1.847   4.513
  913SOL     OW 3637   5.389   6.132   3.282
  913SOL    HW1 3638   5.336   6.191   3.222
  913SOL    HW2 3639   5.362   6.149   3.377
  914SOL     OW 3640   2.351   6.609   4.627
  914SOL    HW1 3641   2.325   6.512   4.633
  914SOL    HW2 3642   2.386   6.639   4.715
  915SOL     OW 3643   5.574   5.294   2.476
  915SOL    HW1 3644   5.490   5.349   2.484
  915SOL    HW2 3645   5.646   5.336   2.531
  916SOL     OW 3646   1.897   3.820   3.448
  916SOL    HW1 3647   1.919   3.911   3.414
  916SOL    HW2 3648   1.798   3.807   3.449
  917SOL     OW 3649   0.083   6.902   0.046
  917SOL    HW1 3650   0.055   6.818   7.021
  917SOL    HW2 3651   0.025   6.978   0.018
  918SOL     OW 3652   3.057   5.636   5.579
  918SOL    HW1 3653   3.088   5.659   5.487
  918SOL    HW2 3654   3.055   5.537   5.590
  919SOL     OW 3655   4.410   0.030   5.764
  919SOL    HW1 3656   4.496   0.005   5.718
  919SOL    HW2 3657   4.363   0.101   5.710
  920SOL     OW 3658   3.171   4.382   1.131
  920SOL    HW1 3659   3.170   4.475   1.169
  920SOL    HW2 3660   3.077   4.356   1.107
  921SOL     OW 3661   5.659   5.513   5.598
  921SOL    HW1 3662   5.601   5.566   5.537
  921SOL    HW2 3663   5.692   5.571   5.672
  922SOL     OW 3664   3.509   3.934   2.975
  922SOL    HW1 3665   3.472   3.859   3.030
  922SOL    HW2 3666   3.436   3.974   2.919
  923SOL     OW 3667   2.752   3.654   5.734
  923SOL    HW1 3668   2.661   3.691   5.717
  923SOL    HW2 3669   2.812   3.676   5.656
  924SOL     OW 3670   0.231   2.133   0.899
  924SOL    HW1 3671   0.163   2.189   0.853
  924SOL    HW2 3672   0.255   2.055   0.841
  925SOL     OW 3673   1.349   1.396   0.542
  925SOL    HW1 3674   1.428   1.452   0.567
  925SOL    HW2 3675   1.272   1.456   0.521
  926SOL     OW 3676   1.853   2.019   1.456
  926SOL    HW1 3677   1.838   2.103   1.403
  926SOL    HW2 3678   1.891   1.948   1.396
  927SOL     OW 3679   0.892   4.349   5.389
  927SOL    HW1 3680   0.894   4.321   5.485
  927SOL    HW2 3681   0.875   4.268   5.332
  928SOL     OW 3682   2.688   5.422   5.893
  928SOL    HW1 3683   2.708   5.419   5.795
  928SOL    HW2 3684   2.733   5.502   5.933
  929SOL     OW 3685   2.455   2.129   4.580
  929SOL    HW1 3686   2.540   2.175   4.553
  929SOL    HW2 3687   2.427   2.066   4.507
  930SOL     OW 3688   5.699   5.891   6.067
  930SOL    HW1 3689   5.616   5.847   6.100
  930SOL    HW2 3690   5.777   5.831   6.082
  931SOL     OW 3691   5.943   6.901   2.702
  931SOL    HW1 3692   5.988   6.877   2.789
  931SOL    HW2 3693   5.847   6.921   2.719
  932SOL     OW 3694   4.098   0.252   3.969
  932SOL    HW1 3695   4.183   0.205   3.945
  932SOL    HW2 3696   4.052   0.281   3.885
  933SOL     OW 3697   0.937   5.599   2.236
  933SOL    HW1 3698   0.893   5.646   2.313
  933SOL    HW2 3699   0.867   5.561   2.175
  934SOL     OW 3700   2.072   2.676   1.258
  934SOL    HW1 3701   2.030   2.735   1.326
  934SOL    HW2 3702   2.008   2.661   1.183
  935SOL     OW 3703   5.621   2.913   5.924
  935SOL    HW1 3704   5.647   2.935   6.018
  935SOL    HW2 3705   5.571   2.826   5.923
  936SOL     OW 3706   1.376   1.860   5.692
  936SOL    HW1 3707   1.351   1.864   5.789
  936SOL    HW2 3708   1.295   1.882   5.637
  937SOL     OW 3709   3.481   2.099   6.149
  937SOL    HW1 3710   3.438   2.030   6.208
  937SOL    HW2 3711   3.574   2.118   6.183
  938SOL     OW 3712   5.090   0.011   4.108
  938SOL    HW1 3713   5.037   6.949   4.111
  938SOL    HW2 3714   5.066   0.062   4.025
  939SOL     OW 3715   1.655   0.217   4.450
  939SOL    HW1 3716   1.660   0.317   4.440
  939SOL    HW2 3717   1.676   0.174   4.363
  940SOL     OW 3718   2.451   4.922   0.840
  940SOL    HW1 3719   2.431   4.994   0.907
  940SOL    HW2 3720   2.519   4.956   0.775
  941SOL     OW 3721   3.976   0.395   1.558
  941SOL    HW1 3722   3.937   0.326   1.496
  941SOL    HW2 3723   3.989   0.355   1.649
  942SOL     OW 3724   0.183   4.850   0.358
  942SOL    HW1 3725   0.192   4.753   0.334
  942SOL    HW2 3726   0.120   4.860   0.434
  943SOL     OW 3727   3.303   6.905   1.631
  943SOL    HW1 3728   3.249   6.988   1.615
  943SOL    HW2 3729   3.370   6.894   1.557
  944SOL     OW 3730   5.895   5.630   3.648
  944SOL    HW1 3731   5.919   5.576   3.567
  944SOL    HW2 3732   5.878   5.725   3.622
  945SOL     OW 3733   0.523   5.002   6.760
  945SOL    HW1 3734   0.522   5.025   6.662
  945SOL    HW2 3735   0.528   4.903   6.771
  946SOL     OW 3736   6.146   1.736   4.526
  946SOL    HW1 3737   6.069   1.739   4.462
  946SOL    HW2 3738   6.190   1.826   4.528
  947SOL     OW 3739   3.277   4.134   2.614
  947SOL    HW1 3740   3.213   4.138   2.537
  947SOL    HW2 3741   3.368   4.162   2.583
  948SOL     OW 3742   4.176   2.170   3.630
  948SOL    HW1 3743   4.275   2.181   3.623
  948SOL    HW2 3744   4.151   2.143   3.723
  949SOL     OW 3745   1.732   0.669   5.679
  949SOL    HW1 3746   1.732   0.760   5.638
  949SOL    HW2 3747   1.809   0.661   5.742
  950SOL     OW 3748   6.000   0.110   1.259
  950SOL    HW1 3749   5.965   0.111   1.165
  950SOL    HW2 3750   5.923   0.115   1.322
  951SOL     OW 3751   0.826   6.958   2.244
  951SOL    HW1 3752   0.808   7.007   2.159
  951SOL    HW2 3753   0.779   7.003   2.319
  952SOL     OW 3754   2.976   1.545   3.019
  952SOL    HW1 3755   2.968   1.628   3.074
  952SOL    HW2 3756   2.999   1.468   3.078
  953SOL     OW 3757   0.187   5.811   4.859
  953SOL    HW1 3758   0.151   5.717   4.858
  953SOL    HW2 3759   0.110   5.875   4.861
  954SOL     OW 3760   4.308   6.724   2.431
  954SOL    HW1 3761   4.254   6.768   2.503
  954SOL    HW2 3762   4.278   6.759   2.342
  955SOL     OW 3763   3.479   3.877   1.473
  955SOL    HW1 3764   3.396   3.820   1.474
  955SOL    HW2 3765   3.453   3.973   1.487
  956SOL     OW 3766   3.735   6.702   0.881
  956SOL    HW1 3767   3.716   6.605   0.866
  956SOL    HW2 3768   3.676   6.757   0.822
  957SOL     OW 3769   6.654   0.386   3.287
  957SOL    HW1 3770   6.581   0.375   3.355
  957SOL    HW2 3771   6.613   0.404   3.198
  958SOL     OW 3772   5.254   5.653   2.372
  958SOL    HW1 3773   5.300   5.636   2.285
  958SOL    HW2 3774   5.296   5.732   2.417
  959SOL     OW 3775   4.784   5.876   2.165
  959SOL    HW1 3776   4.870   5.850   2.121
  959SOL    HW2 3777   4.757   5.805   2.230
  960SOL     OW 3778   1.045   6.609   6.012
  960SOL    HW1 3779   1.099   6.685   5.975
  960SOL    HW2 3780   1.082   6.522   5.980
  961SOL     OW 3781   4.652   0.893   4.172
  961SOL    HW1 3782   4.677   0.833   4.096
  961SOL    HW2 3783   4.553   0.888   4.187
  962SOL     OW 3784   0.242   1.313   5.445
  962SOL    HW1 3785   0.206   1.261   5.368
  962SOL    HW2 3786   0.181   1.391   5.463
  963SOL     OW 3787   5.539   2.528   1.921
  963SOL    HW1 3788   5.574   2.440   1.952
  963SOL    HW2 3789   5.550   2.536   1.822
  964SOL     OW 3790   3.503   6.476   4.378
  964SOL    HW1 3791   3.552   6.549   4.426
  964SOL    HW2 3792   3.562   6.436   4.309
  965SOL     OW 3793   4.911   1.248   4.588
  965SOL    HW1 3794   4.939   1.167   4.641
  965SOL    HW2 3795   4.943   1.331   4.634
  966SOL     OW 3796   5.005   1.359   3.084
  966SOL    HW1 3797   4.947   1.282   3.055
  966SOL    HW2 3798   4.970   1.444   3.044
  967SOL     OW 3799   4.486   5.795   6.437
  967SOL    HW1 3800   4.394   5.771   6.405
  967SOL    HW2 3801   4.521   5.720   6.494
  968SOL     OW 3802   4.537   6.573   1.155
  968SOL    HW1 3803   4.562   6.478   1.140
  968SOL    HW2 3804   4.530   6.620   1.066
  969SOL     OW 3805   3.476   3.412   6.644
  969SOL    HW1 3806   3.501   3.401   6.740
  969SOL    HW2 3807   3.455   3.322   6.604
  970SOL     OW 3808   3.789   6.195   5.935
  970SOL    HW1 3809   3.847   6.277   5.943
  970SOL    HW2 3810   3.835   6.128   5.877
  971SOL     OW 3811   4.848   4.552   3.908
  971SOL    HW1 3812   4.868   4.472   3.963
  971SOL    HW2 3813   4.903   4.551   3.825
  972SOL     OW 3814   1.091   1.681   0.775
  972SOL    HW1 3815   1.058   1.768   0.739
  972SOL    HW2 3816   1.176   1.697   0.826
  973SOL     OW 3817   6.903   2.583   5.028
  973SOL    HW1 3818   6.941   2.673   5.009
  973SOL    HW2 3819   6.828   2.564   4.965
  974SOL     OW 3820   1.394   3.357   1.220
  974SOL    HW1 3821   1.371   3.347   1.123
  974SOL    HW2 3822   1.330   3.303   1.275
  975SOL     OW 3823   3.216   0.600   2.151
  975SOL    HW1 3824   3.195   0.652   2.235
  975SOL    HW2 3825   3.271   0.521   2.174
  976SOL     OW 3826   6.991   3.450   3.583
  976SOL    HW1 3827   7.017   3.517   3.514
  976SOL    HW2 3828   6.985   3.359   3.542
  977SOL     OW 3829   0.142   1.491   2.310
  977SOL    HW1 3830   0.088   1.516   2.230
  977SOL    HW2 3831   0.236   1.526   2.298
  978SOL     OW 3832   6.122   1.874   0.802
  978SOL    HW1 3833   6.060   1.853   0.726
  978SOL    HW2 3834   6.084   1.835   0.887
  979SOL     OW 3835   0.251   5.605   6.719
  979SOL    HW1 3836   0.349   5.604   6.741
  979SOL    HW2 3837   0.237   5.571   6.626
  980SOL     OW 3838   4.934   1.372   3.987
  980SOL    HW1 3839   4.862   1.302   3.979
  980SOL    HW2 3840   4.932   1.411   4.079
  981SOL     OW 3841   0.396   6.300   6.120
  981SOL    HW1 3842   0.463   6.275   6.190
  981SOL    HW2 3843   0.443   6.336   6.040
  982SOL     OW 3844   6.819   1.019   6.062
  982SOL    HW1 3845   6.810   1.005   5.964
  982SOL    HW2 3846   6.907   0.983   6.093
  983SOL     OW 3847   0.405   3.673   2.089
  983SOL    HW1 3848   0.406   3.581   2.050
  983SOL    HW2 3849   0.318   3.718   2.068
  984SOL     OW 3850   0.192   3.486   4.681
  984SOL    HW1 3851   0.117   3.503   4.745
  984SOL    HW2 3852   0.177   3.399   4.634
  985SOL     OW 3853   5.195   5.377   6.069
  985SOL    HW1 3854   5.236   5.301   6.019
  985SOL    HW2 3855   5.099   5.358   6.087
  986SOL     OW 3856   3.778   5.286   1.232
  986SOL    HW1 3857   3.717   5.335   1.293
  986SOL    HW2 3858   3.755   5.308   1.137
  987SOL     OW 3859   4.819   4.982   4.234
  987SOL    HW1 3860   4.741   4.949   4.286
  987SOL    HW2 3861   4.904   4.953   4.278
  988SOL     OW 3862   3.347   4.784   1.715
  988SOL    HW1 3863   3.420   4.735   1.764
  988SOL    HW2 3864   3.258   4.756   1.752
  989SOL     OW 3865   0.742   1.903   1.003
  989SOL    HW1 3866   0.758   1.805   0.997
  989SOL    HW2 3867   0.643   1.921   1.002
  990SOL     OW 3868   4.074   0.267   5.009
  990SOL    HW1 3869   4.156   0.321   4.992
  990SOL    HW2 3870   3.994   0.327   5.011
  991SOL     OW 3871   1.344   6.540   3.731
  991SOL    HW1 3872   1.428   6.486   3.721
  991SOL    HW2 3873   1.345   6.587   3.819
  992SOL     OW 3874   6.356   3.515   1.561
  992SOL    HW1 3875   6.448   3.509   1.600
  992SOL    HW2 3876   6.350   3.456   1.480
  993SOL     OW 3877   2.100   4.094   6.712
  993SOL    HW1 3878   2.060   4.030   6.647
  993SOL    HW2 3879   2.144   4.044   6.786
  994SOL     OW 3880   2.082   6.378   1.115
  994SOL    HW1 3881   2.000   6.382   1.171
  994SOL    HW2 3882   2.129   6.466   1.119
  995SOL     OW 3883   5.071   4.204   4.916
  995SOL    HW1 3884   4.991   4.159   4.955
  995SOL    HW2 3885   5.136   4.226   4.989
  996SOL     OW 3886   3.935   6.860   5.272
  996SOL    HW1 3887   3.894   6.944   5.234
  996SOL    HW2 3888   3.942   6.791   5.199
  997SOL     OW 3889   1.021   6.613   3.750
  997SOL    HW1 3890   1.108   6.570   3.772
  997SOL    HW2 3891   0.949   6.543   3.745
  998SOL     OW 3892   4.542   0.444   0.431
  998SOL    HW1 3893   4.491   0.459   0.346
  998SOL    HW2 3894   4.504   0.364   0.478
  999SOL     OW 3895   6.052   2.930   2.877
  999SOL    HW1 3896   6.105   2.914   2.794
  999SOL    HW2 3897   6.110   2.976   2.944
 1000SOL     OW 3898   6.408   1.450   3.067
 1000SOL    HW1 3899   6.349   1.528   3.047
 1000SOL    HW2 3900   6.356   1.366   3.058
 1001SOL     OW 3901   2.869   6.748   3.242
 1001SOL    HW1 3902   2.779   6.792   3.242
 1001SOL    HW2 3903   2.934   6.806   3.291
 1002SOL     OW 3904   4.884   2.529   0.311
 1002SOL    HW1 3905   4.899   2.591   0.387
 1002SOL    HW2 3906   4.937   2.445   0.324
 1003SOL     OW 3907   1.967   1.735   4.091
 1003SOL    HW1 3908   1.967   1.660   4.025
 1003SOL    HW2 3909   2.062   1.760   4.112
 1004SOL     OW 3910   4.408   1.770   4.820
 1004SOL    HW1 3911   4.393   1.679   4.858
 1004SOL    HW2 3912   4.445   1.830   4.891
 1005SOL     OW 3913   0.722   5.553   2.075
 1005SOL    HW1 3914   0.625   5.531   2.064
 1005SOL    HW2 3915   0.771   5.529   1.991
 1006SOL     OW 3916   1.891   3.694   2.506
 1006SOL    HW1 3917   1.950   3.625   2.548
 1006SOL    HW2 3918   1.940   3.741   2.434
 1007SOL     OW 3919   4.382   0.796   6.410
 1007SOL    HW1 3920   4.448   0.810   6.336
 1007SOL    HW2 3921   4.308   0.737   6.379
 1008SOL     OW 3922   0.302   4.408   4.344
 1008SOL    HW1 3923   0.348   4.363   4.267
 1008SOL    HW2 3924   0.246   4.341   4.393
 1009SOL     OW 3925   6.726   6.007   0.442
 1009SOL    HW1 3926   6.783   5.925   0.449
 1009SOL    HW2 3927   6.631   5.983   0.458
 1010SOL     OW 3928   3.024   4.376   0.286
 1010SOL    HW1 3929   3.032   4.432   0.368
 1010SOL    HW2 3930   3.109   4.326   0.271
 1011SOL     OW 3931   6.447   4.611   2.585
 1011SOL    HW1 3932   6.538   4.575   2.564
 1011SOL    HW2 3933   6.455   4.686   2.650
 1012SOL     OW 3934   5.089   6.372   2.908
 1012SOL    HW1 3935   5.121   6.294   2.853
 1012SOL    HW2 3936   5.001   6.350   2.948
 1013SOL     OW 3937   0.154   1.414   6.093
 1013SOL    HW1 3938   0.164   1.483   6.021
 1013SOL    HW2 3939   0.228   1.424   6.159
 1014SOL     OW 3940   0.570   4.719   4.371
 1014SOL    HW1 3941   0.499   4.751   4.435
 1014SOL    HW2 3942   0.548   4.751   4.279
 1015SOL     OW 3943   2.990   6.176   6.028
 1015SOL    HW1 3944   3.054   6.248   6.054
 1015SOL    HW2 3945   2.946   6.200   5.941
 1016SOL     OW 3946   6.743   4.329   0.528
 1016SOL    HW1 3947   6.825   4.370   0.487
 1016SOL    HW2 3948   6.689   4.284   0.456
 1017SOL     OW 3949   1.387   6.911   1.763
 1017SOL    HW1 3950   1.368   6.934   1.858
 1017SOL    HW2 3951   1.304   6.922   1.708
 1018SOL     OW 3952   5.493   5.672   6.551
 1018SOL    HW1 3953   5.575   5.627   6.516
 1018SOL    HW2 3954   5.496   5.674   6.651
 1019SOL     OW 3955   6.991   3.711   2.861
 1019SOL    HW1 3956   0.005   3.738   2.951
 1019SOL    HW2 3957   6.910   3.653   2.874
 1020SOL     OW 3958   5.487   1.650   1.380
 1020SOL    HW1 3959   5.442   1.561   1.371
 1020SOL    HW2 3960   5.418   1.722   1.379
 1021SOL     OW 3961   0.845   6.954   1.059
 1021SOL    HW1 3962   0.834   6.857   1.078
 1021SOL    HW2 3963   0.836   6.970   0.961
 1022SOL     OW 3964   2.492   5.038   5.505
 1022SOL    HW1 3965   2.405   4.991   5.522
 1022SOL    HW2 3966   2.551   5.030   5.586
 1023SOL     OW 3967   0.998   2.382   2.611
 1023SOL    HW1 3968   1.068   2.451   2.632
 1023SOL    HW2 3969   0.937   2.373   2.690
 1024SOL     OW 3970   1.867   3.319   4.773
 1024SOL    HW1 3971   1.854   3.257   4.851
 1024SOL    HW2 3972   1.778   3.346   4.736
 1025SOL     OW 3973   4.592   3.749   0.504
 1025SOL    HW1 3974   4.511   3.706   0.544
 1025SOL    HW2 3975   4.647   3.680   0.457
 1026SOL     OW 3976   3.063   2.670   1.764
 1026SOL    HW1 3977   3.159   2.652   1.743
 1026SOL    HW2 3978   3.022   2.588   1.802
 1027SOL     OW 3979   6.460   0.468   0.388
 1027SOL    HW1 3980   6.430   0.450   0.482
 1027SOL    HW2 3981   6.439   0.389   0.331
 1028SOL     OW 3982   0.230   5.741   4.365
 1028SOL    HW1 3983   0.183   5.772   4.448
 1028SOL    HW2 3984   0.306   5.803   4.344
 1029SOL     OW 3985   1.118   0.353   4.968
 1029SOL    HW1 3986   1.116   0.266   4.920
 1029SOL    HW2 3987   1.180   0.346   5.047
 1030SOL     OW 3988   4.320   3.362   0.631
 1030SOL    HW1 3989   4.348   3.334   0.539
 1030SOL    HW2 3990   4.386   3.328   0.698
 1031SOL     OW 3991   4.601   2.500   0.085
 1031SOL    HW1 3992   4.673   2.520   0.151
 1031SOL    HW2 3993   4.640   2.488   7.016
 1032SOL     OW 3994   1.253   1.385   1.445
 1032SOL    HW1 3995   1.189   1.414   1.515
 1032SOL    HW2 3996   1.341   1.432   1.458
 1033SOL     OW 3997   6.161   6.862   2.008
 1033SOL    HW1 3998   6.223   6.848   2.085
 1033SOL    HW2 3999   6.163   6.958   1.980
 1034SOL     OW 4000   1.887   0.679   4.196
 1034SOL    HW1 4001   1.791   0.706   4.203
 1034SOL    HW2 4002   1.936   0.708   4.278
 1035SOL     OW 4003   1.077   6.934   0.080
 1035SOL    HW1 4004   1.006   6.970   0.020
 1035SOL    HW2 4005   1.082   6.990   0.163
 1036SOL     OW 4006   5.429   1.447   2.308
 1036SOL    HW1 4007   5.338   1.486   2.321
 1036SOL    HW2 4008   5.494   1.520   2.285
 1037SOL     OW 4009   0.343   3.888   2.415
 1037SOL    HW1 4010   0.311   3.814   2.354
 1037SOL    HW2 4011   0.370   3.849   2.503
 1038SOL     OW 4012   1.112   6.039   6.864
 1038SOL    HW1 4013   1.084   5.962   6.921
 1038SOL    HW2 4014   1.163   6.105   6.920
 1039SOL     OW 4015   3.022   3.852   2.826
 1039SOL    HW1 4016   2.935   3.805   2.831
 1039SOL    HW2 4017   3.032   3.894   2.735
 1040SOL     OW 4018   4.613   1.410   2.740
 1040SOL    HW1 4019   4.548   1.335   2.730
 1040SOL    HW2 4020   4.706   1.375   2.732
 1041SOL     OW 4021   6.967   0.644   6.114
 1041SOL    HW1 4022   0.029   0.698   6.109
 1041SOL    HW2 4023   6.986   0.555   6.154
 1042SOL     OW 4024   5.440   2.882   3.844
 1042SOL    HW1 4025   5.419   2.958   3.905
 1042SOL    HW2 4026   5.377   2.807   3.863
 1043SOL     OW 4027   2.274   2.337   3.878
 1043SOL    HW1 4028   2.217   2.388   3.814
 1043SOL    HW2 4029   2.234   2.342   3.969
 1044SOL     OW 4030   4.736   4.715   2.429
 1044SOL    HW1 4031   4.708   4.703   2.334
 1044SOL    HW2 4032   4.757   4.626   2.469
 1045SOL     OW 4033   1.805   0.293   3.003
 1045SOL    HW1 4034   1.847   0.323   2.917
 1045SOL    HW2 4035   1.740   0.363   3.035
 1046SOL     OW 4036   4.229   2.996   0.411
 1046SOL    HW1 4037   4.140   2.992   0.365
 1046SOL    HW2 4038   4.293   2.934   0.365
 1047SOL     OW 4039   4.522   1.056   4.426
 1047SOL    HW1 4040   4.613   1.025   4.452
 1047SOL    HW2 4041   4.455   0.985   4.446
 1048SOL     OW 4042   6.643   0.380   2.063
 1048SOL    HW1 4043   6.620   0.473   2.036
 1048SOL    HW2 4044   6.736   0.378   2.101
 1049SOL     OW 4045   3.816   5.823   0.121
 1049SOL    HW1 4046   3.744   5.862   0.064
 1049SOL    HW2 4047   3.802   5.724   0.129
 1050SOL     OW 4048   2.624   1.338   4.099
 1050SOL    HW1 4049   2.598   1.381   4.013
 1050SOL    HW2 4050   2.719   1.362   4.121
 1051SOL     OW 4051   1.776   2.504   6.089
 1051SOL    HW1 4052   1.710   2.536   6.021
 1051SOL    HW2 4053   1.803   2.410   6.069
 1052SOL     OW 4054   4.461   2.415   6.047
 1052SOL    HW1 4055   4.423   2.484   6.109
 1052SOL    HW2 4056   4.422   2.325   6.068
 1053SOL     OW 4057   4.628   2.620   4.854
 1053SOL    HW1 4058   4.680   2.537   4.840
 1053SOL    HW2 4059   4.660   2.667   4.936
 1054SOL     OW 4060   5.358   5.354   6.833
 1054SOL    HW1 4061   5.354   5.317   6.740
 1054SOL    HW2 4062   5.358   5.279   6.899
 1055SOL     OW 4063   5.334   5.879   6.468
 1055SOL    HW1 4064   5.366   5.950   6.405
 1055SOL    HW2 4065   5.410   5.818   6.490
 1056SOL     OW 4066   3.462   3.398   0.205
 1056SOL    HW1 4067   3.392   3.469   0.210
 1056SOL    HW2 4068   3.422   3.315   0.168
 1057SOL     OW 4069   3.012   3.201   6.527
 1057SOL    HW1 4070   3.049   3.207   6.620
 1057SOL    HW2 4071   3.080   3.234   6.462
 1058SOL     OW 4072   3.630   1.828   2.095
 1058SOL    HW1 4073   3.698   1.893   2.128
 1058SOL    HW2 4074   3.658   1.793   2.005
 1059SOL     OW 4075   1.470   6.473   2.704
 1059SOL    HW1 4076   1.507   6.491   2.613
 1059SOL    HW2 4077   1.545   6.460   2.769
 1060SOL     OW 4078   6.467   6.374   5.137
 1060SOL    HW1 4079   6.406   6.314   5.190
 1060SOL    HW2 4080   6.556   6.380   5.183
 1061SOL     OW 4081   0.721   4.546   6.438
 1061SOL    HW1 4082   0.728   4.476   6.509
 1061SOL    HW2 4083   0.752   4.507   6.351
 1062SOL     OW 4084   3.969   4.805   5.597
 1062SOL    HW1 4085   4.000   4.715   5.566
 1062SOL    HW2 4086   4.013   4.827   5.684
 1063SOL     OW 4087   3.347   5.932   3.674
 1063SOL    HW1 4088   3.304   5.979   3.597
 1063SOL    HW2 4089   3.278   5.879   3.724
 1064SOL     OW 4090   1.252   3.909   6.991
 1064SOL    HW1 4091   1.201   3.925   0.053
 1064SOL    HW2 4092   1.189   3.885   6.917
 1065SOL     OW 4093   6.223   1.094   5.504
 1065SOL    HW1 4094   6.211   1.128   5.597
 1065SOL    HW2 4095   6.278   1.011   5.506
 1066SOL     OW 4096   4.586   6.111   0.956
 1066SOL    HW1 4097   4.673   6.146   0.989
 1066SOL    HW2 4098   4.524   6.097   1.033
 1067SOL     OW 4099   4.166   1.123   0.549
 1067SOL    HW1 4100   4.146   1.220   0.538
 1067SOL    HW2 4101   4.226   1.092   0.475
 1068SOL     OW 4102   6.062   2.706   3.461
 1068SOL    HW1 4103   6.144   2.713   3.404
 1068SOL    HW2 4104   6.031   2.611   3.464
 1069SOL     OW 4105   0.656   1.184   3.179
 1069SOL    HW1 4106   0.723   1.114   3.152
 1069SOL    HW2 4107   0.666   1.263   3.118
 1070SOL     OW 4108   1.378   0.324   2.170
 1070SOL    HW1 4109   1.396   0.369   2.082
 1070SOL    HW2 4110   1.285   0.288   2.170
 1071SOL     OW 4111   1.075   3.042   5.142
 1071SOL    HW1 4112   1.057   2.987   5.224
 1071SOL    HW2 4113   1.040   3.134   5.156
 1072SOL     OW 4114   2.269   1.148   1.467
 1072SOL    HW1 4115   2.367   1.128   1.466
 1072SOL    HW2 4116   2.240   1.170   1.560
 1073SOL     OW 4117   5.333   2.304   2.721
 1073SOL    HW1 4118   5.273   2.378   2.688
 1073SOL    HW2 4119   5.281   2.245   2.784
 1074SOL     OW 4120   3.618   6.605   1.533
 1074SOL    HW1 4121   3.637   6.672   1.461
 1074SOL    HW2 4122   3.520   6.600   1.549
 1075SOL     OW 4123   7.003   3.901   4.802
 1075SOL    HW1 4124   0.007   3.993   4.830
 1075SOL    HW2 4125   6.955   3.855   4.877
 1076SOL     OW 4126   2.803   4.629   5.999
 1076SOL    HW1 4127   2.871   4.668   5.937
 1076SOL    HW2 4128   2.845   4.557   6.054
 1077SOL     OW 4129   0.044   6.536   0.855
 1077SOL    HW1 4130   0.058   6.538   0.756
 1077SOL    HW2 4131   6.996   6.470   0.877
 1078SOL     OW 4132   5.764   6.803   3.731
 1078SOL    HW1 4133   5.781   6.711   3.694
 1078SOL    HW2 4134   5.703   6.796   3.810
 1079SOL     OW 4135   1.424   5.179   1.395
 1079SOL    HW1 4136   1.333   5.136   1.400
 1079SOL    HW2 4137   1.483   5.140   1.465
 1080SOL     OW 4138   5.260   5.792   0.478
 1080SOL    HW1 4139   5.271   5.841   0.391
 1080SOL    HW2 4140   5.343   5.740   0.498
 1081SOL     OW 4141   6.794   6.937   3.233
 1081SOL    HW1 4142   6.757   7.007   3.295
 1081SOL    HW2 4143   6.858   6.879   3.283
 1082SOL     OW 4144   4.740   0.059   0.187
 1082SOL    HW1 4145   4.714   0.034   0.281
 1082SOL    HW2 4146   4.814   0.126   0.190
 1083SOL     OW 4147   6.750   3.814   2.192
 1083SOL    HW1 4148   6.787   3.726   2.162
 1083SOL    HW2 4149   6.652   3.804   2.209
 1084SOL     OW 4150   4.399   6.869   5.111
 1084SOL    HW1 4151   4.349   6.907   5.189
 1084SOL    HW2 4152   4.394   6.932   5.034
 1085SOL     OW 4153   2.095   3.497   4.661
 1085SOL    HW1 4154   2.004   3.474   4.695
 1085SOL    HW2 4155   2.109   3.595   4.666
 1086SOL     OW 4156   4.861   4.454   2.722
 1086SOL    HW1 4157   4.872   4.451   2.821
 1086SOL    HW2 4158   4.766   4.433   2.699
 1087SOL     OW 4159   3.369   0.403   6.160
 1087SOL    HW1 4160   3.287   0.348   6.142
 1087SOL    HW2 4161   3.447   0.344   6.178
 1088SOL     OW 4162   5.709   5.734   4.357
 1088SOL    HW1 4163   5.794   5.700   4.317
 1088SOL    HW2 4164   5.728   5.812   4.416
 1089SOL     OW 4165   5.664   4.786   4.865
 1089SOL    HW1 4166   5.686   4.872   4.818
 1089SOL    HW2 4167   5.745   4.755   4.915
 1090SOL     OW 4168   6.428   3.013   5.035
 1090SOL    HW1 4169   6.514   3.014   5.086
 1090SOL    HW2 4170   6.367   2.945   5.075
 1091SOL     OW 4171   1.834   3.467   3.967
 1091SOL    HW1 4172   1.808   3.490   3.873
 1091SOL    HW2 4173   1.814   3.370   3.984
 1092SOL     OW 4174   0.859   6.184   0.297
 1092SOL    HW1 4175   0.849   6.240   0.379
 1092SOL    HW2 4176   0.770   6.149   0.269
 1093SOL     OW 4177   1.816   0.631   3.117
 1093SOL    HW1 4178   1.720   0.654   3.130
 1093SOL    HW2 4179   1.840   0.551   3.173
 1094SOL     OW 4180   0.359   0.316   3.107
 1094SOL    HW1 4181   0.323   0.277   3.022
 1094SOL    HW2 4182   0.458   0.309   3.107
 1095SOL     OW 4183   6.455   4.389   0.866
 1095SOL    HW1 4184   6.554   4.377   0.857
 1095SOL    HW2 4185   6.409   4.305   0.837
 1096SOL     OW 4186   1.957   5.908   1.788
 1096SOL    HW1 4187   1.889   5.920   1.860
 1096SOL    HW2 4188   2.019   5.833   1.813
 1097SOL     OW 4189   3.298   5.406   4.771
 1097SOL    HW1 4190   3.339   5.373   4.686
 1097SOL    HW2 4191   3.351   5.373   4.849
 1098SOL     OW 4192   6.882   4.129   0.143
 1098SOL    HW1 4193   6.845   4.141   0.051
 1098SOL    HW2 4194   6.975   4.093   0.137
 1099SOL     OW 4195   5.671   0.150   6.745
 1099SOL    HW1 4196   5.653   0.060   6.785
 1099SOL    HW2 4197   5.651   0.221   6.812
 1100SOL     OW 4198   5.105   0.588   4.605
 1100SOL    HW1 4199   5.131   0.562   4.512
 1100SOL    HW2 4200   5.181   0.569   4.668
 1101SOL     OW 4201   5.172   2.452   0.080
 1101SOL    HW1 4202   5.155   2.366   0.032
 1101SOL    HW2 4203   5.266   2.481   0.063
 1102SOL     OW 4204   3.817   1.481   4.780
 1102SOL    HW1 4205   3.884   1.491   4.707
 1102SOL    HW2 4206   3.725   1.491   4.742
 1103SOL     OW 4207   2.842   6.334   0.458
 1103SOL    HW1 4208   2.831   6.271   0.381
 1103SOL    HW2 4209   2.769   6.318   0.524
 1104SOL     OW 4210   6.425   0.414   4.109
 1104SOL    HW1 4211   6.406   0.333   4.163
 1104SOL    HW2 4212   6.518   0.409   4.073
 1105SOL     OW 4213   4.581   0.322   6.110
 1105SOL    HW1 4214   4.621   0.411   6.130
 1105SOL    HW2 4215   4.640   0.273   6.046
 1106SOL     OW 4216   6.380   1.404   2.168
 1106SOL    HW1 4217   6.344   1.312   2.181
 1106SOL    HW2 4218   6.362   1.459   2.250
 1107SOL     OW 4219   1.169   2.873   6.912
 1107SOL    HW1 4220   1.099   2.925   6.962
 1107SOL    HW2 4221   1.132   2.843   6.825
 1108SOL     OW 4222   2.490   0.932   2.022
 1108SOL    HW1 4223   2.402   0.888   2.009
 1108SOL    HW2 4224   2.510   0.991   1.944
 1109SOL     OW 4225   5.319   1.232   5.390
 1109SOL    HW1 4226   5.391   1.175   5.432
 1109SOL    HW2 4227   5.361   1.310   5.345
 1110SOL     OW 4228   1.584   0.285   1.464
 1110SOL    HW1 4229   1.591   0.363   1.526
 1110SOL    HW2 4230   1.563   0.202   1.517
 1111SOL     OW 4231   5.270   3.427   6.199
 1111SOL    HW1 4232   5.310   3.340   6.226
 1111SOL    HW2 4233   5.272   3.490   6.277
 1112SOL     OW 4234   5.694   0.343   2.711
 1112SOL    HW1 4235   5.731   0.359   2.619
 1112SOL    HW2 4236   5.629   0.416   2.734
 1113SOL     OW 4237   0.255   0.873   2.838
 1113SOL    HW1 4238   0.210   0.817   2.907
 1113SOL    HW2 4239   0.324   0.930   2.882
 1114SOL     OW 4240   3.826   3.534   4.531
 1114SOL    HW1 4241   3.744   3.491   4.569
 1114SOL    HW2 4242   3.820   3.633   4.543
 1115SOL     OW 4243   1.850   6.018   5.833
 1115SOL    HW1 4244   1.778   5.950   5.822
 1115SOL    HW2 4245   1.820   6.089   5.898
 1116SOL     OW 4246   4.390   0.248   0.545
 1116SOL    HW1 4247   4.387   0.160   0.498
 1116SOL    HW2 4248   4.303   0.296   0.533
 1117SOL     OW 4249   2.078   2.361   1.657
 1117SOL    HW1 4250   2.104   2.426   1.586
 1117SOL    HW2 4251   2.087   2.268   1.622
 1118SOL     OW 4252   4.515   0.064   0.008
 1118SOL    HW1 4253   4.571   7.012   0.046
 1118SOL    HW2 4254   4.421   0.033   7.021
 1119SOL     OW 4255   3.183   6.301   3.374
 1119SOL    HW1 4256   3.195   6.201   3.380
 1119SOL    HW2 4257   3.099   6.327   3.421
 1120SOL     OW 4258   0.630   2.874   1.823
 1120SOL    HW1 4259   0.698   2.801   1.821
 1120SOL    HW2 4260   0.675   2.962   1.814
 1121SOL     OW 4261   5.380   4.670   6.071
 1121SOL    HW1 4262   5.401   4.718   5.986
 1121SOL    HW2 4263   5.356   4.575   6.051
 1122SOL     OW 4264   5.963   0.856   2.592
 1122SOL    HW1 4265   5.970   0.852   2.492
 1122SOL    HW2 4266   5.899   0.787   2.624
 1123SOL     OW 4267   3.328   2.087   4.876
 1123SOL    HW1 4268   3.410   2.140   4.897
 1123SOL    HW2 4269   3.248   2.147   4.872
 1124SOL     OW 4270   2.766   2.315   3.564
 1124SOL    HW1 4271   2.744   2.292   3.659
 1124SOL    HW2 4272   2.861   2.290   3.545
 1125SOL     OW 4273   1.414   3.244   3.457
 1125SOL    HW1 4274   1.349   3.207   3.524
 1125SOL    HW2 4275   1.507   3.231   3.492
 1126SOL     OW 4276   5.067   4.787   3.847
 1126SOL    HW1 4277   5.118   4.760   3.929
 1126SOL    HW2 4278   4.996   4.853   3.872
 1127SOL     OW 4279   5.252   0.421   0.680
 1127SOL    HW1 4280   5.280   0.369   0.600
 1127SOL    HW2 4281   5.197   0.499   0.652
 1128SOL     OW 4282   3.187   1.703   4.732
 1128SOL    HW1 4283   3.218   1.747   4.817
 1128SOL    HW2 4284   3.267   1.667   4.683
 1129SOL     OW 4285   1.466   0.339   6.971
 1129SOL    HW1 4286   1.553   0.292   6.954
 1129SOL    HW2 4287   1.465   0.426   6.922
 1130SOL     OW 4288   2.351   5.654   0.566
 1130SOL    HW1 4289   2.409   5.613   0.638
 1130SOL    HW2 4290   2.258   5.619   0.575
 1131SOL     OW 4291   1.465   5.632   3.240
 1131SOL    HW1 4292   1.469   5.731   3.241
 1131SOL    HW2 4293   1.427   5.599   3.326
 1132SOL     OW 4294   1.436   2.819   3.045
 1132SOL    HW1 4295   1.503   2.806   3.118
 1132SOL    HW2 4296   1.353   2.768   3.066
 1133SOL     OW 4297   1.401   5.868   7.019
 1133SOL    HW1 4298   1.324   5.848   6.958
 1133SOL    HW2 4299   1.460   5.936   6.975
 1134SOL     OW 4300   3.997   5.005   1.052
 1134SOL    HW1 4301   4.016   5.029   0.957
 1134SOL    HW2 4302   4.031   5.077   1.112
 1135SOL     OW 4303   1.637   6.440   2.506
 1135SOL    HW1 4304   1.661   6.517   2.447
 1135SOL    HW2 4305   1.712   6.423   2.570
 1136SOL     OW 4306   1.305   4.897   2.984
 1136SOL    HW1 4307   1.402   4.907   2.962
 1136SOL    HW2 4308   1.251   4.903   2.901
 1137SOL     OW 4309   1.363   5.150   3.979
 1137SOL    HW1 4310   1.457   5.125   4.000
 1137SOL    HW2 4311   1.361   5.210   3.899
 1138SOL     OW 4312   2.491   4.739   4.641
 1138SOL    HW1 4313   2.422   4.811   4.639
 1138SOL    HW2 4314   2.458   4.663   4.698
 1139SOL     OW 4315   3.500   6.014   4.853
 1139SOL    HW1 4316   3.500   6.072   4.772
 1139SOL    HW2 4317   3.405   5.992   4.878
 1140SOL     OW 4318   1.937   2.831   1.433
 1140SOL    HW1 4319   1.856   2.872   1.391
 1140SOL    HW2 4320   1.931   2.839   1.532
 1141SOL     OW 4321   6.232   4.982   6.448
 1141SOL    HW1 4322   6.223   4.899   6.395
 1141SOL    HW2 4323   6.259   5.058   6.388
 1142SOL     OW 4324   0.800   5.759   3.364
 1142SOL    HW1 4325   0.769   5.852   3.343
 1142SOL    HW2 4326   0.726   5.695   3.342
 1143SOL     OW 4327   0.128   3.698   1.539
 1143SOL    HW1 4328   0.172   3.637   1.605
 1143SOL    HW2 4329   0.195   3.764   1.504
 1144SOL     OW 4330   4.969   4.575   0.104
 1144SOL    HW1 4331   4.993   4.494   0.051
 1144SOL    HW2 4332   4.870   4.576   0.121
 1145SOL     OW 4333   5.885   0.160   1.009
 1145SOL    HW1 4334   5.837   0.247   1.003
 1145SOL    HW2 4335   5.930   0.140   0.922
 1146SOL     OW 4336   1.727   0.202   1.218
 1146SOL    HW1 4337   1.655   0.229   1.283
 1146SOL    HW2 4338   1.779   0.126   1.257
 1147SOL     OW 4339   1.091   5.588   0.318
 1147SOL    HW1 4340   1.167   5.647   0.291
 1147SOL    HW2 4341   1.069   5.526   0.242
 1148SOL     OW 4342   3.721   5.924   1.661
 1148SOL    HW1 4343   3.817   5.914   1.689
 1148SOL    HW2 4344   3.687   6.013   1.692
 1149SOL     OW 4345   6.240   2.632   1.753
 1149SOL    HW1 4346   6.296   2.552   1.774
 1149SOL    HW2 4347   6.143   2.607   1.757
 1150SOL     OW 4348   0.529   1.496   0.664
 1150SOL    HW1 4349   0.571   1.483   0.754
 1150SOL    HW2 4350   0.601   1.517   0.597
 1151SOL     OW 4351   5.886   5.361   4.491
 1151SOL    HW1 4352   5.948   5.307   4.548
 1151SOL    HW2 4353   5.859   5.309   4.411
 1152SOL     OW 4354   3.339   6.494   5.720
 1152SOL    HW1 4355   3.254   6.547   5.722
 1152SOL    HW2 4356   3.412   6.547   5.762
 1153SOL     OW 4357   5.791   6.917   1.058
 1153SOL    HW1 4358   5.792   7.017   1.058
 1153SOL    HW2 4359   5.882   6.883   1.031
 1154SOL     OW 4360   1.147   2.863   0.928
 1154SOL    HW1 4361   1.089   2.871   0.847
 1154SOL    HW2 4362   1.119   2.931   0.996
 1155SOL     OW 4363   3.946   5.614   3.579
 1155SOL    HW1 4364   3.974   5.660   3.495
 1155SOL    HW2 4365   4.024   5.566   3.618
 1156SOL     OW 4366   3.197   0.180   1.172
 1156SOL    HW1 4367   3.290   0.202   1.200
 1156SOL    HW2 4368   3.150   0.264   1.143
 1157SOL     OW 4369   2.236   1.838   0.886
 1157SOL    HW1 4370   2.300   1.907   0.919
 1157SOL    HW2 4371   2.143   1.875   0.890
 1158SOL     OW 4372   5.590   4.899   3.694
 1158SOL    HW1 4373   5.586   4.999   3.688
 1158SOL    HW2 4374   5.619   4.862   3.606
 1159SOL     OW 4375   5.341   4.941   0.134
 1159SOL    HW1 4376   5.298   4.911   0.049
 1159SOL    HW2 4377   5.428   4.894   0.147
 1160SOL     OW 4378   4.294   2.349   1.252
 1160SOL    HW1 4379   4.316   2.257   1.219
 1160SOL    HW2 4380   4.251   2.401   1.178
 1161SOL     OW 4381   0.266   4.014   0.885
 1161SOL    HW1 4382   0.313   3.927   0.871
 1161SOL    HW2 4383   0.334   4.087   0.899
 1162SOL     OW 4384   2.162   3.124   4.943
 1162SOL    HW1 4385   2.254   3.119   4.981
 1162SOL    HW2 4386   2.159   3.077   4.855
 1163SOL     OW 4387   4.406   1.966   2.247
 1163SOL    HW1 4388   4.458   1.967   2.162
 1163SOL    HW2 4389   4.447   1.900   2.310
 1164SOL     OW 4390   4.234   2.381   6.685
 1164SOL    HW1 4391   4.298   2.304   6.692
 1164SOL    HW2 4392   4.141   2.347   6.679
 1165SOL     OW 4393   4.131   0.446   2.797
 1165SOL    HW1 4394   4.152   0.507   2.720
 1165SOL    HW2 4395   4.133   0.351   2.765
 1166SOL     OW 4396   4.019   4.386   6.849
 1166SOL    HW1 4397   4.053   4.427   6.933
 1166SOL    HW2 4398   3.934   4.432   6.821
 1167SOL     OW 4399   5.336   3.844   3.891
 1167SOL    HW1 4400   5.398   3.904   3.840
 1167SOL    HW2 4401   5.242   3.859   3.860
 1168SOL     OW 4402   0.348   0.275   0.463
 1168SOL    HW1 4403   0.297   0.271   0.376
 1168SOL    HW2 4404   0.379   0.184   0.488
 1169SOL     OW 4405   4.898   1.856   5.714
 1169SOL    HW1 4406   4.938   1.922   5.651
 1169SOL    HW2 4407   4.957   1.776   5.722
 1170SOL     OW 4408   5.223   4.544   3.198
 1170SOL    HW1 4409   5.276   4.539   3.113
 1170SOL    HW2 4410   5.134   4.586   3.178
 1171SOL     OW 4411   0.120   6.826   0.949
 1171SOL    HW1 4412   0.101   6.873   0.862
 1171SOL    HW2 4413   0.095   6.730   0.940
 1172SOL     OW 4414   5.832   2.467   6.804
 1172SOL    HW1 4415   5.884   2.433   6.725
 1172SOL    HW2 4416   5.883   2.542   6.847
 1173SOL     OW 4417   5.204   3.042   1.925
 1173SOL    HW1 4418   5.159   3.096   1.997
 1173SOL    HW2 4419   5.264   3.102   1.872
 1174SOL     OW 4420   2.726   5.426   6.256
 1174SOL    HW1 4421   2.803   5.454   6.199
 1174SOL    HW2 4422   2.645   5.477   6.230
 1175SOL     OW 4423   3.250   3.406   4.265
 1175SOL    HW1 4424   3.197   3.352   4.331
 1175SOL    HW2 4425   3.199   3.488   4.241
 1176SOL     OW 4426   5.129   3.801   6.870
 1176SOL    HW1 4427   5.095   3.882   6.824
 1176SOL    HW2 4428   5.225   3.814   6.896
 1177SOL     OW 4429   1.470   0.550   4.243
 1177SOL    HW1 4430   1.394   0.614   4.254
 1177SOL    HW2 4431   1.434   0.457   4.241
 1178SOL     OW 4432   4.033   6.782   0.005
 1178SOL    HW1 4433   3.981   6.853   6.980
 1178SOL    HW2 4434   3.985   6.695   7.019
 1179SOL     OW 4435   0.563   6.201   1.043
 1179SOL    HW1 4436   0.605   6.278   0.994
 1179SOL    HW2 4437   0.545   6.127   0.979
 1180SOL     OW 4438   4.057   6.435   0.602
 1180SOL    HW1 4439   4.151   6.463   0.619
 1180SOL    HW2 4440   4.001   6.516   0.581
 1181SOL     OW 4441   6.106   6.543   5.642
 1181SOL    HW1 4442   6.174   6.586   5.583
 1181SOL    HW2 4443   6.149   6.468   5.693
 1182SOL     OW 4444   5.197   3.595   4.219
 1182SOL    HW1 4445   5.250   3.680   4.216
 1182SOL    HW2 4446   5.101   3.615   4.197
 1183SOL     OW 4447   1.459   4.078   0.010
 1183SOL    HW1 4448   1.532   4.051   6.970
 1183SOL    HW2 4449   1.376   4.025   7.012
 1184SOL     OW 4450   0.649   1.943   4.943
 1184SOL    HW1 4451   0.596   1.863   4.969
 1184SOL    HW2 4452   0.592   2.006   4.890
 1185SOL     OW 4453   0.260   2.234   0.055
 1185SOL    HW1 4454   0.191   2.184   0.003
 1185SOL    HW2 4455   0.333   2.263   7.016
 1186SOL     OW 4456   5.113   6.368   3.728
 1186SOL    HW1 4457   5.016   6.394   3.728
 1186SOL    HW2 4458   5.153   6.391   3.639
 1187SOL     OW 4459   6.494   2.278   0.087
 1187SOL    HW1 4460   6.470   2.250   7.016
 1187SOL    HW2 4461   6.443   2.222   0.153
 1188SOL     OW 4462   4.330   1.569   6.726
 1188SOL    HW1 4463   4.406   1.592   6.787
 1188SOL    HW2 4464   4.305   1.472   6.739
 1189SOL     OW 4465   6.119   3.963   3.946
 1189SOL    HW1 4466   6.177   3.963   4.028
 1189SOL    HW2 4467   6.023   3.956   3.973
 1190SOL     OW 4468   2.444   1.178   3.887
 1190SOL    HW1 4469   2.509   1.104   3.902
 1190SOL    HW2 4470   2.494   1.265   3.877
 1191SOL     OW 4471   2.667   0.237   2.928
 1191SOL    HW1 4472   2.700   0.147   2.954
 1191SOL    HW2 4473   2.684   0.302   3.002
 1192SOL     OW 4474   5.919   5.152   4.297
 1192SOL    HW1 4475   5.887   5.145   4.202
 1192SOL    HW2 4476   5.948   5.062   4.329
 1193SOL     OW 4477   6.639   6.286   3.908
 1193SOL    HW1 4478   6.626   6.385   3.915
 1193SOL    HW2 4479   6.707   6.266   3.837
 1194SOL     OW 4480   3.697   0.131   1.230
 1194SOL    HW1 4481   3.670   0.102   1.322
 1194SOL    HW2 4482   3.796   0.123   1.221
 1195SOL     OW 4483   5.181   3.378   3.427
 1195SOL    HW1 4484   5.197   3.328   3.512
 1195SOL    HW2 4485   5.207   3.322   3.349
 1196SOL     OW 4486   0.191   6.427   5.492
 1196SOL    HW1 4487   0.281   6.467   5.510
 1196SOL    HW2 4488   0.136   6.430   5.576
 1197SOL     OW 4489   2.876   6.372   6.684
 1197SOL    HW1 4490   2.802   6.395   6.621
 1197SOL    HW2 4491   2.844   6.305   6.751
 1198SOL     OW 4492   1.504   2.580   0.516
 1198SOL    HW1 4493   1.469   2.508   0.576
 1198SOL    HW2 4494   1.511   2.665   0.567
 1199SOL     OW 4495   5.838   4.454   2.731
 1199SOL    HW1 4496   5.746   4.473   2.697
 1199SOL    HW2 4497   5.834   4.383   2.802
 1200SOL     OW 4498   3.173   3.774   1.911
 1200SOL    HW1 4499   3.184   3.805   2.006
 1200SOL    HW2 4500   3.137   3.849   1.856
 1201SOL     OW 4501   1.192   2.306   4.927
 1201SOL    HW1 4502   1.128   2.381   4.910
 1201SOL    HW2 4503   1.176   2.268   5.018
 1202SOL     OW 4504   0.966   6.557   4.857
 1202SOL    HW1 4505   0.948   6.642   4.807
 1202SOL    HW2 4506   0.952   6.479   4.796
 1203SOL     OW 4507   4.514   5.317   5.142
 1203SOL    HW1 4508   4.421   5.345   5.167
 1203SOL    HW2 4509   4.570   5.311   5.224
 1204SOL     OW 4510   1.792   0.340   2.649
 1204SOL    HW1 4511   1.803   0.339   2.549
 1204SOL    HW2 4512   1.740   0.421   2.676
 1205SOL     OW 4513   6.103   3.274   2.433
 1205SOL    HW1 4514   6.117   3.254   2.336
 1205SOL    HW2 4515   6.098   3.188   2.484
 1206SOL     OW 4516   3.448   2.975   4.137
 1206SOL    HW1 4517   3.465   2.949   4.232
 1206SOL    HW2 4518   3.498   2.914   4.076
 1207SOL     OW 4519   1.052   5.916   3.225
 1207SOL    HW1 4520   0.991   5.837   3.228
 1207SOL    HW2 4521   1.142   5.887   3.191
 1208SOL     OW 4522   3.960   2.351   6.761
 1208SOL    HW1 4523   3.911   2.281   6.813
 1208SOL    HW2 4524   3.897   2.424   6.736
 1209SOL     OW 4525   4.339   6.651   5.379
 1209SOL    HW1 4526   4.318   6.602   5.295
 1209SOL    HW2 4527   4.310   6.746   5.370
 1210SOL     OW 4528   2.432   1.224   3.413
 1210SOL    HW1 4529   2.485   1.290   3.466
 1210SOL    HW2 4530   2.382   1.164   3.476
 1211SOL     OW 4531   0.865   3.008   0.932
 1211SOL    HW1 4532   0.824   2.933   0.983
 1211SOL    HW2 4533   0.890   2.977   0.841
 1212SOL     OW 4534   0.489   6.836   0.188
 1212SOL    HW1 4535   0.543   6.845   0.104
 1212SOL    HW2 4536   0.547   6.798   0.261
 1213SOL     OW 4537   6.383   2.847   2.943
 1213SOL    HW1 4538   6.409   2.812   3.033
 1213SOL    HW2 4539   6.395   2.947   2.941
 1214SOL     OW 4540   1.480   2.865   2.346
 1214SOL    HW1 4541   1.483   2.820   2.257
 1214SOL    HW2 4542   1.451   2.960   2.335
 1215SOL     OW 4543   1.980   5.263   2.627
 1215SOL    HW1 4544   1.923   5.224   2.555
 1215SOL    HW2 4545   2.074   5.229   2.617
 1216SOL     OW 4546   3.529   0.147   2.002
 1216SOL    HW1 4547   3.553   0.177   1.910
 1216SOL    HW2 4548   3.465   0.212   2.043
 1217SOL     OW 4549   2.960   4.076   0.188
 1217SOL    HW1 4550   2.965   4.134   0.107
 1217SOL    HW2 4551   3.035   4.099   0.250
 1218SOL     OW 4552   2.056   4.957   4.185
 1218SOL    HW1 4553   2.100   5.008   4.259
 1218SOL    HW2 4554   2.057   4.859   4.206
 1219SOL     OW 4555   3.627   5.363   2.106
 1219SOL    HW1 4556   3.620   5.374   2.007
 1219SOL    HW2 4557   3.629   5.453   2.149
 1220SOL     OW 4558   0.700   4.778   2.010
 1220SOL    HW1 4559   0.624   4.745   2.066
 1220SOL    HW2 4560   0.785   4.768   2.060
 1221SOL     OW 4561   3.952   3.608   6.292
 1221SOL    HW1 4562   3.865   3.565   6.315
 1221SOL    HW2 4563   3.973   3.592   6.196
 1222SOL     OW 4564   6.999   1.956   6.776
 1222SOL    HW1 4565   0.074   1.975   6.760
 1222SOL    HW2 4566   6.986   1.925   6.870
 1223SOL     OW 4567   4.372   5.367   1.294
 1223SOL    HW1 4568   4.282   5.327   1.286
 1223SOL    HW2 4569   4.434   5.326   1.227
 1224SOL     OW 4570   3.154   1.066   1.454
 1224SOL    HW1 4571   3.195   1.069   1.545
 1224SOL    HW2 4572   3.114   0.976   1.438
 1225SOL     OW 4573   3.596   4.927   5.832
 1225SOL    HW1 4574   3.576   4.829   5.830
 1225SOL    HW2 4575   3.662   4.949   5.761
 1226SOL     OW 4576   2.172   5.411   0.836
 1226SOL    HW1 4577   2.148   5.314   0.831
 1226SOL    HW2 4578   2.101   5.465   0.789
 1227SOL     OW 4579   1.292   4.558   5.415
 1227SOL    HW1 4580   1.304   4.461   5.437
 1227SOL    HW2 4581   1.198   4.574   5.386
 1228SOL     OW 4582   3.410   2.421   0.767
 1228SOL    HW1 4583   3.369   2.367   0.840
 1228SOL    HW2 4584   3.338   2.464   0.713
 1229SOL     OW 4585   3.084   4.251   6.978
 1229SOL    HW1 4586   3.176   4.237   7.016
 1229SOL    HW2 4587   3.079   4.343   6.939
 1230SOL     OW 4588   3.947   0.417   3.267
 1230SOL    HW1 4589   3.866   0.477   3.265
 1230SOL    HW2 4590   3.923   0.331   3.313
 1231SOL     OW 4591   0.954   3.038   3.481
 1231SOL    HW1 4592   0.924   3.124   3.521
 1231SOL    HW2 4593   0.916   3.029   3.388
 1232SOL     OW 4594   1.856   1.338   2.539
 1232SOL    HW1 4595   1.842   1.418   2.598
 1232SOL    HW2 4596   1.932   1.355   2.477
 1233SOL     OW 4597   0.986   2.397   4.369
 1233SOL    HW1 4598   1.042   2.478   4.351
 1233SOL    HW2 4599   0.932   2.412   4.452
 1234SOL     OW 4600   6.739   4.559   3.980
 1234SOL    HW1 4601   6.710   4.482   3.923
 1234SOL    HW2 4602   6.786   4.524   4.062
 1235SOL     OW 4603   6.907   5.034   3.326
 1235SOL    HW1 4604   6.994   5.074   3.293
 1235SOL    HW2 4605   6.914   4.935   3.327
 1236SOL     OW 4606   5.965   0.574   6.902
 1236SOL    HW1 4607   5.941   0.629   6.822
 1236SOL    HW2 4608   6.065   0.570   6.911
 1237SOL     OW 4609   2.730   3.887   0.178
 1237SOL    HW1 4610   2.814   3.940   0.195
 1237SOL    HW2 4611   2.654   3.950   0.162
 1238SOL     OW 4612   1.973   1.109   1.352
 1238SOL    HW1 4613   1.961   1.127   1.254
 1238SOL    HW2 4614   2.071   1.109   1.373
 1239SOL     OW 4615   0.976   1.104   5.181
 1239SOL    HW1 4616   1.049   1.167   5.207
 1239SOL    HW2 4617   0.899   1.114   5.244
 1240SOL     OW 4618   6.190   5.453   0.820
 1240SOL    HW1 4619   6.196   5.547   0.854
 1240SOL    HW2 4620   6.127   5.450   0.742
 1241SOL     OW 4621   0.659   1.979   4.114
 1241SOL    HW1 4622   0.606   1.901   4.081
 1241SOL    HW2 4623   0.604   2.031   4.180
 1242SOL     OW 4624   1.896   1.854   6.312
 1242SOL    HW1 4625   1.852   1.834   6.400
 1242SOL    HW2 4626   1.869   1.785   6.245
 1243SOL     OW 4627   3.186   4.842   5.133
 1243SOL    HW1 4628   3.090   4.866   5.142
 1243SOL    HW2 4629   3.198   4.743   5.147
 1244SOL     OW 4630   1.249   1.464   3.037
 1244SOL    HW1 4631   1.281   1.373   3.010
 1244SOL    HW2 4632   1.246   1.470   3.137
 1245SOL     OW 4633   3.563   2.870   4.854
 1245SOL    HW1 4634   3.643   2.874   4.796
 1245SOL    HW2 4635   3.481   2.862   4.797
 1246SOL     OW 4636   1.311   6.648   1.583
 1246SOL    HW1 4637   1.233   6.710   1.579
 1246SOL    HW2 4638   1.291   6.574   1.647
 1247SOL     OW 4639   0.253   6.555   6.500
 1247SOL    HW1 4640   0.229   6.480   6.439
 1247SOL    HW2 4641   0.313   6.619   6.452
 1248SOL     OW 4642   2.253   6.855   4.187
 1248SOL    HW1 4643   2.291   6.923   4.125
 1248SOL    HW2 4644   2.294   6.766   4.167
 1249SOL     OW 4645   6.431   3.256   3.763
 1249SOL    HW1 4646   6.474   3.327   3.707
 1249SOL    HW2 4647   6.501   3.190   3.792
 1250SOL     OW 4648   6.423   3.343   4.284
 1250SOL    HW1 4649   6.501   3.300   4.238
 1250SOL    HW2 4650   6.426   3.442   4.267
 1251SOL     OW 4651   3.090   0.619   0.281
 1251SOL    HW1 4652   3.164   0.610   0.215
 1251SOL    HW2 4653   3.046   0.530   0.295
 1252SOL     OW 4654   3.754   3.780   0.220
 1252SOL    HW1 4655   3.746   3.756   0.317
 1252SOL    HW2 4656   3.767   3.879   0.211
 1253SOL     OW 4657   5.097   1.809   3.206
 1253SOL    HW1 4658   5.077   1.754   3.287
 1253SOL    HW2 4659   5.154   1.756   3.143
 1254SOL     OW 4660   5.278   1.121   3.804
 1254SOL    HW1 4661   5.190   1.091   3.840
 1254SOL    HW2 4662   5.351   1.092   3.866
 1255SOL     OW 4663   5.778   0.406   0.976
 1255SOL    HW1 4664   5.856   0.468   0.971
 1255SOL    HW2 4665   5.707   0.436   0.911
 1256SOL     OW 4666   5.634   3.071   3.375
 1256SOL    HW1 4667   5.627   2.996   3.309
 1256SOL    HW2 4668   5.567   3.058   3.448
 1257SOL     OW 4669   5.924   1.498   4.999
 1257SOL    HW1 4670   5.978   1.441   5.062
 1257SOL    HW2 4671   5.960   1.487   4.907
 1258SOL     OW 4672   0.139   5.124   3.954
 1258SOL    HW1 4673   0.173   5.066   4.028
 1258SOL    HW2 4674   0.170   5.218   3.969
 1259SOL     OW 4675   5.805   2.390   5.402
 1259SOL    HW1 4676   5.810   2.490   5.410
 1259SOL    HW2 4677   5.892   2.355   5.369
 1260SOL     OW 4678   0.916   1.479   4.628
 1260SOL    HW1 4679   0.895   1.451   4.722
 1260SOL    HW2 4680   1.000   1.435   4.599
 1261SOL     OW 4681   6.307   3.073   1.547
 1261SOL    HW1 4682   6.255   3.154   1.519
 1261SOL    HW2 4683   6.301   3.003   1.476
 1262SOL     OW 4684   5.278   5.652   1.596
 1262SOL    HW1 4685   5.350   5.681   1.659
 1262SOL    HW2 4686   5.287   5.555   1.577
 1263SOL     OW 4687   1.222   2.664   3.095
 1263SOL    HW1 4688   1.152   2.706   3.152
 1263SOL    HW2 4689   1.186   2.580   3.054
 1264SOL     OW 4690   1.226   3.019   5.535
 1264SOL    HW1 4691   1.293   2.991   5.466
 1264SOL    HW2 4692   1.265   3.092   5.592
 1265SOL     OW 4693   6.202   1.332   6.253
 1265SOL    HW1 4694   6.226   1.414   6.201
 1265SOL    HW2 4695   6.286   1.290   6.288
 1266SOL     OW 4696   3.803   1.853   6.106
 1266SOL    HW1 4697   3.748   1.791   6.051
 1266SOL    HW2 4698   3.889   1.808   6.130
 1267SOL     OW 4699   2.847   0.935   1.959
 1267SOL    HW1 4700   2.760   0.904   1.921
 1267SOL    HW2 4701   2.895   0.858   2.002
 1268SOL     OW 4702   4.247   2.130   5.035
 1268SOL    HW1 4703   4.326   2.163   4.983
 1268SOL    HW2 4704   4.211   2.048   4.991
 1269SOL     OW 4705   5.468   2.093   3.651
 1269SOL    HW1 4706   5.412   2.138   3.721
 1269SOL    HW2 4707   5.411   2.033   3.596
 1270SOL     OW 4708   5.674   5.419   3.665
 1270SOL    HW1 4709   5.667   5.488   3.737
 1270SOL    HW2 4710   5.766   5.418   3.627
 1271SOL     OW 4711   1.499   0.071   1.591
 1271SOL    HW1 4712   1.491   0.020   1.505
 1271SOL    HW2 4713   1.478   0.010   1.667
 1272SOL     OW 4714   5.579   2.177   1.234
 1272SOL    HW1 4715   5.543   2.173   1.328
 1272SOL    HW2 4716   5.646   2.104   1.221
 1273SOL     OW 4717   1.946   4.275   5.108
 1273SOL    HW1 4718   2.003   4.280   5.190
 1273SOL    HW2 4719   1.941   4.180   5.077
 1274SOL     OW 4720   6.920   4.419   4.131
 1274SOL    HW1 4721   7.006   4.424   4.079
 1274SOL    HW2 4722   6.882   4.327   4.124
 1275SOL     OW 4723   1.908   1.774   2.787
 1275SOL    HW1 4724   1.948   1.849   2.734
 1275SOL    HW2 4725   1.809   1.773   2.773
 1276SOL     OW 4726   5.766   4.002   3.805
 1276SOL    HW1 4727   5.798   3.953   3.886
 1276SOL    HW2 4728   5.845   4.042   3.757
 1277SOL     OW 4729   1.150   6.406   5.880
 1277SOL    HW1 4730   1.135   6.307   5.885
 1277SOL    HW2 4731   1.151   6.434   5.784
 1278SOL     OW 4732   6.931   6.136   2.977
 1278SOL    HW1 4733   6.955   6.177   2.889
 1278SOL    HW2 4734   6.959   6.198   3.051
 1279SOL     OW 4735   2.587   2.873   0.722
 1279SOL    HW1 4736   2.584   2.795   0.784
 1279SOL    HW2 4737   2.603   2.957   0.774
 1280SOL     OW 4738   2.959   2.199   2.667
 1280SOL    HW1 4739   2.876   2.254   2.666
 1280SOL    HW2 4740   3.006   2.211   2.755
 1281SOL     OW 4741   5.764   5.962   5.746
 1281SOL    HW1 4742   5.811   5.883   5.707
 1281SOL    HW2 4743   5.712   5.933   5.827
 1282SOL     OW 4744   1.128   2.416   1.303
 1282SOL    HW1 4745   1.152   2.425   1.399
 1282SOL    HW2 4746   1.172   2.335   1.265
 1283SOL     OW 4747   1.325   0.219   5.203
 1283SOL    HW1 4748   1.405   0.271   5.175
 1283SOL    HW2 4749   1.353   0.136   5.250
 1284SOL     OW 4750   3.892   2.199   1.495
 1284SOL    HW1 4751   3.992   2.198   1.490
 1284SOL    HW2 4752   3.854   2.206   1.402
 1285SOL     OW 4753   3.679   1.475   4.247
 1285SOL    HW1 4754   3.664   1.393   4.301
 1285SOL    HW2 4755   3.775   1.480   4.219
 1286SOL     OW 4756   5.444   0.589   2.150
 1286SOL    HW1 4757   5.456   0.507   2.206
 1286SOL    HW2 4758   5.443   0.564   2.054
 1287SOL     OW 4759   5.723   4.234   6.757
 1287SOL    HW1 4760   5.730   4.167   6.684
 1287SOL    HW2 4761   5.644   4.212   6.814
 1288SOL     OW 4762   5.065   4.352   5.487
 1288SOL    HW1 4763   5.079   4.269   5.432
 1288SOL    HW2 4764   5.153   4.384   5.523
 1289SOL     OW 4765   0.871   6.914   0.757
 1289SOL    HW1 4766   0.804   6.987   0.766
 1289SOL    HW2 4767   0.959   6.952   0.728
 1290SOL     OW 4768   1.148   6.971   4.626
 1290SOL    HW1 4769   1.088   0.013   4.579
 1290SOL    HW2 4770   1.116   6.878   4.610
 1291SOL     OW 4771   4.803   6.264   4.123
 1291SOL    HW1 4772   4.881   6.301   4.072
 1291SOL    HW2 4773   4.818   6.166   4.140
 1292SOL     OW 4774   6.735   6.451   3.088
 1292SOL    HW1 4775   6.829   6.419   3.088
 1292SOL    HW2 4776   6.690   6.421   3.003
 1293SOL     OW 4777   4.677   0.190   0.907
 1293SOL    HW1 4778   4.606   0.258   0.889
 1293SOL    HW2 4779   4.647   0.101   0.873
 1294SOL     OW 4780   2.151   4.334   5.325
 1294SOL    HW1 4781   2.243   4.372   5.312
 1294SOL    HW2 4782   2.158   4.237   5.348
 1295SOL     OW 4783   0.050   4.537   0.602
 1295SOL    HW1 4784   7.000   4.605   0.606
 1295SOL    HW2 4785   0.092   4.537   0.511
 1296SOL     OW 4786   3.745   0.396   6.183
 1296SOL    HW1 4787   3.710   0.303   6.172
 1296SOL    HW2 4788   3.798   0.421   6.101
 1297SOL     OW 4789   6.185   6.561   0.338
 1297SOL    HW1 4790   6.278   6.552   0.375
 1297SOL    HW2 4791   6.151   6.470   0.312
 1298SOL     OW 4792   4.669   6.860   2.617
 1298SOL    HW1 4793   4.578   6.820   2.628
 1298SOL    HW2 4794   4.660   6.958   2.599
 1299SOL     OW 4795   1.037   4.939   5.436
 1299SOL    HW1 4796   1.047   4.979   5.526
 1299SOL    HW2 4797   1.127   4.928   5.394
 1300SOL     OW 4798   1.396   5.707   0.660
 1300SOL    HW1 4799   1.310   5.755   0.643
 1300SOL    HW2 4800   1.380   5.626   0.715
 1301SOL     OW 4801   6.411   1.948   6.675
 1301SOL    HW1 4802   6.321   1.976   6.641
 1301SOL    HW2 4803   6.482   2.000   6.628
 1302SOL     OW 4804   6.844   6.735   5.064
 1302SOL    HW1 4805   6.882   6.782   5.144
 1302SOL    HW2 4806   6.885   6.644   5.057
 1303SOL     OW 4807   2.381   6.498   0.891
 1303SOL    HW1 4808   2.327   6.414   0.891
 1303SOL    HW2 4809   2.326   6.573   0.929
 1304SOL     OW 4810   6.150   1.390   6.801
 1304SOL    HW1 4811   6.059   1.392   6.760
 1304SOL    HW2 4812   6.184   1.296   6.802
 1305SOL     OW 4813   3.625   4.212   6.126
 1305SOL    HW1 4814   3.612   4.132   6.184
 1305SOL    HW2 4815   3.631   4.183   6.030
 1306SOL     OW 4816   2.763   6.310   4.232
 1306SOL    HW1 4817   2.670   6.311   4.269
 1306SOL    HW2 4818   2.822   6.370   4.287
 1307SOL     OW 4819   2.095   3.511   2.881
 1307SOL    HW1 4820   2.069   3.502   2.977
 1307SOL    HW2 4821   2.071   3.603   2.848
 1308SOL     OW 4822   0.561   3.883   5.845
 1308SOL    HW1 4823   0.491   3.883   5.774
 1308SOL    HW2 4824   0.641   3.933   5.813
 1309SOL     OW 4825   6.177   4.366   0.447
 1309SOL    HW1 4826   6.138   4.290   0.499
 1309SOL    HW2 4827   6.187   4.340   0.352
 1310SOL     OW 4828   2.397   2.685   3.507
 1310SOL    HW1 4829   2.366   2.734   3.426
 1310SOL    HW2 4830   2.419   2.751   3.579
 1311SOL     OW 4831   6.370   5.238   7.017
 1311SOL    HW1 4832   6.282   5.251   6.972
 1311SOL    HW2 4833   6.444   5.254   6.952
 1312SOL     OW 4834   2.211   1.827   6.638
 1312SOL    HW1 4835   2.192   1.867   6.728
 1312SOL    HW2 4836   2.296   1.775   6.643
 1313SOL     OW 4837   4.686   5.138   3.328
 1313SOL    HW1 4838   4.643   5.100   3.246
 1313SOL    HW2 4839   4.786   5.131   3.318
 1314SOL     OW 4840   3.088   1.802   3.586
 1314SOL    HW1 4841   3.098   1.864   3.664
 1314SOL    HW2 4842   3.034   1.847   3.515
 1315SOL     OW 4843   5.519   7.019   3.717
 1315SOL    HW1 4844   5.457   0.073   3.737
 1315SOL    HW2 4845   5.609   0.033   3.691
 1316SOL     OW 4846   4.818   0.446   6.364
 1316SOL    HW1 4847   4.857   0.354   6.366
 1316SOL    HW2 4848   4.859   0.501   6.437
 1317SOL     OW 4849   3.949   3.106   3.864
 1317SOL    HW1 4850   4.020   3.104   3.934
 1317SOL    HW2 4851   3.864   3.142   3.903
 1318SOL     OW 4852   1.656   0.903   0.280
 1318SOL    HW1 4853   1.666   0.978   0.215
 1318SOL    HW2 4854   1.600   0.933   0.357
 1319SOL     OW 4855   6.348   1.555   6.986
 1319SOL    HW1 4856   6.360   1.640   0.014
 1319SOL    HW2 4857   6.297   1.489   0.019
 1320SOL     OW 4858   2.934   2.901   6.302
 1320SOL    HW1 4859   2.948   2.864   6.210
 1320SOL    HW2 4860   2.872   2.841   6.352
 1321SOL     OW 4861   6.985   2.380   1.482
 1321SOL    HW1 4862   7.003   2.464   1.533
 1321SOL    HW2 4863   7.005   2.301   1.541
 1322SOL     OW 4864   2.047   2.793   7.006
 1322SOL    HW1 4865   2.110   2.870   7.019
 1322SOL    HW2 4866   1.955   2.828   6.985
 1323SOL     OW 4867   4.630   0.978   1.349
 1323SOL    HW1 4868   4.663   0.941   1.263
 1323SOL    HW2 4869   4.546   1.030   1.333
 1324SOL     OW 4870   2.252   3.747   5.821
 1324SOL    HW1 4871   2.215   3.661   5.785
 1324SOL    HW2 4872   2.255   3.743   5.921
 1325SOL     OW 4873   4.761   5.225   4.730
 1325SOL    HW1 4874   4.688   5.258   4.790
 1325SOL    HW2 4875   4.829   5.297   4.716
 1326SOL     OW 4876   3.848   1.594   5.059
 1326SOL    HW1 4877   3.802   1.560   5.142
 1326SOL    HW2 4878   3.812   1.546   4.979
 1327SOL     OW 4879   4.426   5.263   1.806
 1327SOL    HW1 4880   4.398   5.233   1.715
 1327SOL    HW2 4881   4.495   5.335   1.798
 1328SOL     OW 4882   1.128   2.793   5.283
 1328SOL    HW1 4883   1.056   2.793   5.214
 1328SOL    HW2 4884   1.109   2.722   5.351
 1329SOL     OW 4885   1.614   2.456   4.547
 1329SOL    HW1 4886   1.517   2.436   4.532
 1329SOL    HW2 4887   1.669   2.378   4.519
 1330SOL     OW 4888   6.297   3.001   2.398
 1330SOL    HW1 4889   6.326   3.027   2.306
 1330SOL    HW2 4890   6.350   3.052   2.466
 1331SOL     OW 4891   4.207   1.656   2.986
 1331SOL    HW1 4892   4.149   1.726   3.026
 1331SOL    HW2 4893   4.282   1.700   2.936
 1332SOL     OW 4894   2.462   6.591   6.339
 1332SOL    HW1 4895   2.371   6.551   6.328
 1332SOL    HW2 4896   2.466   6.678   6.290
 1333SOL     OW 4897   3.144   3.631   2.546
 1333SOL    HW1 4898   3.235   3.664   2.518
 1333SOL    HW2 4899   3.081   3.708   2.550
 1334SOL     OW 4900   0.421   4.581   1.542
 1334SOL    HW1 4901   0.418   4.555   1.639
 1334SOL    HW2 4902   0.465   4.509   1.489
 1335SOL     OW 4903   6.734   3.708   3.321
 1335SOL    HW1 4904   6.662   3.660   3.371
 1335SOL    HW2 4905   6.822   3.663   3.338
 1336SOL     OW 4906   1.660   6.462   5.812
 1336SOL    HW1 4907   1.709   6.535   5.859
 1336SOL    HW2 4908   1.619   6.498   5.727
 1337SOL     OW 4909   6.732   7.001   1.883
 1337SOL    HW1 4910   6.713   0.062   1.831
 1337SOL    HW2 4911   6.648   6.973   1.931
 1338SOL     OW 4912   0.353   4.205   4.972
 1338SOL    HW1 4913   0.373   4.147   4.893
 1338SOL    HW2 4914   0.433   4.262   4.992
 1339SOL     OW 4915   5.103   1.357   6.801
 1339SOL    HW1 4916   5.145   1.402   6.722
 1339SOL    HW2 4917   5.160   1.374   6.882
 1340SOL     OW 4918   2.635   2.696   0.461
 1340SOL    HW1 4919   2.712   2.688   0.398
 1340SOL    HW2 4920   2.648   2.776   0.520
 1341SOL     OW 4921   6.084   6.191   0.582
 1341SOL    HW1 4922   6.022   6.128   0.630
 1341SOL    HW2 4923   6.173   6.147   0.569
 1342SOL     OW 4924   1.741   6.047   0.707
 1342SOL    HW1 4925   1.725   5.984   0.783
 1342SOL    HW2 4926   1.666   6.114   0.704
 1343SOL     OW 4927   4.690   6.179   2.816
 1343SOL    HW1 4928   4.776   6.154   2.771
 1343SOL    HW2 4929   4.638   6.240   2.756
 1344SOL     OW 4930   1.551   0.737   3.109
 1344SOL    HW1 4931   1.483   0.667   3.086
 1344SOL    HW2 4932   1.559   0.801   3.032
 1345SOL     OW 4933   1.273   6.511   5.306
 1345SOL    HW1 4934   1.293   6.605   5.333
 1345SOL    HW2 4935   1.239   6.510   5.212
 1346SOL     OW 4936   4.056   5.993   3.963
 1346SOL    HW1 4937   4.141   6.042   3.945
 1346SOL    HW2 4938   4.028   6.010   4.058
 1347SOL     OW 4939   6.309   0.826   5.509
 1347SOL    HW1 4940   6.284   0.763   5.582
 1347SOL    HW2 4941   6.402   0.806   5.477
 1348SOL     OW 4942   1.386   6.218   4.285
 1348SOL    HW1 4943   1.332   6.141   4.319
 1348SOL    HW2 4944   1.483   6.197   4.296
 1349SOL     OW 4945   5.110   4.140   4.203
 1349SOL    HW1 4946   5.189   4.079   4.196
 1349SOL    HW2 4947   5.027   4.091   4.174
 1350SOL     OW 4948   5.295   4.603   6.840
 1350SOL    HW1 4949   5.282   4.702   6.834
 1350SOL    HW2 4950   5.230   4.564   6.905
 1351SOL     OW 4951   6.347   3.929   6.505
 1351SOL    HW1 4952   6.379   3.963   6.593
 1351SOL    HW2 4953   6.371   3.832   6.496
 1352SOL     OW 4954   0.234   1.024   4.277
 1352SOL    HW1 4955   0.181   0.974   4.209
 1352SOL    HW2 4956   0.182   1.029   4.363
 1353SOL     OW 4957   6.472   3.537   5.792
 1353SOL    HW1 4958   6.555   3.581   5.827
 1353SOL    HW2 4959   6.435   3.474   5.860
 1354SOL     OW 4960   5.065   5.392   3.411
 1354SOL    HW1 4961   5.050   5.413   3.314
 1354SOL    HW2 4962   4.980   5.362   3.452
 1355SOL     OW 4963   3.841   3.333   4.029
 1355SOL    HW1 4964   3.767   3.348   3.962
 1355SOL    HW2 4965   3.845   3.411   4.092
 1356SOL     OW 4966   2.619   3.225   6.744
 1356SOL    HW1 4967   2.690   3.155   6.750
 1356SOL    HW2 4968   2.529   3.182   6.741
 1357SOL     OW 4969   0.165   3.194   4.576
 1357SOL    HW1 4970   0.154   3.131   4.499
 1357SOL    HW2 4971   0.100   3.171   4.648
 1358SOL     OW 4972   2.812   5.933   6.140
 1358SOL    HW1 4973   2.763   5.932   6.054
 1358SOL    HW2 4974   2.911   5.935   6.122
 1359SOL     OW 4975   6.162   5.204   0.181
 1359SOL    HW1 4976   6.253   5.183   0.147
 1359SOL    HW2 4977   6.093   5.166   0.120
 1360SOL     OW 4978   2.397   1.745   5.938
 1360SOL    HW1 4979   2.406   1.843   5.956
 1360SOL    HW2 4980   2.342   1.731   5.856
 1361SOL     OW 4981   5.987   4.988   5.029
 1361SOL    HW1 4982   6.022   5.063   5.085
 1361SOL    HW2 4983   5.921   4.934   5.082
 1362SOL     OW 4984   3.280   4.184   4.686
 1362SOL    HW1 4985   3.336   4.164   4.766
 1362SOL    HW2 4986   3.215   4.257   4.707
 1363SOL     OW 4987   6.818   6.499   3.386
 1363SOL    HW1 4988   6.827   6.432   3.312
 1363SOL    HW2 4989   6.724   6.535   3.388
 1364SOL     OW 4990   3.339   4.309   0.143
 1364SOL    HW1 4991   3.419   4.283   0.089
 1364SOL    HW2 4992   3.362   4.388   0.200
 1365SOL     OW 4993   6.199   2.403   5.922
 1365SOL    HW1 4994   6.196   2.413   6.022
 1365SOL    HW2 4995   6.116   2.442   5.883
 1366SOL     OW 4996   2.208   0.701   4.104
 1366SOL    HW1 4997   2.139   0.629   4.096
 1366SOL    HW2 4998   2.246   0.700   4.197
 1367SOL     OW 4999   2.548   1.018   1.522
 1367SOL    HW1 5000   2.605   1.033   1.441
 1367SOL    HW2 5001   2.513   0.924   1.522
 1368SOL     OW 5002   0.669   0.766   3.189
 1368SOL    HW1 5003   0.704   0.824   3.263
 1368SOL    HW2 5004   0.712   0.676   3.194
 1369SOL     OW 5005   0.096   6.488   2.571
 1369SOL    HW1 5006   0.082   6.571   2.517
 1369SOL    HW2 5007   0.183   6.496   2.620
 1370SOL     OW 5008   0.477   0.735   2.444
 1370SOL    HW1 5009   0.403   0.786   2.487
 1370SOL    HW2 5010   0.541   0.800   2.400
 1371SOL     OW 5011   1.860   6.813   4.895
 1371SOL    HW1 5012   1.949   6.769   4.879
 1371SOL    HW2 5013   1.830   6.857   4.811
 1372SOL     OW 5014   3.199   1.745   1.111
 1372SOL    HW1 5015   3.141   1.695   1.176
 1372SOL    HW2 5016   3.275   1.788   1.159
 1373SOL     OW 5017   1.004   5.792   6.171
 1373SOL    HW1 5018   1.059   5.756   6.246
 1373SOL    HW2 5019   0.918   5.741   6.165
 1374SOL     OW 5020   5.485   3.023   4.612
 1374SOL    HW1 5021   5.453   2.937   4.654
 1374SOL    HW2 5022   5.551   3.066   4.673
 1375SOL     OW 5023   0.882   4.639   3.695
 1375SOL    HW1 5024   0.814   4.616   3.625
 1375SOL    HW2 5025   0.846   4.712   3.753
 1376SOL     OW 5026   5.428   0.242   2.141
 1376SOL    HW1 5027   5.394   0.152   2.170
 1376SOL    HW2 5028   5.450   0.296   2.222
 1377SOL     OW 5029   6.984   3.888   5.592
 1377SOL    HW1 5030   6.980   3.939   5.506
 1377SOL    HW2 5031   6.971   3.790   5.574
 1378SOL     OW 5032   2.075   1.317   0.485
 1378SOL    HW1 5033   2.009   1.300   0.412
 1378SOL    HW2 5034   2.133   1.237   0.496
 1379SOL     OW 5035   4.338   5.268   1.555
 1379SOL    HW1 5036   4.333   5.334   1.480
 1379SOL    HW2 5037   4.397   5.192   1.529
 1380SOL     OW 5038   6.277   5.521   2.829
 1380SOL    HW1 5039   6.358   5.466   2.848
 1380SOL    HW2 5040   6.257   5.580   2.907
 1381SOL     OW 5041   3.715   0.022   1.701
 1381SOL    HW1 5042   3.718   6.998   1.612
 1381SOL    HW2 5043   3.808   0.030   1.737
 1382SOL     OW 5044   6.415   3.609   0.320
 1382SOL    HW1 5045   6.449   3.573   0.407
 1382SOL    HW2 5046   6.447   3.703   0.308
 1383SOL     OW 5047   3.597   6.897   0.753
 1383SOL    HW1 5048   3.505   6.859   0.763
 1383SOL    HW2 5049   3.617   6.956   0.831
 1384SOL     OW 5050   1.018   1.968   3.148
 1384SOL    HW1 5051   1.092   2.035   3.142
 1384SOL    HW2 5052   0.959   1.990   3.226
 1385SOL     OW 5053   4.891   3.176   4.672
 1385SOL    HW1 5054   4.857   3.256   4.624
 1385SOL    HW2 5055   4.989   3.188   4.693
 1386SOL     OW 5056   2.256   2.782   3.305
 1386SOL    HW1 5057   2.232   2.879   3.293
 1386SOL    HW2 5058   2.176   2.726   3.284
 1387SOL     OW 5059   3.980   1.175   4.715
 1387SOL    HW1 5060   3.901   1.134   4.761
 1387SOL    HW2 5061   4.027   1.237   4.778
 1388SOL     OW 5062   4.840   2.200   3.605
 1388SOL    HW1 5063   4.829   2.127   3.538
 1388SOL    HW2 5064   4.866   2.161   3.693
 1389SOL     OW 5065   0.491   1.757   5.085
 1389SOL    HW1 5066   0.410   1.724   5.134
 1389SOL    HW2 5067   0.560   1.789   5.150
 1390SOL     OW 5068   6.260   2.463   3.133
 1390SOL    HW1 5069   6.287   2.529   3.063
 1390SOL    HW2 5070   6.253   2.509   3.222
 1391SOL     OW 5071   5.624   0.704   5.501
 1391SOL    HW1 5072   5.723   0.701   5.487
 1391SOL    HW2 5073   5.600   0.786   5.552
 1392SOL     OW 5074   3.058   0.231   4.556
 1392SOL    HW1 5075   3.157   0.238   4.568
 1392SOL    HW2 5076   3.033   0.136   4.533
 1393SOL     OW 5077   4.581   0.325   0.113
 1393SOL    HW1 5078   4.669   0.322   0.161
 1393SOL    HW2 5079   4.556   0.232   0.083
 1394SOL     OW 5080   4.063   1.043   5.051
 1394SOL    HW1 5081   3.977   1.023   5.003
 1394SOL    HW2 5082   4.062   1.138   5.082
 1395SOL     OW 5083   1.053   4.627   2.708
 1395SOL    HW1 5084   1.041   4.579   2.796
 1395SOL    HW2 5085   0.977   4.691   2.695
 1396SOL     OW 5086   1.624   2.352   3.417
 1396SOL    HW1 5087   1.697   2.286   3.435
 1396SOL    HW2 5088   1.603   2.353   3.319
 1397SOL     OW 5089   2.328   5.689   5.532
 1397SOL    HW1 5090   2.315   5.734   5.620
 1397SOL    HW2 5091   2.424   5.660   5.524
 1398SOL     OW 5092   2.914   0.328   6.374
 1398SOL    HW1 5093   2.837   0.272   6.343
 1398SOL    HW2 5094   2.885   0.424   6.379
 1399SOL     OW 5095   3.873   0.085   0.513
 1399SOL    HW1 5096   3.919   0.092   0.601
 1399SOL    HW2 5097   3.830   7.018   0.504
 1400SOL     OW 5098   0.705   2.428   5.977
 1400SOL    HW1 5099   0.653   2.401   5.896
 1400SOL    HW2 5100   0.654   2.498   6.027
 1401SOL     OW 5101   4.486   6.988   3.382
 1401SOL    HW1 5102   4.461   6.977   3.286
 1401SOL    HW2 5103   4.585   7.000   3.389
 1402SOL     OW 5104   4.783   3.990   3.161
 1402SOL    HW1 5105   4.699   4.044   3.153
 1402SOL    HW2 5106   4.824   3.979   3.070
 1403SOL     OW 5107   2.911   2.967   6.936
 1403SOL    HW1 5108   2.896   2.993   6.841
 1403SOL    HW2 5109   2.824   2.963   6.984
 1404SOL     OW 5110   3.621   6.196   6.869
 1404SOL    HW1 5111   3.616   6.099   6.893
 1404SOL    HW2 5112   3.623   6.250   6.953
 1405SOL     OW 5113   1.475   4.851   0.200
 1405SOL    HW1 5114   1.534   4.774   0.224
 1405SOL    HW2 5115   1.431   4.886   0.283
 1406SOL     OW 5116   2.077   2.458   0.996
 1406SOL    HW1 5117   2.108   2.390   0.930
 1406SOL    HW2 5118   2.097   2.550   0.963
 1407SOL     OW 5119   6.167   3.278   1.875
 1407SOL    HW1 5120   6.185   3.363   1.925
 1407SOL    HW2 5121   6.248   3.220   1.878
 1408SOL     OW 5122   6.193   6.169   1.430
 1408SOL    HW1 5123   6.194   6.073   1.458
 1408SOL    HW2 5124   6.260   6.221   1.483
 1409SOL     OW 5125   6.211   2.747   5.624
 1409SOL    HW1 5126   6.159   2.804   5.561
 1409SOL    HW2 5127   6.163   2.661   5.640
 1410SOL     OW 5128   3.111   0.347   0.613
 1410SOL    HW1 5129   3.029   0.292   0.627
 1410SOL    HW2 5130   3.191   0.296   0.644
 1411SOL     OW 5131   3.732   0.285   6.988
 1411SOL    HW1 5132   3.690   0.257   6.902
 1411SOL    HW2 5133   3.779   0.372   6.975
 1412SOL     OW 5134   1.322   1.126   6.478
 1412SOL    HW1 5135   1.412   1.098   6.445
 1412SOL    HW2 5136   1.280   1.188   6.411
 1413SOL     OW 5137   1.602   1.047   4.207
 1413SOL    HW1 5138   1.515   1.064   4.161
 1413SOL    HW2 5139   1.621   1.121   4.271
 1414SOL     OW 5140   0.055   4.970   2.959
 1414SOL    HW1 5141   0.044   4.934   2.866
 1414SOL    HW2 5142   0.012   5.060   2.964
 1415SOL     OW 5143   3.184   1.873   5.187
 1415SOL    HW1 5144   3.214   1.966   5.210
 1415SOL    HW2 5145   3.214   1.811   5.259
 1416SOL     OW 5146   4.256   0.894   5.200
 1416SOL    HW1 5147   4.197   0.927   5.127
 1416SOL    HW2 5148   4.305   0.812   5.169
 1417SOL     OW 5149   3.640   3.795   4.213
 1417SOL    HW1 5150   3.553   3.783   4.263
 1417SOL    HW2 5151   3.702   3.852   4.267
 1418SOL     OW 5152   3.145   3.752   6.328
 1418SOL    HW1 5153   3.227   3.731   6.275
 1418SOL    HW2 5154   3.171   3.777   6.421
 1419SOL     OW 5155   0.455   5.337   1.624
 1419SOL    HW1 5156   0.487   5.416   1.676
 1419SOL    HW2 5157   0.529   5.303   1.566
 1420SOL     OW 5158   2.777   6.503   3.352
 1420SOL    HW1 5159   2.781   6.595   3.313
 1420SOL    HW2 5160   2.692   6.491   3.402
 1421SOL     OW 5161   1.168   5.064   1.420
 1421SOL    HW1 5162   1.200   5.009   1.497
 1421SOL    HW2 5163   1.095   5.016   1.373
 1422SOL     OW 5164   1.822   3.501   6.630
 1422SOL    HW1 5165   1.750   3.496   6.699
 1422SOL    HW2 5166   1.802   3.436   6.557
 1423SOL     OW 5167   4.929   0.395   5.469
 1423SOL    HW1 5168   4.841   0.378   5.513
 1423SOL    HW2 5169   5.002   0.377   5.534
 1424SOL     OW 5170   5.695   3.894   1.472
 1424SOL    HW1 5171   5.680   3.909   1.570
 1424SOL    HW2 5172   5.774   3.948   1.442
 1425SOL     OW 5173   5.580   6.464   2.593
 1425SOL    HW1 5174   5.598   6.457   2.691
 1425SOL    HW2 5175   5.664   6.446   2.542
 1426SOL     OW 5176   3.451   0.587   0.404
 1426SOL    HW1 5177   3.449   0.680   0.368
 1426SOL    HW2 5178   3.370   0.571   0.460
 1427SOL     OW 5179   1.058   0.514   4.005
 1427SOL    HW1 5180   1.029   0.596   4.054
 1427SOL    HW2 5181   1.006   0.505   3.920
 1428SOL     OW 5182   2.919   4.841   3.778
 1428SOL    HW1 5183   3.016   4.860   3.793
 1428SOL    HW2 5184   2.884   4.785   3.853
 1429SOL     OW 5185   6.115   0.883   0.763
 1429SOL    HW1 5186   6.080   0.918   0.850
 1429SOL    HW2 5187   6.200   0.833   0.780
 1430SOL     OW 5188   2.109   3.846   4.362
 1430SOL    HW1 5189   2.129   3.749   4.347
 1430SOL    HW2 5190   2.051   3.880   4.288
 1431SOL     OW 5191   3.608   1.979   0.746
 1431SOL    HW1 5192   3.605   1.914   0.670
 1431SOL    HW2 5193   3.568   1.936   0.828
 1432SOL     OW 5194   2.515   6.703   2.664
 1432SOL    HW1 5195   2.483   6.757   2.585
 1432SOL    HW2 5196   2.588   6.641   2.635
 1433SOL     OW 5197   4.024   1.449   3.498
 1433SOL    HW1 5198   4.006   1.542   3.466
 1433SOL    HW2 5199   4.069   1.396   3.426
 1434SOL     OW 5200   6.314   3.703   1.258
 1434SOL    HW1 5201   6.354   3.645   1.329
 1434SOL    HW2 5202   6.285   3.645   1.181
 1435SOL     OW 5203   6.631   6.086   4.079
 1435SOL    HW1 5204   6.582   6.002   4.057
 1435SOL    HW2 5205   6.629   6.148   4.000
 1436SOL     OW 5206   6.084   0.805   6.777
 1436SOL    HW1 5207   5.990   0.798   6.744
 1436SOL    HW2 5208   6.117   0.714   6.806
 1437SOL     OW 5209   3.903   1.205   0.276
 1437SOL    HW1 5210   3.842   1.138   0.318
 1437SOL    HW2 5211   3.900   1.195   0.177
 1438SOL     OW 5212   2.442   5.541   3.254
 1438SOL    HW1 5213   2.445   5.640   3.243
 1438SOL    HW2 5214   2.532   5.508   3.282
 1439SOL     OW 5215   6.570   4.884   4.706
 1439SOL    HW1 5216   6.580   4.883   4.607
 1439SOL    HW2 5217   6.475   4.864   4.730
 1440SOL     OW 5218   3.477   3.008   1.986
 1440SOL    HW1 5219   3.505   2.987   2.080
 1440SOL    HW2 5220   3.511   3.099   1.961
 1441SOL     OW 5221   0.709   2.245   6.910
 1441SOL    HW1 5222   0.746   2.282   6.824
 1441SOL    HW2 5223   0.720   2.313   6.982
 1442SOL     OW 5224   5.859   5.582   0.242
 1442SOL    HW1 5225   5.840   5.680   0.229
 1442SOL    HW2 5226   5.779   5.537   0.281
 1443SOL     OW 5227   2.165   3.254   4.553
 1443SOL    HW1 5228   2.126   3.342   4.582
 1443SOL    HW2 5229   2.248   3.235   4.604
 1444SOL     OW 5230   4.787   6.550   5.461
 1444SOL    HW1 5231   4.740   6.469   5.498
 1444SOL    HW2 5232   4.723   6.602   5.404
 1445SOL     OW 5233   6.813   3.250   6.900
 1445SOL    HW1 5234   6.908   3.250   6.868
 1445SOL    HW2 5235   6.796   3.335   6.950
 1446SOL     OW 5236   2.962   5.960   2.800
 1446SOL    HW1 5237   2.866   5.935   2.793
 1446SOL    HW2 5238   2.983   5.985   2.894
 1447SOL     OW 5239   6.547   1.295   4.717
 1447SOL    HW1 5240   6.512   1.205   4.692
 1447SOL    HW2 5241   6.619   1.322   4.653
 1448SOL     OW 5242   5.130   1.592   1.107
 1448SOL    HW1 5243   5.164   1.670   1.055
 1448SOL    HW2 5244   5.071   1.624   1.181
 1449SOL     OW 5245   4.830   6.002   6.815
 1449SOL    HW1 5246   4.896   5.992   6.741
 1449SOL    HW2 5247   4.801   6.098   6.821
 1450SOL     OW 5248   5.468   1.014   3.992
 1450SOL    HW1 5249   5.489   1.063   4.076
 1450SOL    HW2 5250   5.544   0.955   3.967
 1451SOL     OW 5251   0.445   6.225   2.633
 1451SOL    HW1 5252   0.511   6.243   2.561
 1451SOL    HW2 5253   0.403   6.311   2.662
 1452SOL     OW 5254   1.346   0.348   6.111
 1452SOL    HW1 5255   1.252   0.382   6.111
 1452SOL    HW2 5256   1.363   0.297   6.195
 1453SOL     OW 5257   6.365   4.637   4.191
 1453SOL    HW1 5258   6.279   4.588   4.203
 1453SOL    HW2 5259   6.347   4.735   4.182
 1454SOL     OW 5260   6.550   4.858   1.312
 1454SOL    HW1 5261   6.574   4.935   1.253
 1454SOL    HW2 5262   6.633   4.813   1.344
 1455SOL     OW 5263   2.810   1.151   1.742
 1455SOL    HW1 5264   2.804   1.190   1.650
 1455SOL    HW2 5265   2.904   1.161   1.775
 1456SOL     OW 5266   5.508   4.496   5.080
 1456SOL    HW1 5267   5.593   4.503   5.029
 1456SOL    HW2 5268   5.465   4.587   5.086
 1457SOL     OW 5269   2.430   1.411   4.394
 1457SOL    HW1 5270   2.502   1.439   4.458
 1457SOL    HW2 5271   2.463   1.419   4.300
 1458SOL     OW 5272   6.508   5.557   6.716
 1458SOL    HW1 5273   6.414   5.588   6.701
 1458SOL    HW2 5274   6.548   5.529   6.629
 1459SOL     OW 5275   3.447   6.780   1.068
 1459SOL    HW1 5276   3.387   6.803   0.992
 1459SOL    HW2 5277   3.452   6.680   1.078
 1460SOL     OW 5278   0.830   1.510   0.141
 1460SOL    HW1 5279   0.921   1.475   0.117
 1460SOL    HW2 5280   0.821   1.603   0.106
 1461SOL     OW 5281   5.553   4.225   2.594
 1461SOL    HW1 5282   5.469   4.274   2.616
 1461SOL    HW2 5283   5.566   4.150   2.659
 1462SOL     OW 5284   6.010   0.433   5.261
 1462SOL    HW1 5285   6.034   0.413   5.356
 1462SOL    HW2 5286   6.059   0.368   5.201
 1463SOL     OW 5287   1.094   2.861   5.705
 1463SOL    HW1 5288   1.009   2.904   5.673
 1463SOL    HW2 5289   1.171   2.896   5.652
 1464SOL     OW 5290   0.092   0.452   1.740
 1464SOL    HW1 5291   7.019   0.460   1.770
 1464SOL    HW2 5292   0.145   0.404   1.810
 1465SOL     OW 5293   2.675   6.983   4.044
 1465SOL    HW1 5294   2.755   7.018   3.994
 1465SOL    HW2 5295   2.680   7.012   4.139
 1466SOL     OW 5296   5.617   6.210   4.586
 1466SOL    HW1 5297   5.680   6.240   4.658
 1466SOL    HW2 5298   5.529   6.184   4.626
 1467SOL     OW 5299   0.805   4.852   4.409
 1467SOL    HW1 5300   0.845   4.842   4.500
 1467SOL    HW2 5301   0.724   4.794   4.402
 1468SOL     OW 5302   4.742   0.149   2.356
 1468SOL    HW1 5303   4.832   0.192   2.356
 1468SOL    HW2 5304   4.687   0.186   2.281
 1469SOL     OW 5305   6.452   0.230   2.163
 1469SOL    HW1 5306   6.523   0.293   2.132
 1469SOL    HW2 5307   6.491   0.161   2.223
 1470SOL     OW 5308   6.757   1.067   2.228
 1470SOL    HW1 5309   6.732   0.974   2.200
 1470SOL    HW2 5310   6.849   1.088   2.195
 1471SOL     OW 5311   0.031   1.295   1.102
 1471SOL    HW1 5312   6.983   1.253   1.046
 1471SOL    HW2 5313   0.119   1.252   1.083
 1472SOL     OW 5314   4.579   5.041   5.061
 1472SOL    HW1 5315   4.645   5.000   5.124
 1472SOL    HW2 5316   4.577   5.140   5.076
 1473SOL     OW 5317   0.458   3.268   3.462
 1473SOL    HW1 5318   0.518   3.211   3.406
 1473SOL    HW2 5319   0.512   3.314   3.532
 1474SOL     OW 5320   4.575   6.568   2.285
 1474SOL    HW1 5321   4.549   6.662   2.262
 1474SOL    HW2 5322   4.493   6.515   2.304
 1475SOL     OW 5323   6.409   6.961   2.852
 1475SOL    HW1 5324   6.317   6.979   2.886
 1475SOL    HW2 5325   6.404   6.912   2.765
 1476SOL     OW 5326   1.324   2.132   0.802
 1476SOL    HW1 5327   1.274   2.045   0.801
 1476SOL    HW2 5328   1.396   2.127   0.871
 1477SOL     OW 5329   3.198   6.519   4.097
 1477SOL    HW1 5330   3.185   6.446   4.164
 1477SOL    HW2 5331   3.141   6.598   4.121
 1478SOL     OW 5332   0.293   4.389   1.247
 1478SOL    HW1 5333   0.371   4.346   1.202
 1478SOL    HW2 5334   0.239   4.440   1.180
 1479SOL     OW 5335   1.754   4.657   6.762
 1479SOL    HW1 5336   1.758   4.584   6.830
 1479SOL    HW2 5337   1.706   4.736   6.801
 1480SOL     OW 5338   3.165   0.670   6.763
 1480SOL    HW1 5339   3.070   0.691   6.742
 1480SOL    HW2 5340   3.171   0.576   6.798
 1481SOL     OW 5341   6.812   3.030   1.210
 1481SOL    HW1 5342   6.787   3.003   1.304
 1481SOL    HW2 5343   6.770   2.967   1.145
 1482SOL     OW 5344   6.535   0.598   5.957
 1482SOL    HW1 5345   6.571   0.651   6.035
 1482SOL    HW2 5346   6.609   0.582   5.891
 1483SOL     OW 5347   0.002   1.814   0.650
 1483SOL    HW1 5348   6.955   1.884   0.634
 1483SOL    HW2 5349   7.006   1.769   0.738
 1484SOL     OW 5350   5.394   6.387   3.009
 1484SOL    HW1 5351   5.322   6.369   3.076
 1484SOL    HW2 5352   5.396   6.313   2.942
 1485SOL     OW 5353   5.403   3.814   5.006
 1485SOL    HW1 5354   5.389   3.730   5.058
 1485SOL    HW2 5355   5.317   3.841   4.962
 1486SOL     OW 5356   5.202   2.874   2.301
 1486SOL    HW1 5357   5.199   2.866   2.400
 1486SOL    HW2 5358   5.292   2.845   2.268
 1487SOL     OW 5359   0.446   6.544   5.527
 1487SOL    HW1 5360   0.385   6.621   5.546
 1487SOL    HW2 5361   0.508   6.569   5.452
 1488SOL     OW 5362   4.776   2.086   4.359
 1488SOL    HW1 5363   4.699   2.023   4.347
 1488SOL    HW2 5364   4.861   2.034   4.364
 1489SOL     OW 5365   3.351   5.280   4.508
 1489SOL    HW1 5366   3.360   5.188   4.546
 1489SOL    HW2 5367   3.320   5.275   4.413
 1490SOL     OW 5368   3.109   3.052   0.858
 1490SOL    HW1 5369   3.151   2.961   0.859
 1490SOL    HW2 5370   3.170   3.116   0.812
 1491SOL     OW 5371   1.981   1.752   3.666
 1491SOL    HW1 5372   1.957   1.748   3.569
 1491SOL    HW2 5373   1.958   1.665   3.710
 1492SOL     OW 5374   6.854   2.279   1.978
 1492SOL    HW1 5375   6.757   2.258   1.970
 1492SOL    HW2 5376   6.907   2.195   1.969
 1493SOL     OW 5377   6.698   3.196   4.574
 1493SOL    HW1 5378   6.797   3.180   4.580
 1493SOL    HW2 5379   6.649   3.119   4.614
 1494SOL     OW 5380   5.964   2.026   4.717
 1494SOL    HW1 5381   5.923   1.987   4.634
 1494SOL    HW2 5382   5.898   2.086   4.761
 1495SOL     OW 5383   1.171   3.886   1.768
 1495SOL    HW1 5384   1.169   3.922   1.862
 1495SOL    HW2 5385   1.258   3.841   1.752
 1496SOL     OW 5386   6.864   0.249   2.365
 1496SOL    HW1 5387   6.818   0.162   2.349
 1496SOL    HW2 5388   6.880   0.296   2.278
 1497SOL     OW 5389   5.645   4.342   5.990
 1497SOL    HW1 5390   5.673   4.276   5.919
 1497SOL    HW2 5391   5.671   4.307   6.080
 1498SOL     OW 5392   3.205   6.349   6.060
 1498SOL    HW1 5393   3.270   6.302   6.000
 1498SOL    HW2 5394   3.244   6.355   6.152
 1499SOL     OW 5395   1.967   4.340   3.904
 1499SOL    HW1 5396   1.945   4.251   3.863
 1499SOL    HW2 5397   1.931   4.413   3.846
 1500SOL     OW 5398   4.183   5.628   5.206
 1500SOL    HW1 5399   4.227   5.698   5.150
 1500SOL    HW2 5400   4.148   5.555   5.147
 1501SOL     OW 5401   3.403   1.328   1.542
 1501SOL    HW1 5402   3.322   1.300   1.490
 1501SOL    HW2 5403   3.442   1.249   1.589
 1502SOL     OW 5404   6.764   0.270   5.926
 1502SOL    HW1 5405   6.676   0.317   5.925
 1502SOL    HW2 5406   6.752   0.178   5.964
 1503SOL     OW 5407   3.162   3.705   5.629
 1503SOL    HW1 5408   3.165   3.731   5.726
 1503SOL    HW2 5409   3.083   3.747   5.586
 1504SOL     OW 5410   2.155   0.505   2.963
 1504SOL    HW1 5411   2.110   0.416   2.954
 1504SOL    HW2 5412   2.097   0.576   2.922
 1505SOL     OW 5413   6.003   6.075   2.860
 1505SOL    HW1 5414   6.058   6.157   2.845
 1505SOL    HW2 5415   5.907   6.095   2.841
 1506SOL     OW 5416   6.498   0.284   3.781
 1506SOL    HW1 5417   6.563   0.300   3.856
 1506SOL    HW2 5418   6.406   0.274   3.819
 1507SOL     OW 5419   2.530   1.928   6.370
 1507SOL    HW1 5420   2.443   1.898   6.331
 1507SOL    HW2 5421   2.572   1.996   6.310
 1508SOL     OW 5422   3.826   6.547   1.101
 1508SOL    HW1 5423   3.803   6.556   1.004
 1508SOL    HW2 5424   3.783   6.464   1.138
 1509SOL     OW 5425   4.718   2.374   5.961
 1509SOL    HW1 5426   4.621   2.399   5.968
 1509SOL    HW2 5427   4.725   2.276   5.943
 1510SOL     OW 5428   6.891   1.755   2.019
 1510SOL    HW1 5429   6.873   1.821   2.093
 1510SOL    HW2 5430   6.988   1.732   2.018
 1511SOL     OW 5431   0.062   2.651   0.320
 1511SOL    HW1 5432   0.084   2.561   0.357
 1511SOL    HW2 5433   7.004   2.688   0.367
 1512SOL     OW 5434   0.218   6.938   2.650
 1512SOL    HW1 5435   0.311   6.902   2.644
 1512SOL    HW2 5436   0.211   7.020   2.593
 1513SOL     OW 5437   2.339   0.228   2.826
 1513SOL    HW1 5438   2.391   0.305   2.788
 1513SOL    HW2 5439   2.400   0.149   2.834
 1514SOL     OW 5440   4.316   0.280   5.665
 1514SOL    HW1 5441   4.368   0.358   5.630
 1514SOL    HW2 5442   4.230   0.313   5.705
 1515SOL     OW 5443   5.559   5.609   4.896
 1515SOL    HW1 5444   5.486   5.615   4.828
 1515SOL    HW2 5445   5.648   5.616   4.850
 1516SOL     OW 5446   6.383   2.083   2.650
 1516SOL    HW1 5447   6.392   2.038   2.739
 1516SOL    HW2 5448   6.458   2.148   2.638
 1517SOL     OW 5449   2.382   5.560   1.467
 1517SOL    HW1 5450   2.348   5.552   1.561
 1517SOL    HW2 5451   2.478   5.586   1.469
 1518SOL     OW 5452   0.795   4.785   0.383
 1518SOL    HW1 5453   0.856   4.773   0.461
 1518SOL    HW2 5454   0.727   4.855   0.404
 1519SOL     OW 5455   1.304   4.161   1.785
 1519SOL    HW1 5456   1.271   4.069   1.765
 1519SOL    HW2 5457   1.227   4.224   1.787
 1520SOL     OW 5458   1.879   3.831   3.752
 1520SOL    HW1 5459   1.868   3.826   3.653
 1520SOL    HW2 5460   1.966   3.789   3.778
 1521SOL     OW 5461   2.106   6.130   5.680
 1521SOL    HW1 5462   2.026   6.100   5.733
 1521SOL    HW2 5463   2.086   6.219   5.638
 1522SOL     OW 5464   1.597   2.154   6.138
 1522SOL    HW1 5465   1.664   2.207   6.087
 1522SOL    HW2 5466   1.609   2.172   6.236
 1523SOL     OW 5467   5.149   1.503   0.481
 1523SOL    HW1 5468   5.083   1.509   0.407
 1523SOL    HW2 5469   5.140   1.414   0.527
 1524SOL     OW 5470   1.995   1.814   2.015
 1524SOL    HW1 5471   1.985   1.738   1.951
 1524SOL    HW2 5472   1.911   1.869   2.016
 1525SOL     OW 5473   4.446   2.224   5.248
 1525SOL    HW1 5474   4.498   2.209   5.333
 1525SOL    HW2 5475   4.505   2.266   5.180
 1526SOL     OW 5476   5.640   2.731   1.283
 1526SOL    HW1 5477   5.672   2.750   1.375
 1526SOL    HW2 5478   5.685   2.648   1.248
 1527SOL     OW 5479   1.888   6.903   5.176
 1527SOL    HW1 5480   1.919   6.863   5.089
 1527SOL    HW2 5481   1.798   6.943   5.164
 1528SOL     OW 5482   5.158   6.074   3.634
 1528SOL    HW1 5483   5.251   6.109   3.635
 1528SOL    HW2 5484   5.099   6.132   3.690
 1529SOL     OW 5485   0.677   0.447   6.155
 1529SOL    HW1 5486   0.673   0.350   6.128
 1529SOL    HW2 5487   0.614   0.500   6.099
 1530SOL     OW 5488   4.057   6.971   1.286
 1530SOL    HW1 5489   4.032   6.902   1.218
 1530SOL    HW2 5490   4.108   0.022   1.241
 1531SOL     OW 5491   5.032   1.871   6.800
 1531SOL    HW1 5492   4.981   1.786   6.794
 1531SOL    HW2 5493   5.029   1.919   6.713
 1532SOL     OW 5494   2.892   1.318   5.033
 1532SOL    HW1 5495   2.972   1.262   5.056
 1532SOL    HW2 5496   2.918   1.415   5.035
 1533SOL     OW 5497   4.226   2.629   1.592
 1533SOL    HW1 5498   4.257   2.721   1.566
 1533SOL    HW2 5499   4.132   2.634   1.625
 1534SOL     OW 5500   5.669   0.870   6.921
 1534SOL    HW1 5501   5.608   0.930   6.972
 1534SOL    HW2 5502   5.717   0.809   6.984
 1535SOL     OW 5503   4.474   4.506   4.266
 1535SOL    HW1 5504   4.460   4.537   4.360
 1535SOL    HW2 5505   4.393   4.528   4.211
 1536SOL     OW 5506   2.695   6.338   3.063
 1536SOL    HW1 5507   2.654   6.336   3.155
 1536SOL    HW2 5508   2.675   6.252   3.016
 1537SOL     OW 5509   1.744   5.338   4.999
 1537SOL    HW1 5510   1.671   5.350   5.067
 1537SOL    HW2 5511   1.825   5.388   5.028
 1538SOL     OW 5512   3.564   6.229   0.396
 1538SOL    HW1 5513   3.509   6.146   0.388
 1538SOL    HW2 5514   3.648   6.209   0.446
 1539SOL     OW 5515   1.866   6.306   0.937
 1539SOL    HW1 5516   1.891   6.256   0.854
 1539SOL    HW2 5517   1.946   6.353   0.974
 1540SOL     OW 5518   6.055   1.004   6.145
 1540SOL    HW1 5519   6.057   0.910   6.110
 1540SOL    HW2 5520   6.149   1.033   6.167
 1541SOL     OW 5521   5.078   2.145   2.273
 1541SOL    HW1 5522   5.051   2.091   2.193
 1541SOL    HW2 5523   5.047   2.239   2.261
 1542SOL     OW 5524   0.381   5.689   1.128
 1542SOL    HW1 5525   0.321   5.758   1.168
 1542SOL    HW2 5526   0.475   5.723   1.128
 1543SOL     OW 5527   3.374   2.942   2.809
 1543SOL    HW1 5528   3.379   3.041   2.795
 1543SOL    HW2 5529   3.447   2.897   2.756
 1544SOL     OW 5530   3.012   3.287   1.753
 1544SOL    HW1 5531   3.061   3.351   1.813
 1544SOL    HW2 5532   2.972   3.338   1.676
 1545SOL     OW 5533   0.684   6.404   5.744
 1545SOL    HW1 5534   0.753   6.475   5.758
 1545SOL    HW2 5535   0.702   6.326   5.804
 1546SOL     OW 5536   6.858   6.239   1.117
 1546SOL    HW1 5537   6.957   6.225   1.129
 1546SOL    HW2 5538   6.843   6.307   1.045
 1547SOL     OW 5539   2.880   6.720   0.527
 1547SOL    HW1 5540   2.933   6.645   0.486
 1547SOL    HW2 5541   2.803   6.743   0.468
 1548SOL     OW 5542   6.316   4.241   3.136
 1548SOL    HW1 5543   6.404   4.250   3.088
 1548SOL    HW2 5544   6.252   4.190   3.080
 1549SOL     OW 5545   5.838   2.031   1.523
 1549SOL    HW1 5546   5.871   1.946   1.479
 1549SOL    HW2 5547   5.805   2.094   1.453
 1550SOL     OW 5548   2.799   4.790   2.212
 1550SOL    HW1 5549   2.816   4.749   2.302
 1550SOL    HW2 5550   2.784   4.717   2.145
 1551SOL     OW 5551   1.039   2.240   2.192
 1551SOL    HW1 5552   0.999   2.225   2.102
 1551SOL    HW2 5553   1.139   2.241   2.184
 1552SOL     OW 5554   1.704   6.595   2.279
 1552SOL    HW1 5555   1.789   6.567   2.233
 1552SOL    HW2 5556   1.708   6.693   2.299
 1553SOL     OW 5557   6.419   1.425   5.399
 1553SOL    HW1 5558   6.412   1.343   5.342
 1553SOL    HW2 5559   6.327   1.461   5.417
 1554SOL     OW 5560   2.195   3.036   0.004
 1554SOL    HW1 5561   2.193   3.116   6.967
 1554SOL    HW2 5562   2.260   3.051   0.079
 1555SOL     OW 5563   4.538   1.388   1.153
 1555SOL    HW1 5564   4.462   1.380   1.088
 1555SOL    HW2 5565   4.521   1.464   1.215
 1556SOL     OW 5566   2.513   1.801   0.466
 1556SOL    HW1 5567   2.577   1.829   0.537
 1556SOL    HW2 5568   2.423   1.785   0.507
 1557SOL     OW 5569   2.439   2.003   1.588
 1557SOL    HW1 5570   2.370   2.027   1.520
 1557SOL    HW2 5571   2.405   2.027   1.679
 1558SOL     OW 5572   4.952   1.638   0.311
 1558SOL    HW1 5573   4.877   1.690   0.352
 1558SOL    HW2 5574   5.007   1.699   0.253
 1559SOL     OW 5575   2.269   6.185   3.899
 1559SOL    HW1 5576   2.204   6.248   3.942
 1559SOL    HW2 5577   2.239   6.091   3.913
 1560SOL     OW 5578   4.705   3.105   1.615
 1560SOL    HW1 5579   4.798   3.072   1.599
 1560SOL    HW2 5580   4.679   3.086   1.710
 1561SOL     OW 5581   6.170   6.790   0.652
 1561SOL    HW1 5582   6.267   6.784   0.678
 1561SOL    HW2 5583   6.124   6.706   0.680
 1562SOL     OW 5584   2.334   6.301   3.271
 1562SOL    HW1 5585   2.263   6.305   3.201
 1562SOL    HW2 5586   2.297   6.334   3.358
 1563SOL     OW 5587   2.420   4.754   4.085
 1563SOL    HW1 5588   2.356   4.751   4.162
 1563SOL    HW2 5589   2.460   4.663   4.071
 1564SOL     OW 5590   2.048   2.497   3.335
 1564SOL    HW1 5591   2.012   2.590   3.335
 1564SOL    HW2 5592   2.045   2.460   3.242
 1565SOL     OW 5593   5.490   1.747   5.739
 1565SOL    HW1 5594   5.471   1.844   5.725
 1565SOL    HW2 5595   5.517   1.705   5.653
 1566SOL     OW 5596   0.874   3.265   3.602
 1566SOL    HW1 5597   0.789   3.307   3.636
 1566SOL    HW2 5598   0.941   3.262   3.676
 1567SOL     OW 5599   5.076   0.989   3.420
 1567SOL    HW1 5600   5.092   0.909   3.479
 1567SOL    HW2 5601   5.164   1.020   3.383
 1568SOL     OW 5602   2.381   4.514   0.944
 1568SOL    HW1 5603   2.307   4.456   0.979
 1568SOL    HW2 5604   2.397   4.590   1.008
 1569SOL     OW 5605   1.984   0.992   1.970
 1569SOL    HW1 5606   2.045   1.013   2.046
 1569SOL    HW2 5607   1.952   1.078   1.929
 1570SOL     OW 5608   2.556   6.455   5.472
 1570SOL    HW1 5609   2.465   6.416   5.483
 1570SOL    HW2 5610   2.550   6.555   5.478
 1571SOL     OW 5611   2.109   1.773   4.356
 1571SOL    HW1 5612   2.024   1.766   4.304
 1571SOL    HW2 5613   2.161   1.851   4.322
 1572SOL     OW 5614   2.889   5.272   4.191
 1572SOL    HW1 5615   2.792   5.245   4.189
 1572SOL    HW2 5616   2.940   5.209   4.249
 1573SOL     OW 5617   5.689   6.065   6.885
 1573SOL    HW1 5618   5.743   6.117   6.951
 1573SOL    HW2 5619   5.622   6.125   6.841
 1574SOL     OW 5620   0.880   2.835   3.288
 1574SOL    HW1 5621   0.874   2.833   3.188
 1574SOL    HW2 5622   0.972   2.861   3.316
 1575SOL     OW 5623   0.174   1.986   1.121
 1575SOL    HW1 5624   0.254   2.033   1.083
 1575SOL    HW2 5625   0.092   2.015   1.073
 1576SOL     OW 5626   1.191   6.467   2.730
 1576SOL    HW1 5627   1.187   6.445   2.633
 1576SOL    HW2 5628   1.285   6.484   2.757
 1577SOL     OW 5629   4.457   5.919   3.588
 1577SOL    HW1 5630   4.556   5.904   3.583
 1577SOL    HW2 5631   4.417   5.859   3.658
 1578SOL     OW 5632   5.559   1.656   2.192
 1578SOL    HW1 5633   5.493   1.727   2.167
 1578SOL    HW2 5634   5.626   1.644   2.119
 1579SOL     OW 5635   1.767   3.847   3.014
 1579SOL    HW1 5636   1.679   3.864   2.971
 1579SOL    HW2 5637   1.796   3.928   3.065
 1580SOL     OW 5638   3.844   3.529   4.240
 1580SOL    HW1 5639   3.841   3.534   4.340
 1580SOL    HW2 5640   3.752   3.514   4.204
 1581SOL     OW 5641   5.351   4.035   5.196
 1581SOL    HW1 5642   5.380   3.949   5.152
 1581SOL    HW2 5643   5.427   4.072   5.249
 1582SOL     OW 5644   3.882   6.296   4.381
 1582SOL    HW1 5645   3.810   6.289   4.312
 1582SOL    HW2 5646   3.913   6.391   4.387
 1583SOL     OW 5647   0.074   4.752   4.105
 1583SOL    HW1 5648   7.011   4.800   4.125
 1583SOL    HW2 5649   0.062   4.696   4.023
 1584SOL     OW 5650   0.593   4.465   0.636
 1584SOL    HW1 5651   0.603   4.494   0.540
 1584SOL    HW2 5652   0.502   4.427   0.649
 1585SOL     OW 5653   4.161   6.159   4.602
 1585SOL    HW1 5654   4.239   6.097   4.607
 1585SOL    HW2 5655   4.077   6.107   4.617
 1586SOL     OW 5656   3.215   6.443   2.879
 1586SOL    HW1 5657   3.131   6.495   2.871
 1586SOL    HW2 5658   3.287   6.487   2.825
 1587SOL     OW 5659   4.124   0.684   0.579
 1587SOL    HW1 5660   4.050   0.703   0.644
 1587SOL    HW2 5661   4.112   0.739   0.497
 1588SOL     OW 5662   5.949   1.692   3.880
 1588SOL    HW1 5663   5.948   1.592   3.873
 1588SOL    HW2 5664   6.043   1.725   3.877
 1589SOL     OW 5665   0.039   1.586   3.783
 1589SOL    HW1 5666   0.025   1.586   3.684
 1589SOL    HW2 5667   7.004   1.516   3.824
 1590SOL     OW 5668   5.691   6.722   3.979
 1590SOL    HW1 5669   5.754   6.704   4.055
 1590SOL    HW2 5670   5.602   6.681   4.001
 1591SOL     OW 5671   6.631   5.047   0.649
 1591SOL    HW1 5672   6.575   5.122   0.682
 1591SOL    HW2 5673   6.580   4.961   0.656
 1592SOL     OW 5674   0.173   4.396   4.009
 1592SOL    HW1 5675   0.236   4.400   3.931
 1592SOL    HW2 5676   0.218   4.352   4.087
 1593SOL     OW 5677   4.393   4.639   0.883
 1593SOL    HW1 5678   4.411   4.677   0.974
 1593SOL    HW2 5679   4.297   4.614   0.875
 1594SOL     OW 5680   5.423   1.183   2.843
 1594SOL    HW1 5681   5.382   1.092   2.837
 1594SOL    HW2 5682   5.519   1.179   2.814
 1595SOL     OW 5683   6.884   3.864   0.581
 1595SOL    HW1 5684   6.978   3.883   0.607
 1595SOL    HW2 5685   6.882   3.829   0.487
 1596SOL     OW 5686   5.661   4.224   4.867
 1596SOL    HW1 5687   5.637   4.151   4.931
 1596SOL    HW2 5688   5.647   4.192   4.773
 1597SOL     OW 5689   4.334   6.483   0.726
 1597SOL    HW1 5690   4.336   6.535   0.812
 1597SOL    HW2 5691   4.344   6.386   0.746
 1598SOL     OW 5692   0.546   6.517   6.306
 1598SOL    HW1 5693   0.547   6.491   6.210
 1598SOL    HW2 5694   0.577   6.441   6.362
 1599SOL     OW 5695   4.960   5.633   4.123
 1599SOL    HW1 5696   4.976   5.723   4.083
 1599SOL    HW2 5697   4.863   5.625   4.149
 1600SOL     OW 5698   5.718   0.905   1.349
 1600SOL    HW1 5699   5.733   0.913   1.250
 1600SOL    HW2 5700   5.648   0.837   1.367
 1601SOL     OW 5701   6.475   0.851   5.277
 1601SOL    HW1 5702   6.384   0.813   5.258
 1601SOL    HW2 5703   6.545   0.787   5.245
 1602SOL     OW 5704   3.550   6.053   3.270
 1602SOL    HW1 5705   3.609   6.007   3.204
 1602SOL    HW2 5706   3.456   6.022   3.258
 1603SOL     OW 5707   3.100   5.654   1.431
 1603SOL    HW1 5708   3.125   5.668   1.527
 1603SOL    HW2 5709   3.053   5.735   1.396
 1604SOL     OW 5710   4.296   4.933   1.906
 1604SOL    HW1 5711   4.244   4.869   1.850
 1604SOL    HW2 5712   4.365   4.978   1.850
 1605SOL     OW 5713   3.119   4.684   7.002
 1605SOL    HW1 5714   3.159   4.625   6.932
 1605SOL    HW2 5715   3.041   4.638   0.022
 1606SOL     OW 5716   5.428   5.685   5.122
 1606SOL    HW1 5717   5.476   5.653   5.040
 1606SOL    HW2 5718   5.494   5.696   5.197
 1607SOL     OW 5719   4.315   4.688   4.124
 1607SOL    HW1 5720   4.238   4.735   4.080
 1607SOL    HW2 5721   4.392   4.684   4.061
 1608SOL     OW 5722   5.947   3.340   3.041
 1608SOL    HW1 5723   5.973   3.348   3.138
 1608SOL    HW2 5724   6.009   3.395   2.985
 1609SOL     OW 5725   1.062   0.274   0.834
 1609SOL    HW1 5726   1.115   0.325   0.766
 1609SOL    HW2 5727   1.115   0.195   0.864
 1610SOL     OW 5728   5.391   4.805   1.005
 1610SOL    HW1 5729   5.433   4.727   1.050
 1610SOL    HW2 5730   5.321   4.774   0.940
 1611SOL     OW 5731   0.618   4.324   0.286
 1611SOL    HW1 5732   0.604   4.423   0.282
 1611SOL    HW2 5733   0.683   4.302   0.358
 1612SOL     OW 5734   4.990   0.128   2.100
 1612SOL    HW1 5735   4.939   0.209   2.073
 1612SOL    HW2 5736   5.009   0.073   2.019
 1613SOL     OW 5737   6.394   6.149   2.890
 1613SOL    HW1 5738   6.312   6.198   2.859
 1613SOL    HW2 5739   6.475   6.189   2.847
 1614SOL     OW 5740   6.069   1.280   5.900
 1614SOL    HW1 5741   6.063   1.189   5.859
 1614SOL    HW2 5742   5.993   1.294   5.963
 1615SOL     OW 5743   6.034   3.133   5.567
 1615SOL    HW1 5744   5.956   3.195   5.558
 1615SOL    HW2 5745   6.113   3.184   5.603
 1616SOL     OW 5746   2.214   0.794   3.227
 1616SOL    HW1 5747   2.249   0.885   3.253
 1616SOL    HW2 5748   2.115   0.799   3.216
 1617SOL     OW 5749   0.123   6.877   4.212
 1617SOL    HW1 5750   0.216   6.863   4.179
 1617SOL    HW2 5751   0.078   6.788   4.226
 1618SOL     OW 5752   3.397   5.058   2.523
 1618SOL    HW1 5753   3.313   5.087   2.570
 1618SOL    HW2 5754   3.418   5.124   2.450
 1619SOL     OW 5755   1.386   3.926   6.148
 1619SOL    HW1 5756   1.384   3.942   6.247
 1619SOL    HW2 5757   1.347   3.836   6.127
 1620SOL     OW 5758   3.256   0.134   4.954
 1620SOL    HW1 5759   3.195   0.095   4.886
 1620SOL    HW2 5760   3.204   0.195   5.014
 1621SOL     OW 5761   4.736   5.111   0.885
 1621SOL    HW1 5762   4.644   5.073   0.889
 1621SOL    HW2 5763   4.791   5.059   0.820
 1622SOL     OW 5764   6.611   3.160   4.120
 1622SOL    HW1 5765   6.561   3.081   4.156
 1622SOL    HW2 5766   6.669   3.197   4.193
 1623SOL     OW 5767   0.564   2.556   4.351
 1623SOL    HW1 5768   0.615   2.483   4.306
 1623SOL    HW2 5769   0.502   2.599   4.285
 1624SOL     OW 5770   4.327   3.066   6.912
 1624SOL    HW1 5771   4.331   3.123   6.994
 1624SOL    HW2 5772   4.243   3.086   6.862
 1625SOL     OW 5773   0.815   6.394   0.472
 1625SOL    HW1 5774   0.892   6.457   0.471
 1625SOL    HW2 5775   0.776   6.389   0.564
 1626SOL     OW 5776   2.899   1.410   1.612
 1626SOL    HW1 5777   2.957   1.372   1.685
 1626SOL    HW2 5778   2.867   1.501   1.639
 1627SOL     OW 5779   4.534   0.886   6.180
 1627SOL    HW1 5780   4.594   0.965   6.174
 1627SOL    HW2 5781   4.539   0.834   6.094
 1628SOL     OW 5782   5.580   5.791   1.249
 1628SOL    HW1 5783   5.616   5.699   1.263
 1628SOL    HW2 5784   5.550   5.829   1.336
 1629SOL     OW 5785   1.292   6.124   2.189
 1629SOL    HW1 5786   1.219   6.188   2.165
 1629SOL    HW2 5787   1.256   6.030   2.187
 1630SOL     OW 5788   0.101   5.066   6.006
 1630SOL    HW1 5789   0.048   5.039   6.086
 1630SOL    HW2 5790   0.159   4.990   5.976
 1631SOL     OW 5791   5.015   4.438   5.916
 1631SOL    HW1 5792   5.087   4.387   5.964
 1631SOL    HW2 5793   4.944   4.375   5.886
 1632SOL     OW 5794   5.858   4.862   2.000
 1632SOL    HW1 5795   5.804   4.795   1.947
 1632SOL    HW2 5796   5.954   4.853   1.976
 1633SOL     OW 5797   6.370   4.352   5.653
 1633SOL    HW1 5798   6.277   4.371   5.684
 1633SOL    HW2 5799   6.423   4.437   5.651
 1634SOL     OW 5800   1.239   4.319   5.944
 1634SOL    HW1 5801   1.289   4.250   5.997
 1634SOL    HW2 5802   1.303   4.374   5.891
 1635SOL     OW 5803   3.292   1.300   3.743
 1635SOL    HW1 5804   3.326   1.208   3.726
 1635SOL    HW2 5805   3.293   1.318   3.842
 1636SOL     OW 5806   0.178   6.142   2.094
 1636SOL    HW1 5807   0.228   6.124   2.009
 1636SOL    HW2 5808   0.241   6.140   2.171
 1637SOL     OW 5809   1.562   1.171   1.451
 1637SOL    HW1 5810   1.563   1.138   1.356
 1637SOL    HW2 5811   1.525   1.099   1.510
 1638SOL     OW 5812   5.351   1.217   3.115
 1638SOL    HW1 5813   5.386   1.237   3.024
 1638SOL    HW2 5814   5.271   1.158   3.107
 1639SOL     OW 5815   5.167   1.786   0.939
 1639SOL    HW1 5816   5.193   1.748   0.851
 1639SOL    HW2 5817   5.112   1.869   0.925
 1640SOL     OW 5818   0.013   1.403   6.321
 1640SOL    HW1 5819   0.028   1.399   6.223
 1640SOL    HW2 5820   0.038   1.493   6.356
 1641SOL     OW 5821   5.735   0.733   2.776
 1641SOL    HW1 5822   5.800   0.755   2.849
 1641SOL    HW2 5823   5.657   0.795   2.781
 1642SOL     OW 5824   0.481   3.731   6.496
 1642SOL    HW1 5825   0.430   3.699   6.576
 1642SOL    HW2 5826   0.479   3.661   6.425
 1643SOL     OW 5827   2.476   5.308   4.309
 1643SOL    HW1 5828   2.539   5.239   4.273
 1643SOL    HW2 5829   2.523   5.396   4.315
 1644SOL     OW 5830   5.716   1.871   1.848
 1644SOL    HW1 5831   5.751   1.884   1.941
 1644SOL    HW2 5832   5.617   1.856   1.851
 1645SOL     OW 5833   2.057   1.096   4.083
 1645SOL    HW1 5834   2.105   1.164   4.028
 1645SOL    HW2 5835   1.976   1.137   4.124
 1646SOL     OW 5836   6.972   5.289   1.700
 1646SOL    HW1 5837   0.042   5.273   1.667
 1646SOL    HW2 5838   6.928   5.360   1.644
 1647SOL     OW 5839   6.569   4.111   5.217
 1647SOL    HW1 5840   6.485   4.111   5.271
 1647SOL    HW2 5841   6.637   4.168   5.263
 1648SOL     OW 5842   6.008   6.022   1.919
 1648SOL    HW1 5843   6.097   6.067   1.931
 1648SOL    HW2 5844   5.936   6.082   1.952
 1649SOL     OW 5845   3.544   1.045   3.609
 1649SOL    HW1 5846   3.587   1.126   3.569
 1649SOL    HW2 5847   3.614   0.976   3.627
 1650SOL     OW 5848   2.270   3.153   5.542
 1650SOL    HW1 5849   2.268   3.253   5.549
 1650SOL    HW2 5850   2.349   3.118   5.592
 1651SOL     OW 5851   2.249   2.215   4.733
 1651SOL    HW1 5852   2.326   2.165   4.694
 1651SOL    HW2 5853   2.182   2.233   4.661
 1652SOL     OW 5854   6.853   4.477   1.731
 1652SOL    HW1 5855   6.835   4.419   1.810
 1652SOL    HW2 5856   6.916   4.551   1.757
 1653SOL     OW 5857   5.262   3.814   1.778
 1653SOL    HW1 5858   5.275   3.791   1.682
 1653SOL    HW2 5859   5.225   3.735   1.827
 1654SOL     OW 5860   0.161   2.687   1.482
 1654SOL    HW1 5861   0.230   2.659   1.549
 1654SOL    HW2 5862   0.202   2.748   1.415
 1655SOL     OW 5863   6.676   0.752   6.132
 1655SOL    HW1 5864   6.735   0.821   6.091
 1655SOL    HW2 5865   6.729   0.696   6.195
 1656SOL     OW 5866   1.931   4.954   2.741
 1656SOL    HW1 5867   2.018   4.999   2.721
 1656SOL    HW2 5868   1.860   5.023   2.752
 1657SOL     OW 5869   0.788   1.821   6.073
 1657SOL    HW1 5870   0.872   1.870   6.049
 1657SOL    HW2 5871   0.709   1.871   6.038
 1658SOL     OW 5872   4.625   0.119   5.461
 1658SOL    HW1 5873   4.660   0.121   5.367
 1658SOL    HW2 5874   4.637   0.027   5.499
 1659SOL     OW 5875   2.025   1.233   6.550
 1659SOL    HW1 5876   2.098   1.165   6.556
 1659SOL    HW2 5877   2.051   1.304   6.485
 1660SOL     OW 5878   2.458   0.766   1.488
 1660SOL    HW1 5879   2.428   0.681   1.531
 1660SOL    HW2 5880   2.391   0.794   1.420
 1661SOL     OW 5881   4.392   5.219   3.069
 1661SOL    HW1 5882   4.383   5.256   2.976
 1661SOL    HW2 5883   4.445   5.282   3.125
 1662SOL     OW 5884   0.957   2.185   4.167
 1662SOL    HW1 5885   1.035   2.125   4.148
 1662SOL    HW2 5886   0.977   2.242   4.247
 1663SOL     OW 5887   6.452   3.997   1.402
 1663SOL    HW1 5888   6.366   3.970   1.360
 1663SOL    HW2 5889   6.435   4.035   1.493
 1664SOL     OW 5890   0.874   1.223   6.755
 1664SOL    HW1 5891   0.865   1.191   6.849
 1664SOL    HW2 5892   0.911   1.150   6.698
 1665SOL     OW 5893   1.709   3.199   0.948
 1665SOL    HW1 5894   1.732   3.280   1.001
 1665SOL    HW2 5895   1.740   3.212   0.853
 1666SOL     OW 5896   5.910   6.024   5.083
 1666SOL    HW1 5897   5.813   6.038   5.066
 1666SOL    HW2 5898   5.935   6.064   5.171
 1667SOL     OW 5899   5.830   5.496   1.470
 1667SOL    HW1 5900   5.849   5.579   1.523
 1667SOL    HW2 5901   5.876   5.502   1.382
 1668SOL     OW 5902   0.085   2.902   2.458
 1668SOL    HW1 5903   0.012   2.835   2.445
 1668SOL    HW2 5904   0.085   2.933   2.553
 1669SOL     OW 5905   6.472   2.487   5.575
 1669SOL    HW1 5906   6.421   2.509   5.492
 1669SOL    HW2 5907   6.438   2.402   5.614
 1670SOL     OW 5908   3.162   4.599   5.291
 1670SOL    HW1 5909   3.203   4.510   5.271
 1670SOL    HW2 5910   3.073   4.605   5.247
 1671SOL     OW 5911   6.408   2.501   0.238
 1671SOL    HW1 5912   6.394   2.573   0.170
 1671SOL    HW2 5913   6.455   2.424   0.196
 1672SOL     OW 5914   1.332   2.204   2.122
 1672SOL    HW1 5915   1.391   2.136   2.165
 1672SOL    HW2 5916   1.325   2.185   2.024
 1673SOL     OW 5917   0.835   0.686   5.978
 1673SOL    HW1 5918   0.867   0.613   6.038
 1673SOL    HW2 5919   0.912   0.726   5.928
 1674SOL     OW 5920   4.952   2.650   3.111
 1674SOL    HW1 5921   4.951   2.604   3.023
 1674SOL    HW2 5922   4.904   2.594   3.178
 1675SOL     OW 5923   5.155   0.926   1.965
 1675SOL    HW1 5924   5.064   0.901   1.933
 1675SOL    HW2 5925   5.179   1.017   1.930
 1676SOL     OW 5926   2.439   1.711   3.914
 1676SOL    HW1 5927   2.381   1.760   3.848
 1676SOL    HW2 5928   2.457   1.770   3.992
 1677SOL     OW 5929   2.884   3.057   1.850
 1677SOL    HW1 5930   2.955   3.125   1.834
 1677SOL    HW2 5931   2.794   3.101   1.847
 1678SOL     OW 5932   6.587   0.343   1.570
 1678SOL    HW1 5933   6.542   0.279   1.632
 1678SOL    HW2 5934   6.681   0.312   1.553
 1679SOL     OW 5935   6.875   2.188   6.669
 1679SOL    HW1 5936   6.787   2.220   6.705
 1679SOL    HW2 5937   6.906   2.110   6.722
 1680SOL     OW 5938   5.679   1.301   4.000
 1680SOL    HW1 5939   5.598   1.340   3.955
 1680SOL    HW2 5940   5.761   1.342   3.961
 1681SOL     OW 5941   4.606   6.732   4.239
 1681SOL    HW1 5942   4.527   6.792   4.253
 1681SOL    HW2 5943   4.606   6.660   4.308
 1682SOL     OW 5944   4.572   1.843   5.307
 1682SOL    HW1 5945   4.644   1.911   5.324
 1682SOL    HW2 5946   4.577   1.813   5.212
 1683SOL     OW 5947   0.865   4.594   4.016
 1683SOL    HW1 5948   0.923   4.606   4.097
 1683SOL    HW2 5949   0.836   4.684   3.983
 1684SOL     OW 5950   3.541   5.769   1.522
 1684SOL    HW1 5951   3.511   5.688   1.574
 1684SOL    HW2 5952   3.591   5.831   1.583
 1685SOL     OW 5953   7.007   2.078   6.331
 1685SOL    HW1 5954   7.006   2.022   6.248
 1685SOL    HW2 5955   6.932   2.144   6.328
 1686SOL     OW 5956   2.736   6.059   1.163
 1686SOL    HW1 5957   2.732   6.032   1.259
 1686SOL    HW2 5958   2.652   6.029   1.116
 1687SOL     OW 5959   4.538   4.458   6.694
 1687SOL    HW1 5960   4.567   4.364   6.711
 1687SOL    HW2 5961   4.501   4.464   6.601
 1688SOL     OW 5962   2.470   0.386   1.848
 1688SOL    HW1 5963   2.489   0.483   1.864
 1688SOL    HW2 5964   2.524   0.331   1.912
 1689SOL     OW 5965   4.442   1.089   2.098
 1689SOL    HW1 5966   4.421   1.074   2.001
 1689SOL    HW2 5967   4.434   1.002   2.147
 1690SOL     OW 5968   0.516   4.593   4.002
 1690SOL    HW1 5969   0.562   4.679   4.025
 1690SOL    HW2 5970   0.453   4.608   3.927
 1691SOL     OW 5971   4.772   2.757   5.443
 1691SOL    HW1 5972   4.690   2.745   5.387
 1691SOL    HW2 5973   4.745   2.770   5.538
 1692SOL     OW 5974   5.863   5.499   2.841
 1692SOL    HW1 5975   5.933   5.438   2.803
 1692SOL    HW2 5976   5.892   5.594   2.832
 1693SOL     OW 5977   5.730   6.898   5.890
 1693SOL    HW1 5978   5.720   6.888   5.791
 1693SOL    HW2 5979   5.827   6.888   5.915
 1694SOL     OW 5980   4.348   1.542   6.185
 1694SOL    HW1 5981   4.324   1.638   6.202
 1694SOL    HW2 5982   4.410   1.510   6.256
 1695SOL     OW 5983   5.830   0.900   5.624
 1695SOL    HW1 5984   5.877   0.899   5.712
 1695SOL    HW2 5985   5.890   0.860   5.554
 1696SOL     OW 5986   5.205   6.859   0.929
 1696SOL    HW1 5987   5.172   6.862   1.024
 1696SOL    HW2 5988   5.298   6.897   0.925
 1697SOL     OW 5989   4.151   3.627   1.830
 1697SOL    HW1 5990   4.070   3.682   1.806
 1697SOL    HW2 5991   4.121   3.540   1.869
 1698SOL     OW 5992   4.529   2.230   1.369
 1698SOL    HW1 5993   4.440   2.272   1.387
 1698SOL    HW2 5994   4.583   2.228   1.453
 1699SOL     OW 5995   1.368   0.533   0.671
 1699SOL    HW1 5996   1.410   0.618   0.641
 1699SOL    HW2 5997   1.325   0.547   0.761
 1700SOL     OW 5998   6.045   3.271   3.324
 1700SOL    HW1 5999   5.969   3.300   3.382
 1700SOL    HW2 6000   6.048   3.172   3.319
 1701SOL     OW 6001   1.267   5.937   5.141
 1701SOL    HW1 6002   1.293   5.904   5.232
 1701SOL    HW2 6003   1.171   5.963   5.141
 1702SOL     OW 6004   1.945   2.322   6.801
 1702SOL    HW1 6005   1.952   2.348   6.704
 1702SOL    HW2 6006   2.037   2.312   6.839
 1703SOL     OW 6007   2.580   1.391   1.793
 1703SOL    HW1 6008   2.516   1.433   1.729
 1703SOL    HW2 6009   2.580   1.292   1.780
 1704SOL     OW 6010   2.723   2.258   6.465
 1704SOL    HW1 6011   2.701   2.230   6.372
 1704SOL    HW2 6012   2.640   2.289   6.512
 1705SOL     OW 6013   5.757   3.096   0.919
 1705SOL    HW1 6014   5.855   3.113   0.913
 1705SOL    HW2 6015   5.739   3.028   0.990
 1706SOL     OW 6016   6.318   0.482   5.803
 1706SOL    HW1 6017   6.414   0.462   5.822
 1706SOL    HW2 6018   6.261   0.411   5.844
 1707SOL     OW 6019   2.915   1.546   2.755
 1707SOL    HW1 6020   2.897   1.644   2.742
 1707SOL    HW2 6021   2.959   1.531   2.843
 1708SOL     OW 6022   2.513   4.334   1.392
 1708SOL    HW1 6023   2.423   4.303   1.363
 1708SOL    HW2 6024   2.519   4.333   1.492
 1709SOL     OW 6025   6.061   5.349   2.698
 1709SOL    HW1 6026   6.098   5.256   2.698
 1709SOL    HW2 6027   6.131   5.413   2.732
 1710SOL     OW 6028   4.821   2.893   2.153
 1710SOL    HW1 6029   4.799   2.956   2.227
 1710SOL    HW2 6030   4.830   2.944   2.067
 1711SOL     OW 6031   3.767   5.165   0.360
 1711SOL    HW1 6032   3.865   5.146   0.362
 1711SOL    HW2 6033   3.719   5.098   0.416
 1712SOL     OW 6034   6.939   2.409   2.242
 1712SOL    HW1 6035   6.912   2.354   2.162
 1712SOL    HW2 6036   6.912   2.504   2.228
 1713SOL     OW 6037   2.751   1.489   2.412
 1713SOL    HW1 6038   2.741   1.451   2.321
 1713SOL    HW2 6039   2.815   1.566   2.410
 1714SOL     OW 6040   3.099   4.773   1.056
 1714SOL    HW1 6041   3.060   4.735   1.140
 1714SOL    HW2 6042   3.195   4.747   1.049
 1715SOL     OW 6043   1.440   5.841   1.328
 1715SOL    HW1 6044   1.458   5.796   1.240
 1715SOL    HW2 6045   1.409   5.773   1.394
 1716SOL     OW 6046   4.990   2.051   2.022
 1716SOL    HW1 6047   4.959   1.967   1.978
 1716SOL    HW2 6048   4.923   2.124   2.005
 1717SOL     OW 6049   3.988   0.023   4.067
 1717SOL    HW1 6050   3.997   0.108   4.015
 1717SOL    HW2 6051   4.028   6.970   4.014
 1718SOL     OW 6052   1.567   3.995   2.229
 1718SOL    HW1 6053   1.624   4.072   2.199
 1718SOL    HW2 6054   1.576   3.984   2.328
 1719SOL     OW 6055   0.945   4.826   2.897
 1719SOL    HW1 6056   0.908   4.738   2.927
 1719SOL    HW2 6057   0.990   4.871   2.975
 1720SOL     OW 6058   1.718   2.872   5.340
 1720SOL    HW1 6059   1.740   2.777   5.362
 1720SOL    HW2 6060   1.745   2.892   5.246
 1721SOL     OW 6061   2.082   2.299   0.213
 1721SOL    HW1 6062   2.121   2.274   0.125
 1721SOL    HW2 6063   2.062   2.397   0.215
 1722SOL     OW 6064   3.642   2.090   3.334
 1722SOL    HW1 6065   3.705   2.072   3.259
 1722SOL    HW2 6066   3.561   2.137   3.300
 1723SOL     OW 6067   6.496   5.634   1.861
 1723SOL    HW1 6068   6.435   5.600   1.933
 1723SOL    HW2 6069   6.568   5.689   1.901
 1724SOL     OW 6070   5.601   3.639   1.422
 1724SOL    HW1 6071   5.653   3.590   1.493
 1724SOL    HW2 6072   5.627   3.735   1.422
 1725SOL     OW 6073   2.074   6.725   4.710
 1725SOL    HW1 6074   2.099   6.644   4.764
 1725SOL    HW2 6075   2.147   6.793   4.716
 1726SOL     OW 6076   5.695   5.008   2.743
 1726SOL    HW1 6077   5.611   4.953   2.742
 1726SOL    HW2 6078   5.759   4.973   2.675
 1727SOL     OW 6079   2.945   3.733   3.985
 1727SOL    HW1 6080   2.917   3.762   4.076
 1727SOL    HW2 6081   2.905   3.644   3.964
 1728SOL     OW 6082   5.706   2.057   4.251
 1728SOL    HW1 6083   5.681   2.000   4.173
 1728SOL    HW2 6084   5.651   2.140   4.250
 1729SOL     OW 6085   1.932   2.869   2.853
 1729SOL    HW1 6086   1.832   2.875   2.852
 1729SOL    HW2 6087   1.965   2.877   2.948
 1730SOL     OW 6088   3.374   0.649   4.051
 1730SOL    HW1 6089   3.386   0.739   4.010
 1730SOL    HW2 6090   3.460   0.619   4.093
 1731SOL     OW 6091   6.775   4.776   2.372
 1731SOL    HW1 6092   6.794   4.808   2.279
 1731SOL    HW2 6093   6.756   4.855   2.431
 1732SOL     OW 6094   3.635   3.142   4.948
 1732SOL    HW1 6095   3.708   3.091   4.994
 1732SOL    HW2 6096   3.567   3.078   4.913
 1733SOL     OW 6097   1.535   2.072   0.039
 1733SOL    HW1 6098   1.544   2.041   6.967
 1733SOL    HW2 6099   1.540   2.172   0.043
 1734SOL     OW 6100   0.780   4.741   2.619
 1734SOL    HW1 6101   0.734   4.663   2.662
 1734SOL    HW2 6102   0.712   4.798   2.572
 1735SOL     OW 6103   3.537   5.658   5.612
 1735SOL    HW1 6104   3.489   5.598   5.547
 1735SOL    HW2 6105   3.479   5.736   5.634
 1736SOL     OW 6106   4.400   2.040   4.721
 1736SOL    HW1 6107   4.410   1.942   4.738
 1736SOL    HW2 6108   4.432   2.091   4.801
 1737SOL     OW 6109   1.248   0.048   6.801
 1737SOL    HW1 6110   1.208   0.101   6.876
 1737SOL    HW2 6111   1.291   6.988   6.837
 1738SOL     OW 6112   1.571   3.356   2.272
 1738SOL    HW1 6113   1.527   3.408   2.198
 1738SOL    HW2 6114   1.625   3.282   2.232
 1739SOL     OW 6115   4.587   6.329   2.566
 1739SOL    HW1 6116   4.682   6.346   2.540
 1739SOL    HW2 6117   4.527   6.394   2.519
 1740SOL     OW 6118   0.820   1.871   4.715
 1740SOL    HW1 6119   0.845   1.964   4.690
 1740SOL    HW2 6120   0.762   1.872   4.796
 1741SOL     OW 6121   1.450   1.702   4.653
 1741SOL    HW1 6122   1.362   1.686   4.610
 1741SOL    HW2 6123   1.479   1.620   4.703
 1742SOL     OW 6124   6.325   0.071   6.285
 1742SOL    HW1 6125   6.367   0.123   6.210
 1742SOL    HW2 6126   6.247   0.019   6.250
 1743SOL     OW 6127   0.912   2.363   2.867
 1743SOL    HW1 6128   0.842   2.364   2.938
 1743SOL    HW2 6129   1.003   2.375   2.908
 1744SOL     OW 6130   3.198   1.470   5.642
 1744SOL    HW1 6131   3.104   1.480   5.611
 1744SOL    HW2 6132   3.219   1.542   5.708
 1745SOL     OW 6133   5.284   6.517   1.382
 1745SOL    HW1 6134   5.362   6.546   1.327
 1745SOL    HW2 6135   5.315   6.499   1.476
 1746SOL     OW 6136   2.677   5.008   2.085
 1746SOL    HW1 6137   2.731   5.061   2.151
 1746SOL    HW2 6138   2.723   4.922   2.064
 1747SOL     OW 6139   2.285   6.329   2.249
 1747SOL    HW1 6140   2.355   6.381   2.298
 1747SOL    HW2 6141   2.224   6.391   2.200
 1748SOL     OW 6142   6.641   1.174   4.111
 1748SOL    HW1 6143   6.680   1.263   4.132
 1748SOL    HW2 6144   6.708   1.120   4.059
 1749SOL     OW 6145   6.496   5.325   2.099
 1749SOL    HW1 6146   6.402   5.361   2.096
 1749SOL    HW2 6147   6.495   5.230   2.068
 1750SOL     OW 6148   2.939   1.788   0.447
 1750SOL    HW1 6149   2.862   1.851   0.457
 1750SOL    HW2 6150   2.912   1.698   0.480
 1751SOL     OW 6151   6.256   4.280   3.995
 1751SOL    HW1 6152   6.315   4.337   3.938
 1751SOL    HW2 6153   6.299   4.266   4.084
 1752SOL     OW 6154   5.925   0.064   3.056
 1752SOL    HW1 6155   6.022   0.044   3.064
 1752SOL    HW2 6156   5.911   0.136   2.988
 1753SOL     OW 6157   0.119   1.522   0.605
 1753SOL    HW1 6158   0.130   1.617   0.575
 1753SOL    HW2 6159   0.196   1.496   0.663
 1754SOL     OW 6160   2.147   4.726   3.867
 1754SOL    HW1 6161   2.142   4.760   3.961
 1754SOL    HW2 6162   2.217   4.778   3.817
 1755SOL     OW 6163   5.134   6.730   5.440
 1755SOL    HW1 6164   5.217   6.786   5.433
 1755SOL    HW2 6165   5.069   6.759   5.371
 1756SOL     OW 6166   4.364   5.269   0.828
 1756SOL    HW1 6167   4.422   5.298   0.752
 1756SOL    HW2 6168   4.270   5.302   0.813
 1757SOL     OW 6169   2.724   5.394   5.023
 1757SOL    HW1 6170   2.824   5.394   5.027
 1757SOL    HW2 6171   2.687   5.326   5.086
 1758SOL     OW 6172   6.982   6.646   4.208
 1758SOL    HW1 6173   6.961   6.575   4.274
 1758SOL    HW2 6174   6.902   6.664   4.151
 1759SOL     OW 6175   1.629   5.830   5.708
 1759SOL    HW1 6176   1.589   5.899   5.648
 1759SOL    HW2 6177   1.558   5.764   5.735
 1760SOL     OW 6178   5.911   1.058   4.478
 1760SOL    HW1 6179   5.866   1.140   4.514
 1760SOL    HW2 6180   5.866   0.977   4.514
 1761SOL     OW 6181   4.685   2.684   4.574
 1761SOL    HW1 6182   4.659   2.686   4.670
 1761SOL    HW2 6183   4.749   2.759   4.556
 1762SOL     OW 6184   0.900   1.340   5.383
 1762SOL    HW1 6185   0.995   1.371   5.389
 1762SOL    HW2 6186   0.842   1.416   5.356
 1763SOL     OW 6187   1.174   5.190   4.168
 1763SOL    HW1 6188   1.241   5.188   4.095
 1763SOL    HW2 6189   1.219   5.205   4.256
 1764SOL     OW 6190   6.704   5.045   2.492
 1764SOL    HW1 6191   6.739   5.138   2.502
 1764SOL    HW2 6192   6.615   5.048   2.447
 1765SOL     OW 6193   5.274   3.885   2.689
 1765SOL    HW1 6194   5.253   3.980   2.663
 1765SOL    HW2 6195   5.189   3.837   2.710
 1766SOL     OW 6196   3.838   4.989   3.915
 1766SOL    HW1 6197   3.746   4.959   3.890
 1766SOL    HW2 6198   3.862   5.071   3.863
 1767SOL     OW 6199   2.826   4.566   1.605
 1767SOL    HW1 6200   2.882   4.513   1.541
 1767SOL    HW2 6201   2.861   4.552   1.698
 1768SOL     OW 6202   3.565   5.632   2.240
 1768SOL    HW1 6203   3.560   5.697   2.165
 1768SOL    HW2 6204   3.644   5.653   2.297
 1769SOL     OW 6205   5.535   6.984   0.397
 1769SOL    HW1 6206   5.563   6.980   0.494
 1769SOL    HW2 6207   5.535   6.891   0.359
 1770SOL     OW 6208   2.195   3.358   6.943
 1770SOL    HW1 6209   2.124   3.383   6.877
 1770SOL    HW2 6210   2.215   3.435   7.002
 1771SOL     OW 6211   1.741   3.302   6.458
 1771SOL    HW1 6212   1.674   3.228   6.469
 1771SOL    HW2 6213   1.831   3.262   6.441
 1772SOL     OW 6214   2.546   4.980   1.279
 1772SOL    HW1 6215   2.504   4.939   1.197
 1772SOL    HW2 6216   2.636   4.940   1.294
 1773SOL     OW 6217   1.800   5.578   4.642
 1773SOL    HW1 6218   1.790   5.678   4.646
 1773SOL    HW2 6219   1.889   5.554   4.605
 1774SOL     OW 6220   5.795   4.422   1.462
 1774SOL    HW1 6221   5.877   4.384   1.419
 1774SOL    HW2 6222   5.815   4.514   1.496
 1775SOL     OW 6223   2.228   6.497   0.413
 1775SOL    HW1 6224   2.234   6.578   0.471
 1775SOL    HW2 6225   2.257   6.416   0.466
 1776SOL     OW 6226   4.488   3.230   5.870
 1776SOL    HW1 6227   4.397   3.252   5.836
 1776SOL    HW2 6228   4.527   3.157   5.814
 1777SOL     OW 6229   4.520   5.094   5.985
 1777SOL    HW1 6230   4.537   5.159   6.059
 1777SOL    HW2 6231   4.462   5.019   6.020
 1778SOL     OW 6232   7.001   0.512   2.682
 1778SOL    HW1 6233   0.059   0.485   2.630
 1778SOL    HW2 6234   6.945   0.575   2.627
 1779SOL     OW 6235   0.136   5.965   5.351
 1779SOL    HW1 6236   0.168   5.895   5.287
 1779SOL    HW2 6237   0.207   6.034   5.364
 1780SOL     OW 6238   2.699   0.000   4.929
 1780SOL    HW1 6239   2.640   7.021   4.849
 1780SOL    HW2 6240   2.686   0.086   4.979
 1781SOL     OW 6241   3.833   0.933   5.613
 1781SOL    HW1 6242   3.750   0.912   5.561
 1781SOL    HW2 6243   3.819   0.907   5.709
 1782SOL     OW 6244   5.969   0.400   2.250
 1782SOL    HW1 6245   5.943   0.378   2.156
 1782SOL    HW2 6246   6.061   0.365   2.268
 1783SOL     OW 6247   1.382   3.423   6.638
 1783SOL    HW1 6248   1.440   3.382   6.567
 1783SOL    HW2 6249   1.335   3.350   6.688
 1784SOL     OW 6250   1.140   5.942   1.229
 1784SOL    HW1 6251   1.219   5.893   1.265
 1784SOL    HW2 6252   1.111   6.011   1.295
 1785SOL     OW 6253   2.597   5.219   4.762
 1785SOL    HW1 6254   2.660   5.203   4.838
 1785SOL    HW2 6255   2.529   5.287   4.789
 1786SOL     OW 6256   0.616   5.267   2.429
 1786SOL    HW1 6257   0.694   5.324   2.456
 1786SOL    HW2 6258   0.563   5.313   2.359
 1787SOL     OW 6259   2.915   1.298   6.251
 1787SOL    HW1 6260   2.829   1.339   6.280
 1787SOL    HW2 6261   2.991   1.358   6.275
 1788SOL     OW 6262   3.671   4.136   0.505
 1788SOL    HW1 6263   3.626   4.047   0.500
 1788SOL    HW2 6264   3.709   4.148   0.597
 1789SOL     OW 6265   5.975   3.070   3.933
 1789SOL    HW1 6266   5.887   3.022   3.928
 1789SOL    HW2 6267   6.047   3.011   3.894
 1790SOL     OW 6268   2.680   2.439   4.622
 1790SOL    HW1 6269   2.748   2.370   4.645
 1790SOL    HW2 6270   2.688   2.464   4.526
 1791SOL     OW 6271   6.475   0.428   3.076
 1791SOL    HW1 6272   6.460   0.333   3.048
 1791SOL    HW2 6273   6.424   0.489   3.016
 1792SOL     OW 6274   6.925   3.533   5.807
 1792SOL    HW1 6275   6.997   3.598   5.832
 1792SOL    HW2 6276   6.891   3.555   5.715
 1793SOL     OW 6277   1.235   2.908   4.974
 1793SOL    HW1 6278   1.184   2.832   4.933
 1793SOL    HW2 6279   1.174   2.961   5.033
 1794SOL     OW 6280   0.338   2.183   6.638
 1794SOL    HW1 6281   0.308   2.094   6.672
 1794SOL    HW2 6282   0.374   2.238   6.714
 1795SOL     OW 6283   5.575   3.678   0.873
 1795SOL    HW1 6284   5.561   3.622   0.791
 1795SOL    HW2 6285   5.670   3.709   0.877
 1796SOL     OW 6286   6.258   6.464   6.289
 1796SOL    HW1 6287   6.167   6.432   6.314
 1796SOL    HW2 6288   6.306   6.394   6.237
 1797SOL     OW 6289   3.326   6.742   5.255
 1797SOL    HW1 6290   3.358   6.738   5.350
 1797SOL    HW2 6291   3.285   6.654   5.231
 1798SOL     OW 6292   2.375   4.986   6.602
 1798SOL    HW1 6293   2.422   5.061   6.556
 1798SOL    HW2 6294   2.441   4.915   6.626
 1799SOL     OW 6295   3.374   1.878   1.563
 1799SOL    HW1 6296   3.458   1.870   1.618
 1799SOL    HW2 6297   3.328   1.964   1.586
 1800SOL     OW 6298   5.508   2.362   5.637
 1800SOL    HW1 6299   5.520   2.283   5.576
 1800SOL    HW2 6300   5.499   2.445   5.582
 1801SOL     OW 6301   1.176   2.446   2.918
 1801SOL    HW1 6302   1.259   2.410   2.961
 1801SOL    HW2 6303   1.194   2.466   2.822
 1802SOL     OW 6304   6.037   4.458   4.853
 1802SOL    HW1 6305   6.123   4.478   4.900
 1802SOL    HW2 6306   6.043   4.488   4.758
 1803SOL     OW 6307   5.833   6.210   3.821
 1803SOL    HW1 6308   5.813   6.183   3.727
 1803SOL    HW2 6309   5.856   6.129   3.875
 1804SOL     OW 6310   1.334   2.841   5.971
 1804SOL    HW1 6311   1.409   2.866   5.910
 1804SOL    HW2 6312   1.343   2.745   5.997
 1805SOL     OW 6313   6.853   5.050   6.480
 1805SOL    HW1 6314   6.850   4.966   6.534
 1805SOL    HW2 6315   6.867   5.128   6.540
 1806SOL     OW 6316   7.009   1.213   2.689
 1806SOL    HW1 6317   0.066   1.239   2.745
 1806SOL    HW2 6318   6.925   1.235   2.739
 1807SOL     OW 6319   6.762   2.816   2.842
 1807SOL    HW1 6320   6.751   2.731   2.791
 1807SOL    HW2 6321   6.763   2.893   2.779
 1808SOL     OW 6322   5.485   1.422   6.867
 1808SOL    HW1 6323   5.569   1.444   6.917
 1808SOL    HW2 6324   5.408   1.421   6.931
 1809SOL     OW 6325   4.538   1.321   5.280
 1809SOL    HW1 6326   4.467   1.253   5.297
 1809SOL    HW2 6327   4.584   1.301   5.193
 1810SOL     OW 6328   1.177   1.152   3.423
 1810SOL    HW1 6329   1.212   1.182   3.511
 1810SOL    HW2 6330   1.100   1.210   3.396
 1811SOL     OW 6331   2.758   5.185   1.605
 1811SOL    HW1 6332   2.814   5.133   1.670
 1811SOL    HW2 6333   2.790   5.167   1.512
 1812SOL     OW 6334   3.667   0.680   6.410
 1812SOL    HW1 6335   3.581   0.652   6.453
 1812SOL    HW2 6336   3.734   0.607   6.418
 1813SOL     OW 6337   5.361   3.225   1.824
 1813SOL    HW1 6338   5.349   3.303   1.762
 1813SOL    HW2 6339   5.390   3.259   1.913
 1814SOL     OW 6340   6.749   5.950   1.806
 1814SOL    HW1 6341   6.725   5.942   1.709
 1814SOL    HW2 6342   6.847   5.968   1.814
 1815SOL     OW 6343   6.193   6.217   1.145
 1815SOL    HW1 6344   6.289   6.247   1.138
 1815SOL    HW2 6345   6.171   6.198   1.240
 1816SOL     OW 6346   3.548   5.762   4.817
 1816SOL    HW1 6347   3.538   5.861   4.828
 1816SOL    HW2 6348   3.512   5.715   4.898
 1817SOL     OW 6349   6.684   2.561   4.862
 1817SOL    HW1 6350   6.633   2.476   4.850
 1817SOL    HW2 6351   6.627   2.638   4.835
 1818SOL     OW 6352   2.384   2.621   0.093
 1818SOL    HW1 6353   2.337   2.618   0.005
 1818SOL    HW2 6354   2.370   2.534   0.141
 1819SOL     OW 6355   0.732   3.731   0.801
 1819SOL    HW1 6356   0.632   3.734   0.808
 1819SOL    HW2 6357   0.757   3.702   0.708
 1820SOL     OW 6358   3.651   6.709   4.177
 1820SOL    HW1 6359   3.610   6.629   4.133
 1820SOL    HW2 6360   3.602   6.791   4.148
 1821SOL     OW 6361   3.923   1.326   2.785
 1821SOL    HW1 6362   3.883   1.375   2.707
 1821SOL    HW2 6363   3.958   1.392   2.851
 1822SOL     OW 6364   2.716   4.931   4.680
 1822SOL    HW1 6365   2.661   4.854   4.712
 1822SOL    HW2 6366   2.657   5.010   4.664
 1823SOL     OW 6367   4.748   6.552   5.058
 1823SOL    HW1 6368   4.808   6.520   5.131
 1823SOL    HW2 6369   4.668   6.492   5.052
 1824SOL     OW 6370   4.513   2.797   1.755
 1824SOL    HW1 6371   4.430   2.793   1.699
 1824SOL    HW2 6372   4.518   2.886   1.800
 1825SOL     OW 6373   1.430   3.234   0.052
 1825SOL    HW1 6374   1.405   3.151   0.002
 1825SOL    HW2 6375   1.495   3.210   0.125
 1826SOL     OW 6376   3.871   3.576   0.096
 1826SOL    HW1 6377   3.836   3.500   0.151
 1826SOL    HW2 6378   3.845   3.662   0.139
 1827SOL     OW 6379   5.297   4.725   0.335
 1827SOL    HW1 6380   5.266   4.785   0.261
 1827SOL    HW2 6381   5.396   4.714   0.329
 1828SOL     OW 6382   2.602   6.388   4.621
 1828SOL    HW1 6383   2.602   6.293   4.652
 1828SOL    HW2 6384   2.547   6.443   4.684
 1829SOL     OW 6385   2.398   5.832   2.441
 1829SOL    HW1 6386   2.353   5.743   2.454
 1829SOL    HW2 6387   2.334   5.895   2.397
 1830SOL     OW 6388   4.833   1.652   6.801
 1830SOL    HW1 6389   4.739   1.685   6.814
 1830SOL    HW2 6390   4.841   1.560   6.840
 1831SOL     OW 6391   3.662   4.238   0.018
 1831SOL    HW1 6392   3.738   4.204   6.986
 1831SOL    HW2 6393   3.580   4.246   6.984
 1832SOL     OW 6394   2.354   2.475   5.337
 1832SOL    HW1 6395   2.287   2.419   5.386
 1832SOL    HW2 6396   2.308   2.554   5.297
 1833SOL     OW 6397   5.924   1.693   0.350
 1833SOL    HW1 6398   5.989   1.719   0.422
 1833SOL    HW2 6399   5.893   1.775   0.302
 1834SOL     OW 6400   1.460   3.610   6.423
 1834SOL    HW1 6401   1.391   3.620   6.351
 1834SOL    HW2 6402   1.417   3.572   6.505
 1835SOL     OW 6403   5.954   0.799   6.432
 1835SOL    HW1 6404   6.013   0.719   6.447
 1835SOL    HW2 6405   5.945   0.815   6.334
 1836SOL     OW 6406   5.556   0.247   5.228
 1836SOL    HW1 6407   5.537   0.266   5.132
 1836SOL    HW2 6408   5.565   0.149   5.242
 1837SOL     OW 6409   1.310   1.723   1.666
 1837SOL    HW1 6410   1.281   1.632   1.636
 1837SOL    HW2 6411   1.280   1.791   1.598
 1838SOL     OW 6412   4.381   0.474   0.194
 1838SOL    HW1 6413   4.461   0.428   0.155
 1838SOL    HW2 6414   4.314   0.405   0.223
 1839SOL     OW 6415   0.445   2.302   6.907
 1839SOL    HW1 6416   0.445   2.385   6.850
 1839SOL    HW2 6417   0.539   2.270   6.918
 1840SOL     OW 6418   1.317   0.026   6.098
 1840SOL    HW1 6419   1.288   0.009   6.004
 1840SOL    HW2 6420   1.271   0.108   6.133
 1841SOL     OW 6421   1.902   6.892   1.025
 1841SOL    HW1 6422   1.948   6.812   0.986
 1841SOL    HW2 6423   1.862   6.946   0.951
 1842SOL     OW 6424   0.736   4.959   1.808
 1842SOL    HW1 6425   0.765   4.905   1.729
 1842SOL    HW2 6426   0.729   4.900   1.888
 1843SOL     OW 6427   3.549   0.482   6.817
 1843SOL    HW1 6428   3.569   0.384   6.807
 1843SOL    HW2 6429   3.492   0.496   6.898
 1844SOL     OW 6430   5.167   3.426   1.476
 1844SOL    HW1 6431   5.191   3.340   1.521
 1844SOL    HW2 6432   5.115   3.484   1.538
 1845SOL     OW 6433   0.399   2.601   4.759
 1845SOL    HW1 6434   0.400   2.611   4.858
 1845SOL    HW2 6435   0.307   2.577   4.729
 1846SOL     OW 6436   3.825   0.747   1.812
 1846SOL    HW1 6437   3.811   0.818   1.882
 1846SOL    HW2 6438   3.883   0.784   1.739
 1847SOL     OW 6439   2.782   6.203   6.895
 1847SOL    HW1 6440   2.692   6.224   6.932
 1847SOL    HW2 6441   2.784   6.108   6.864
 1848SOL     OW 6442   2.948   5.827   4.599
 1848SOL    HW1 6443   3.027   5.792   4.548
 1848SOL    HW2 6444   2.864   5.798   4.554
 1849SOL     OW 6445   4.758   2.747   2.800
 1849SOL    HW1 6446   4.838   2.792   2.761
 1849SOL    HW2 6447   4.693   2.726   2.728
 1850SOL     OW 6448   5.137   1.263   0.645
 1850SOL    HW1 6449   5.211   1.202   0.618
 1850SOL    HW2 6450   5.129   1.264   0.745
 1851SOL     OW 6451   2.248   4.938   3.477
 1851SOL    HW1 6452   2.281   4.993   3.400
 1851SOL    HW2 6453   2.177   4.875   3.445
 1852SOL     OW 6454   0.026   0.974   4.448
 1852SOL    HW1 6455   6.983   1.035   4.402
 1852SOL    HW2 6456   0.019   0.882   4.409
 1853SOL     OW 6457   0.850   2.156   4.609
 1853SOL    HW1 6458   0.936   2.141   4.659
 1853SOL    HW2 6459   0.856   2.243   4.560
 1854SOL     OW 6460   1.475   0.073   3.633
 1854SOL    HW1 6461   1.454   7.009   3.587
 1854SOL    HW2 6462   1.390   0.124   3.648
 1855SOL     OW 6463   6.679   0.967   5.449
 1855SOL    HW1 6464   6.614   0.915   5.394
 1855SOL    HW2 6465   6.658   1.064   5.444
 1856SOL     OW 6466   4.566   4.001   6.874
 1856SOL    HW1 6467   4.490   3.953   6.919
 1856SOL    HW2 6468   4.629   3.934   6.835
 1857SOL     OW 6469   4.357   1.119   0.073
 1857SOL    HW1 6470   4.262   1.117   0.104
 1857SOL    HW2 6471   4.416   1.082   0.145
 1858SOL     OW 6472   4.119   1.876   4.500
 1858SOL    HW1 6473   4.097   1.909   4.408
 1858SOL    HW2 6474   4.207   1.829   4.498
 1859SOL     OW 6475   6.743   5.761   3.499
 1859SOL    HW1 6476   6.838   5.786   3.516
 1859SOL    HW2 6477   6.718   5.785   3.405
 1860SOL     OW 6478   1.188   6.491   6.965
 1860SOL    HW1 6479   1.171   6.562   6.896
 1860SOL    HW2 6480   1.102   6.470   7.013
 1861SOL     OW 6481   6.218   0.171   5.289
 1861SOL    HW1 6482   6.310   0.136   5.271
 1861SOL    HW2 6483   6.221   0.237   5.364
 1862SOL     OW 6484   4.376   4.749   4.851
 1862SOL    HW1 6485   4.346   4.670   4.904
 1862SOL    HW2 6486   4.468   4.776   4.881
 1863SOL     OW 6487   6.939   1.331   0.713
 1863SOL    HW1 6488   7.000   1.407   0.693
 1863SOL    HW2 6489   6.873   1.321   0.638
 1864SOL     OW 6490   2.927   5.651   2.687
 1864SOL    HW1 6491   2.853   5.594   2.722
 1864SOL    HW2 6492   2.946   5.724   2.752
 1865SOL     OW 6493   6.119   2.828   6.570
 1865SOL    HW1 6494   6.144   2.895   6.640
 1865SOL    HW2 6495   6.053   2.764   6.609
 1866SOL     OW 6496   6.887   4.541   5.099
 1866SOL    HW1 6497   6.916   4.452   5.135
 1866SOL    HW2 6498   6.968   4.595   5.076
 1867SOL     OW 6499   1.279   6.731   0.522
 1867SOL    HW1 6500   1.336   6.780   0.456
 1867SOL    HW2 6501   1.328   6.649   0.552
 1868SOL     OW 6502   5.834   3.324   6.456
 1868SOL    HW1 6503   5.860   3.318   6.360
 1868SOL    HW2 6504   5.849   3.236   6.501
 1869SOL     OW 6505   4.261   1.213   5.609
 1869SOL    HW1 6506   4.290   1.296   5.562
 1869SOL    HW2 6507   4.177   1.231   5.661
 1870SOL     OW 6508   5.394   1.394   5.956
 1870SOL    HW1 6509   5.425   1.379   5.862
 1870SOL    HW2 6510   5.372   1.306   5.998
 1871SOL     OW 6511   2.772   4.251   0.419
 1871SOL    HW1 6512   2.868   4.231   0.399
 1871SOL    HW2 6513   2.739   4.324   0.359
 1872SOL     OW 6514   2.209   3.646   6.524
 1872SOL    HW1 6515   2.140   3.663   6.594
 1872SOL    HW2 6516   2.268   3.727   6.515
 1873SOL     OW 6517   5.735   1.066   2.516
 1873SOL    HW1 6518   5.726   1.044   2.613
 1873SOL    HW2 6519   5.659   1.125   2.488
 1874SOL     OW 6520   2.061   4.894   6.276
 1874SOL    HW1 6521   1.964   4.913   6.267
 1874SOL    HW2 6522   2.087   4.895   6.373
 1875SOL     OW 6523   1.584   6.719   1.820
 1875SOL    HW1 6524   1.519   6.793   1.804
 1875SOL    HW2 6525   1.548   6.634   1.781
 1876SOL     OW 6526   1.859   5.022   5.567
 1876SOL    HW1 6527   1.886   5.086   5.495
 1876SOL    HW2 6528   1.851   4.930   5.529
 1877SOL     OW 6529   0.702   1.103   3.454
 1877SOL    HW1 6530   0.690   1.136   3.361
 1877SOL    HW2 6531   0.754   1.169   3.507
 1878SOL     OW 6532   5.469   3.870   3.380
 1878SOL    HW1 6533   5.433   3.780   3.406
 1878SOL    HW2 6534   5.426   3.941   3.435
 1879SOL     OW 6535   4.021   6.618   5.136
 1879SOL    HW1 6536   4.032   6.551   5.210
 1879SOL    HW2 6537   4.111   6.636   5.095
 1880SOL     OW 6538   2.243   4.087   4.023
 1880SOL    HW1 6539   2.276   4.105   4.116
 1880SOL    HW2 6540   2.238   3.988   4.008
 1881SOL     OW 6541   3.093   2.097   2.455
 1881SOL    HW1 6542   3.028   2.139   2.518
 1881SOL    HW2 6543   3.185   2.103   2.493
 1882SOL     OW 6544   4.241   0.091   6.606
 1882SOL    HW1 6545   4.214   0.125   6.696
 1882SOL    HW2 6546   4.184   0.012   6.582
 1883SOL     OW 6547   2.068   3.679   3.294
 1883SOL    HW1 6548   2.134   3.750   3.270
 1883SOL    HW2 6549   1.985   3.722   3.330
 1884SOL     OW 6550   4.806   0.946   0.542
 1884SOL    HW1 6551   4.729   1.009   0.555
 1884SOL    HW2 6552   4.791   0.893   0.458
 1885SOL     OW 6553   6.714   1.577   1.334
 1885SOL    HW1 6554   6.661   1.534   1.407
 1885SOL    HW2 6555   6.662   1.654   1.296
 1886SOL     OW 6556   3.953   2.768   5.246
 1886SOL    HW1 6557   4.021   2.696   5.260
 1886SOL    HW2 6558   3.861   2.731   5.260
 1887SOL     OW 6559   0.576   6.098   5.638
 1887SOL    HW1 6560   0.585   6.000   5.621
 1887SOL    HW2 6561   0.571   6.114   5.737
 1888SOL     OW 6562   2.624   1.377   5.126
 1888SOL    HW1 6563   2.642   1.446   5.197
 1888SOL    HW2 6564   2.708   1.360   5.074
 1889SOL     OW 6565   3.825   3.878   6.469
 1889SOL    HW1 6566   3.734   3.849   6.441
 1889SOL    HW2 6567   3.822   3.911   6.564
 1890SOL     OW 6568   6.412   0.040   5.829
 1890SOL    HW1 6569   6.453   0.086   5.750
 1890SOL    HW2 6570   6.383   6.970   5.803
 1891SOL     OW 6571   4.998   3.377   0.069
 1891SOL    HW1 6572   5.057   3.321   0.012
 1891SOL    HW2 6573   4.928   3.421   0.012
 1892SOL     OW 6574   2.278   0.160   3.452
 1892SOL    HW1 6575   2.315   0.205   3.371
 1892SOL    HW2 6576   2.328   0.075   3.468
 1893SOL     OW 6577   2.858   2.425   6.632
 1893SOL    HW1 6578   2.909   2.408   6.716
 1893SOL    HW2 6579   2.824   2.339   6.594
 1894SOL     OW 6580   5.473   3.350   1.028
 1894SOL    HW1 6581   5.417   3.267   1.033
 1894SOL    HW2 6582   5.414   3.428   1.006
 1895SOL     OW 6583   4.181   6.357   2.940
 1895SOL    HW1 6584   4.235   6.346   3.023
 1895SOL    HW2 6585   4.089   6.321   2.955
 1896SOL     OW 6586   0.008   2.296   4.336
 1896SOL    HW1 6587   7.010   2.304   4.238
 1896SOL    HW2 6588   0.088   2.237   4.348
 1897SOL     OW 6589   5.449   5.653   3.307
 1897SOL    HW1 6590   5.402   5.740   3.290
 1897SOL    HW2 6591   5.417   5.615   3.394
 1898SOL     OW 6592   5.280   6.037   0.183
 1898SOL    HW1 6593   5.264   6.103   0.256
 1898SOL    HW2 6594   5.316   6.085   0.102
 1899SOL     OW 6595   1.694   3.352   4.245
 1899SOL    HW1 6596   1.747   3.298   4.180
 1899SOL    HW2 6597   1.617   3.396   4.198
 1900SOL     OW 6598   2.334   5.336   1.314
 1900SOL    HW1 6599   2.363   5.410   1.375
 1900SOL    HW2 6600   2.335   5.368   1.219
 1901SOL     OW 6601   0.205   1.276   0.155
 1901SOL    HW1 6602   0.202   1.332   0.072
 1901SOL    HW2 6603   0.148   1.318   0.226
 1902SOL     OW 6604   1.800   2.963   5.059
 1902SOL    HW1 6605   1.859   2.961   4.978
 1902SOL    HW2 6606   1.710   2.998   5.033
 1903SOL     OW 6607   6.848   6.337   4.105
 1903SOL    HW1 6608   6.914   6.379   4.043
 1903SOL    HW2 6609   6.784   6.281   4.053
 1904SOL     OW 6610   0.411   0.903   3.780
 1904SOL    HW1 6611   0.494   0.856   3.748
 1904SOL    HW2 6612   0.437   0.990   3.822
 1905SOL     OW 6613   5.967   3.150   6.660
 1905SOL    HW1 6614   6.052   3.203   6.652
 1905SOL    HW2 6615   5.960   3.113   6.753
 1906SOL     OW 6616   2.305   5.880   6.063
 1906SOL    HW1 6617   2.266   5.857   6.152
 1906SOL    HW2 6618   2.329   5.796   6.014
 1907SOL     OW 6619   3.997   1.110   2.524
 1907SOL    HW1 6620   4.006   1.209   2.517
 1907SOL    HW2 6621   4.045   1.067   2.448
 1908SOL     OW 6622   5.470   4.565   0.868
 1908SOL    HW1 6623   5.474   4.653   0.820
 1908SOL    HW2 6624   5.563   4.530   0.882
 1909SOL     OW 6625   5.063   5.315   4.630
 1909SOL    HW1 6626   4.994   5.375   4.671
 1909SOL    HW2 6627   5.025   5.224   4.619
 1910SOL     OW 6628   4.843   3.970   4.248
 1910SOL    HW1 6629   4.828   4.018   4.335
 1910SOL    HW2 6630   4.848   3.871   4.265
 1911SOL     OW 6631   0.935   2.440   5.641
 1911SOL    HW1 6632   0.994   2.477   5.569
 1911SOL    HW2 6633   0.935   2.340   5.635
 1912SOL     OW 6634   3.525   0.548   2.124
 1912SOL    HW1 6635   3.477   0.462   2.144
 1912SOL    HW2 6636   3.540   0.598   2.209
 1913SOL     OW 6637   3.023   3.647   0.142
 1913SOL    HW1 6638   2.933   3.609   0.118
 1913SOL    HW2 6639   3.026   3.668   0.239
 1914SOL     OW 6640   4.702   1.256   5.083
 1914SOL    HW1 6641   4.658   1.271   4.994
 1914SOL    HW2 6642   4.766   1.180   5.075
 1915SOL     OW 6643   2.873   6.830   5.107
 1915SOL    HW1 6644   2.960   6.876   5.124
 1915SOL    HW2 6645   2.828   6.871   5.028
 1916SOL     OW 6646   3.795   0.087   2.843
 1916SOL    HW1 6647   3.840   0.175   2.858
 1916SOL    HW2 6648   3.864   0.019   2.818
 1917SOL     OW 6649   3.822   4.009   2.935
 1917SOL    HW1 6650   3.825   4.020   3.035
 1917SOL    HW2 6651   3.728   4.022   2.903
 1918SOL     OW 6652   0.361   0.054   6.189
 1918SOL    HW1 6653   0.304   0.019   6.115
 1918SOL    HW2 6654   0.311   0.050   6.275
 1919SOL     OW 6655   5.308   0.831   1.737
 1919SOL    HW1 6656   5.254   0.850   1.820
 1919SOL    HW2 6657   5.258   0.769   1.678
 1920SOL     OW 6658   5.738   6.341   4.830
 1920SOL    HW1 6659   5.775   6.388   4.910
 1920SOL    HW2 6660   5.798   6.266   4.805
 1921SOL     OW 6661   2.397   6.889   0.207
 1921SOL    HW1 6662   2.408   6.953   0.131
 1921SOL    HW2 6663   2.414   6.796   0.176
 1922SOL     OW 6664   3.134   5.437   0.148
 1922SOL    HW1 6665   3.159   5.384   0.067
 1922SOL    HW2 6666   3.091   5.376   0.215
 1923SOL     OW 6667   1.529   2.718   1.676
 1923SOL    HW1 6668   1.582   2.660   1.740
 1923SOL    HW2 6669   1.572   2.808   1.670
 1924SOL     OW 6670   1.311   3.763   2.296
 1924SOL    HW1 6671   1.226   3.725   2.333
 1924SOL    HW2 6672   1.352   3.823   2.364
 1925SOL     OW 6673   2.696   4.837   0.402
 1925SOL    HW1 6674   2.682   4.879   0.312
 1925SOL    HW2 6675   2.779   4.781   0.399
 1926SOL     OW 6676   6.964   0.151   2.614
 1926SOL    HW1 6677   6.949   0.192   2.524
 1926SOL    HW2 6678   0.033   0.109   2.616
 1927SOL     OW 6679   5.408   3.274   1.298
 1927SOL    HW1 6680   5.311   3.278   1.322
 1927SOL    HW2 6681   5.419   3.227   1.210
 1928SOL     OW 6682   7.015   5.014   4.728
 1928SOL    HW1 6683   6.957   4.944   4.771
 1928SOL    HW2 6684   6.988   5.024   4.632
 1929SOL     OW 6685   1.779   4.440   3.299
 1929SOL    HW1 6686   1.808   4.476   3.211
 1929SOL    HW2 6687   1.755   4.343   3.289
 1930SOL     OW 6688   6.440   5.861   6.530
 1930SOL    HW1 6689   6.534   5.836   6.555
 1930SOL    HW2 6690   6.399   5.787   6.477
 1931SOL     OW 6691   2.264   2.985   3.905
 1931SOL    HW1 6692   2.261   3.074   3.860
 1931SOL    HW2 6693   2.251   2.997   4.004
 1932SOL     OW 6694   5.932   2.472   3.156
 1932SOL    HW1 6695   5.902   2.404   3.089
 1932SOL    HW2 6696   6.032   2.471   3.161
 1933SOL     OW 6697   2.411   4.787   0.532
 1933SOL    HW1 6698   2.462   4.701   0.526
 1933SOL    HW2 6699   2.344   4.781   0.606
 1934SOL     OW 6700   0.258   6.160   3.059
 1934SOL    HW1 6701   0.169   6.164   3.104
 1934SOL    HW2 6702   0.268   6.071   3.014
 1935SOL     OW 6703   0.538   1.517   2.428
 1935SOL    HW1 6704   0.481   1.566   2.362
 1935SOL    HW2 6705   0.485   1.495   2.509
 1936SOL     OW 6706   0.548   6.132   5.116
 1936SOL    HW1 6707   0.502   6.049   5.084
 1936SOL    HW2 6708   0.628   6.108   5.169
 1937SOL     OW 6709   5.095   2.031   3.419
 1937SOL    HW1 6710   5.100   1.967   3.342
 1937SOL    HW2 6711   5.080   2.124   3.385
 1938SOL     OW 6712   4.540   0.489   3.608
 1938SOL    HW1 6713   4.469   0.453   3.669
 1938SOL    HW2 6714   4.498   0.529   3.527
 1939SOL     OW 6715   2.582   0.952   4.121
 1939SOL    HW1 6716   2.507   1.013   4.148
 1939SOL    HW2 6717   2.615   0.903   4.202
 1940SOL     OW 6718   6.446   1.046   6.515
 1940SOL    HW1 6719   6.540   1.024   6.489
 1940SOL    HW2 6720   6.422   0.995   6.598
 1941SOL     OW 6721   4.456   4.899   2.504
 1941SOL    HW1 6722   4.498   4.904   2.595
 1941SOL    HW2 6723   4.516   4.848   2.443
 1942SOL     OW 6724   0.244   3.496   2.505
 1942SOL    HW1 6725   0.328   3.483   2.453
 1942SOL    HW2 6726   0.185   3.416   2.493
 1943SOL     OW 6727   3.887   5.239   3.795
 1943SOL    HW1 6728   3.980   5.204   3.792
 1943SOL    HW2 6729   3.874   5.294   3.878
 1944SOL     OW 6730   6.341   6.525   2.152
 1944SOL    HW1 6731   6.320   6.475   2.235
 1944SOL    HW2 6732   6.439   6.516   2.131
 1945SOL     OW 6733   3.493   5.452   2.513
 1945SOL    HW1 6734   3.488   5.395   2.431
 1945SOL    HW2 6735   3.554   5.408   2.580
 1946SOL     OW 6736   1.386   6.825   6.489
 1946SOL    HW1 6737   1.329   6.807   6.409
 1946SOL    HW2 6738   1.441   6.907   6.474
 1947SOL     OW 6739   4.441   1.004   3.893
 1947SOL    HW1 6740   4.517   0.943   3.912
 1947SOL    HW2 6741   4.476   1.094   3.866
 1948SOL     OW 6742   6.642   2.889   5.177
 1948SOL    HW1 6743   6.581   2.818   5.144
 1948SOL    HW2 6744   6.723   2.847   5.217
 1949SOL     OW 6745   4.447   3.684   6.992
 1949SOL    HW1 6746   4.541   3.717   7.005
 1949SOL    HW2 6747   4.383   3.756   7.017
 1950SOL     OW 6748   2.496   4.561   0.652
 1950SOL    HW1 6749   2.478   4.569   0.750
 1950SOL    HW2 6750   2.591   4.533   0.638
 1951SOL     OW 6751   5.666   2.758   6.493
 1951SOL    HW1 6752   5.673   2.727   6.398
 1951SOL    HW2 6753   5.575   2.733   6.528
 1952SOL     OW 6754   2.999   3.223   3.150
 1952SOL    HW1 6755   3.053   3.147   3.185
 1952SOL    HW2 6756   2.972   3.282   3.227
 1953SOL     OW 6757   1.351   1.842   4.220
 1953SOL    HW1 6758   1.394   1.858   4.309
 1953SOL    HW2 6759   1.379   1.753   4.184
 1954SOL     OW 6760   2.510   2.057   3.954
 1954SOL    HW1 6761   2.569   2.130   3.919
 1954SOL    HW2 6762   2.440   2.035   3.886
 1955SOL     OW 6763   6.603   5.368   2.861
 1955SOL    HW1 6764   6.633   5.277   2.891
 1955SOL    HW2 6765   6.573   5.421   2.940
 1956SOL     OW 6766   4.141   6.254   3.843
 1956SOL    HW1 6767   4.171   6.325   3.778
 1956SOL    HW2 6768   4.212   6.241   3.913
 1957SOL     OW 6769   2.390   6.500   5.899
 1957SOL    HW1 6770   2.425   6.459   5.984
 1957SOL    HW2 6771   2.350   6.428   5.842
 1958SOL     OW 6772   4.075   3.565   6.055
 1958SOL    HW1 6773   4.076   3.590   5.958
 1958SOL    HW2 6774   4.070   3.466   6.064
 1959SOL     OW 6775   3.440   0.453   0.977
 1959SOL    HW1 6776   3.453   0.432   1.073
 1959SOL    HW2 6777   3.412   0.371   0.928
 1960SOL     OW 6778   4.730   6.046   3.059
 1960SOL    HW1 6779   4.693   6.103   2.986
 1960SOL    HW2 6780   4.731   5.950   3.029
 1961SOL     OW 6781   5.983   5.187   5.719
 1961SOL    HW1 6782   5.888   5.214   5.708
 1961SOL    HW2 6783   6.018   5.151   5.633
 1962SOL     OW 6784   0.351   6.769   4.505
 1962SOL    HW1 6785   0.400   6.839   4.557
 1962SOL    HW2 6786   0.332   6.802   4.413
 1963SOL     OW 6787   2.886   1.954   3.757
 1963SOL    HW1 6788   2.870   1.994   3.667
 1963SOL    HW2 6789   2.821   1.879   3.773
 1964SOL     OW 6790   6.364   2.429   2.821
 1964SOL    HW1 6791   6.302   2.488   2.871
 1964SOL    HW2 6792   6.348   2.439   2.723
 1965SOL     OW 6793   2.012   6.261   3.577
 1965SOL    HW1 6794   2.001   6.162   3.568
 1965SOL    HW2 6795   1.931   6.307   3.539
 1966SOL     OW 6796   6.937   6.086   0.132
 1966SOL    HW1 6797   6.842   6.073   0.159
 1966SOL    HW2 6798   6.997   6.068   0.210
 1967SOL     OW 6799   6.909   2.313   5.120
 1967SOL    HW1 6800   6.948   2.247   5.056
 1967SOL    HW2 6801   6.914   2.405   5.081
 1968SOL     OW 6802   4.626   5.378   4.901
 1968SOL    HW1 6803   4.692   5.453   4.911
 1968SOL    HW2 6804   4.576   5.366   4.987
 1969SOL     OW 6805   6.202   1.176   1.130
 1969SOL    HW1 6806   6.178   1.120   1.210
 1969SOL    HW2 6807   6.281   1.232   1.152
 1970SOL     OW 6808   2.289   1.226   4.529
 1970SOL    HW1 6809   2.215   1.205   4.464
 1970SOL    HW2 6810   2.351   1.293   4.488
 1971SOL     OW 6811   6.779   1.249   5.867
 1971SOL    HW1 6812   6.837   1.168   5.857
 1971SOL    HW2 6813   6.810   1.321   5.805
 1972SOL     OW 6814   1.179   6.282   3.825
 1972SOL    HW1 6815   1.208   6.248   3.736
 1972SOL    HW2 6816   1.257   6.281   3.888
 1973SOL     OW 6817   3.533   3.016   0.078
 1973SOL    HW1 6818   3.498   2.932   0.035
 1973SOL    HW2 6819   3.459   3.082   0.087
 1974SOL     OW 6820   6.081   6.393   4.438
 1974SOL    HW1 6821   5.999   6.429   4.392
 1974SOL    HW2 6822   6.091   6.295   4.417
 1975SOL     OW 6823   2.697   6.923   3.530
 1975SOL    HW1 6824   2.645   6.903   3.446
 1975SOL    HW2 6825   2.771   6.986   3.509
 1976SOL     OW 6826   6.362   4.165   6.324
 1976SOL    HW1 6827   6.351   4.081   6.376
 1976SOL    HW2 6828   6.343   4.244   6.382
 1977SOL     OW 6829   2.920   2.287   5.273
 1977SOL    HW1 6830   3.016   2.303   5.251
 1977SOL    HW2 6831   2.890   2.201   5.234
 1978SOL     OW 6832   6.880   2.177   5.334
 1978SOL    HW1 6833   6.888   2.250   5.267
 1978SOL    HW2 6834   6.790   2.181   5.378
 1979SOL     OW 6835   6.643   4.501   2.065
 1979SOL    HW1 6836   6.631   4.581   2.124
 1979SOL    HW2 6837   6.735   4.464   2.077
 1980SOL     OW 6838   2.510   0.557   2.670
 1980SOL    HW1 6839   2.475   0.616   2.743
 1980SOL    HW2 6840   2.436   0.538   2.605
 1981SOL     OW 6841   5.682   3.292   2.951
 1981SOL    HW1 6842   5.781   3.294   2.967
 1981SOL    HW2 6843   5.634   3.302   3.038
 1982SOL     OW 6844   0.432   0.169   4.923
 1982SOL    HW1 6845   0.512   0.219   4.890
 1982SOL    HW2 6846   0.458   0.116   5.004
 1983SOL     OW 6847   1.161   5.365   1.627
 1983SOL    HW1 6848   1.261   5.367   1.621
 1983SOL    HW2 6849   1.127   5.458   1.644
 1984SOL     OW 6850   4.028   0.331   5.766
 1984SOL    HW1 6851   4.000   0.410   5.710
 1984SOL    HW2 6852   3.981   0.249   5.733
 1985SOL     OW 6853   1.261   4.947   2.073
 1985SOL    HW1 6854   1.225   4.976   2.162
 1985SOL    HW2 6855   1.206   4.987   2.000
 1986SOL     OW 6856   5.456   2.184   1.523
 1986SOL    HW1 6857   5.526   2.155   1.588
 1986SOL    HW2 6858   5.370   2.199   1.571
 1987SOL     OW 6859   1.915   2.918   0.626
 1987SOL    HW1 6860   1.815   2.918   0.624
 1987SOL    HW2 6861   1.947   2.953   0.714
 1988SOL     OW 6862   5.258   2.644   1.196
 1988SOL    HW1 6863   5.189   2.674   1.261
 1988SOL    HW2 6864   5.313   2.571   1.236
 1989SOL     OW 6865   2.629   2.422   3.121
 1989SOL    HW1 6866   2.720   2.390   3.095
 1989SOL    HW2 6867   2.625   2.434   3.220
 1990SOL     OW 6868   1.549   6.619   2.994
 1990SOL    HW1 6869   1.536   6.699   2.935
 1990SOL    HW2 6870   1.463   6.596   3.039
 1991SOL     OW 6871   5.075   5.711   2.559
 1991SOL    HW1 6872   5.009   5.773   2.516
 1991SOL    HW2 6873   5.139   5.677   2.489
 1992SOL     OW 6874   2.495   5.871   4.957
 1992SOL    HW1 6875   2.560   5.946   4.970
 1992SOL    HW2 6876   2.531   5.787   4.997
 1993SOL     OW 6877   3.210   3.750   4.346
 1993SOL    HW1 6878   3.172   3.738   4.254
 1993SOL    HW2 6879   3.310   3.742   4.342
 1994SOL     OW 6880   6.307   2.182   1.287
 1994SOL    HW1 6881   6.336   2.265   1.335
 1994SOL    HW2 6882   6.362   2.171   1.204
 1995SOL     OW 6883   3.810   2.903   1.507
 1995SOL    HW1 6884   3.815   2.825   1.444
 1995SOL    HW2 6885   3.897   2.952   1.506
 1996SOL     OW 6886   2.091   6.034   6.040
 1996SOL    HW1 6887   2.180   5.991   6.054
 1996SOL    HW2 6888   2.028   5.969   5.997
 1997SOL     OW 6889   5.845   6.474   5.030
 1997SOL    HW1 6890   5.823   6.565   5.066
 1997SOL    HW2 6891   5.939   6.451   5.054
 1998SOL     OW 6892   3.559   5.027   4.882
 1998SOL    HW1 6893   3.484   5.026   4.948
 1998SOL    HW2 6894   3.645   5.006   4.930
 1999SOL     OW 6895   3.433   0.768   1.933
 1999SOL    HW1 6896   3.361   0.837   1.922
 1999SOL    HW2 6897   3.404   0.701   2.002
 2000SOL     OW 6898   3.109   1.069   6.508
 2000SOL    HW1 6899   3.047   0.993   6.491
 2000SOL    HW2 6900   3.091   1.109   6.598
 2001SOL     OW 6901   2.362   3.186   6.841
 2001SOL    HW1 6902   2.329   3.144   6.757
 2001SOL    HW2 6903   2.299   3.258   6.870
 2002SOL     OW 6904   2.400   5.043   5.058
 2002SOL    HW1 6905   2.371   5.122   5.113
 2002SOL    HW2 6906   2.476   4.997   5.104
 2003SOL     OW 6907   5.961   4.257   3.997
 2003SOL    HW1 6908   5.918   4.233   4.084
 2003SOL    HW2 6909   6.060   4.254   4.008
 2004SOL     OW 6910   3.131   0.214   6.514
 2004SOL    HW1 6911   3.133   0.115   6.501
 2004SOL    HW2 6912   3.053   0.253   6.464
 2005SOL     OW 6913   2.480   0.031   5.630
 2005SOL    HW1 6914   2.523   0.041   5.541
 2005SOL    HW2 6915   2.501   0.111   5.687
 2006SOL     OW 6916   4.593   0.250   2.153
 2006SOL    HW1 6917   4.515   0.278   2.096
 2006SOL    HW2 6918   4.672   0.307   2.130
 2007SOL     OW 6919   6.352   5.732   0.526
 2007SOL    HW1 6920   6.265   5.709   0.482
 2007SOL    HW2 6921   6.343   5.724   0.625
 2008SOL     OW 6922   0.157   5.880   5.647
 2008SOL    HW1 6923   0.119   5.881   5.555
 2008SOL    HW2 6924   0.083   5.879   5.714
 2009SOL     OW 6925   1.027   0.051   0.321
 2009SOL    HW1 6926   0.979   0.137   0.306
 2009SOL    HW2 6927   1.060   0.047   0.415
 2010SOL     OW 6928   2.867   0.902   0.618
 2010SOL    HW1 6929   2.826   0.848   0.692
 2010SOL    HW2 6930   2.965   0.910   0.634
 2011SOL     OW 6931   0.208   1.901   4.863
 2011SOL    HW1 6932   0.188   1.978   4.924
 2011SOL    HW2 6933   0.184   1.815   4.908
 2012SOL     OW 6934   0.172   3.341   2.062
 2012SOL    HW1 6935   0.097   3.289   2.021
 2012SOL    HW2 6936   0.137   3.401   2.133
 2013SOL     OW 6937   3.353   2.217   1.867
 2013SOL    HW1 6938   3.359   2.145   1.936
 2013SOL    HW2 6939   3.445   2.248   1.844
 2014SOL     OW 6940   3.967   4.972   3.589
 2014SOL    HW1 6941   4.042   4.936   3.532
 2014SOL    HW2 6942   4.005   5.034   3.657
 2015SOL     OW 6943   2.652   5.401   6.881
 2015SOL    HW1 6944   2.680   5.367   6.792
 2015SOL    HW2 6945   2.715   5.473   6.911
 2016SOL     OW 6946   6.816   5.646   4.811
 2016SOL    HW1 6947   6.781   5.566   4.859
 2016SOL    HW2 6948   6.744   5.715   4.805
 2017SOL     OW 6949   2.230   4.728   2.001
 2017SOL    HW1 6950   2.305   4.691   2.056
 2017SOL    HW2 6951   2.266   4.767   1.917
 2018SOL     OW 6952   0.196   4.679   4.615
 2018SOL    HW1 6953   0.216   4.585   4.642
 2018SOL    HW2 6954   0.147   4.679   4.528
 2019SOL     OW 6955   5.526   0.881   2.750
 2019SOL    HW1 6956   5.461   0.891   2.826
 2019SOL    HW2 6957   5.483   0.910   2.665
 2020SOL     OW 6958   2.054   5.066   3.208
 2020SOL    HW1 6959   2.033   4.970   3.188
 2020SOL    HW2 6960   2.056   5.118   3.123
 2021SOL     OW 6961   1.502   6.299   1.682
 2021SOL    HW1 6962   1.486   6.270   1.587
 2021SOL    HW2 6963   1.600   6.311   1.697
 2022SOL     OW 6964   4.033   5.256   1.540
 2022SOL    HW1 6965   3.975   5.206   1.604
 2022SOL    HW2 6966   4.127   5.257   1.573
 2023SOL     OW 6967   0.507   2.570   6.093
 2023SOL    HW1 6968   0.464   2.616   6.016
 2023SOL    HW2 6969   0.447   2.498   6.128
 2024SOL     OW 6970   5.460   6.508   3.689
 2024SOL    HW1 6971   5.496   6.512   3.596
 2024SOL    HW2 6972   5.446   6.601   3.723
 2025SOL     OW 6973   6.401   0.921   0.853
 2025SOL    HW1 6974   6.479   0.899   0.911
 2025SOL    HW2 6975   6.369   1.013   0.874
 2026SOL     OW 6976   2.337   2.018   5.059
 2026SOL    HW1 6977   2.261   2.061   5.010
 2026SOL    HW2 6978   2.388   2.089   5.108
 2027SOL     OW 6979   6.345   6.809   2.211
 2027SOL    HW1 6980   6.434   6.853   2.220
 2027SOL    HW2 6981   6.356   6.718   2.173
 2028SOL     OW 6982   3.688   4.054   5.592
 2028SOL    HW1 6983   3.731   4.078   5.505
 2028SOL    HW2 6984   3.728   3.969   5.627
 2029SOL     OW 6985   2.231   0.189   6.699
 2029SOL    HW1 6986   2.263   0.181   6.604
 2029SOL    HW2 6987   2.292   0.138   6.759
 2030SOL     OW 6988   2.113   2.546   2.986
 2030SOL    HW1 6989   2.077   2.630   3.028
 2030SOL    HW2 6990   2.213   2.553   2.979
 2031SOL     OW 6991   6.195   0.047   2.663
 2031SOL    HW1 6992   6.106   0.005   2.677
 2031SOL    HW2 6993   6.220   0.041   2.566
 2032SOL     OW 6994   4.376   6.455   2.445
 2032SOL    HW1 6995   4.295   6.416   2.402
 2032SOL    HW2 6996   4.362   6.553   2.459
 2033SOL     OW 6997   0.253   4.950   0.077
 2033SOL    HW1 6998   0.167   4.923   0.119
 2033SOL    HW2 6999   0.305   5.006   0.142
 2034SOL     OW 7000   2.157   5.338   3.727
 2034SOL    HW1 7001   2.075   5.304   3.774
 2034SOL    HW2 7002   2.226   5.266   3.727
 2035SOL     OW 7003   0.684   0.378   2.478
 2035SOL    HW1 7004   0.764   0.401   2.535
 2035SOL    HW2 7005   0.686   0.434   2.395
 2036SOL     OW 7006   0.960   4.746   2.121
 2036SOL    HW1 7007   0.934   4.776   2.213
 2036SOL    HW2 7008   1.028   4.809   2.084
 2037SOL     OW 7009   0.966   3.071   5.970
 2037SOL    HW1 7010   0.900   3.031   5.906
 2037SOL    HW2 7011   0.918   3.119   6.043
 2038SOL     OW 7012   1.663   6.537   4.765
 2038SOL    HW1 7013   1.758   6.547   4.793
 2038SOL    HW2 7014   1.644   6.600   4.690
 2039SOL     OW 7015   1.092   5.165   1.904
 2039SOL    HW1 7016   1.129   5.192   1.815
 2039SOL    HW2 7017   1.121   5.231   1.973
 2040SOL     OW 7018   3.966   3.128   4.619
 2040SOL    HW1 7019   3.997   3.214   4.578
 2040SOL    HW2 7020   4.004   3.120   4.711
 2041SOL     OW 7021   5.353   2.988   0.108
 2041SOL    HW1 7022   5.371   2.941   0.194
 2041SOL    HW2 7023   5.280   3.055   0.122
 2042SOL     OW 7024   4.061   6.770   0.560
 2042SOL    HW1 7025   4.009   6.819   0.490
 2042SOL    HW2 7026   4.149   6.816   0.575
 2043SOL     OW 7027   5.013   5.336   2.874
 2043SOL    HW1 7028   5.063   5.316   2.789
 2043SOL    HW2 7029   5.023   5.260   2.938
 2044SOL     OW 7030   6.024   1.330   1.973
 2044SOL    HW1 7031   5.956   1.268   1.935
 2044SOL    HW2 7032   6.081   1.367   1.899
 2045SOL     OW 7033   3.346   6.459   5.447
 2045SOL    HW1 7034   3.391   6.374   5.419
 2045SOL    HW2 7035   3.322   6.454   5.544
 2046SOL     OW 7036   6.610   0.895   4.830
 2046SOL    HW1 7037   6.650   0.982   4.799
 2046SOL    HW2 7038   6.684   0.834   4.859
 2047SOL     OW 7039   5.305   3.359   7.001
 2047SOL    HW1 7040   5.304   3.418   0.059
 2047SOL    HW2 7041   5.237   3.286   7.011
 2048SOL     OW 7042   4.706   5.775   5.805
 2048SOL    HW1 7043   4.747   5.753   5.893
 2048SOL    HW2 7044   4.644   5.701   5.777
 2049SOL     OW 7045   5.565   5.965   0.224
 2049SOL    HW1 7046   5.610   5.887   0.180
 2049SOL    HW2 7047   5.470   5.969   0.193
 2050SOL     OW 7048   5.511   1.239   4.475
 2050SOL    HW1 7049   5.500   1.219   4.378
 2050SOL    HW2 7050   5.432   1.292   4.507
 2051SOL     OW 7051   3.337   6.168   0.838
 2051SOL    HW1 7052   3.322   6.188   0.935
 2051SOL    HW2 7053   3.276   6.224   0.783
 2052SOL     OW 7054   1.284   2.213   1.186
 2052SOL    HW1 7055   1.263   2.115   1.184
 2052SOL    HW2 7056   1.377   2.226   1.221
 2053SOL     OW 7057   5.290   0.230   6.910
 2053SOL    HW1 7058   5.228   0.204   6.835
 2053SOL    HW2 7059   5.332   0.318   6.889
 2054SOL     OW 7060   0.696   3.053   0.642
 2054SOL    HW1 7061   0.621   3.028   0.703
 2054SOL    HW2 7062   0.757   3.117   0.690
 2055SOL     OW 7063   6.373   1.079   4.577
 2055SOL    HW1 7064   6.285   1.119   4.605
 2055SOL    HW2 7065   6.419   1.141   4.514
 2056SOL     OW 7066   6.762   6.553   2.427
 2056SOL    HW1 7067   6.806   6.615   2.362
 2056SOL    HW2 7068   6.803   6.462   2.419
 2057SOL     OW 7069   4.853   3.201   3.509
 2057SOL    HW1 7070   4.819   3.119   3.462
 2057SOL    HW2 7071   4.843   3.189   3.608
 2058SOL     OW 7072   1.503   0.886   1.964
 2058SOL    HW1 7073   1.443   0.811   1.938
 2058SOL    HW2 7074   1.568   0.905   1.890
 2059SOL     OW 7075   1.561   0.210   0.353
 2059SOL    HW1 7076   1.531   0.115   0.343
 2059SOL    HW2 7077   1.552   0.257   0.265
 2060SOL     OW 7078   0.584   4.661   3.296
 2060SOL    HW1 7079   0.487   4.640   3.285
 2060SOL    HW2 7080   0.639   4.588   3.254
 2061SOL     OW 7081   1.170   0.949   0.449
 2061SOL    HW1 7082   1.141   1.015   0.379
 2061SOL    HW2 7083   1.123   0.862   0.434
 2062SOL     OW 7084   3.487   0.145   3.382
 2062SOL    HW1 7085   3.471   0.079   3.309
 2062SOL    HW2 7086   3.457   0.236   3.352
 2063SOL     OW 7087   2.381   3.232   0.962
 2063SOL    HW1 7088   2.343   3.279   0.882
 2063SOL    HW2 7089   2.360   3.284   1.044
 2064SOL     OW 7090   0.808   2.130   1.241
 2064SOL    HW1 7091   0.903   2.160   1.241
 2064SOL    HW2 7092   0.797   2.055   1.176
 2065SOL     OW 7093   6.658   2.988   3.020
 2065SOL    HW1 7094   6.708   3.068   2.986
 2065SOL    HW2 7095   6.687   2.907   2.969
 2066SOL     OW 7096   0.759   5.430   3.249
 2066SOL    HW1 7097   0.824   5.421   3.173
 2066SOL    HW2 7098   0.809   5.445   3.334
 2067SOL     OW 7099   6.610   0.651   0.760
 2067SOL    HW1 7100   6.684   0.586   0.740
 2067SOL    HW2 7101   6.617   0.680   0.856
 2068SOL     OW 7102   2.620   2.118   5.244
 2068SOL    HW1 7103   2.676   2.036   5.231
 2068SOL    HW2 7104   2.631   2.179   5.165
 2069SOL     OW 7105   1.951   1.777   1.610
 2069SOL    HW1 7106   1.870   1.799   1.555
 2069SOL    HW2 7107   1.924   1.717   1.685
 2070SOL     OW 7108   1.016   2.109   2.596
 2070SOL    HW1 7109   0.944   2.084   2.662
 2070SOL    HW2 7110   1.024   2.209   2.593
 2071SOL     OW 7111   2.755   6.242   5.873
 2071SOL    HW1 7112   2.792   6.290   5.793
 2071SOL    HW2 7113   2.668   6.283   5.900
 2072SOL     OW 7114   5.699   4.335   2.990
 2072SOL    HW1 7115   5.621   4.294   3.037
 2072SOL    HW2 7116   5.755   4.385   3.055
 2073SOL     OW 7117   3.517   0.037   4.950
 2073SOL    HW1 7118   3.456   0.115   4.962
 2073SOL    HW2 7119   3.469   6.986   4.902
 2074SOL     OW 7120   4.413   2.084   3.379
 2074SOL    HW1 7121   4.401   2.001   3.325
 2074SOL    HW2 7122   4.409   2.062   3.477
 2075SOL     OW 7123   3.550   2.696   5.742
 2075SOL    HW1 7124   3.616   2.760   5.780
 2075SOL    HW2 7125   3.553   2.700   5.643
 2076SOL     OW 7126   4.956   6.338   0.122
 2076SOL    HW1 7127   4.904   6.254   0.135
 2076SOL    HW2 7128   5.037   6.336   0.180
 2077SOL     OW 7129   3.860   1.293   4.987
 2077SOL    HW1 7130   3.795   1.322   5.057
 2077SOL    HW2 7131   3.865   1.363   4.915
 2078SOL     OW 7132   4.213   6.280   4.363
 2078SOL    HW1 7133   4.185   6.219   4.289
 2078SOL    HW2 7134   4.187   6.240   4.451
 2079SOL     OW 7135   5.325   6.990   3.464
 2079SOL    HW1 7136   5.349   0.018   3.381
 2079SOL    HW2 7137   5.409   6.967   3.514
 2080SOL     OW 7138   3.161   1.466   2.690
 2080SOL    HW1 7139   3.167   1.483   2.591
 2080SOL    HW2 7140   3.069   1.488   2.722
 2081SOL     OW 7141   1.386   5.515   2.851
 2081SOL    HW1 7142   1.297   5.543   2.814
 2081SOL    HW2 7143   1.439   5.595   2.876
 2082SOL     OW 7144   4.823   1.176   3.048
 2082SOL    HW1 7145   4.798   1.226   3.131
 2082SOL    HW2 7146   4.802   1.079   3.059
 2083SOL     OW 7147   3.308   3.774   6.098
 2083SOL    HW1 7148   3.248   3.695   6.110
 2083SOL    HW2 7149   3.352   3.769   6.009
 2084SOL     OW 7150   0.234   2.207   3.399
 2084SOL    HW1 7151   0.294   2.215   3.479
 2084SOL    HW2 7152   0.254   2.122   3.350
 2085SOL     OW 7153   5.881   6.803   0.642
 2085SOL    HW1 7154   5.971   6.770   0.673
 2085SOL    HW2 7155   5.888   6.835   0.548
 2086SOL     OW 7156   3.343   6.257   7.007
 2086SOL    HW1 7157   3.375   6.314   6.931
 2086SOL    HW2 7158   3.245   6.270   7.020
 2087SOL     OW 7159   6.282   5.605   2.557
 2087SOL    HW1 7160   6.257   5.532   2.494
 2087SOL    HW2 7161   6.288   5.569   2.650
 2088SOL     OW 7162   2.283   6.233   0.994
 2088SOL    HW1 7163   2.243   6.217   0.904
 2088SOL    HW2 7164   2.214   6.269   1.056
 2089SOL     OW 7165   2.172   1.077   6.873
 2089SOL    HW1 7166   2.169   1.174   6.850
 2089SOL    HW2 7167   2.266   1.044   6.867
 2090SOL     OW 7168   2.952   3.666   3.489
 2090SOL    HW1 7169   2.948   3.730   3.412
 2090SOL    HW2 7170   2.960   3.718   3.575
 2091SOL     OW 7171   2.433   4.021   1.264
 2091SOL    HW1 7172   2.434   4.012   1.165
 2091SOL    HW2 7173   2.512   4.075   1.294
 2092SOL     OW 7174   5.929   6.954   0.417
 2092SOL    HW1 7175   5.987   0.012   0.403
 2092SOL    HW2 7176   5.867   6.945   0.339
 2093SOL     OW 7177   0.981   1.465   2.135
 2093SOL    HW1 7178   0.906   1.407   2.103
 2093SOL    HW2 7179   0.946   1.556   2.158
 2094SOL     OW 7180   0.047   1.013   2.237
 2094SOL    HW1 7181   0.045   0.927   2.288
 2094SOL    HW2 7182   0.051   1.090   2.301
 2095SOL     OW 7183   6.945   4.451   4.845
 2095SOL    HW1 7184   6.941   4.531   4.786
 2095SOL    HW2 7185   6.896   4.470   4.930
 2096SOL     OW 7186   5.027   4.566   3.687
 2096SOL    HW1 7187   5.083   4.493   3.726
 2096SOL    HW2 7188   5.049   4.652   3.732
 2097SOL     OW 7189   6.902   3.246   5.256
 2097SOL    HW1 7190   6.989   3.200   5.239
 2097SOL    HW2 7191   6.833   3.179   5.284
 2098SOL     OW 7192   4.865   0.561   4.733
 2098SOL    HW1 7193   4.956   0.593   4.706
 2098SOL    HW2 7194   4.864   0.545   4.832
 2099SOL     OW 7195   3.156   1.751   3.905
 2099SOL    HW1 7196   3.157   1.828   3.969
 2099SOL    HW2 7197   3.216   1.771   3.828
 2100SOL     OW 7198   4.436   4.490   5.759
 2100SOL    HW1 7199   4.457   4.398   5.792
 2100SOL    HW2 7200   4.423   4.488   5.660
 2101SOL     OW 7201   5.437   0.136   1.611
 2101SOL    HW1 7202   5.434   0.126   1.512
 2101SOL    HW2 7203   5.531   0.158   1.640
 2102SOL     OW 7204   6.903   5.303   0.834
 2102SOL    HW1 7205   6.820   5.303   0.891
 2102SOL    HW2 7206   6.893   5.235   0.761
 2103SOL     OW 7207   3.829   3.633   6.669
 2103SOL    HW1 7208   3.924   3.661   6.675
 2103SOL    HW2 7209   3.812   3.593   6.579
 2104SOL     OW 7210   0.331   5.204   6.587
 2104SOL    HW1 7211   0.429   5.194   6.603
 2104SOL    HW2 7212   0.287   5.114   6.588
 2105SOL     OW 7213   5.031   5.781   2.057
 2105SOL    HW1 7214   5.066   5.697   2.015
 2105SOL    HW2 7215   5.106   5.844   2.074
 2106SOL     OW 7216   6.177   6.611   6.509
 2106SOL    HW1 7217   6.217   6.573   6.427
 2106SOL    HW2 7218   6.105   6.677   6.484
 2107SOL     OW 7219   2.839   4.998   6.521
 2107SOL    HW1 7220   2.756   4.960   6.481
 2107SOL    HW2 7221   2.832   4.997   6.621
 2108SOL     OW 7222   5.714   4.534   6.679
 2108SOL    HW1 7223   5.654   4.576   6.747
 2108SOL    HW2 7224   5.719   4.436   6.695
 2109SOL     OW 7225   5.280   5.830   2.669
 2109SOL    HW1 7226   5.202   5.774   2.644
 2109SOL    HW2 7227   5.354   5.815   2.603
 2110SOL     OW 7228   1.316   5.394   5.489
 2110SOL    HW1 7229   1.409   5.360   5.493
 2110SOL    HW2 7230   1.270   5.355   5.409
 2111SOL     OW 7231   1.402   1.815   6.685
 2111SOL    HW1 7232   1.488   1.836   6.638
 2111SOL    HW2 7233   1.410   1.728   6.733
 2112SOL     OW 7234   5.100   4.119   0.175
 2112SOL    HW1 7235   5.000   4.127   0.176
 2112SOL    HW2 7236   5.126   4.026   0.204
 2113SOL     OW 7237   6.805   1.131   3.896
 2113SOL    HW1 7238   6.842   1.223   3.881
 2113SOL    HW2 7239   6.838   1.069   3.825
 2114SOL     OW 7240   1.080   3.839   5.849
 2114SOL    HW1 7241   1.057   3.925   5.895
 2114SOL    HW2 7242   1.133   3.859   5.767
 2115SOL     OW 7243   4.175   4.787   1.695
 2115SOL    HW1 7244   4.248   4.760   1.632
 2115SOL    HW2 7245   4.094   4.811   1.642
 2116SOL     OW 7246   0.473   3.576   4.638
 2116SOL    HW1 7247   0.397   3.518   4.666
 2116SOL    HW2 7248   0.493   3.643   4.710
 2117SOL     OW 7249   5.799   5.500   6.398
 2117SOL    HW1 7250   5.815   5.490   6.497
 2117SOL    HW2 7251   5.705   5.475   6.377
 2118SOL     OW 7252   0.277   3.034   2.054
 2118SOL    HW1 7253   0.300   2.989   1.968
 2118SOL    HW2 7254   0.240   3.125   2.035
 2119SOL     OW 7255   4.258   6.657   0.192
 2119SOL    HW1 7256   4.205   6.575   0.212
 2119SOL    HW2 7257   4.350   6.632   0.164
 2120SOL     OW 7258   6.735   3.658   1.902
 2120SOL    HW1 7259   6.830   3.648   1.870
 2120SOL    HW2 7260   6.720   3.753   1.930
 2121SOL     OW 7261   0.732   3.630   4.168
 2121SOL    HW1 7262   0.737   3.715   4.117
 2121SOL    HW2 7263   0.665   3.640   4.243
 2122SOL     OW 7264   3.964   5.289   5.931
 2122SOL    HW1 7265   4.025   5.357   5.890
 2122SOL    HW2 7266   3.885   5.275   5.872
 2123SOL     OW 7267   3.965   6.017   3.224
 2123SOL    HW1 7268   3.943   6.110   3.196
 2123SOL    HW2 7269   3.988   6.016   3.322
 2124SOL     OW 7270   2.574   2.566   1.881
 2124SOL    HW1 7271   2.656   2.562   1.823
 2124SOL    HW2 7272   2.513   2.490   1.858
 2125SOL     OW 7273   5.149   5.964   6.641
 2125SOL    HW1 7274   5.187   6.011   6.720
 2125SOL    HW2 7275   5.222   5.918   6.591
 2126SOL     OW 7276   2.827   1.865   1.160
 2126SOL    HW1 7277   2.751   1.922   1.191
 2126SOL    HW2 7278   2.896   1.859   1.233
 2127SOL     OW 7279   6.191   2.550   4.778
 2127SOL    HW1 7280   6.223   2.544   4.683
 2127SOL    HW2 7281   6.189   2.459   4.818
 2128SOL     OW 7282   1.084   3.781   4.523
 2128SOL    HW1 7283   1.019   3.749   4.454
 2128SOL    HW2 7284   1.177   3.755   4.496
 2129SOL     OW 7285   4.430   2.607   5.159
 2129SOL    HW1 7286   4.404   2.613   5.256
 2129SOL    HW2 7287   4.377   2.536   5.114
 2130SOL     OW 7288   4.165   6.390   2.668
 2130SOL    HW1 7289   4.193   6.303   2.627
 2130SOL    HW2 7290   4.192   6.391   2.764
 2131SOL     OW 7291   4.837   1.946   6.979
 2131SOL    HW1 7292   4.746   1.978   6.952
 2131SOL    HW2 7293   4.889   1.921   6.898
 2132SOL     OW 7294   0.507   2.305   1.047
 2132SOL    HW1 7295   0.520   2.292   0.948
 2132SOL    HW2 7296   0.514   2.402   1.069
 2133SOL     OW 7297   2.497   4.149   6.034
 2133SOL    HW1 7298   2.541   4.061   6.053
 2133SOL    HW2 7299   2.479   4.196   6.121
 2134SOL     OW 7300   0.046   0.171   0.854
 2134SOL    HW1 7301   6.989   0.201   0.906
 2134SOL    HW2 7302   0.090   0.250   0.811
 2135SOL     OW 7303   5.834   5.339   6.156
 2135SOL    HW1 7304   5.776   5.258   6.157
 2135SOL    HW2 7305   5.838   5.379   6.248
 2136SOL     OW 7306   1.610   4.605   6.526
 2136SOL    HW1 7307   1.660   4.560   6.452
 2136SOL    HW2 7308   1.675   4.637   6.595
 2137SOL     OW 7309   2.007   5.992   3.454
 2137SOL    HW1 7310   2.034   5.997   3.358
 2137SOL    HW2 7311   2.067   5.927   3.501
 2138SOL     OW 7312   5.106   2.080   1.669
 2138SOL    HW1 7313   5.032   2.073   1.602
 2138SOL    HW2 7314   5.150   1.991   1.679
 2139SOL     OW 7315   2.346   6.160   4.977
 2139SOL    HW1 7316   2.327   6.161   5.075
 2139SOL    HW2 7317   2.265   6.129   4.928
 2140SOL     OW 7318   2.108   2.739   3.583
 2140SOL    HW1 7319   2.014   2.747   3.550
 2140SOL    HW2 7320   2.159   2.822   3.558
 2141SOL     OW 7321   6.515   3.506   2.775
 2141SOL    HW1 7322   6.585   3.550   2.718
 2141SOL    HW2 7323   6.437   3.568   2.786
 2142SOL     OW 7324   2.263   1.521   1.624
 2142SOL    HW1 7325   2.186   1.480   1.673
 2142SOL    HW2 7326   2.228   1.580   1.551
 2143SOL     OW 7327   6.728   5.572   5.307
 2143SOL    HW1 7328   6.825   5.593   5.319
 2143SOL    HW2 7329   6.675   5.618   5.379
 2144SOL     OW 7330   5.658   4.605   2.915
 2144SOL    HW1 7331   5.727   4.657   2.965
 2144SOL    HW2 7332   5.668   4.508   2.935
 2145SOL     OW 7333   3.208   0.900   3.125
 2145SOL    HW1 7334   3.172   0.900   3.032
 2145SOL    HW2 7335   3.138   0.867   3.188
 2146SOL     OW 7336   2.198   1.344   0.193
 2146SOL    HW1 7337   2.211   1.442   0.178
 2146SOL    HW2 7338   2.277   1.307   0.242
 2147SOL     OW 7339   5.525   6.544   4.758
 2147SOL    HW1 7340   5.530   6.577   4.852
 2147SOL    HW2 7341   5.603   6.484   4.738
 2148SOL     OW 7342   2.214   2.709   5.231
 2148SOL    HW1 7343   2.252   2.730   5.141
 2148SOL    HW2 7344   2.238   2.781   5.296
 2149SOL     OW 7345   0.309   6.808   6.945
 2149SOL    HW1 7346   0.348   6.743   7.010
 2149SOL    HW2 7347   0.233   6.857   6.987
 2150SOL     OW 7348   1.299   2.680   0.345
 2150SOL    HW1 7349   1.304   2.679   0.245
 2150SOL    HW2 7350   1.354   2.606   0.382
 2151SOL     OW 7351   1.191   5.220   0.386
 2151SOL    HW1 7352   1.262   5.239   0.318
 2151SOL    HW2 7353   1.150   5.306   0.416
 2152SOL     OW 7354   5.410   6.232   3.554
 2152SOL    HW1 7355   5.413   6.324   3.593
 2152SOL    HW2 7356   5.495   6.183   3.575
 2153SOL     OW 7357   4.822   0.515   3.542
 2153SOL    HW1 7358   4.749   0.488   3.605
 2153SOL    HW2 7359   4.783   0.563   3.464
 2154SOL     OW 7360   2.018   6.163   1.903
 2154SOL    HW1 7361   2.050   6.086   1.847
 2154SOL    HW2 7362   2.095   6.224   1.921
 2155SOL     OW 7363   5.359   0.819   0.328
 2155SOL    HW1 7364   5.390   0.913   0.319
 2155SOL    HW2 7365   5.355   0.776   0.237
 2156SOL     OW 7366   6.240   1.513   4.405
 2156SOL    HW1 7367   6.234   1.595   4.463
 2156SOL    HW2 7368   6.174   1.445   4.437
 2157SOL     OW 7369   4.503   6.379   3.138
 2157SOL    HW1 7370   4.437   6.453   3.154
 2157SOL    HW2 7371   4.561   6.368   3.219
 2158SOL     OW 7372   3.452   0.543   0.105
 2158SOL    HW1 7373   3.399   0.627   0.112
 2158SOL    HW2 7374   3.392   0.464   0.110
 2159SOL     OW 7375   1.219   2.620   5.703
 2159SOL    HW1 7376   1.188   2.555   5.772
 2159SOL    HW2 7377   1.160   2.702   5.706
 2160SOL     OW 7378   5.910   6.673   6.446
 2160SOL    HW1 7379   5.905   6.674   6.346
 2160SOL    HW2 7380   5.842   6.610   6.483
 2161SOL     OW 7381   1.441   3.696   6.926
 2161SOL    HW1 7382   1.372   3.760   6.961
 2161SOL    HW2 7383   1.457   3.624   6.994
 2162SOL     OW 7384   1.366   6.582   0.211
 2162SOL    HW1 7385   1.278   6.535   0.222
 2162SOL    HW2 7386   1.423   6.566   0.292
 2163SOL     OW 7387   0.968   3.264   4.378
 2163SOL    HW1 7388   0.966   3.353   4.425
 2163SOL    HW2 7389   1.060   3.227   4.380
 2164SOL     OW 7390   1.738   4.395   1.962
 2164SOL    HW1 7391   1.781   4.461   2.023
 2164SOL    HW2 7392   1.785   4.394   1.874
 2165SOL     OW 7393   5.851   1.532   5.877
 2165SOL    HW1 7394   5.900   1.531   5.790
 2165SOL    HW2 7395   5.915   1.555   5.951
 2166SOL     OW 7396   6.393   2.251   2.408
 2166SOL    HW1 7397   6.380   2.174   2.470
 2166SOL    HW2 7398   6.361   2.335   2.452
 2167SOL     OW 7399   1.473   2.529   2.928
 2167SOL    HW1 7400   1.460   2.616   2.976
 2167SOL    HW2 7401   1.546   2.539   2.861
 2168SOL     OW 7402   1.561   1.998   4.100
 2168SOL    HW1 7403   1.515   1.917   4.063
 2168SOL    HW2 7404   1.496   2.051   4.154
 2169SOL     OW 7405   6.846   6.995   0.625
 2169SOL    HW1 7406   6.943   7.000   0.648
 2169SOL    HW2 7407   6.810   6.905   0.649
 2170SOL     OW 7408   1.673   3.144   6.090
 2170SOL    HW1 7409   1.765   3.112   6.065
 2170SOL    HW2 7410   1.656   3.233   6.048
 2171SOL     OW 7411   5.697   6.938   1.641
 2171SOL    HW1 7412   5.706   0.016   1.638
 2171SOL    HW2 7413   5.603   6.913   1.623
 2172SOL     OW 7414   2.527   2.597   4.790
 2172SOL    HW1 7415   2.603   2.556   4.741
 2172SOL    HW2 7416   2.544   2.593   4.889
 2173SOL     OW 7417   4.189   0.956   4.660
 2173SOL    HW1 7418   4.139   1.040   4.637
 2173SOL    HW2 7419   4.260   0.977   4.727
 2174SOL     OW 7420   5.077   6.542   5.779
 2174SOL    HW1 7421   4.980   6.533   5.757
 2174SOL    HW2 7422   5.132   6.510   5.701
 2175SOL     OW 7423   2.942   2.795   6.059
 2175SOL    HW1 7424   2.934   2.703   6.097
 2175SOL    HW2 7425   2.901   2.797   5.967
 2176SOL     OW 7426   6.731   1.065   2.754
 2176SOL    HW1 7427   6.648   1.039   2.804
 2176SOL    HW2 7428   6.714   1.058   2.656
 2177SOL     OW 7429   1.098   0.725   4.732
 2177SOL    HW1 7430   1.087   0.822   4.752
 2177SOL    HW2 7431   1.015   0.690   4.688
 2178SOL     OW 7432   2.153   3.687   2.189
 2178SOL    HW1 7433   2.207   3.609   2.159
 2178SOL    HW2 7434   2.058   3.674   2.161
 2179SOL     OW 7435   1.376   4.228   6.759
 2179SOL    HW1 7436   1.471   4.248   6.734
 2179SOL    HW2 7437   1.347   4.291   6.831
 2180SOL     OW 7438   0.118   4.850   2.108
 2180SOL    HW1 7439   0.152   4.848   2.014
 2180SOL    HW2 7440   0.020   4.828   2.108
 2181SOL     OW 7441   4.427   5.224   2.773
 2181SOL    HW1 7442   4.380   5.258   2.692
 2181SOL    HW2 7443   4.517   5.190   2.748
 2182SOL     OW 7444   0.435   6.789   1.242
 2182SOL    HW1 7445   0.383   6.868   1.273
 2182SOL    HW2 7446   0.388   6.705   1.271
 2183SOL     OW 7447   4.230   2.575   6.483
 2183SOL    HW1 7448   4.246   2.666   6.521
 2183SOL    HW2 7449   4.210   2.511   6.557
 2184SOL     OW 7450   6.485   2.835   6.916
 2184SOL    HW1 7451   6.520   2.926   6.895
 2184SOL    HW2 7452   6.560   2.776   6.947
 2185SOL     OW 7453   0.032   1.848   6.522
 2185SOL    HW1 7454   0.016   1.885   6.614
 2185SOL    HW2 7455   0.007   1.916   6.453
 2186SOL     OW 7456   6.809   6.229   5.917
 2186SOL    HW1 7457   6.801   6.136   5.954
 2186SOL    HW2 7458   6.898   6.267   5.943
 2187SOL     OW 7459   5.747   3.465   1.569
 2187SOL    HW1 7460   5.700   3.389   1.524
 2187SOL    HW2 7461   5.750   3.450   1.667
 2188SOL     OW 7462   2.878   2.126   0.721
 2188SOL    HW1 7463   2.813   2.055   0.693
 2188SOL    HW2 7464   2.882   2.130   0.820
 2189SOL     OW 7465   2.327   0.399   2.469
 2189SOL    HW1 7466   2.278   0.316   2.498
 2189SOL    HW2 7467   2.415   0.373   2.429
 2190SOL     OW 7468   6.761   4.691   1.367
 2190SOL    HW1 7469   6.697   4.654   1.434
 2190SOL    HW2 7470   6.768   4.628   1.289
 2191SOL     OW 7471   3.247   0.679   6.270
 2191SOL    HW1 7472   3.148   0.670   6.262
 2191SOL    HW2 7473   3.288   0.590   6.287
 2192SOL     OW 7474   5.219   1.629   1.951
 2192SOL    HW1 7475   5.319   1.632   1.941
 2192SOL    HW2 7476   5.192   1.682   2.031
 2193SOL     OW 7477   1.718   0.381   5.818
 2193SOL    HW1 7478   1.661   0.402   5.738
 2193SOL    HW2 7479   1.813   0.369   5.789
 2194SOL     OW 7480   0.516   4.594   5.658
 2194SOL    HW1 7481   0.556   4.504   5.636
 2194SOL    HW2 7482   0.572   4.638   5.728
 2195SOL     OW 7483   0.454   4.267   5.282
 2195SOL    HW1 7484   0.530   4.278   5.218
 2195SOL    HW2 7485   0.489   4.252   5.374
 2196SOL     OW 7486   3.660   1.613   6.736
 2196SOL    HW1 7487   3.678   1.707   6.707
 2196SOL    HW2 7488   3.601   1.568   6.669
 2197SOL     OW 7489   3.852   4.924   6.755
 2197SOL    HW1 7490   3.896   4.837   6.735
 2197SOL    HW2 7491   3.773   4.908   6.814
 2198SOL     OW 7492   1.135   1.183   5.987
 2198SOL    HW1 7493   1.119   1.123   5.909
 2198SOL    HW2 7494   1.134   1.128   6.071
 2199SOL     OW 7495   4.861   6.619   3.537
 2199SOL    HW1 7496   4.938   6.573   3.493
 2199SOL    HW2 7497   4.884   6.716   3.551
 2200SOL     OW 7498   2.760   1.900   5.239
 2200SOL    HW1 7499   2.808   1.878   5.324
 2200SOL    HW2 7500   2.793   1.841   5.166
 2201SOL     OW 7501   6.060   3.050   4.207
 2201SOL    HW1 7502   6.083   2.953   4.197
 2201SOL    HW2 7503   6.057   3.094   4.118
 2202SOL     OW 7504   4.921   6.901   4.438
 2202SOL    HW1 7505   5.018   6.882   4.422
 2202SOL    HW2 7506   4.867   6.820   4.412
 2203SOL     OW 7507   2.150   6.199   0.764
 2203SOL    HW1 7508   2.118   6.110   0.732
 2203SOL    HW2 7509   2.091   6.271   0.729
 2204SOL     OW 7510   4.776   3.738   0.231
 2204SOL    HW1 7511   4.800   3.801   0.305
 2204SOL    HW2 7512   4.754   3.648   0.270
 2205SOL     OW 7513   4.895   4.983   1.205
 2205SOL    HW1 7514   4.920   5.068   1.159
 2205SOL    HW2 7515   4.815   4.943   1.160
 2206SOL     OW 7516   2.862   3.622   5.003
 2206SOL    HW1 7517   2.908   3.593   4.919
 2206SOL    HW2 7518   2.850   3.721   5.002
 2207SOL     OW 7519   4.653   4.746   1.422
 2207SOL    HW1 7520   4.712   4.816   1.461
 2207SOL    HW2 7521   4.686   4.720   1.331
 2208SOL     OW 7522   6.659   5.828   3.235
 2208SOL    HW1 7523   6.730   5.843   3.166
 2208SOL    HW2 7524   6.571   5.858   3.198
 2209SOL     OW 7525   2.113   5.932   3.921
 2209SOL    HW1 7526   2.045   5.933   3.848
 2209SOL    HW2 7527   2.073   5.894   4.004
 2210SOL     OW 7528   5.326   6.485   1.928
 2210SOL    HW1 7529   5.328   6.392   1.891
 2210SOL    HW2 7530   5.389   6.492   2.006
 2211SOL     OW 7531   1.951   1.025   0.943
 2211SOL    HW1 7532   2.004   1.100   0.983
 2211SOL    HW2 7533   2.012   0.965   0.892
 2212SOL     OW 7534   2.716   6.519   6.072
 2212SOL    HW1 7535   2.652   6.443   6.063
 2212SOL    HW2 7536   2.689   6.593   6.010
 2213SOL     OW 7537   3.524   2.057   4.098
 2213SOL    HW1 7538   3.554   2.067   4.193
 2213SOL    HW2 7539   3.435   2.102   4.087
 2214SOL     OW 7540   3.769   4.910   0.158
 2214SOL    HW1 7541   3.864   4.891   0.183
 2214SOL    HW2 7542   3.739   4.994   0.204
 2215SOL     OW 7543   0.223   5.312   0.337
 2215SOL    HW1 7544   0.301   5.360   0.299
 2215SOL    HW2 7545   0.253   5.259   0.417
 2216SOL     OW 7546   0.086   6.099   0.348
 2216SOL    HW1 7547   0.085   6.009   0.390
 2216SOL    HW2 7548   0.067   6.169   0.417
 2217SOL     OW 7549   4.284   1.386   3.660
 2217SOL    HW1 7550   4.356   1.346   3.603
 2217SOL    HW2 7551   4.227   1.447   3.604
 2218SOL     OW 7552   5.774   5.009   6.466
 2218SOL    HW1 7553   5.739   4.985   6.375
 2218SOL    HW2 7554   5.854   5.067   6.456
 2219SOL     OW 7555   5.468   2.403   0.572
 2219SOL    HW1 7556   5.402   2.380   0.500
 2219SOL    HW2 7557   5.422   2.401   0.661
 2220SOL     OW 7558   6.385   0.062   4.685
 2220SOL    HW1 7559   6.387   6.987   4.708
 2220SOL    HW2 7560   6.295   0.100   4.708
 2221SOL     OW 7561   5.176   0.319   3.329
 2221SOL    HW1 7562   5.223   0.389   3.382
 2221SOL    HW2 7563   5.233   0.237   3.323
 2222SOL     OW 7564   3.923   0.679   4.444
 2222SOL    HW1 7565   4.016   0.653   4.418
 2222SOL    HW2 7566   3.886   0.612   4.507
 2223SOL     OW 7567   0.595   0.086   5.766
 2223SOL    HW1 7568   0.523   0.022   5.790
 2223SOL    HW2 7569   0.607   0.153   5.840
 2224SOL     OW 7570   4.617   4.998   6.318
 2224SOL    HW1 7571   4.566   5.058   6.256
 2224SOL    HW2 7572   4.578   4.906   6.316
 2225SOL     OW 7573   6.417   1.021   0.439
 2225SOL    HW1 7574   6.328   0.979   0.456
 2225SOL    HW2 7575   6.489   0.961   0.474
 2226SOL     OW 7576   2.773   3.386   6.430
 2226SOL    HW1 7577   2.749   3.400   6.334
 2226SOL    HW2 7578   2.798   3.290   6.445
 2227SOL     OW 7579   4.352   2.087   1.621
 2227SOL    HW1 7580   4.281   2.146   1.582
 2227SOL    HW2 7581   4.316   1.994   1.632
 2228SOL     OW 7582   4.922   6.705   6.899
 2228SOL    HW1 7583   4.995   6.772   6.883
 2228SOL    HW2 7584   4.848   6.747   6.950
 2229SOL     OW 7585   3.878   2.997   4.397
 2229SOL    HW1 7586   3.928   3.040   4.472
 2229SOL    HW2 7587   3.872   3.060   4.320
 2230SOL     OW 7588   0.283   1.906   6.708
 2230SOL    HW1 7589   0.249   1.820   6.671
 2230SOL    HW2 7590   0.312   1.893   6.802
 2231SOL     OW 7591   1.018   0.108   5.524
 2231SOL    HW1 7592   1.062   0.156   5.448
 2231SOL    HW2 7593   0.919   0.119   5.517
 2232SOL     OW 7594   1.081   0.650   0.025
 2232SOL    HW1 7595   1.006   0.675   0.086
 2232SOL    HW2 7596   1.158   0.615   0.079
 2233SOL     OW 7597   3.270   5.388   0.775
 2233SOL    HW1 7598   3.208   5.386   0.853
 2233SOL    HW2 7599   3.267   5.300   0.728
 2234SOL     OW 7600   5.315   1.840   2.124
 2234SOL    HW1 7601   5.315   1.912   2.054
 2234SOL    HW2 7602   5.260   1.870   2.202
 2235SOL     OW 7603   1.501   1.614   4.171
 2235SOL    HW1 7604   1.440   1.539   4.147
 2235SOL    HW2 7605   1.545   1.649   4.088
 2236SOL     OW 7606   2.935   5.124   5.070
 2236SOL    HW1 7607   2.961   5.079   4.985
 2236SOL    HW2 7608   3.010   5.116   5.136
 2237SOL     OW 7609   5.867   6.855   6.684
 2237SOL    HW1 7610   5.880   6.799   6.602
 2237SOL    HW2 7611   5.843   6.796   6.760
 2238SOL     OW 7612   4.784   3.786   1.646
 2238SOL    HW1 7613   4.762   3.772   1.549
 2238SOL    HW2 7614   4.714   3.843   1.688
 2239SOL     OW 7615   2.990   0.248   2.634
 2239SOL    HW1 7616   3.032   0.230   2.723
 2239SOL    HW2 7617   2.910   0.189   2.622
 2240SOL     OW 7618   4.533   5.419   3.153
 2240SOL    HW1 7619   4.574   5.440   3.242
 2240SOL    HW2 7620   4.547   5.495   3.090
 2241SOL     OW 7621   1.466   2.164   3.670
 2241SOL    HW1 7622   1.468   2.190   3.573
 2241SOL    HW2 7623   1.497   2.069   3.679
 2242SOL     OW 7624   5.283   2.242   3.998
 2242SOL    HW1 7625   5.377   2.274   4.003
 2242SOL    HW2 7626   5.282   2.142   3.985
 2243SOL     OW 7627   2.458   0.376   6.524
 2243SOL    HW1 7628   2.378   0.425   6.557
 2243SOL    HW2 7629   2.525   0.365   6.598
 2244SOL     OW 7630   2.350   1.855   1.262
 2244SOL    HW1 7631   2.404   1.875   1.181
 2244SOL    HW2 7632   2.317   1.940   1.303
 2245SOL     OW 7633   7.007   1.263   6.813
 2245SOL    HW1 7634   6.970   1.317   6.737
 2245SOL    HW2 7635   6.950   1.277   6.894
 2246SOL     OW 7636   5.600   0.511   5.912
 2246SOL    HW1 7637   5.691   0.500   5.871
 2246SOL    HW2 7638   5.562   0.421   5.933
 2247SOL     OW 7639   3.600   3.229   1.890
 2247SOL    HW1 7640   3.545   3.247   1.808
 2247SOL    HW2 7641   3.670   3.162   1.869
 2248SOL     OW 7642   4.880   2.961   4.089
 2248SOL    HW1 7643   4.851   2.983   3.995
 2248SOL    HW2 7644   4.978   2.978   4.098
 2249SOL     OW 7645   2.563   6.240   3.855
 2249SOL    HW1 7646   2.577   6.337   3.873
 2249SOL    HW2 7647   2.466   6.218   3.860
 2250SOL     OW 7648   3.989   5.810   6.016
 2250SOL    HW1 7649   3.922   5.838   6.085
 2250SOL    HW2 7650   4.028   5.721   6.042
 2251SOL     OW 7651   3.543   6.673   4.952
 2251SOL    HW1 7652   3.589   6.637   4.871
 2251SOL    HW2 7653   3.608   6.723   5.009
 2252SOL     OW 7654   3.601   1.688   2.669
 2252SOL    HW1 7655   3.521   1.667   2.726
 2252SOL    HW2 7656   3.634   1.604   2.626
 2253SOL     OW 7657   1.174   2.303   1.807
 2253SOL    HW1 7658   1.173   2.228   1.740
 2253SOL    HW2 7659   1.090   2.300   1.861
 2254SOL     OW 7660   3.463   2.893   2.532
 2254SOL    HW1 7661   3.390   2.956   2.507
 2254SOL    HW2 7662   3.428   2.800   2.538
 2255SOL     OW 7663   2.017   1.771   5.928
 2255SOL    HW1 7664   2.038   1.843   5.861
 2255SOL    HW2 7665   2.099   1.716   5.945
 2256SOL     OW 7666   5.022   6.992   0.638
 2256SOL    HW1 7667   4.927   6.963   0.636
 2256SOL    HW2 7668   5.040   0.021   0.722
 2257SOL     OW 7669   0.407   1.303   6.489
 2257SOL    HW1 7670   0.402   1.340   6.396
 2257SOL    HW2 7671   0.502   1.305   6.520
 2258SOL     OW 7672   1.815   0.690   3.692
 2258SOL    HW1 7673   1.822   0.692   3.792
 2258SOL    HW2 7674   1.836   0.781   3.656
 2259SOL     OW 7675   6.374   6.632   5.186
 2259SOL    HW1 7676   6.450   6.687   5.151
 2259SOL    HW2 7677   6.390   6.536   5.165
 2260SOL     OW 7678   1.019   3.183   1.076
 2260SOL    HW1 7679   0.966   3.125   1.015
 2260SOL    HW2 7680   1.085   3.127   1.126
 2261SOL     OW 7681   4.004   4.676   6.714
 2261SOL    HW1 7682   4.007   4.678   6.614
 2261SOL    HW2 7683   4.097   4.678   6.750
 2262SOL     OW 7684   6.933   0.642   3.554
 2262SOL    HW1 7685   6.853   0.665   3.497
 2262SOL    HW2 7686   6.902   0.616   3.645
 2263SOL     OW 7687   2.872   4.135   6.867
 2263SOL    HW1 7688   2.787   4.158   6.915
 2263SOL    HW2 7689   2.947   4.189   6.905
 2264SOL     OW 7690   1.794   0.524   6.648
 2264SOL    HW1 7691   1.816   0.542   6.744
 2264SOL    HW2 7692   1.856   0.454   6.612
 2265SOL     OW 7693   0.172   6.464   3.729
 2265SOL    HW1 7694   0.103   6.518   3.777
 2265SOL    HW2 7695   0.255   6.519   3.718
 2266SOL     OW 7696   4.111   3.843   6.479
 2266SOL    HW1 7697   4.153   3.820   6.391
 2266SOL    HW2 7698   4.012   3.836   6.470
 2267SOL     OW 7699   5.912   2.802   5.199
 2267SOL    HW1 7700   5.881   2.873   5.137
 2267SOL    HW2 7701   5.990   2.753   5.158
 2268SOL     OW 7702   0.984   6.079   4.492
 2268SOL    HW1 7703   0.910   6.129   4.446
 2268SOL    HW2 7704   1.007   5.998   4.437
 2269SOL     OW 7705   1.575   2.437   5.355
 2269SOL    HW1 7706   1.481   2.408   5.370
 2269SOL    HW2 7707   1.599   2.424   5.259
 2270SOL     OW 7708   4.143   1.974   6.480
 2270SOL    HW1 7709   4.049   1.972   6.515
 2270SOL    HW2 7710   4.198   1.906   6.527
 2271SOL     OW 7711   3.713   5.824   5.072
 2271SOL    HW1 7712   3.806   5.787   5.068
 2271SOL    HW2 7713   3.648   5.755   5.040
 2272SOL     OW 7714   5.928   0.861   5.884
 2272SOL    HW1 7715   5.829   0.846   5.887
 2272SOL    HW2 7716   5.970   0.819   5.964
 2273SOL     OW 7717   1.703   2.058   4.543
 2273SOL    HW1 7718   1.786   2.007   4.523
 2273SOL    HW2 7719   1.721   2.127   4.614
 2274SOL     OW 7720   1.484   0.768   0.645
 2274SOL    HW1 7721   1.500   0.848   0.586
 2274SOL    HW2 7722   1.463   0.799   0.738
 2275SOL     OW 7723   5.210   3.469   3.030
 2275SOL    HW1 7724   5.142   3.534   3.064
 2275SOL    HW2 7725   5.281   3.518   2.979
 2276SOL     OW 7726   1.806   1.299   1.501
 2276SOL    HW1 7727   1.869   1.240   1.449
 2276SOL    HW2 7728   1.712   1.277   1.476
 2277SOL     OW 7729   4.135   3.469   3.657
 2277SOL    HW1 7730   4.171   3.426   3.574
 2277SOL    HW2 7731   4.111   3.564   3.637
 2278SOL     OW 7732   6.164   3.653   3.991
 2278SOL    HW1 7733   6.252   3.687   3.958
 2278SOL    HW2 7734   6.161   3.660   4.091
 2279SOL     OW 7735   0.602   5.802   5.593
 2279SOL    HW1 7736   0.586   5.703   5.593
 2279SOL    HW2 7737   0.699   5.820   5.576
 2280SOL     OW 7738   5.206   2.891   5.298
 2280SOL    HW1 7739   5.114   2.921   5.325
 2280SOL    HW2 7740   5.259   2.971   5.269
 2281SOL     OW 7741   5.214   6.807   2.310
 2281SOL    HW1 7742   5.144   6.767   2.370
 2281SOL    HW2 7743   5.302   6.763   2.328
 2282SOL     OW 7744   3.487   5.234   5.709
 2282SOL    HW1 7745   3.452   5.326   5.729
 2282SOL    HW2 7746   3.477   5.176   5.789
 2283SOL     OW 7747   6.870   0.756   4.864
 2283SOL    HW1 7748   6.933   0.802   4.801
 2283SOL    HW2 7749   6.918   0.736   4.949
 2284SOL     OW 7750   1.762   4.323   6.095
 2284SOL    HW1 7751   1.698   4.295   6.166
 2284SOL    HW2 7752   1.827   4.249   6.076
 2285SOL     OW 7753   2.042   5.040   0.218
 2285SOL    HW1 7754   2.032   5.051   0.119
 2285SOL    HW2 7755   2.124   5.087   0.249
 2286SOL     OW 7756   4.834   4.924   2.591
 2286SOL    HW1 7757   4.850   4.884   2.681
 2286SOL    HW2 7758   4.801   4.853   2.529
 2287SOL     OW 7759   2.190   1.246   3.890
 2287SOL    HW1 7760   2.281   1.205   3.887
 2287SOL    HW2 7761   2.198   1.345   3.900
 2288SOL     OW 7762   6.432   4.538   2.969
 2288SOL    HW1 7763   6.489   4.468   2.926
 2288SOL    HW2 7764   6.454   4.628   2.931
 2289SOL     OW 7765   0.152   4.564   0.365
 2289SOL    HW1 7766   0.085   4.579   0.292
 2289SOL    HW2 7767   0.212   4.488   0.340
 2290SOL     OW 7768   0.714   5.485   6.901
 2290SOL    HW1 7769   0.763   5.397   6.897
 2290SOL    HW2 7770   0.694   5.507   6.996
 2291SOL     OW 7771   1.858   1.333   0.282
 2291SOL    HW1 7772   1.900   1.412   0.237
 2291SOL    HW2 7773   1.831   1.267   0.212
 2292SOL     OW 7774   2.296   0.690   4.835
 2292SOL    HW1 7775   2.359   0.754   4.791
 2292SOL    HW2 7776   2.220   0.741   4.875
 2293SOL     OW 7777   5.070   4.129   3.265
 2293SOL    HW1 7778   5.085   4.165   3.173
 2293SOL    HW2 7779   5.010   4.049   3.260
 2294SOL     OW 7780   4.079   0.274   6.780
 2294SOL    HW1 7781   4.069   0.263   6.879
 2294SOL    HW2 7782   3.993   0.308   6.742
 2295SOL     OW 7783   0.760   1.006   1.794
 2295SOL    HW1 7784   0.660   1.012   1.791
 2295SOL    HW2 7785   0.789   0.919   1.755
 2296SOL     OW 7786   3.201   6.576   6.486
 2296SOL    HW1 7787   3.145   6.526   6.420
 2296SOL    HW2 7788   3.152   6.582   6.573
 2297SOL     OW 7789   4.080   5.979   6.569
 2297SOL    HW1 7790   3.984   5.965   6.593
 2297SOL    HW2 7791   4.138   5.927   6.632
 2298SOL     OW 7792   4.685   2.691   6.365
 2298SOL    HW1 7793   4.684   2.684   6.465
 2298SOL    HW2 7794   4.779   2.692   6.332
 2299SOL     OW 7795   5.376   0.094   1.357
 2299SOL    HW1 7796   5.295   0.063   1.308
 2299SOL    HW2 7797   5.456   0.043   1.324
 2300SOL     OW 7798   0.868   4.084   1.204
 2300SOL    HW1 7799   0.828   4.038   1.125
 2300SOL    HW2 7800   0.797   4.097   1.274
 2301SOL     OW 7801   3.652   2.549   1.316
 2301SOL    HW1 7802   3.731   2.586   1.365
 2301SOL    HW2 7803   3.570   2.600   1.340
 2302SOL     OW 7804   3.279   5.334   2.952
 2302SOL    HW1 7805   3.271   5.315   3.050
 2302SOL    HW2 7806   3.362   5.291   2.916
 2303SOL     OW 7807   0.801   3.552   5.543
 2303SOL    HW1 7808   0.832   3.464   5.579
 2303SOL    HW2 7809   0.789   3.546   5.444
 2304SOL     OW 7810   2.107   1.071   4.364
 2304SOL    HW1 7811   2.136   1.097   4.272
 2304SOL    HW2 7812   2.093   0.972   4.368
 2305SOL     OW 7813   4.532   4.750   1.917
 2305SOL    HW1 7814   4.597   4.681   1.884
 2305SOL    HW2 7815   4.562   4.840   1.886
 2306SOL     OW 7816   7.002   4.868   0.533
 2306SOL    HW1 7817   6.977   4.913   0.619
 2306SOL    HW2 7818   6.931   4.803   0.507
 2307SOL     OW 7819   0.328   1.093   3.069
 2307SOL    HW1 7820   0.353   1.153   3.145
 2307SOL    HW2 7821   0.279   1.013   3.103
 2308SOL     OW 7822   0.582   0.502   0.306
 2308SOL    HW1 7823   0.541   0.421   0.348
 2308SOL    HW2 7824   0.532   0.525   0.222
 2309SOL     OW 7825   2.012   5.003   6.032
 2309SOL    HW1 7826   2.089   4.967   6.084
 2309SOL    HW2 7827   1.934   4.941   6.039
 2310SOL     OW 7828   5.825   1.211   3.641
 2310SOL    HW1 7829   5.738   1.169   3.618
 2310SOL    HW2 7830   5.879   1.224   3.558
 2311SOL     OW 7831   2.879   6.487   2.681
 2311SOL    HW1 7832   2.806   6.491   2.750
 2311SOL    HW2 7833   2.891   6.392   2.651
 2312SOL     OW 7834   2.674   6.980   1.898
 2312SOL    HW1 7835   2.752   7.014   1.845
 2312SOL    HW2 7836   2.691   6.887   1.928
 2313SOL     OW 7837   4.814   4.931   1.553
 2313SOL    HW1 7838   4.905   4.902   1.585
 2313SOL    HW2 7839   4.824   4.985   1.469
 2314SOL     OW 7840   0.376   6.413   3.023
 2314SOL    HW1 7841   0.361   6.314   3.027
 2314SOL    HW2 7842   0.288   6.460   3.028
 2315SOL     OW 7843   5.200   6.916   5.090
 2315SOL    HW1 7844   5.220   6.996   5.145
 2315SOL    HW2 7845   5.124   6.865   5.130
 2316SOL     OW 7846   3.771   2.556   6.707
 2316SOL    HW1 7847   3.694   2.568   6.770
 2316SOL    HW2 7848   3.752   2.606   6.623
 2317SOL     OW 7849   0.099   5.014   1.806
 2317SOL    HW1 7850   0.175   4.973   1.755
 2317SOL    HW2 7851   0.122   5.109   1.829
 2318SOL     OW 7852   1.439   5.141   3.580
 2318SOL    HW1 7853   1.462   5.212   3.513
 2318SOL    HW2 7854   1.463   5.052   3.542
 2319SOL     OW 7855   2.756   4.748   2.730
 2319SOL    HW1 7856   2.855   4.733   2.735
 2319SOL    HW2 7857   2.732   4.830   2.783
 2320SOL     OW 7858   1.891   2.110   5.141
 2320SOL    HW1 7859   1.826   2.067   5.079
 2320SOL    HW2 7860   1.852   2.195   5.177
 2321SOL     OW 7861   2.094   5.487   5.388
 2321SOL    HW1 7862   2.177   5.453   5.430
 2321SOL    HW2 7863   2.117   5.556   5.319
 2322SOL     OW 7864   1.653   3.377   1.941
 2322SOL    HW1 7865   1.706   3.456   1.910
 2322SOL    HW2 7866   1.712   3.297   1.948
 2323SOL     OW 7867   1.844   5.873   6.217
 2323SOL    HW1 7868   1.861   5.778   6.242
 2323SOL    HW2 7869   1.892   5.894   6.131
 2324SOL     OW 7870   6.540   4.681   2.243
 2324SOL    HW1 7871   6.606   4.752   2.269
 2324SOL    HW2 7872   6.447   4.716   2.253
 2325SOL     OW 7873   6.417   3.378   2.547
 2325SOL    HW1 7874   6.473   3.425   2.616
 2325SOL    HW2 7875   6.369   3.302   2.590
 2326SOL     OW 7876   2.091   0.173   0.170
 2326SOL    HW1 7877   2.022   0.108   0.138
 2326SOL    HW2 7878   2.050   0.265   0.175
 2327SOL     OW 7879   6.555   5.972   2.191
 2327SOL    HW1 7880   6.577   5.899   2.126
 2327SOL    HW2 7881   6.594   5.951   2.280
 2328SOL     OW 7882   1.709   3.863   2.638
 2328SOL    HW1 7883   1.688   3.948   2.590
 2328SOL    HW2 7884   1.761   3.803   2.577
 2329SOL     OW 7885   1.267   4.587   2.130
 2329SOL    HW1 7886   1.182   4.577   2.079
 2329SOL    HW2 7887   1.324   4.657   2.087
 2330SOL     OW 7888   5.784   3.490   2.124
 2330SOL    HW1 7889   5.700   3.543   2.140
 2330SOL    HW2 7890   5.821   3.459   2.211
 2331SOL     OW 7891   5.027   5.336   1.465
 2331SOL    HW1 7892   5.050   5.423   1.420
 2331SOL    HW2 7893   5.040   5.346   1.563
 2332SOL     OW 7894   6.082   6.921   6.291
 2332SOL    HW1 7895   6.035   6.991   6.237
 2332SOL    HW2 7896   6.067   6.938   6.388
 2333SOL     OW 7897   1.464   4.420   2.657
 2333SOL    HW1 7898   1.427   4.359   2.588
 2333SOL    HW2 7899   1.498   4.503   2.613
 2334SOL     OW 7900   3.602   1.265   5.804
 2334SOL    HW1 7901   3.548   1.210   5.741
 2334SOL    HW2 7902   3.542   1.303   5.875
 2335SOL     OW 7903   6.042   6.958   3.634
 2335SOL    HW1 7904   5.978   6.967   3.710
 2335SOL    HW2 7905   6.134   6.947   3.670
 2336SOL     OW 7906   2.121   2.260   2.591
 2336SOL    HW1 7907   2.110   2.264   2.492
 2336SOL    HW2 7908   2.189   2.327   2.620
 2337SOL     OW 7909   4.413   1.042   2.424
 2337SOL    HW1 7910   4.456   0.975   2.363
 2337SOL    HW2 7911   4.327   1.073   2.384
 2338SOL     OW 7912   6.725   3.913   3.867
 2338SOL    HW1 7913   6.715   3.914   3.768
 2338SOL    HW2 7914   6.776   3.831   3.895
 2339SOL     OW 7915   2.960   3.271   2.476
 2339SOL    HW1 7916   2.967   3.173   2.491
 2339SOL    HW2 7917   3.040   3.317   2.514
 2340SOL     OW 7918   1.836   4.076   6.308
 2340SOL    HW1 7919   1.889   4.090   6.224
 2340SOL    HW2 7920   1.897   4.053   6.383
 2341SOL     OW 7921   3.242   5.252   4.252
 2341SOL    HW1 7922   3.217   5.158   4.229
 2341SOL    HW2 7923   3.289   5.294   4.175
 2342SOL     OW 7924   3.552   1.718   4.288
 2342SOL    HW1 7925   3.608   1.636   4.280
 2342SOL    HW2 7926   3.610   1.795   4.313
 2343SOL     OW 7927   6.896   6.920   1.046
 2343SOL    HW1 7928   6.863   6.995   1.104
 2343SOL    HW2 7929   6.994   6.906   1.062
 2344SOL     OW 7930   6.148   4.322   0.068
 2344SOL    HW1 7931   6.065   4.282   0.028
 2344SOL    HW2 7932   6.228   4.275   0.031
 2345SOL     OW 7933   4.232   6.508   3.667
 2345SOL    HW1 7934   4.163   6.548   3.606
 2345SOL    HW2 7935   4.247   6.568   3.745
 2346SOL     OW 7936   4.688   3.504   0.385
 2346SOL    HW1 7937   4.685   3.481   0.482
 2346SOL    HW2 7938   4.596   3.496   0.346
 2347SOL     OW 7939   1.729   1.180   1.089
 2347SOL    HW1 7940   1.647   1.127   1.111
 2347SOL    HW2 7941   1.788   1.128   1.028
 2348SOL     OW 7942   0.339   5.762   2.631
 2348SOL    HW1 7943   0.436   5.786   2.635
 2348SOL    HW2 7944   0.329   5.663   2.630
 2349SOL     OW 7945   0.836   4.923   4.686
 2349SOL    HW1 7946   0.860   5.003   4.741
 2349SOL    HW2 7947   0.748   4.888   4.715
 2350SOL     OW 7948   5.463   3.984   0.412
 2350SOL    HW1 7949   5.431   4.078   0.403
 2350SOL    HW2 7950   5.534   3.979   0.482
 2351SOL     OW 7951   2.464   6.257   1.320
 2351SOL    HW1 7952   2.426   6.168   1.291
 2351SOL    HW2 7953   2.391   6.313   1.357
 2352SOL     OW 7954   6.987   2.174   2.956
 2352SOL    HW1 7955   0.010   2.236   3.019
 2352SOL    HW2 7956   6.889   2.193   2.953
 2353SOL     OW 7957   3.212   5.624   4.202
 2353SOL    HW1 7958   3.273   5.567   4.256
 2353SOL    HW2 7959   3.255   5.713   4.186
 2354SOL     OW 7960   2.978   2.247   4.328
 2354SOL    HW1 7961   2.909   2.209   4.390
 2354SOL    HW2 7962   3.058   2.275   4.381
 2355SOL     OW 7963   1.955   5.323   4.553
 2355SOL    HW1 7964   1.942   5.282   4.643
 2355SOL    HW2 7965   2.050   5.354   4.543
 2356SOL     OW 7966   0.008   2.188   6.989
 2356SOL    HW1 7967   0.030   2.284   6.975
 2356SOL    HW2 7968   6.931   2.176   6.989
 2357SOL     OW 7969   2.460   6.544   3.197
 2357SOL    HW1 7970   2.438   6.448   3.213
 2357SOL    HW2 7971   2.419   6.600   3.269
 2358SOL     OW 7972   4.755   5.541   6.196
 2358SOL    HW1 7973   4.790   5.564   6.287
 2358SOL    HW2 7974   4.655   5.541   6.198
 2359SOL     OW 7975   1.514   0.162   5.441
 2359SOL    HW1 7976   1.470   0.248   5.469
 2359SOL    HW2 7977   1.613   0.174   5.441
 2360SOL     OW 7978   0.103   3.557   6.815
 2360SOL    HW1 7979   0.082   3.459   6.816
 2360SOL    HW2 7980   0.099   3.592   6.908
 2361SOL     OW 7981   3.391   1.101   0.321
 2361SOL    HW1 7982   3.305   1.066   0.359
 2361SOL    HW2 7983   3.373   1.183   0.268
 2362SOL     OW 7984   3.538   5.238   2.923
 2362SOL    HW1 7985   3.613   5.258   2.985
 2362SOL    HW2 7986   3.481   5.165   2.962
 2363SOL     OW 7987   3.445   0.841   3.425
 2363SOL    HW1 7988   3.486   0.891   3.501
 2363SOL    HW2 7989   3.402   0.757   3.459
 2364SOL     OW 7990   0.861   2.367   1.487
 2364SOL    HW1 7991   0.949   2.338   1.449
 2364SOL    HW2 7992   0.860   2.467   1.496
 2365SOL     OW 7993   5.736   2.379   0.498
 2365SOL    HW1 7994   5.641   2.388   0.530
 2365SOL    HW2 7995   5.755   2.451   0.431
 2366SOL     OW 7996   4.734   5.652   0.404
 2366SOL    HW1 7997   4.710   5.622   0.496
 2366SOL    HW2 7998   4.694   5.588   0.337
 2367SOL     OW 7999   2.663   3.139   6.016
 2367SOL    HW1 8000   2.584   3.198   6.002
 2367SOL    HW2 8001   2.720   3.140   5.934
 2368SOL     OW 8002   5.433   6.087   2.337
 2368SOL    HW1 8003   5.476   6.125   2.254
 2368SOL    HW2 8004   5.388   6.161   2.388
 2369SOL     OW 8005   2.864   1.444   3.365
 2369SOL    HW1 8006   2.806   1.368   3.337
 2369SOL    HW2 8007   2.847   1.522   3.304
 2370SOL     OW 8008   6.201   2.488   6.193
 2370SOL    HW1 8009   6.131   2.560   6.192
 2370SOL    HW2 8010   6.285   2.525   6.235
 2371SOL     OW 8011   1.234   5.776   1.724
 2371SOL    HW1 8012   1.271   5.787   1.816
 2371SOL    HW2 8013   1.168   5.849   1.706
 2372SOL     OW 8014   6.603   2.168   3.333
 2372SOL    HW1 8015   6.626   2.091   3.273
 2372SOL    HW2 8016   6.679   2.233   3.334
 2373SOL     OW 8017   2.285   3.930   6.552
 2373SOL    HW1 8018   2.306   3.919   6.455
 2373SOL    HW2 8019   2.266   4.026   6.571
 2374SOL     OW 8020   5.062   2.570   4.812
 2374SOL    HW1 8021   5.048   2.548   4.716
 2374SOL    HW2 8022   5.046   2.667   4.827
 2375SOL     OW 8023   1.158   0.368   5.400
 2375SOL    HW1 8024   1.208   0.320   5.328
 2375SOL    HW2 8025   1.222   0.420   5.457
 2376SOL     OW 8026   6.391   1.794   4.247
 2376SOL    HW1 8027   6.353   1.832   4.162
 2376SOL    HW2 8028   6.378   1.695   4.247
 2377SOL     OW 8029   3.693   2.920   4.020
 2377SOL    HW1 8030   3.757   2.964   4.082
 2377SOL    HW2 8031   3.667   2.983   3.947
 2378SOL     OW 8032   5.634   1.634   1.102
 2378SOL    HW1 8033   5.562   1.688   1.144
 2378SOL    HW2 8034   5.613   1.537   1.111
 2379SOL     OW 8035   6.977   0.033   6.056
 2379SOL    HW1 8036   6.880   0.036   6.031
 2379SOL    HW2 8037   0.001   6.987   6.000
 2380SOL     OW 8038   6.049   1.898   3.464
 2380SOL    HW1 8039   6.038   1.921   3.560
 2380SOL    HW2 8040   6.018   1.974   3.407
 2381SOL     OW 8041   1.774   6.020   2.653
 2381SOL    HW1 8042   1.763   5.956   2.576
 2381SOL    HW2 8043   1.690   6.072   2.665
 2382SOL     OW 8044   1.652   2.601   5.587
 2382SOL    HW1 8045   1.634   2.555   5.500
 2382SOL    HW2 8046   1.607   2.690   5.588
 2383SOL     OW 8047   5.454   5.396   1.234
 2383SOL    HW1 8048   5.448   5.305   1.274
 2383SOL    HW2 8049   5.366   5.442   1.243
 2384SOL     OW 8050   4.181   1.295   1.662
 2384SOL    HW1 8051   4.156   1.385   1.626
 2384SOL    HW2 8052   4.277   1.295   1.690
 2385SOL     OW 8053   1.303   3.041   0.635
 2385SOL    HW1 8054   1.285   3.039   0.537
 2385SOL    HW2 8055   1.229   3.088   0.682
 2386SOL     OW 8056   4.442   4.596   2.699
 2386SOL    HW1 8057   4.357   4.614   2.649
 2386SOL    HW2 8058   4.500   4.678   2.695
 2387SOL     OW 8059   1.138   1.772   2.679
 2387SOL    HW1 8060   1.094   1.846   2.629
 2387SOL    HW2 8061   1.228   1.801   2.710
 2388SOL     OW 8062   6.681   0.963   4.400
 2388SOL    HW1 8063   6.688   0.863   4.403
 2388SOL    HW2 8064   6.592   0.989   4.363
 2389SOL     OW 8065   3.365   6.949   2.108
 2389SOL    HW1 8066   3.446   6.953   2.050
 2389SOL    HW2 8067   3.382   6.998   2.194
 2390SOL     OW 8068   2.939   5.057   0.875
 2390SOL    HW1 8069   2.849   5.037   0.837
 2390SOL    HW2 8070   2.999   4.978   0.862
 2391SOL     OW 8071   4.035   5.169   4.584
 2391SOL    HW1 8072   3.954   5.151   4.641
 2391SOL    HW2 8073   4.025   5.258   4.539
 2392SOL     OW 8074   3.726   1.185   6.538
 2392SOL    HW1 8075   3.719   1.198   6.439
 2392SOL    HW2 8076   3.663   1.112   6.567
 2393SOL     OW 8077   3.687   6.131   5.064
 2393SOL    HW1 8078   3.671   6.040   5.028
 2393SOL    HW2 8079   3.669   6.133   5.162
 2394SOL     OW 8080   0.308   5.028   5.084
 2394SOL    HW1 8081   0.283   5.058   4.992
 2394SOL    HW2 8082   0.319   4.928   5.085
 2395SOL     OW 8083   4.449   6.555   6.496
 2395SOL    HW1 8084   4.522   6.500   6.455
 2395SOL    HW2 8085   4.452   6.647   6.458
 2396SOL     OW 8086   3.019   6.526   0.390
 2396SOL    HW1 8087   2.987   6.564   0.304
 2396SOL    HW2 8088   2.975   6.438   0.407
 2397SOL     OW 8089   0.771   3.070   4.501
 2397SOL    HW1 8090   0.849   3.119   4.464
 2397SOL    HW2 8091   0.687   3.106   4.462
 2398SOL     OW 8092   5.340   3.737   5.625
 2398SOL    HW1 8093   5.286   3.662   5.665
 2398SOL    HW2 8094   5.363   3.803   5.696
 2399SOL     OW 8095   5.251   2.748   1.713
 2399SOL    HW1 8096   5.251   2.743   1.813
 2399SOL    HW2 8097   5.325   2.807   1.682
 2400SOL     OW 8098   1.108   4.189   0.097
 2400SOL    HW1 8099   1.103   4.269   0.158
 2400SOL    HW2 8100   1.153   4.114   0.145
 2401SOL     OW 8101   6.425   5.910   0.103
 2401SOL    HW1 8102   6.497   5.905   0.035
 2401SOL    HW2 8103   6.361   5.834   0.089
 2402SOL     OW 8104   6.772   6.767   4.059
 2402SOL    HW1 8105   6.839   6.836   4.086
 2402SOL    HW2 8106   6.745   6.782   3.964
 2403SOL     OW 8107   1.539   0.775   3.387
 2403SOL    HW1 8108   1.549   0.764   3.288
 2403SOL    HW2 8109   1.569   0.692   3.433
 2404SOL     OW 8110   1.098   0.452   0.347
 2404SOL    HW1 8111   1.118   0.413   0.437
 2404SOL    HW2 8112   1.183   0.484   0.305
 2405SOL     OW 8113   3.408   4.646   1.448
 2405SOL    HW1 8114   3.350   4.727   1.450
 2405SOL    HW2 8115   3.382   4.584   1.522
 2406SOL     OW 8116   4.822   1.597   1.229
 2406SOL    HW1 8117   4.841   1.513   1.178
 2406SOL    HW2 8118   4.762   1.656   1.174
 2407SOL     OW 8119   4.989   6.945   3.269
 2407SOL    HW1 8120   5.055   6.893   3.214
 2407SOL    HW2 8121   5.036   6.987   3.346
 2408SOL     OW 8122   4.220   4.621   2.009
 2408SOL    HW1 8123   4.241   4.526   2.032
 2408SOL    HW2 8124   4.126   4.628   1.976
 2409SOL     OW 8125   1.249   4.045   0.928
 2409SOL    HW1 8126   1.340   4.009   0.910
 2409SOL    HW2 8127   1.184   3.969   0.936
 2410SOL     OW 8128   4.102   3.632   2.672
 2410SOL    HW1 8129   4.070   3.673   2.757
 2410SOL    HW2 8130   4.125   3.536   2.686
 2411SOL     OW 8131   3.732   0.436   5.738
 2411SOL    HW1 8132   3.755   0.444   5.835
 2411SOL    HW2 8133   3.784   0.504   5.686
 2412SOL     OW 8134   4.145   3.609   1.035
 2412SOL    HW1 8135   4.183   3.674   1.100
 2412SOL    HW2 8136   4.210   3.536   1.018
 2413SOL     OW 8137   3.011   0.635   2.729
 2413SOL    HW1 8138   3.079   0.593   2.670
 2413SOL    HW2 8139   2.920   0.610   2.697
 2414SOL     OW 8140   4.822   3.063   3.793
 2414SOL    HW1 8141   4.743   3.113   3.758
 2414SOL    HW2 8142   4.826   2.973   3.750
 2415SOL     OW 8143   3.559   0.065   2.697
 2415SOL    HW1 8144   3.489   0.112   2.751
 2415SOL    HW2 8145   3.648   0.082   2.737
 2416SOL     OW 8146   5.194   2.282   6.259
 2416SOL    HW1 8147   5.100   2.253   6.243
 2416SOL    HW2 8148   5.217   2.271   6.355
 2417SOL     OW 8149   3.099   3.789   5.894
 2417SOL    HW1 8150   3.119   3.883   5.866
 2417SOL    HW2 8151   3.110   3.780   5.993
 2418SOL     OW 8152   3.794   2.913   2.192
 2418SOL    HW1 8153   3.748   2.991   2.236
 2418SOL    HW2 8154   3.755   2.828   2.226
 2419SOL     OW 8155   6.884   0.523   4.105
 2419SOL    HW1 8156   6.858   0.605   4.053
 2419SOL    HW2 8157   6.945   0.548   4.179
 2420SOL     OW 8158   1.929   0.067   1.907
 2420SOL    HW1 8159   2.002   0.129   1.939
 2420SOL    HW2 8160   1.847   0.081   1.964
 2421SOL     OW 8161   4.126   2.160   3.072
 2421SOL    HW1 8162   4.084   2.161   3.162
 2421SOL    HW2 8163   4.067   2.206   3.006
 2422SOL     OW 8164   6.030   1.588   1.248
 2422SOL    HW1 8165   6.023   1.490   1.233
 2422SOL    HW2 8166   5.955   1.618   1.308
 2423SOL     OW 8167   1.381   4.798   2.612
 2423SOL    HW1 8168   1.408   4.887   2.648
 2423SOL    HW2 8169   1.461   4.749   2.579
 2424SOL     OW 8170   6.739   6.584   0.112
 2424SOL    HW1 8171   6.799   6.520   0.161
 2424SOL    HW2 8172   6.651   6.590   0.159
 2425SOL     OW 8173   6.948   6.390   4.779
 2425SOL    HW1 8174   6.956   6.355   4.685
 2425SOL    HW2 8175   6.933   6.489   4.776
 2426SOL     OW 8176   1.556   5.454   4.644
 2426SOL    HW1 8177   1.488   5.500   4.588
 2426SOL    HW2 8178   1.645   5.499   4.632
 2427SOL     OW 8179   6.206   0.333   5.507
 2427SOL    HW1 8180   6.267   0.410   5.524
 2427SOL    HW2 8181   6.206   0.272   5.586
 2428SOL     OW 8182   6.083   2.151   0.443
 2428SOL    HW1 8183   6.084   2.251   0.442
 2428SOL    HW2 8184   5.989   2.119   0.454
 2429SOL     OW 8185   4.663   4.239   2.866
 2429SOL    HW1 8186   4.622   4.317   2.914
 2429SOL    HW2 8187   4.633   4.239   2.771
 2430SOL     OW 8188   5.653   0.149   1.982
 2430SOL    HW1 8189   5.717   0.100   2.041
 2430SOL    HW2 8190   5.575   0.181   2.036
 2431SOL     OW 8191   4.397   0.051   2.188
 2431SOL    HW1 8192   4.371   0.035   2.093
 2431SOL    HW2 8193   4.470   0.119   2.192
 2432SOL     OW 8194   2.886   5.810   2.417
 2432SOL    HW1 8195   2.807   5.850   2.463
 2432SOL    HW2 8196   2.949   5.773   2.485
 2433SOL     OW 8197   5.468   6.923   0.867
 2433SOL    HW1 8198   5.423   6.927   0.778
 2433SOL    HW2 8199   5.464   7.013   0.910
 2434SOL     OW 8200   3.157   3.045   4.843
 2434SOL    HW1 8201   3.160   2.992   4.928
 2434SOL    HW2 8202   3.162   3.142   4.864
 2435SOL     OW 8203   5.631   5.109   6.911
 2435SOL    HW1 8204   5.701   5.049   6.950
 2435SOL    HW2 8205   5.588   5.161   6.985
 2436SOL     OW 8206   3.373   4.720   0.121
 2436SOL    HW1 8207   3.441   4.725   0.048
 2436SOL    HW2 8208   3.282   4.710   0.080
 2437SOL     OW 8209   0.128   1.531   5.626
 2437SOL    HW1 8210   0.035   1.503   5.651
 2437SOL    HW2 8211   0.194   1.482   5.682
 2438SOL     OW 8212   3.545   3.888   0.524
 2438SOL    HW1 8213   3.587   3.797   0.525
 2438SOL    HW2 8214   3.452   3.881   0.488
 2439SOL     OW 8215   6.172   3.821   6.061
 2439SOL    HW1 8216   6.265   3.840   6.093
 2439SOL    HW2 8217   6.146   3.728   6.088
 2440SOL     OW 8218   6.665   5.192   6.350
 2440SOL    HW1 8219   6.680   5.201   6.252
 2440SOL    HW2 8220   6.724   5.121   6.387
 2441SOL     OW 8221   6.482   2.205   0.467
 2441SOL    HW1 8222   6.406   2.152   0.503
 2441SOL    HW2 8223   6.506   2.278   0.531
 2442SOL     OW 8224   6.834   1.719   5.002
 2442SOL    HW1 8225   6.758   1.765   5.048
 2442SOL    HW2 8226   6.855   1.765   4.916
 2443SOL     OW 8227   2.987   5.219   6.907
 2443SOL    HW1 8228   2.901   5.211   6.958
 2443SOL    HW2 8229   3.038   5.133   6.913
 2444SOL     OW 8230   3.813   3.197   6.368
 2444SOL    HW1 8231   3.770   3.107   6.372
 2444SOL    HW2 8232   3.839   3.226   6.460
 2445SOL     OW 8233   1.052   1.024   0.903
 2445SOL    HW1 8234   1.087   1.017   0.809
 2445SOL    HW2 8235   0.953   1.036   0.901
 2446SOL     OW 8236   5.419   3.182   6.229
 2446SOL    HW1 8237   5.519   3.191   6.232
 2446SOL    HW2 8238   5.393   3.144   6.140
 2447SOL     OW 8239   0.885   3.880   6.545
 2447SOL    HW1 8240   0.899   3.961   6.488
 2447SOL    HW2 8241   0.913   3.798   6.495
 2448SOL     OW 8242   6.330   0.411   5.088
 2448SOL    HW1 8243   6.349   0.473   5.012
 2448SOL    HW2 8244   6.368   0.321   5.068
 2449SOL     OW 8245   0.110   3.041   5.778
 2449SOL    HW1 8246   0.045   2.967   5.766
 2449SOL    HW2 8247   0.080   3.122   5.727
 2450SOL     OW 8248   3.021   2.855   1.059
 2450SOL    HW1 8249   3.025   2.954   1.042
 2450SOL    HW2 8250   3.103   2.812   1.023
 2451SOL     OW 8251   2.037   5.598   3.644
 2451SOL    HW1 8252   2.037   5.614   3.545
 2451SOL    HW2 8253   2.081   5.510   3.663
 2452SOL     OW 8254   3.343   1.557   3.643
 2452SOL    HW1 8255   3.343   1.641   3.698
 2452SOL    HW2 8256   3.339   1.478   3.703
 2453SOL     OW 8257   0.528   3.670   1.394
 2453SOL    HW1 8258   0.462   3.689   1.322
 2453SOL    HW2 8259   0.619   3.699   1.365
 2454SOL     OW 8260   6.903   0.043   2.087
 2454SOL    HW1 8261   6.838   0.026   2.161
 2454SOL    HW2 8262   6.861   0.014   2.000
 2455SOL     OW 8263   5.192   3.789   1.159
 2455SOL    HW1 8264   5.193   3.830   1.251
 2455SOL    HW2 8265   5.150   3.698   1.164
 2456SOL     OW 8266   2.619   0.024   0.931
 2456SOL    HW1 8267   2.562   6.966   0.919
 2456SOL    HW2 8268   2.582   0.100   0.877
 2457SOL     OW 8269   5.393   6.004   0.890
 2457SOL    HW1 8270   5.385   6.083   0.831
 2457SOL    HW2 8271   5.369   5.921   0.839
 2458SOL     OW 8272   0.452   6.836   1.577
 2458SOL    HW1 8273   0.518   6.875   1.642
 2458SOL    HW2 8274   0.419   6.908   1.516
 2459SOL     OW 8275   1.595   2.220   0.469
 2459SOL    HW1 8276   1.543   2.274   0.536
 2459SOL    HW2 8277   1.622   2.278   0.393
 2460SOL     OW 8278   1.671   4.204   1.317
 2460SOL    HW1 8279   1.671   4.154   1.404
 2460SOL    HW2 8280   1.734   4.282   1.323
 2461SOL     OW 8281   4.797   0.732   2.860
 2461SOL    HW1 8282   4.890   0.694   2.854
 2461SOL    HW2 8283   4.742   0.695   2.785
 2462SOL     OW 8284   3.079   5.336   6.670
 2462SOL    HW1 8285   3.169   5.294   6.667
 2462SOL    HW2 8286   3.038   5.321   6.760
 2463SOL     OW 8287   1.871   3.132   5.876
 2463SOL    HW1 8288   1.794   3.181   5.835
 2463SOL    HW2 8289   1.865   3.035   5.853
 2464SOL     OW 8290   0.765   3.945   0.975
 2464SOL    HW1 8291   0.758   3.865   0.916
 2464SOL    HW2 8292   0.793   4.024   0.922
 2465SOL     OW 8293   5.880   4.347   3.365
 2465SOL    HW1 8294   5.948   4.342   3.292
 2465SOL    HW2 8295   5.861   4.255   3.400
 2466SOL     OW 8296   4.052   1.544   1.574
 2466SOL    HW1 8297   3.958   1.514   1.591
 2466SOL    HW2 8298   4.061   1.640   1.602
 2467SOL     OW 8299   1.620   1.323   4.306
 2467SOL    HW1 8300   1.560   1.373   4.244
 2467SOL    HW2 8301   1.713   1.324   4.270
 2468SOL     OW 8302   6.827   4.462   7.019
 2468SOL    HW1 8303   6.847   4.375   6.972
 2468SOL    HW2 8304   6.750   4.507   6.975
 2469SOL     OW 8305   2.654   1.749   6.760
 2469SOL    HW1 8306   2.710   1.749   6.843
 2469SOL    HW2 8307   2.706   1.786   6.684
 2470SOL     OW 8308   5.474   3.189   0.515
 2470SOL    HW1 8309   5.539   3.137   0.459
 2470SOL    HW2 8310   5.497   3.178   0.611
 2471SOL     OW 8311   0.827   1.707   3.105
 2471SOL    HW1 8312   0.875   1.784   3.148
 2471SOL    HW2 8313   0.775   1.657   3.175
 2472SOL     OW 8314   6.728   0.522   4.690
 2472SOL    HW1 8315   6.781   0.445   4.655
 2472SOL    HW2 8316   6.786   0.579   4.748
 2473SOL     OW 8317   0.410   5.089   4.594
 2473SOL    HW1 8318   0.375   5.094   4.687
 2473SOL    HW2 8319   0.502   5.129   4.591
 2474SOL     OW 8320   5.828   6.724   4.219
 2474SOL    HW1 8321   5.801   6.768   4.304
 2474SOL    HW2 8322   5.882   6.642   4.239
 2475SOL     OW 8323   3.438   2.813   6.752
 2475SOL    HW1 8324   3.530   2.846   6.730
 2475SOL    HW2 8325   3.392   2.784   6.668
 2476SOL     OW 8326   0.543   1.775   4.023
 2476SOL    HW1 8327   0.629   1.735   3.989
 2476SOL    HW2 8328   0.466   1.727   3.982
 2477SOL     OW 8329   4.881   3.937   2.251
 2477SOL    HW1 8330   4.816   4.013   2.249
 2477SOL    HW2 8331   4.933   3.934   2.166
 2478SOL     OW 8332   6.733   0.815   2.155
 2478SOL    HW1 8333   6.809   0.760   2.120
 2478SOL    HW2 8334   6.649   0.760   2.153
 2479SOL     OW 8335   1.244   3.548   0.721
 2479SOL    HW1 8336   1.306   3.487   0.770
 2479SOL    HW2 8337   1.177   3.493   0.671
 2480SOL     OW 8338   6.453   4.725   0.243
 2480SOL    HW1 8339   6.485   4.666   0.169
 2480SOL    HW2 8340   6.442   4.818   0.208
 2481SOL     OW 8341   4.000   5.266   2.530
 2481SOL    HW1 8342   4.037   5.213   2.453
 2481SOL    HW2 8343   4.062   5.258   2.608
 2482SOL     OW 8344   3.767   2.144   4.487
 2482SOL    HW1 8345   3.738   2.131   4.582
 2482SOL    HW2 8346   3.866   2.139   4.481
 2483SOL     OW 8347   0.611   2.692   6.871
 2483SOL    HW1 8348   0.558   2.631   6.813
 2483SOL    HW2 8349   0.639   2.773   6.819
 2484SOL     OW 8350   3.325   3.955   5.364
 2484SOL    HW1 8351   3.348   3.876   5.420
 2484SOL    HW2 8352   3.231   3.948   5.332
 2485SOL     OW 8353   1.078   4.887   0.759
 2485SOL    HW1 8354   0.982   4.902   0.735
 2485SOL    HW2 8355   1.137   4.927   0.688
 2486SOL     OW 8356   0.282   5.373   3.946
 2486SOL    HW1 8357   0.279   5.445   3.877
 2486SOL    HW2 8358   0.257   5.411   4.035
 2487SOL     OW 8359   3.013   1.233   1.072
 2487SOL    HW1 8360   2.976   1.149   1.032
 2487SOL    HW2 8361   2.991   1.235   1.170
 2488SOL     OW 8362   2.156   5.614   6.435
 2488SOL    HW1 8363   2.156   5.521   6.399
 2488SOL    HW2 8364   2.220   5.620   6.512
 2489SOL     OW 8365   6.545   5.386   4.768
 2489SOL    HW1 8366   6.489   5.422   4.842
 2489SOL    HW2 8367   6.619   5.331   4.806
 2490SOL     OW 8368   5.785   2.729   1.569
 2490SOL    HW1 8369   5.745   2.818   1.592
 2490SOL    HW2 8370   5.848   2.700   1.641
 2491SOL     OW 8371   0.007   3.512   2.262
 2491SOL    HW1 8372   6.933   3.498   2.236
 2491SOL    HW2 8373   0.011   3.554   2.352
 2492SOL     OW 8374   4.221   1.664   0.606
 2492SOL    HW1 8375   4.308   1.656   0.654
 2492SOL    HW2 8376   4.236   1.698   0.514
 2493SOL     OW 8377   6.288   0.757   5.784
 2493SOL    HW1 8378   6.314   0.661   5.775
 2493SOL    HW2 8379   6.287   0.781   5.881
 2494SOL     OW 8380   5.700   5.448   1.112
 2494SOL    HW1 8381   5.622   5.435   1.174
 2494SOL    HW2 8382   5.677   5.519   1.045
 2495SOL     OW 8383   6.880   1.001   3.582
 2495SOL    HW1 8384   6.842   1.083   3.540
 2495SOL    HW2 8385   6.928   0.947   3.512
 2496SOL     OW 8386   1.765   4.609   0.475
 2496SOL    HW1 8387   1.849   4.662   0.466
 2496SOL    HW2 8388   1.788   4.514   0.496
 2497SOL     OW 8389   6.011   1.567   6.099
 2497SOL    HW1 8390   6.110   1.564   6.109
 2497SOL    HW2 8391   5.968   1.555   6.189
 2498SOL     OW 8392   1.600   3.303   4.673
 2498SOL    HW1 8393   1.615   3.372   4.602
 2498SOL    HW2 8394   1.518   3.325   4.724
 2499SOL     OW 8395   4.850   0.375   0.162
 2499SOL    HW1 8396   4.936   0.355   0.210
 2499SOL    HW2 8397   4.869   0.389   0.064
 2500SOL     OW 8398   4.939   2.978   6.335
 2500SOL    HW1 8399   4.952   2.966   6.237
 2500SOL    HW2 8400   4.915   3.073   6.355
 2501SOL     OW 8401   5.781   5.146   1.062
 2501SOL    HW1 8402   5.819   5.128   0.971
 2501SOL    HW2 8403   5.707   5.213   1.054
 2502SOL     OW 8404   1.329   6.572   3.140
 2502SOL    HW1 8405   1.349   6.499   3.205
 2502SOL    HW2 8406   1.250   6.545   3.084
 2503SOL     OW 8407   5.555   5.736   3.662
 2503SOL    HW1 8408   5.558   5.658   3.724
 2503SOL    HW2 8409   5.464   5.776   3.662
 2504SOL     OW 8410   3.411   4.874   2.750
 2504SOL    HW1 8411   3.361   4.917   2.675
 2504SOL    HW2 8412   3.476   4.807   2.713
 2505SOL     OW 8413   5.026   3.350   4.357
 2505SOL    HW1 8414   5.117   3.334   4.396
 2505SOL    HW2 8415   4.977   3.415   4.415
 2506SOL     OW 8416   1.108   1.092   0.203
 2506SOL    HW1 8417   1.096   1.182   0.160
 2506SOL    HW2 8418   1.120   1.023   0.131
 2507SOL     OW 8419   6.641   5.274   0.999
 2507SOL    HW1 8420   6.620   5.331   1.079
 2507SOL    HW2 8421   6.591   5.308   0.920
 2508SOL     OW 8422   1.360   1.553   1.966
 2508SOL    HW1 8423   1.273   1.512   1.938
 2508SOL    HW2 8424   1.429   1.481   1.972
 2509SOL     OW 8425   6.308   6.953   3.733
 2509SOL    HW1 8426   6.371   6.992   3.666
 2509SOL    HW2 8427   6.306   7.012   3.815
 2510SOL     OW 8428   3.825   5.985   2.836
 2510SOL    HW1 8429   3.848   5.895   2.800
 2510SOL    HW2 8430   3.743   6.020   2.789
 2511SOL     OW 8431   0.924   5.509   4.496
 2511SOL    HW1 8432   0.988   5.438   4.525
 2511SOL    HW2 8433   0.833   5.469   4.484
 2512SOL     OW 8434   6.048   3.518   4.684
 2512SOL    HW1 8435   5.962   3.501   4.638
 2512SOL    HW2 8436   6.076   3.437   4.736
 2513SOL     OW 8437   1.077   4.290   1.720
 2513SOL    HW1 8438   0.991   4.257   1.683
 2513SOL    HW2 8439   1.081   4.390   1.711
 2514SOL     OW 8440   0.150   2.248   4.681
 2514SOL    HW1 8441   0.149   2.207   4.590
 2514SOL    HW2 8442   0.057   2.275   4.706
 2515SOL     OW 8443   0.120   5.192   6.356
 2515SOL    HW1 8444   0.189   5.168   6.423
 2515SOL    HW2 8445   0.037   5.138   6.373
 2516SOL     OW 8446   4.835   6.184   5.124
 2516SOL    HW1 8447   4.894   6.170   5.203
 2516SOL    HW2 8448   4.887   6.166   5.040
 2517SOL     OW 8449   2.564   5.658   6.447
 2517SOL    HW1 8450   2.539   5.708   6.364
 2517SOL    HW2 8451   2.498   5.680   6.519
 2518SOL     OW 8452   2.236   2.342   0.811
 2518SOL    HW1 8453   2.212   2.391   0.727
 2518SOL    HW2 8454   2.336   2.337   0.820
 2519SOL     OW 8455   5.893   3.950   4.667
 2519SOL    HW1 8456   5.812   4.007   4.651
 2519SOL    HW2 8457   5.901   3.930   4.764
 2520SOL     OW 8458   4.438   5.830   1.175
 2520SOL    HW1 8459   4.520   5.823   1.231
 2520SOL    HW2 8460   4.406   5.925   1.174
 2521SOL     OW 8461   5.576   6.128   6.166
 2521SOL    HW1 8462   5.640   6.059   6.132
 2521SOL    HW2 8463   5.491   6.083   6.194
 2522SOL     OW 8464   3.233   5.907   4.853
 2522SOL    HW1 8465   3.217   5.818   4.810
 2522SOL    HW2 8466   3.158   5.928   4.916
 2523SOL     OW 8467   0.919   1.862   6.859
 2523SOL    HW1 8468   0.973   1.780   6.839
 2523SOL    HW2 8469   0.939   1.892   6.952
 2524SOL     OW 8470   2.008   0.184   4.449
 2524SOL    HW1 8471   2.067   0.112   4.412
 2524SOL    HW2 8472   1.950   0.220   4.376
 2525SOL     OW 8473   3.107   4.818   2.463
 2525SOL    HW1 8474   3.174   4.771   2.406
 2525SOL    HW2 8475   3.050   4.878   2.407
 2526SOL     OW 8476   2.190   3.495   5.242
 2526SOL    HW1 8477   2.248   3.563   5.285
 2526SOL    HW2 8478   2.225   3.403   5.263
 2527SOL     OW 8479   6.652   0.160   4.234
 2527SOL    HW1 8480   6.723   0.110   4.284
 2527SOL    HW2 8481   6.588   0.095   4.193
 2528SOL     OW 8482   5.294   5.029   2.715
 2528SOL    HW1 8483   5.374   4.995   2.667
 2528SOL    HW2 8484   5.292   4.993   2.808
 2529SOL     OW 8485   5.058   5.828   4.633
 2529SOL    HW1 8486   5.067   5.822   4.732
 2529SOL    HW2 8487   5.075   5.739   4.592
 2530SOL     OW 8488   1.426   6.951   3.404
 2530SOL    HW1 8489   1.410   6.885   3.331
 2530SOL    HW2 8490   1.395   0.019   3.374
 2531SOL     OW 8491   5.293   2.559   6.302
 2531SOL    HW1 8492   5.366   2.620   6.269
 2531SOL    HW2 8493   5.275   2.488   6.234
 2532SOL     OW 8494   6.455   4.972   0.107
 2532SOL    HW1 8495   6.528   4.959   0.174
 2532SOL    HW2 8496   6.438   5.070   0.094
 2533SOL     OW 8497   4.699   0.569   4.216
 2533SOL    HW1 8498   4.641   0.555   4.136
 2533SOL    HW2 8499   4.648   0.542   4.299
 2534SOL     OW 8500   6.218   0.299   2.291
 2534SOL    HW1 8501   6.298   0.270   2.239
 2534SOL    HW2 8502   6.243   0.376   2.351
 2535SOL     OW 8503   2.951   1.224   1.343
 2535SOL    HW1 8504   3.013   1.183   1.410
 2535SOL    HW2 8505   2.917   1.311   1.379
 2536SOL     OW 8506   0.468   6.823   2.672
 2536SOL    HW1 8507   0.566   6.818   2.649
 2536SOL    HW2 8508   0.455   6.796   2.767
 2537SOL     OW 8509   2.033   6.647   1.717
 2537SOL    HW1 8510   2.094   6.652   1.797
 2537SOL    HW2 8511   1.974   6.727   1.716
 2538SOL     OW 8512   6.941   5.291   4.814
 2538SOL    HW1 8513   6.899   5.294   4.905
 2538SOL    HW2 8514   6.962   5.196   4.791
 2539SOL     OW 8515   0.853   0.063   4.926
 2539SOL    HW1 8516   0.953   0.057   4.927
 2539SOL    HW2 8517   0.825   0.143   4.979
 2540SOL     OW 8518   5.846   2.899   2.576
 2540SOL    HW1 8519   5.789   2.964   2.526
 2540SOL    HW2 8520   5.796   2.863   2.655
 2541SOL     OW 8521   1.700   0.211   6.945
 2541SOL    HW1 8522   1.794   0.196   6.978
 2541SOL    HW2 8523   1.670   0.131   6.893
 2542SOL     OW 8524   3.736   2.020   3.067
 2542SOL    HW1 8525   3.703   1.945   3.010
 2542SOL    HW2 8526   3.835   2.009   3.082
 2543SOL     OW 8527   6.015   6.473   5.339
 2543SOL    HW1 8528   5.952   6.544   5.307
 2543SOL    HW2 8529   6.033   6.486   5.437
 2544SOL     OW 8530   0.188   0.820   0.313
 2544SOL    HW1 8531   0.282   0.797   0.337
 2544SOL    HW2 8532   0.137   0.737   0.291
 2545SOL     OW 8533   0.916   1.462   0.406
 2545SOL    HW1 8534   0.873   1.483   0.318
 2545SOL    HW2 8535   0.855   1.403   0.459
 2546SOL     OW 8536   6.404   2.892   3.863
 2546SOL    HW1 8537   6.358   2.976   3.892
 2546SOL    HW2 8538   6.500   2.895   3.890
 2547SOL     OW 8539   6.346   3.245   0.637
 2547SOL    HW1 8540   6.431   3.192   0.637
 2547SOL    HW2 8541   6.269   3.185   0.617
 2548SOL     OW 8542   5.591   0.021   5.530
 2548SOL    HW1 8543   5.660   0.057   5.468
 2548SOL    HW2 8544   5.633   6.973   5.589
 2549SOL     OW 8545   3.061   4.117   6.534
 2549SOL    HW1 8546   3.065   4.116   6.634
 2549SOL    HW2 8547   3.154   4.120   6.497
 2550SOL     OW 8548   4.067   0.822   1.678
 2550SOL    HW1 8549   4.088   0.917   1.653
 2550SOL    HW2 8550   4.025   0.776   1.599
 2551SOL     OW 8551   2.407   4.615   0.084
 2551SOL    HW1 8552   2.400   4.694   0.145
 2551SOL    HW2 8553   2.476   4.633   0.014
 2552SOL     OW 8554   3.062   5.357   0.406
 2552SOL    HW1 8555   3.035   5.342   0.502
 2552SOL    HW2 8556   3.161   5.355   0.399
 2553SOL     OW 8557   3.759   1.991   1.608
 2553SOL    HW1 8558   3.796   2.076   1.569
 2553SOL    HW2 8559   3.689   2.013   1.675
 2554SOL     OW 8560   1.357   5.485   0.800
 2554SOL    HW1 8561   1.444   5.436   0.808
 2554SOL    HW2 8562   1.284   5.428   0.837
 2555SOL     OW 8563   0.363   5.891   4.623
 2555SOL    HW1 8564   0.450   5.911   4.666
 2555SOL    HW2 8565   0.296   5.863   4.693
 2556SOL     OW 8566   5.672   0.165   6.489
 2556SOL    HW1 8567   5.760   0.205   6.463
 2556SOL    HW2 8568   5.666   0.160   6.588
 2557SOL     OW 8569   2.554   1.046   0.680
 2557SOL    HW1 8570   2.488   1.116   0.652
 2557SOL    HW2 8571   2.581   1.062   0.775
 2558SOL     OW 8572   5.464   2.862   1.499
 2558SOL    HW1 8573   5.536   2.910   1.548
 2558SOL    HW2 8574   5.420   2.925   1.435
 2559SOL     OW 8575   0.043   6.124   3.294
 2559SOL    HW1 8576   0.080   6.031   3.286
 2559SOL    HW2 8577   0.108   6.181   3.344
 2560SOL     OW 8578   3.589   3.215   1.552
 2560SOL    HW1 8579   3.516   3.266   1.598
 2560SOL    HW2 8580   3.565   3.118   1.551
 2561SOL     OW 8581   3.594   0.848   4.834
 2561SOL    HW1 8582   3.595   0.841   4.734
 2561SOL    HW2 8583   3.686   0.865   4.867
 2562SOL     OW 8584   0.713   6.789   4.508
 2562SOL    HW1 8585   0.651   6.712   4.493
 2562SOL    HW2 8586   0.760   6.778   4.595
 2563SOL     OW 8587   4.557   1.669   0.115
 2563SOL    HW1 8588   4.619   1.703   0.044
 2563SOL    HW2 8589   4.537   1.572   0.099
 2564SOL     OW 8590   2.041   0.180   1.081
 2564SOL    HW1 8591   1.961   0.179   1.141
 2564SOL    HW2 8592   2.106   0.249   1.112
 2565SOL     OW 8593   6.116   0.419   0.253
 2565SOL    HW1 8594   6.214   0.398   0.245
 2565SOL    HW2 8595   6.103   0.489   0.324
 2566SOL     OW 8596   3.201   1.577   0.659
 2566SOL    HW1 8597   3.222   1.668   0.625
 2566SOL    HW2 8598   3.174   1.582   0.755
 2567SOL     OW 8599   1.887   0.613   6.243
 2567SOL    HW1 8600   1.810   0.598   6.182
 2567SOL    HW2 8601   1.856   0.659   6.326
 2568SOL     OW 8602   3.053   6.580   6.739
 2568SOL    HW1 8603   3.092   6.606   6.827
 2568SOL    HW2 8604   2.984   6.508   6.753
 2569SOL     OW 8605   2.903   6.489   6.263
 2569SOL    HW1 8606   2.833   6.486   6.192
 2569SOL    HW2 8607   2.886   6.568   6.323
 2570SOL     OW 8608   0.127   0.442   3.733
 2570SOL    HW1 8609   0.157   0.536   3.746
 2570SOL    HW2 8610   0.155   0.409   3.643
 2571SOL     OW 8611   3.135   3.540   2.212
 2571SOL    HW1 8612   3.232   3.516   2.225
 2571SOL    HW2 8613   3.122   3.637   2.230
 2572SOL     OW 8614   2.046   6.122   2.239
 2572SOL    HW1 8615   2.115   6.159   2.178
 2572SOL    HW2 8616   2.084   6.044   2.289
 2573SOL     OW 8617   6.181   0.030   2.374
 2573SOL    HW1 8618   6.174   0.128   2.356
 2573SOL    HW2 8619   6.234   7.009   2.300
 2574SOL     OW 8620   0.835   4.804   1.578
 2574SOL    HW1 8621   0.753   4.792   1.520
 2574SOL    HW2 8622   0.855   4.717   1.624
 2575SOL     OW 8623   4.134   3.349   5.099
 2575SOL    HW1 8624   4.200   3.281   5.069
 2575SOL    HW2 8625   4.179   3.413   5.163
 2576SOL     OW 8626   1.414   0.707   3.624
 2576SOL    HW1 8627   1.432   0.745   3.533
 2576SOL    HW2 8628   1.482   0.637   3.644
 2577SOL     OW 8629   1.135   4.525   0.326
 2577SOL    HW1 8630   1.190   4.443   0.314
 2577SOL    HW2 8631   1.038   4.503   0.312
 2578SOL     OW 8632   5.645   0.690   5.238
 2578SOL    HW1 8633   5.628   0.699   5.336
 2578SOL    HW2 8634   5.585   0.620   5.199
 2579SOL     OW 8635   0.638   2.411   6.329
 2579SOL    HW1 8636   0.549   2.376   6.359
 2579SOL    HW2 8637   0.644   2.508   6.351
 2580SOL     OW 8638   1.725   2.658   5.122
 2580SOL    HW1 8639   1.740   2.632   5.026
 2580SOL    HW2 8640   1.628   2.651   5.144
 2581SOL     OW 8641   4.764   6.897   4.080
 2581SOL    HW1 8642   4.855   6.857   4.072
 2581SOL    HW2 8643   4.707   6.839   4.139
 2582SOL     OW 8644   6.784   4.561   2.551
 2582SOL    HW1 8645   6.833   4.623   2.490
 2582SOL    HW2 8646   6.803   4.586   2.646
 2583SOL     OW 8647   3.211   0.403   6.879
 2583SOL    HW1 8648   3.260   0.344   6.815
 2583SOL    HW2 8649   3.238   0.380   6.973
 2584SOL     OW 8650   3.369   1.254   4.266
 2584SOL    HW1 8651   3.381   1.170   4.214
 2584SOL    HW2 8652   3.428   1.252   4.347
 2585SOL     OW 8653   3.352   0.512   2.830
 2585SOL    HW1 8654   3.303   0.515   2.743
 2585SOL    HW2 8655   3.386   0.603   2.853
 2586SOL     OW 8656   2.307   1.345   4.784
 2586SOL    HW1 8657   2.364   1.293   4.720
 2586SOL    HW2 8658   2.322   1.312   4.877
 2587SOL     OW 8659   6.292   4.436   3.314
 2587SOL    HW1 8660   6.269   4.527   3.278
 2587SOL    HW2 8661   6.301   4.372   3.238
 2588SOL     OW 8662   2.541   6.991   2.345
 2588SOL    HW1 8663   2.500   0.020   2.269
 2588SOL    HW2 8664   2.612   6.931   2.309
 2589SOL     OW 8665   5.011   7.002   1.863
 2589SOL    HW1 8666   4.919   6.998   1.826
 2589SOL    HW2 8667   5.025   6.929   1.929
 2590SOL     OW 8668   4.234   6.147   4.127
 2590SOL    HW1 8669   4.319   6.199   4.141
 2590SOL    HW2 8670   4.248   6.054   4.161
 2591SOL     OW 8671   5.162   0.584   0.448
 2591SOL    HW1 8672   5.096   0.633   0.505
 2591SOL    HW2 8673   5.244   0.640   0.436
 2592SOL     OW 8674   2.788   6.089   1.802
 2592SOL    HW1 8675   2.887   6.078   1.799
 2592SOL    HW2 8676   2.761   6.116   1.895
 2593SOL     OW 8677   2.842   0.015   4.258
 2593SOL    HW1 8678   2.902   0.011   4.178
 2593SOL    HW2 8679   2.893   7.013   4.340
 2594SOL     OW 8680   1.172   5.965   6.377
 2594SOL    HW1 8681   1.252   5.995   6.325
 2594SOL    HW2 8682   1.197   5.952   6.473
 2595SOL     OW 8683   6.914   3.627   5.535
 2595SOL    HW1 8684   6.991   3.598   5.479
 2595SOL    HW2 8685   6.828   3.600   5.491
 2596SOL     OW 8686   4.361   1.678   1.192
 2596SOL    HW1 8687   4.289   1.636   1.247
 2596SOL    HW2 8688   4.322   1.720   1.111
 2597SOL     OW 8689   3.029   2.418   5.854
 2597SOL    HW1 8690   3.055   2.463   5.769
 2597SOL    HW2 8691   3.090   2.340   5.871
 2598SOL     OW 8692   6.725   1.255   3.474
 2598SOL    HW1 8693   6.685   1.260   3.565
 2598SOL    HW2 8694   6.653   1.254   3.405
 2599SOL     OW 8695   4.841   6.000   6.220
 2599SOL    HW1 8696   4.905   5.982   6.295
 2599SOL    HW2 8697   4.892   6.012   6.135
 2600SOL     OW 8698   6.854   3.526   5.073
 2600SOL    HW1 8699   6.846   3.465   4.994
 2600SOL    HW2 8700   6.949   3.528   5.105
 2601SOL     OW 8701   4.023   4.268   5.282
 2601SOL    HW1 8702   4.074   4.345   5.243
 2601SOL    HW2 8703   4.069   4.182   5.258
 2602SOL     OW 8704   5.941   0.341   0.045
 2602SOL    HW1 8705   5.949   0.407   6.992
 2602SOL    HW2 8706   6.018   0.353   0.108
 2603SOL     OW 8707   2.182   1.354   6.832
 2603SOL    HW1 8708   2.162   1.336   6.735
 2603SOL    HW2 8709   2.121   1.427   6.865
 2604SOL     OW 8710   5.787   1.059   0.324
 2604SOL    HW1 8711   5.884   1.059   0.350
 2604SOL    HW2 8712   5.773   1.124   0.249
 2605SOL     OW 8713   5.582   1.375   5.385
 2605SOL    HW1 8714   5.614   1.346   5.295
 2605SOL    HW2 8715   5.594   1.301   5.451
 2606SOL     OW 8716   6.054   4.501   1.090
 2606SOL    HW1 8717   5.967   4.457   1.069
 2606SOL    HW2 8718   6.040   4.600   1.098
 2607SOL     OW 8719   0.491   0.079   2.642
 2607SOL    HW1 8720   0.397   0.108   2.624
 2607SOL    HW2 8721   0.491   7.003   2.664
 2608SOL     OW 8722   4.550   0.969   0.228
 2608SOL    HW1 8723   4.550   0.870   0.215
 2608SOL    HW2 8724   4.630   1.008   0.184
 2609SOL     OW 8725   0.801   3.792   3.805
 2609SOL    HW1 8726   0.831   3.854   3.733
 2609SOL    HW2 8727   0.880   3.740   3.838
 2610SOL     OW 8728   5.456   4.781   5.069
 2610SOL    HW1 8729   5.541   4.781   5.016
 2610SOL    HW2 8730   5.400   4.859   5.042
 2611SOL     OW 8731   2.996   6.402   1.301
 2611SOL    HW1 8732   2.931   6.421   1.228
 2611SOL    HW2 8733   2.960   6.328   1.359
 2612SOL     OW 8734   0.535   0.182   3.889
 2612SOL    HW1 8735   0.618   0.232   3.913
 2612SOL    HW2 8736   0.455   0.228   3.928
 2613SOL     OW 8737   4.029   1.633   6.993
 2613SOL    HW1 8738   4.091   1.710   6.975
 2613SOL    HW2 8739   4.082   1.554   0.001
 2614SOL     OW 8740   6.031   6.567   7.002
 2614SOL    HW1 8741   6.032   6.556   0.080
 2614SOL    HW2 8742   6.123   6.589   6.971
 2615SOL     OW 8743   6.874   4.863   1.169
 2615SOL    HW1 8744   6.841   4.811   1.248
 2615SOL    HW2 8745   6.821   4.948   1.162
 2616SOL     OW 8746   3.758   3.423   1.971
 2616SOL    HW1 8747   3.692   3.349   1.958
 2616SOL    HW2 8748   3.716   3.510   1.943
 2617SOL     OW 8749   3.286   6.898   0.336
 2617SOL    HW1 8750   3.242   6.950   0.262
 2617SOL    HW2 8751   3.381   6.930   0.346
 2618SOL     OW 8752   1.289   5.731   0.223
 2618SOL    HW1 8753   1.307   5.773   0.134
 2618SOL    HW2 8754   1.375   5.697   0.261
 2619SOL     OW 8755   5.851   0.588   2.577
 2619SOL    HW1 8756   5.834   0.621   2.484
 2619SOL    HW2 8757   5.783   0.627   2.639
 2620SOL     OW 8758   1.621   6.386   3.989
 2620SOL    HW1 8759   1.688   6.313   4.000
 2620SOL    HW2 8760   1.668   6.474   3.984
 2621SOL     OW 8761   1.277   5.965   4.382
 2621SOL    HW1 8762   1.188   5.919   4.387
 2621SOL    HW2 8763   1.334   5.920   4.314
 2622SOL     OW 8764   2.535   2.479   3.890
 2622SOL    HW1 8765   2.535   2.571   3.850
 2622SOL    HW2 8766   2.441   2.443   3.889
 2623SOL     OW 8767   3.292   0.207   5.298
 2623SOL    HW1 8768   3.348   0.163   5.368
 2623SOL    HW2 8769   3.199   0.220   5.333
 2624SOL     OW 8770   4.694   2.121   4.632
 2624SOL    HW1 8771   4.719   2.118   4.535
 2624SOL    HW2 8772   4.598   2.097   4.643
 2625SOL     OW 8773   1.363   0.427   5.572
 2625SOL    HW1 8774   1.356   0.393   5.666
 2625SOL    HW2 8775   1.457   0.458   5.555
 2626SOL     OW 8776   2.610   6.861   3.244
 2626SOL    HW1 8777   2.551   6.805   3.302
 2626SOL    HW2 8778   2.556   6.935   3.203
 2627SOL     OW 8779   1.414   0.328   3.819
 2627SOL    HW1 8780   1.458   0.367   3.738
 2627SOL    HW2 8781   1.483   0.286   3.878
 2628SOL     OW 8782   4.704   5.084   6.564
 2628SOL    HW1 8783   4.643   5.051   6.636
 2628SOL    HW2 8784   4.673   5.051   6.476
 2629SOL     OW 8785   3.072   3.931   1.658
 2629SOL    HW1 8786   2.974   3.924   1.639
 2629SOL    HW2 8787   3.088   4.006   1.723
 2630SOL     OW 8788   3.465   1.493   2.447
 2630SOL    HW1 8789   3.484   1.530   2.356
 2630SOL    HW2 8790   3.369   1.509   2.470
 2631SOL     OW 8791   3.237   6.475   3.164
 2631SOL    HW1 8792   3.189   6.437   3.085
 2631SOL    HW2 8793   3.207   6.428   3.247
 2632SOL     OW 8794   5.369   1.574   0.240
 2632SOL    HW1 8795   5.340   1.520   0.319
 2632SOL    HW2 8796   5.459   1.614   0.259
 2633SOL     OW 8797   0.146   2.419   0.475
 2633SOL    HW1 8798   0.235   2.462   0.457
 2633SOL    HW2 8799   0.141   2.331   0.429
 2634SOL     OW 8800   2.523   4.924   0.030
 2634SOL    HW1 8801   2.440   4.930   0.085
 2634SOL    HW2 8802   2.603   4.939   0.088
 2635SOL     OW 8803   5.966   4.173   3.727
 2635SOL    HW1 8804   6.000   4.180   3.820
 2635SOL    HW2 8805   5.965   4.265   3.685
 2636SOL     OW 8806   5.427   4.891   5.855
 2636SOL    HW1 8807   5.453   4.988   5.861
 2636SOL    HW2 8808   5.330   4.885   5.828
 2637SOL     OW 8809   5.717   5.233   2.229
 2637SOL    HW1 8810   5.741   5.327   2.208
 2637SOL    HW2 8811   5.686   5.227   2.324
 2638SOL     OW 8812   4.390   5.223   0.067
 2638SOL    HW1 8813   4.484   5.242   0.098
 2638SOL    HW2 8814   4.357   5.300   0.013
 2639SOL     OW 8815   6.494   0.725   0.321
 2639SOL    HW1 8816   6.399   0.748   0.297
 2639SOL    HW2 8817   6.512   0.630   0.297
 2640SOL     OW 8818   6.642   6.207   1.569
 2640SOL    HW1 8819   6.659   6.225   1.472
 2640SOL    HW2 8820   6.642   6.108   1.585
 2641SOL     OW 8821   6.618   5.626   1.439
 2641SOL    HW1 8822   6.597   5.594   1.347
 2641SOL    HW2 8823   6.534   5.628   1.493
 2642SOL     OW 8824   6.916   7.002   4.063
 2642SOL    HW1 8825   7.008   0.018   4.068
 2642SOL    HW2 8826   6.874   7.004   4.154
 2643SOL     OW 8827   1.272   0.688   2.134
 2643SOL    HW1 8828   1.211   0.654   2.205
 2643SOL    HW2 8829   1.367   0.673   2.161
 2644SOL     OW 8830   6.047   6.479   4.705
 2644SOL    HW1 8831   5.948   6.471   4.710
 2644SOL    HW2 8832   6.078   6.457   4.613
 2645SOL     OW 8833   6.234   6.065   6.671
 2645SOL    HW1 8834   6.298   6.000   6.632
 2645SOL    HW2 8835   6.257   6.157   6.639
 2646SOL     OW 8836   5.735   4.996   5.607
 2646SOL    HW1 8837   5.725   4.988   5.706
 2646SOL    HW2 8838   5.740   4.904   5.567
 2647SOL     OW 8839   2.958   4.034   1.005
 2647SOL    HW1 8840   3.050   4.043   0.966
 2647SOL    HW2 8841   2.955   3.953   1.065
 2648SOL     OW 8842   4.728   1.289   3.268
 2648SOL    HW1 8843   4.643   1.238   3.260
 2648SOL    HW2 8844   4.709   1.387   3.263
 2649SOL     OW 8845   2.862   4.054   5.144
 2649SOL    HW1 8846   2.926   4.063   5.068
 2649SOL    HW2 8847   2.769   4.051   5.109
 2650SOL     OW 8848   6.981   6.317   2.738
 2650SOL    HW1 8849   6.920   6.382   2.785
 2650SOL    HW2 8850   7.020   6.361   2.657
 2651SOL     OW 8851   1.748   0.541   2.829
 2651SOL    HW1 8852   1.834   0.592   2.837
 2651SOL    HW2 8853   1.696   0.551   2.914
 2652SOL     OW 8854   2.924   2.076   1.609
 2652SOL    HW1 8855   2.873   2.086   1.695
 2652SOL    HW2 8856   2.932   2.165   1.564
 2653SOL     OW 8857   5.706   0.451   0.254
 2653SOL    HW1 8858   5.666   0.360   0.243
 2653SOL    HW2 8859   5.805   0.442   0.268
 2654SOL     OW 8860   0.542   3.625   5.630
 2654SOL    HW1 8861   0.470   3.634   5.562
 2654SOL    HW2 8862   0.631   3.617   5.585
 2655SOL     OW 8863   5.444   4.687   4.306
 2655SOL    HW1 8864   5.346   4.693   4.327
 2655SOL    HW2 8865   5.462   4.734   4.219
 2656SOL     OW 8866   5.659   3.656   5.165
 2656SOL    HW1 8867   5.571   3.638   5.122
 2656SOL    HW2 8868   5.731   3.651   5.096
 2657SOL     OW 8869   4.378   2.135   5.595
 2657SOL    HW1 8870   4.380   2.037   5.573
 2657SOL    HW2 8871   4.471   2.167   5.614
 2658SOL     OW 8872   0.274   4.551   5.795
 2658SOL    HW1 8873   0.364   4.565   5.754
 2658SOL    HW2 8874   0.274   4.586   5.888
 2659SOL     OW 8875   6.073   0.354   3.534
 2659SOL    HW1 8876   6.059   0.280   3.469
 2659SOL    HW2 8877   6.120   0.430   3.490
 2660SOL     OW 8878   0.978   1.537   3.700
 2660SOL    HW1 8879   0.890   1.586   3.696
 2660SOL    HW2 8880   1.014   1.541   3.793
 2661SOL     OW 8881   3.586   6.848   3.527
 2661SOL    HW1 8882   3.599   6.788   3.606
 2661SOL    HW2 8883   3.554   6.937   3.557
 2662SOL     OW 8884   4.394   1.530   4.965
 2662SOL    HW1 8885   4.324   1.538   5.035
 2662SOL    HW2 8886   4.480   1.501   5.007
 2663SOL     OW 8887   1.216   4.220   3.416
 2663SOL    HW1 8888   1.182   4.171   3.497
 2663SOL    HW2 8889   1.212   4.319   3.433
 2664SOL     OW 8890   5.184   4.250   1.909
 2664SOL    HW1 8891   5.205   4.332   1.855
 2664SOL    HW2 8892   5.220   4.170   1.863
 2665SOL     OW 8893   3.744   0.605   5.330
 2665SOL    HW1 8894   3.835   0.647   5.332
 2665SOL    HW2 8895   3.705   0.614   5.239
 2666SOL     OW 8896   4.368   6.130   1.514
 2666SOL    HW1 8897   4.271   6.157   1.515
 2666SOL    HW2 8898   4.383   6.058   1.582
 2667SOL     OW 8899   1.667   5.340   2.594
 2667SOL    HW1 8900   1.725   5.419   2.570
 2667SOL    HW2 8901   1.702   5.258   2.549
 2668SOL     OW 8902   0.379   2.585   5.465
 2668SOL    HW1 8903   0.350   2.604   5.371
 2668SOL    HW2 8904   0.412   2.491   5.471
 2669SOL     OW 8905   3.810   5.174   4.748
 2669SOL    HW1 8906   3.745   5.101   4.768
 2669SOL    HW2 8907   3.761   5.258   4.725
 2670SOL     OW 8908   2.115   6.953   4.401
 2670SOL    HW1 8909   2.165   6.923   4.320
 2670SOL    HW2 8910   2.033   6.897   4.413
 2671SOL     OW 8911   2.688   3.488   6.667
 2671SOL    HW1 8912   2.673   3.402   6.716
 2671SOL    HW2 8913   2.717   3.468   6.574
 2672SOL     OW 8914   0.933   4.395   0.707
 2672SOL    HW1 8915   0.853   4.398   0.767
 2672SOL    HW2 8916   1.014   4.372   0.760
 2673SOL     OW 8917   4.077   2.068   3.388
 2673SOL    HW1 8918   4.046   1.989   3.441
 2673SOL    HW2 8919   4.129   2.130   3.447
 2674SOL     OW 8920   5.206   5.360   5.297
 2674SOL    HW1 8921   5.165   5.333   5.384
 2674SOL    HW2 8922   5.304   5.374   5.310
 2675SOL     OW 8923   0.077   5.519   5.630
 2675SOL    HW1 8924   0.140   5.546   5.704
 2675SOL    HW2 8925   0.024   5.599   5.601
 2676SOL     OW 8926   4.267   0.177   1.717
 2676SOL    HW1 8927   4.287   0.120   1.638
 2676SOL    HW2 8928   4.322   0.261   1.712
 2677SOL     OW 8929   2.331   4.755   2.687
 2677SOL    HW1 8930   2.357   4.845   2.719
 2677SOL    HW2 8931   2.290   4.762   2.596
 2678SOL     OW 8932   1.204   6.315   0.354
 2678SOL    HW1 8933   1.139   6.350   0.287
 2678SOL    HW2 8934   1.247   6.232   0.319
 2679SOL     OW 8935   2.800   4.804   1.348
 2679SOL    HW1 8936   2.750   4.755   1.419
 2679SOL    HW2 8937   2.887   4.757   1.330
 2680SOL     OW 8938   0.072   1.726   1.134
 2680SOL    HW1 8939   0.044   1.729   1.230
 2680SOL    HW2 8940   0.127   1.807   1.113
 2681SOL     OW 8941   1.502   1.497   1.431
 2681SOL    HW1 8942   1.548   1.446   1.359
 2681SOL    HW2 8943   1.475   1.587   1.397
 2682SOL     OW 8944   0.930   2.887   3.716
 2682SOL    HW1 8945   0.979   2.801   3.702
 2682SOL    HW2 8946   0.925   2.937   3.629
 2683SOL     OW 8947   1.721   0.119   0.881
 2683SOL    HW1 8948   1.691   0.208   0.915
 2683SOL    HW2 8949   1.817   0.125   0.852
 2684SOL     OW 8950   3.733   4.947   3.222
 2684SOL    HW1 8951   3.831   4.936   3.211
 2684SOL    HW2 8952   3.714   5.002   3.303
 2685SOL     OW 8953   5.421   4.627   5.766
 2685SOL    HW1 8954   5.444   4.709   5.714
 2685SOL    HW2 8955   5.341   4.583   5.725
 2686SOL     OW 8956   1.509   3.400   3.828
 2686SOL    HW1 8957   1.464   3.420   3.741
 2686SOL    HW2 8958   1.501   3.302   3.848
 2687SOL     OW 8959   4.729   5.271   2.892
 2687SOL    HW1 8960   4.674   5.215   2.830
 2687SOL    HW2 8961   4.810   5.306   2.844
 2688SOL     OW 8962   3.436   4.589   5.581
 2688SOL    HW1 8963   3.491   4.584   5.664
 2688SOL    HW2 8964   3.486   4.547   5.505
 2689SOL     OW 8965   6.564   0.797   3.929
 2689SOL    HW1 8966   6.549   0.885   3.885
 2689SOL    HW2 8967   6.494   0.782   3.999
 2690SOL     OW 8968   3.597   4.066   3.288
 2690SOL    HW1 8969   3.544   4.102   3.211
 2690SOL    HW2 8970   3.543   4.073   3.372
 2691SOL     OW 8971   0.839   6.394   1.257
 2691SOL    HW1 8972   0.810   6.313   1.307
 2691SOL    HW2 8973   0.777   6.470   1.277
 2692SOL     OW 8974   0.055   3.977   4.040
 2692SOL    HW1 8975   0.085   3.881   4.042
 2692SOL    HW2 8976   0.115   4.031   4.099
 2693SOL     OW 8977   2.129   3.540   2.534
 2693SOL    HW1 8978   2.184   3.552   2.451
 2693SOL    HW2 8979   2.189   3.519   2.611
 2694SOL     OW 8980   1.987   2.061   2.701
 2694SOL    HW1 8981   2.062   2.034   2.762
 2694SOL    HW2 8982   2.018   2.138   2.644
 2695SOL     OW 8983   3.892   2.327   1.741
 2695SOL    HW1 8984   3.807   2.312   1.791
 2695SOL    HW2 8985   3.891   2.273   1.657
 2696SOL     OW 8986   2.929   3.360   6.848
 2696SOL    HW1 8987   2.876   3.354   6.933
 2696SOL    HW2 8988   2.917   3.275   6.796
 2697SOL     OW 8989   2.143   1.319   5.068
 2697SOL    HW1 8990   2.241   1.307   5.052
 2697SOL    HW2 8991   2.105   1.236   5.108
 2698SOL     OW 8992   2.201   2.103   0.398
 2698SOL    HW1 8993   2.135   2.159   0.348
 2698SOL    HW2 8994   2.215   2.016   0.351
 2699SOL     OW 8995   1.616   4.349   4.103
 2699SOL    HW1 8996   1.683   4.275   4.101
 2699SOL    HW2 8997   1.548   4.334   4.031
 2700SOL     OW 8998   1.951   4.569   3.520
 2700SOL    HW1 8999   1.880   4.534   3.458
 2700SOL    HW2 9000   1.914   4.576   3.613
 2701SOL     OW 9001   1.141   1.090   4.667
 2701SOL    HW1 9002   1.135   1.169   4.729
 2701SOL    HW2 9003   1.219   1.102   4.605
 2702SOL     OW 9004   6.070   5.647   2.119
 2702SOL    HW1 9005   6.048   5.656   2.216
 2702SOL    HW2 9006   5.991   5.677   2.065
 2703SOL     OW 9007   2.218   2.957   2.382
 2703SOL    HW1 9008   2.263   2.896   2.317
 2703SOL    HW2 9009   2.137   2.911   2.420
 2704SOL     OW 9010   0.640   5.757   1.132
 2704SOL    HW1 9011   0.647   5.709   1.045
 2704SOL    HW2 9012   0.720   5.815   1.145
 2705SOL     OW 9013   0.067   2.778   2.886
 2705SOL    HW1 9014   7.021   2.798   2.956
 2705SOL    HW2 9015   0.141   2.723   2.927
 2706SOL     OW 9016   6.983   1.916   3.224
 2706SOL    HW1 9017   6.975   1.880   3.131
 2706SOL    HW2 9018   6.893   1.945   3.256
 2707SOL     OW 9019   3.602   0.838   0.522
 2707SOL    HW1 9020   3.622   0.796   0.611
 2707SOL    HW2 9021   3.579   0.935   0.535
 2708SOL     OW 9022   1.102   4.445   6.620
 2708SOL    HW1 9023   1.200   4.451   6.638
 2708SOL    HW2 9024   1.084   4.467   6.524
 2709SOL     OW 9025   4.029   0.282   1.797
 2709SOL    HW1 9026   4.123   0.252   1.781
 2709SOL    HW2 9027   4.025   0.330   1.885
 2710SOL     OW 9028   5.746   3.871   3.378
 2710SOL    HW1 9029   5.662   3.877   3.325
 2710SOL    HW2 9030   5.786   3.780   3.368
 2711SOL     OW 9031   6.862   6.791   2.341
 2711SOL    HW1 9032   6.949   6.789   2.390
 2711SOL    HW2 9033   6.789   6.815   2.404
 2712SOL     OW 9034   4.213   5.531   3.192
 2712SOL    HW1 9035   4.254   5.459   3.137
 2712SOL    HW2 9036   4.271   5.612   3.189
 2713SOL     OW 9037   2.773   2.816   5.565
 2713SOL    HW1 9038   2.682   2.776   5.558
 2713SOL    HW2 9039   2.787   2.879   5.489
 2714SOL     OW 9040   5.922   0.382   6.485
 2714SOL    HW1 9041   5.843   0.406   6.542
 2714SOL    HW2 9042   5.993   0.341   6.543
 2715SOL     OW 9043   6.201   6.649   6.040
 2715SOL    HW1 9044   6.226   6.626   6.134
 2715SOL    HW2 9045   6.282   6.642   5.982
 2716SOL     OW 9046   5.880   6.765   1.728
 2716SOL    HW1 9047   5.967   6.794   1.688
 2716SOL    HW2 9048   5.807   6.825   1.697
 2717SOL     OW 9049   6.863   0.011   2.986
 2717SOL    HW1 9050   6.847   7.018   3.083
 2717SOL    HW2 9051   6.954   7.002   2.961
 2718SOL     OW 9052   6.819   3.946   3.222
 2718SOL    HW1 9053   6.906   3.967   3.266
 2718SOL    HW2 9054   6.777   3.867   3.267
 2719SOL     OW 9055   4.850   4.109   3.523
 2719SOL    HW1 9056   4.834   4.105   3.621
 2719SOL    HW2 9057   4.878   4.019   3.490
 2720SOL     OW 9058   0.164   0.081   4.373
 2720SOL    HW1 9059   0.122   0.014   4.312
 2720SOL    HW2 9060   0.157   0.172   4.332
 2721SOL     OW 9061   4.793   6.133   2.180
 2721SOL    HW1 9062   4.717   6.174   2.231
 2721SOL    HW2 9063   4.783   6.033   2.181
 2722SOL     OW 9064   0.723   6.364   2.661
 2722SOL    HW1 9065   0.720   6.445   2.720
 2722SOL    HW2 9066   0.730   6.282   2.718
 2723SOL     OW 9067   2.914   1.721   4.636
 2723SOL    HW1 9068   2.900   1.762   4.546
 2723SOL    HW2 9069   3.012   1.721   4.657
 2724SOL     OW 9070   4.497   5.520   5.929
 2724SOL    HW1 9071   4.508   5.618   5.945
 2724SOL    HW2 9072   4.498   5.502   5.830
 2725SOL     OW 9073   1.794   5.856   2.222
 2725SOL    HW1 9074   1.818   5.921   2.150
 2725SOL    HW2 9075   1.868   5.789   2.232
 2726SOL     OW 9076   4.116   6.395   2.351
 2726SOL    HW1 9077   4.027   6.374   2.311
 2726SOL    HW2 9078   4.103   6.425   2.446
 2727SOL     OW 9079   2.558   5.395   3.888
 2727SOL    HW1 9080   2.596   5.304   3.874
 2727SOL    HW2 9081   2.491   5.391   3.962
 2728SOL     OW 9082   2.224   6.434   5.149
 2728SOL    HW1 9083   2.262   6.511   5.202
 2728SOL    HW2 9084   2.299   6.388   5.102
 2729SOL     OW 9085   6.972   3.666   2.509
 2729SOL    HW1 9086   0.027   3.636   2.564
 2729SOL    HW2 9087   6.990   3.758   2.473
 2730SOL     OW 9088   1.920   2.755   1.727
 2730SOL    HW1 9089   1.985   2.819   1.767
 2730SOL    HW2 9090   1.908   2.677   1.789
 2731SOL     OW 9091   1.635   3.410   5.980
 2731SOL    HW1 9092   1.640   3.496   6.031
 2731SOL    HW2 9093   1.675   3.423   5.890
 2732SOL     OW 9094   5.134   3.009   4.385
 2732SOL    HW1 9095   5.040   2.995   4.355
 2732SOL    HW2 9096   5.187   2.926   4.367
 2733SOL     OW 9097   2.017   0.611   6.787
 2733SOL    HW1 9098   2.081   0.619   6.863
 2733SOL    HW2 9099   1.931   0.655   6.812
 2734SOL     OW 9100   2.448   6.914   3.901
 2734SOL    HW1 9101   2.525   6.930   3.963
 2734SOL    HW2 9102   2.452   6.980   3.826
 2735SOL     OW 9103   1.196   6.215   1.057
 2735SOL    HW1 9104   1.205   6.262   1.146
 2735SOL    HW2 9105   1.169   6.120   1.072
 2736SOL     OW 9106   4.322   0.470   6.819
 2736SOL    HW1 9107   4.256   0.396   6.809
 2736SOL    HW2 9108   4.407   0.445   6.773
 2737SOL     OW 9109   4.234   3.817   5.220
 2737SOL    HW1 9110   4.188   3.823   5.131
 2737SOL    HW2 9111   4.331   3.798   5.206
 2738SOL     OW 9112   0.886   3.877   5.532
 2738SOL    HW1 9113   0.881   3.782   5.563
 2738SOL    HW2 9114   0.842   3.936   5.600
 2739SOL     OW 9115   3.441   4.354   6.644
 2739SOL    HW1 9116   3.381   4.336   6.567
 2739SOL    HW2 9117   3.536   4.353   6.614
 2740SOL     OW 9118   6.405   2.723   4.799
 2740SOL    HW1 9119   6.384   2.819   4.781
 2740SOL    HW2 9120   6.322   2.677   4.831
 2741SOL     OW 9121   2.559   2.873   5.991
 2741SOL    HW1 9122   2.600   2.956   6.029
 2741SOL    HW2 9123   2.468   2.894   5.955
 2742SOL     OW 9124   2.393   6.033   4.390
 2742SOL    HW1 9125   2.338   6.015   4.472
 2742SOL    HW2 9126   2.482   5.988   4.399
 2743SOL     OW 9127   5.683   3.942   6.737
 2743SOL    HW1 9128   5.783   3.947   6.741
 2743SOL    HW2 9129   5.655   3.847   6.722
 2744SOL     OW 9130   4.877   6.420   1.216
 2744SOL    HW1 9131   4.964   6.381   1.247
 2744SOL    HW2 9132   4.894   6.482   1.140
 2745SOL     OW 9133   3.774   5.225   3.074
 2745SOL    HW1 9134   3.743   5.130   3.079
 2745SOL    HW2 9135   3.851   5.232   3.011
 2746SOL     OW 9136   1.265   2.665   0.050
 2746SOL    HW1 9137   1.235   2.753   0.013
 2746SOL    HW2 9138   1.284   2.602   6.997
 2747SOL     OW 9139   4.823   6.428   3.721
 2747SOL    HW1 9140   4.725   6.426   3.739
 2747SOL    HW2 9141   4.842   6.491   3.646
 2748SOL     OW 9142   5.891   0.568   5.017
 2748SOL    HW1 9143   5.898   0.518   5.104
 2748SOL    HW2 9144   5.884   0.666   5.036
 2749SOL     OW 9145   6.391   5.262   2.727
 2749SOL    HW1 9146   6.467   5.289   2.787
 2749SOL    HW2 9147   6.411   5.291   2.634
 2750SOL     OW 9148   0.652   0.884   0.577
 2750SOL    HW1 9149   0.732   0.902   0.635
 2750SOL    HW2 9150   0.654   0.789   0.546
 2751SOL     OW 9151   0.507   0.371   7.009
 2751SOL    HW1 9152   0.476   0.463   0.007
 2751SOL    HW2 9153   0.597   0.375   6.966
 2752SOL     OW 9154   0.531   6.636   5.798
 2752SOL    HW1 9155   0.612   6.690   5.819
 2752SOL    HW2 9156   0.556   6.558   5.740
 2753SOL     OW 9157   3.117   5.688   4.446
 2753SOL    HW1 9158   3.094   5.593   4.466
 2753SOL    HW2 9159   3.151   5.695   4.353
 2754SOL     OW 9160   0.841   5.264   4.129
 2754SOL    HW1 9161   0.931   5.221   4.126
 2754SOL    HW2 9162   0.778   5.208   4.183
 2755SOL     OW 9163   4.001   0.354   2.494
 2755SOL    HW1 9164   3.932   0.313   2.435
 2755SOL    HW2 9165   4.023   0.291   2.568
 2756SOL     OW 9166   0.208   2.579   4.989
 2756SOL    HW1 9167   0.200   2.479   4.985
 2756SOL    HW2 9168   0.117   2.619   4.996
 2757SOL     OW 9169   5.734   3.869   5.321
 2757SOL    HW1 9170   5.738   3.824   5.410
 2757SOL    HW2 9171   5.685   3.811   5.256
 2758SOL     OW 9172   0.433   6.371   1.259
 2758SOL    HW1 9173   0.526   6.364   1.223
 2758SOL    HW2 9174   0.436   6.376   1.358
 2759SOL     OW 9175   3.732   4.118   4.019
 2759SOL    HW1 9176   3.733   4.195   3.955
 2759SOL    HW2 9177   3.816   4.065   4.010
 2760SOL     OW 9178   5.092   6.048   3.079
 2760SOL    HW1 9179   5.105   6.025   3.175
 2760SOL    HW2 9180   5.038   6.131   3.071
 2761SOL     OW 9181   2.141   3.582   4.236
 2761SOL    HW1 9182   2.173   3.490   4.260
 2761SOL    HW2 9183   2.041   3.586   4.246
 2762SOL     OW 9184   4.602   2.024   2.562
 2762SOL    HW1 9185   4.502   2.023   2.575
 2762SOL    HW2 9186   4.636   1.930   2.564
 2763SOL     OW 9187   5.301   0.423   3.095
 2763SOL    HW1 9188   5.252   0.365   3.160
 2763SOL    HW2 9189   5.375   0.370   3.054
 2764SOL     OW 9190   0.194   1.606   2.675
 2764SOL    HW1 9191   0.268   1.539   2.669
 2764SOL    HW2 9192   0.213   1.671   2.748
 2765SOL     OW 9193   6.592   0.112   0.098
 2765SOL    HW1 9194   6.657   0.158   0.158
 2765SOL    HW2 9195   6.574   0.020   0.133
 2766SOL     OW 9196   5.322   6.906   0.247
 2766SOL    HW1 9197   5.375   6.979   0.290
 2766SOL    HW2 9198   5.324   6.918   0.148
 2767SOL     OW 9199   6.714   6.806   6.916
 2767SOL    HW1 9200   6.693   6.792   7.013
 2767SOL    HW2 9201   6.757   6.724   6.879
 2768SOL     OW 9202   4.421   0.424   1.750
 2768SOL    HW1 9203   4.521   0.426   1.746
 2768SOL    HW2 9204   4.384   0.446   1.660
 2769SOL     OW 9205   0.661   5.329   5.837
 2769SOL    HW1 9206   0.736   5.325   5.770
 2769SOL    HW2 9207   0.668   5.251   5.899
 2770SOL     OW 9208   1.479   6.548   6.980
 2770SOL    HW1 9209   1.455   6.581   6.888
 2770SOL    HW2 9210   1.401   6.560   0.019
 2771SOL     OW 9211   4.239   6.302   5.884
 2771SOL    HW1 9212   4.274   6.392   5.910
 2771SOL    HW2 9213   4.257   6.237   5.957
 2772SOL     OW 9214   6.354   2.063   3.300
 2772SOL    HW1 9215   6.378   1.966   3.314
 2772SOL    HW2 9216   6.436   2.119   3.309
 2773SOL     OW 9217   4.175   0.674   5.703
 2773SOL    HW1 9218   4.222   0.655   5.790
 2773SOL    HW2 9219   4.243   0.700   5.634
 2774SOL     OW 9220   6.243   6.751   4.049
 2774SOL    HW1 9221   6.342   6.762   4.045
 2774SOL    HW2 9222   6.219   6.654   4.041
 2775SOL     OW 9223   0.415   2.311   4.668
 2775SOL    HW1 9224   0.437   2.403   4.699
 2775SOL    HW2 9225   0.315   2.298   4.669
 2776SOL     OW 9226   4.927   4.156   5.956
 2776SOL    HW1 9227   4.918   4.074   6.013
 2776SOL    HW2 9228   5.023   4.184   5.954
 2777SOL     OW 9229   1.644   1.907   1.166
 2777SOL    HW1 9230   1.658   1.853   1.083
 2777SOL    HW2 9231   1.732   1.939   1.199
 2778SOL     OW 9232   2.451   6.403   4.942
 2778SOL    HW1 9233   2.545   6.408   4.977
 2778SOL    HW2 9234   2.426   6.307   4.931
 2779SOL     OW 9235   5.426   1.309   3.452
 2779SOL    HW1 9236   5.496   1.240   3.468
 2779SOL    HW2 9237   5.384   1.336   3.539
 2780SOL     OW 9238   0.750   6.974   5.506
 2780SOL    HW1 9239   0.650   6.978   5.512
 2780SOL    HW2 9240   0.777   6.901   5.443
 2781SOL     OW 9241   6.713   0.045   2.736
 2781SOL    HW1 9242   6.771   0.079   2.810
 2781SOL    HW2 9243   6.762   0.055   2.649
 2782SOL     OW 9244   5.277   6.242   5.023
 2782SOL    HW1 9245   5.315   6.150   5.027
 2782SOL    HW2 9246   5.287   6.280   4.931
 2783SOL     OW 9247   0.603   2.076   2.312
 2783SOL    HW1 9248   0.638   2.168   2.295
 2783SOL    HW2 9249   0.620   2.052   2.408
 2784SOL     OW 9250   0.742   1.716   2.526
 2784SOL    HW1 9251   0.668   1.649   2.521
 2784SOL    HW2 9252   0.825   1.671   2.557
 2785SOL     OW 9253   5.507   3.326   3.596
 2785SOL    HW1 9254   5.501   3.425   3.610
 2785SOL    HW2 9255   5.415   3.288   3.585
 2786SOL     OW 9256   0.451   6.168   1.555
 2786SOL    HW1 9257   0.513   6.094   1.580
 2786SOL    HW2 9258   0.493   6.256   1.576
 2787SOL     OW 9259   0.157   6.671   5.193
 2787SOL    HW1 9260   0.088   6.737   5.221
 2787SOL    HW2 9261   0.130   6.580   5.223
 2788SOL     OW 9262   2.815   6.415   5.662
 2788SOL    HW1 9263   2.717   6.425   5.642
 2788SOL    HW2 9264   2.868   6.439   5.581
 2789SOL     OW 9265   2.600   2.297   4.205
 2789SOL    HW1 9266   2.609   2.228   4.133
 2789SOL    HW2 9267   2.504   2.310   4.227
 2790SOL     OW 9268   1.190   4.738   0.504
 2790SOL    HW1 9269   1.128   4.725   0.581
 2790SOL    HW2 9270   1.165   4.676   0.430
 2791SOL     OW 9271   0.885   4.542   5.760
 2791SOL    HW1 9272   0.945   4.604   5.711
 2791SOL    HW2 9273   0.796   4.585   5.773
 2792SOL     OW 9274   2.573   2.803   0.158
 2792SOL    HW1 9275   2.646   2.753   0.203
 2792SOL    HW2 9276   2.502   2.739   0.128
 2793SOL     OW 9277   3.854   3.338   5.708
 2793SOL    HW1 9278   3.854   3.407   5.780
 2793SOL    HW2 9279   3.836   3.248   5.747
 2794SOL     OW 9280   1.611   1.563   0.292
 2794SOL    HW1 9281   1.671   1.483   0.299
 2794SOL    HW2 9282   1.654   1.632   0.233
 2795SOL     OW 9283   0.998   0.732   0.419
 2795SOL    HW1 9284   0.920   0.714   0.359
 2795SOL    HW2 9285   1.048   0.646   0.434
 2796SOL     OW 9286   2.720   6.092   6.572
 2796SOL    HW1 9287   2.633   6.133   6.543
 2796SOL    HW2 9288   2.702   6.014   6.632
 2797SOL     OW 9289   5.157   3.598   5.409
 2797SOL    HW1 9290   5.137   3.669   5.340
 2797SOL    HW2 9291   5.230   3.629   5.469
 2798SOL     OW 9292   6.086   2.568   2.646
 2798SOL    HW1 9293   6.021   2.580   2.721
 2798SOL    HW2 9294   6.053   2.615   2.565
 2799SOL     OW 9295   3.653   0.521   3.900
 2799SOL    HW1 9296   3.587   0.448   3.916
 2799SOL    HW2 9297   3.652   0.585   3.977
 2800SOL     OW 9298   5.028   1.497   0.882
 2800SOL    HW1 9299   5.030   1.398   0.889
 2800SOL    HW2 9300   5.056   1.537   0.970
 2801SOL     OW 9301   0.214   4.123   3.172
 2801SOL    HW1 9302   0.285   4.183   3.210
 2801SOL    HW2 9303   0.243   4.092   3.081
 2802SOL     OW 9304   2.117   4.311   4.451
 2802SOL    HW1 9305   2.021   4.324   4.475
 2802SOL    HW2 9306   2.173   4.308   4.534
 2803SOL     OW 9307   2.813   2.675   0.252
 2803SOL    HW1 9308   2.840   2.675   0.155
 2803SOL    HW2 9309   2.804   2.581   0.284
 2804SOL     OW 9310   5.599   2.466   3.548
 2804SOL    HW1 9311   5.563   2.546   3.500
 2804SOL    HW2 9312   5.535   2.437   3.619
 2805SOL     OW 9313   3.592   5.868   6.956
 2805SOL    HW1 9314   3.646   5.838   6.876
 2805SOL    HW2 9315   3.501   5.895   6.926
 2806SOL     OW 9316   1.410   3.277   5.065
 2806SOL    HW1 9317   1.486   3.265   5.001
 2806SOL    HW2 9318   1.429   3.357   5.123
 2807SOL     OW 9319   5.219   0.647   3.693
 2807SOL    HW1 9320   5.169   0.676   3.612
 2807SOL    HW2 9321   5.167   0.671   3.775
 2808SOL     OW 9322   0.472   6.827   6.739
 2808SOL    HW1 9323   0.525   6.912   6.744
 2808SOL    HW2 9324   0.412   6.821   6.818
 2809SOL     OW 9325   0.699   5.832   0.739
 2809SOL    HW1 9326   0.793   5.842   0.772
 2809SOL    HW2 9327   0.700   5.795   0.646
 2810SOL     OW 9328   7.020   6.069   2.496
 2810SOL    HW1 9329   0.087   6.089   2.536
 2810SOL    HW2 9330   7.010   5.970   2.487
 2811SOL     OW 9331   0.258   6.985   0.241
 2811SOL    HW1 9332   0.345   6.950   0.206
 2811SOL    HW2 9333   0.183   6.952   0.184
 2812SOL     OW 9334   1.762   0.502   0.564
 2812SOL    HW1 9335   1.713   0.496   0.478
 2812SOL    HW2 9336   1.836   0.434   0.566
 2813SOL     OW 9337   5.454   2.184   2.264
 2813SOL    HW1 9338   5.485   2.220   2.352
 2813SOL    HW2 9339   5.383   2.115   2.278
 2814SOL     OW 9340   2.361   4.383   6.568
 2814SOL    HW1 9341   2.266   4.357   6.553
 2814SOL    HW2 9342   2.409   4.309   6.617
 2815SOL     OW 9343   6.278   6.040   4.716
 2815SOL    HW1 9344   6.255   6.134   4.740
 2815SOL    HW2 9345   6.374   6.023   4.739
 2816SOL     OW 9346   0.992   5.331   5.407
 2816SOL    HW1 9347   0.939   5.256   5.448
 2816SOL    HW2 9348   1.057   5.294   5.341
 2817SOL     OW 9349   2.768   0.750   0.833
 2817SOL    HW1 9350   2.813   0.661   0.824
 2817SOL    HW2 9351   2.786   0.789   0.923
 2818SOL     OW 9352   1.804   0.180   0.495
 2818SOL    HW1 9353   1.768   0.088   0.502
 2818SOL    HW2 9354   1.762   0.227   0.417
 2819SOL     OW 9355   6.249   0.588   6.888
 2819SOL    HW1 9356   6.259   0.489   6.878
 2819SOL    HW2 9357   6.329   0.625   6.936
 2820SOL     OW 9358   1.679   1.783   0.067
 2820SOL    HW1 9359   1.683   1.818   6.996
 2820SOL    HW2 9360   1.733   1.843   0.127
 2821SOL     OW 9361   4.033   3.050   6.313
 2821SOL    HW1 9362   3.950   3.102   6.333
 2821SOL    HW2 9363   4.113   3.109   6.324
 2822SOL     OW 9364   4.166   4.054   1.324
 2822SOL    HW1 9365   4.120   4.082   1.408
 2822SOL    HW2 9366   4.159   3.955   1.313
 2823SOL     OW 9367   5.357   3.998   4.113
 2823SOL    HW1 9368   5.369   3.931   4.039
 2823SOL    HW2 9369   5.389   4.087   4.083
 2824SOL     OW 9370   0.960   4.900   5.800
 2824SOL    HW1 9371   1.023   4.974   5.776
 2824SOL    HW2 9372   0.965   4.882   5.898
 2825SOL     OW 9373   4.912   2.191   5.742
 2825SOL    HW1 9374   4.900   2.213   5.839
 2825SOL    HW2 9375   4.827   2.153   5.705
 2826SOL     OW 9376   2.912   2.518   6.081
 2826SOL    HW1 9377   2.931   2.470   5.995
 2826SOL    HW2 9378   2.960   2.471   6.156
 2827SOL     OW 9379   6.931   2.056   0.720
 2827SOL    HW1 9380   7.002   2.120   0.691
 2827SOL    HW2 9381   6.847   2.107   0.743
 2828SOL     OW 9382   1.988   3.841   6.946
 2828SOL    HW1 9383   1.992   3.940   6.934
 2828SOL    HW2 9384   2.062   3.811   7.006
 2829SOL     OW 9385   3.352   4.662   1.072
 2829SOL    HW1 9386   3.386   4.686   1.163
 2829SOL    HW2 9387   3.360   4.563   1.059
 2830SOL     OW 9388   2.691   5.213   4.529
 2830SOL    HW1 9389   2.672   5.216   4.627
 2830SOL    HW2 9390   2.618   5.262   4.480
 2831SOL     OW 9391   5.750   2.191   2.199
 2831SOL    HW1 9392   5.654   2.181   2.171
 2831SOL    HW2 9393   5.800   2.241   2.129
 2832SOL     OW 9394   1.743   2.975   1.269
 2832SOL    HW1 9395   1.689   2.977   1.185
 2832SOL    HW2 9396   1.687   3.010   1.345
 2833SOL     OW 9397   6.703   2.235   2.930
 2833SOL    HW1 9398   6.744   2.319   2.895
 2833SOL    HW2 9399   6.611   2.255   2.964
 2834SOL     OW 9400   2.953   0.060   3.929
 2834SOL    HW1 9401   2.970   0.154   3.958
 2834SOL    HW2 9402   3.036   0.023   3.886
 2835SOL     OW 9403   6.245   1.367   0.132
 2835SOL    HW1 9404   6.183   1.296   0.100
 2835SOL    HW2 9405   6.297   1.333   0.211
 2836SOL     OW 9406   2.704   6.142   2.051
 2836SOL    HW1 9407   2.658   6.088   2.122
 2836SOL    HW2 9408   2.675   6.238   2.059
 2837SOL     OW 9409   4.809   4.848   3.591
 2837SOL    HW1 9410   4.890   4.906   3.585
 2837SOL    HW2 9411   4.837   4.752   3.585
 2838SOL     OW 9412   0.229   5.648   6.125
 2838SOL    HW1 9413   0.227   5.739   6.165
 2838SOL    HW2 9414   0.199   5.581   6.194
 2839SOL     OW 9415   5.758   2.199   6.506
 2839SOL    HW1 9416   5.691   2.265   6.472
 2839SOL    HW2 9417   5.729   2.106   6.480
 2840SOL     OW 9418   6.473   5.620   4.637
 2840SOL    HW1 9419   6.445   5.651   4.546
 2840SOL    HW2 9420   6.473   5.520   4.639
 2841SOL     OW 9421   5.561   3.585   3.096
 2841SOL    HW1 9422   5.520   3.579   3.004
 2841SOL    HW2 9423   5.583   3.494   3.129
 2842SOL     OW 9424   1.420   5.985   3.978
 2842SOL    HW1 9425   1.511   5.959   4.011
 2842SOL    HW2 9426   1.411   6.084   3.977
 2843SOL     OW 9427   0.998   2.565   3.934
 2843SOL    HW1 9428   0.915   2.524   3.896
 2843SOL    HW2 9429   0.972   2.630   4.006
 2844SOL     OW 9430   5.320   3.850   0.843
 2844SOL    HW1 9431   5.281   3.942   0.856
 2844SOL    HW2 9432   5.329   3.831   0.746
 2845SOL     OW 9433   2.982   1.913   1.386
 2845SOL    HW1 9434   2.931   1.959   1.459
 2845SOL    HW2 9435   3.042   1.844   1.427
 2846SOL     OW 9436   5.661   0.785   5.927
 2846SOL    HW1 9437   5.635   0.826   6.015
 2846SOL    HW2 9438   5.631   0.690   5.924
 2847SOL     OW 9439   6.280   4.728   2.395
 2847SOL    HW1 9440   6.228   4.802   2.438
 2847SOL    HW2 9441   6.322   4.672   2.467
 2848SOL     OW 9442   6.956   3.831   6.899
 2848SOL    HW1 9443   6.967   3.908   6.962
 2848SOL    HW2 9444   0.018   3.778   6.897
 2849SOL     OW 9445   5.364   1.135   0.543
 2849SOL    HW1 9446   5.443   1.196   0.540
 2849SOL    HW2 9447   5.375   1.071   0.619
 2850SOL     OW 9448   6.878   1.147   0.960
 2850SOL    HW1 9449   6.859   1.217   0.892
 2850SOL    HW2 9450   6.899   1.061   0.915
 2851SOL     OW 9451   3.250   3.036   2.457
 2851SOL    HW1 9452   3.202   2.992   2.382
 2851SOL    HW2 9453   3.185   3.057   2.530
 2852SOL     OW 9454   1.558   5.090   4.965
 2852SOL    HW1 9455   1.602   5.005   4.935
 2852SOL    HW2 9456   1.605   5.168   4.923
 2853SOL     OW 9457   6.528   4.915   5.591
 2853SOL    HW1 9458   6.551   4.996   5.646
 2853SOL    HW2 9459   6.433   4.890   5.606
 2854SOL     OW 9460   3.256   0.720   0.061
 2854SOL    HW1 9461   3.239   0.740   6.987
 2854SOL    HW2 9462   3.329   0.780   0.094
 2855SOL     OW 9463   3.032   1.871   4.183
 2855SOL    HW1 9464   3.052   1.944   4.118
 2855SOL    HW2 9465   3.117   1.829   4.214
 2856SOL     OW 9466   1.034   5.280   4.648
 2856SOL    HW1 9467   0.985   5.220   4.710
 2856SOL    HW2 9468   1.115   5.317   4.694
 2857SOL     OW 9469   0.617   4.218   0.034
 2857SOL    HW1 9470   0.615   4.231   0.133
 2857SOL    HW2 9471   0.710   4.194   0.006
 2858SOL     OW 9472   5.190   4.744   4.383
 2858SOL    HW1 9473   5.127   4.667   4.391
 2858SOL    HW2 9474   5.138   4.830   4.384
 2859SOL     OW 9475   0.376   4.860   2.040
 2859SOL    HW1 9476   0.424   4.942   2.006
 2859SOL    HW2 9477   0.338   4.879   2.130
 2860SOL     OW 9478   1.318   6.515   2.036
 2860SOL    HW1 9479   1.384   6.463   2.089
 2860SOL    HW2 9480   1.313   6.608   2.072
 2861SOL     OW 9481   6.048   2.691   4.956
 2861SOL    HW1 9482   6.106   2.642   4.890
 2861SOL    HW2 9483   5.974   2.737   4.907
 2862SOL     OW 9484   4.142   1.589   1.315
 2862SOL    HW1 9485   4.057   1.607   1.266
 2862SOL    HW2 9486   4.122   1.571   1.412
 2863SOL     OW 9487   5.369   1.556   6.206
 2863SOL    HW1 9488   5.287   1.516   6.163
 2863SOL    HW2 9489   5.354   1.654   6.219
 2864SOL     OW 9490   4.744   4.295   0.271
 2864SOL    HW1 9491   4.649   4.264   0.261
 2864SOL    HW2 9492   4.745   4.387   0.311
 2865SOL     OW 9493   5.188   4.398   6.688
 2865SOL    HW1 9494   5.241   4.482   6.703
 2865SOL    HW2 9495   5.191   4.374   6.591
 2866SOL     OW 9496   5.174   6.241   0.344
 2866SOL    HW1 9497   5.226   6.307   0.398
 2866SOL    HW2 9498   5.103   6.200   0.401
 2867SOL     OW 9499   0.913   6.230   3.530
 2867SOL    HW1 9500   0.952   6.142   3.503
 2867SOL    HW2 9501   0.826   6.244   3.481
 2868SOL     OW 9502   6.241   6.330   5.280
 2868SOL    HW1 9503   6.305   6.356   5.352
 2868SOL    HW2 9504   6.152   6.373   5.297
 2869SOL     OW 9505   5.915   4.579   5.348
 2869SOL    HW1 9506   6.006   4.617   5.333
 2869SOL    HW2 9507   5.920   4.509   5.419
 2870SOL     OW 9508   0.216   1.228   1.839
 2870SOL    HW1 9509   0.248   1.287   1.764
 2870SOL    HW2 9510   0.175   1.145   1.800
 2871SOL     OW 9511   4.776   1.626   3.273
 2871SOL    HW1 9512   4.844   1.631   3.345
 2871SOL    HW2 9513   4.694   1.676   3.301
 2872SOL     OW 9514   3.252   1.210   2.270
 2872SOL    HW1 9515   3.166   1.258   2.282
 2872SOL    HW2 9516   3.295   1.240   2.184
 2873SOL     OW 9517   0.203   0.522   2.400
 2873SOL    HW1 9518   0.213   0.459   2.324
 2873SOL    HW2 9519   0.291   0.533   2.447
 2874SOL     OW 9520   0.946   0.098   2.016
 2874SOL    HW1 9521   0.960   0.112   1.918
 2874SOL    HW2 9522   0.977   0.006   2.042
 2875SOL     OW 9523   3.289   0.870   2.323
 2875SOL    HW1 9524   3.308   0.949   2.381
 2875SOL    HW2 9525   3.217   0.814   2.365
 2876SOL     OW 9526   0.861   0.312   0.251
 2876SOL    HW1 9527   0.836   0.345   0.160
 2876SOL    HW2 9528   0.929   0.373   0.291
 2877SOL     OW 9529   1.146   2.923   6.460
 2877SOL    HW1 9530   1.165   2.908   6.363
 2877SOL    HW2 9531   1.061   2.877   6.485
 2878SOL     OW 9532   3.833   3.967   4.312
 2878SOL    HW1 9533   3.808   4.040   4.376
 2878SOL    HW2 9534   3.810   3.996   4.219
 2879SOL     OW 9535   0.074   6.963   0.715
 2879SOL    HW1 9536   0.131   6.966   0.633
 2879SOL    HW2 9537   0.070   0.032   0.755
 2880SOL     OW 9538   1.615   0.996   2.235
 2880SOL    HW1 9539   1.572   0.958   2.153
 2880SOL    HW2 9540   1.706   1.031   2.212
 2881SOL     OW 9541   5.309   5.551   0.185
 2881SOL    HW1 9542   5.256   5.632   0.207
 2881SOL    HW2 9543   5.257   5.492   0.123
 2882SOL     OW 9544   4.535   6.025   0.261
 2882SOL    HW1 9545   4.511   5.945   0.316
 2882SOL    HW2 9546   4.452   6.074   0.235
 2883SOL     OW 9547   5.309   5.789   2.965
 2883SOL    HW1 9548   5.286   5.699   3.002
 2883SOL    HW2 9549   5.290   5.792   2.867
 2884SOL     OW 9550   5.545   4.940   3.257
 2884SOL    HW1 9551   5.621   4.895   3.304
 2884SOL    HW2 9552   5.570   4.956   3.161
 2885SOL     OW 9553   0.148   5.021   3.713
 2885SOL    HW1 9554   0.128   5.045   3.808
 2885SOL    HW2 9555   0.063   5.009   3.663
 2886SOL     OW 9556   1.669   4.943   5.305
 2886SOL    HW1 9557   1.747   4.935   5.242
 2886SOL    HW2 9558   1.607   5.014   5.272
 2887SOL     OW 9559   0.386   4.505   2.567
 2887SOL    HW1 9560   0.402   4.539   2.474
 2887SOL    HW2 9561   0.318   4.431   2.564
 2888SOL     OW 9562   4.300   5.903   6.841
 2888SOL    HW1 9563   4.310   5.907   6.940
 2888SOL    HW2 9564   4.292   5.996   6.805
 2889SOL     OW 9565   4.313   5.055   3.509
 2889SOL    HW1 9566   4.331   4.974   3.565
 2889SOL    HW2 9567   4.388   5.068   3.445
 2890SOL     OW 9568   1.651   1.760   0.930
 2890SOL    HW1 9569   1.684   1.670   0.902
 2890SOL    HW2 9570   1.693   1.830   0.873
 2891SOL     OW 9571   1.789   1.668   5.311
 2891SOL    HW1 9572   1.849   1.724   5.369
 2891SOL    HW2 9573   1.840   1.639   5.230
 2892SOL     OW 9574   5.972   4.570   2.136
 2892SOL    HW1 9575   6.025   4.647   2.172
 2892SOL    HW2 9576   5.948   4.508   2.211
 2893SOL     OW 9577   6.522   6.013   4.807
 2893SOL    HW1 9578   6.565   6.103   4.811
 2893SOL    HW2 9579   6.518   5.974   4.900
 2894SOL     OW 9580   1.451   5.347   1.171
 2894SOL    HW1 9581   1.441   5.307   1.263
 2894SOL    HW2 9582   1.377   5.316   1.112
 2895SOL     OW 9583   4.719   6.229   6.222
 2895SOL    HW1 9584   4.764   6.142   6.243
 2895SOL    HW2 9585   4.695   6.231   6.125
 2896SOL     OW 9586   6.754   0.565   6.627
 2896SOL    HW1 9587   6.756   0.523   6.717
 2896SOL    HW2 9588   6.837   0.620   6.614
 2897SOL     OW 9589   3.225   6.047   3.469
 2897SOL    HW1 9590   3.270   5.990   3.400
 2897SOL    HW2 9591   3.130   6.016   3.480
 2898SOL     OW 9592   5.464   3.053   2.720
 2898SOL    HW1 9593   5.490   3.148   2.699
 2898SOL    HW2 9594   5.544   2.994   2.714
 2899SOL     OW 9595   5.771   2.877   1.102
 2899SOL    HW1 9596   5.701   2.812   1.131
 2899SOL    HW2 9597   5.861   2.833   1.108
 2900SOL     OW 9598   3.699   3.291   4.731
 2900SOL    HW1 9599   3.692   3.202   4.775
 2900SOL    HW2 9600   3.766   3.287   4.657
 2901SOL     OW 9601   1.475   2.196   1.719
 2901SOL    HW1 9602   1.561   2.177   1.672
 2901SOL    HW2 9603   1.494   2.225   1.813
 2902SOL     OW 9604   5.103   6.537   3.389
 2902SOL    HW1 9605   5.163   6.589   3.450
 2902SOL    HW2 9606   5.089   6.588   3.304
 2903SOL     OW 9607   0.660   4.995   2.532
 2903SOL    HW1 9608   0.751   5.016   2.569
 2903SOL    HW2 9609   0.626   5.072   2.479
 2904SOL     OW 9610   3.768   4.896   4.339
 2904SOL    HW1 9611   3.848   4.841   4.316
 2904SOL    HW2 9612   3.757   4.899   4.438
 2905SOL     OW 9613   2.027   3.740   1.321
 2905SOL    HW1 9614   2.123   3.768   1.320
 2905SOL    HW2 9615   2.005   3.703   1.411
 2906SOL     OW 9616   6.626   6.785   6.093
 2906SOL    HW1 9617   6.560   6.728   6.141
 2906SOL    HW2 9618   6.657   6.737   6.010
 2907SOL     OW 9619   0.587   1.712   6.485
 2907SOL    HW1 9620   0.575   1.811   6.481
 2907SOL    HW2 9621   0.634   1.681   6.403
 2908SOL     OW 9622   3.161   5.768   3.820
 2908SOL    HW1 9623   3.156   5.672   3.845
 2908SOL    HW2 9624   3.210   5.818   3.892
 2909SOL     OW 9625   6.778   5.979   0.816
 2909SOL    HW1 9626   6.811   5.960   0.724
 2909SOL    HW2 9627   6.838   6.045   0.861
 2910SOL     OW 9628   1.729   0.075   3.489
 2910SOL    HW1 9629   1.765   7.017   3.442
 2910SOL    HW2 9630   1.634   0.060   3.513
 2911SOL     OW 9631   6.474   3.727   3.696
 2911SOL    HW1 9632   6.410   3.803   3.697
 2911SOL    HW2 9633   6.535   3.733   3.774
 2912SOL     OW 9634   0.197   1.279   2.861
 2912SOL    HW1 9635   0.219   1.368   2.902
 2912SOL    HW2 9636   0.253   1.208   2.904
 2913SOL     OW 9637   0.408   6.848   4.255
 2913SOL    HW1 9638   0.399   6.937   4.211
 2913SOL    HW2 9639   0.490   6.802   4.222
 2914SOL     OW 9640   3.583   4.611   0.590
 2914SOL    HW1 9641   3.606   4.516   0.611
 2914SOL    HW2 9642   3.604   4.630   0.494
 2915SOL     OW 9643   2.080   6.484   3.280
 2915SOL    HW1 9644   2.095   6.510   3.375
 2915SOL    HW2 9645   2.049   6.565   3.229
 2916SOL     OW 9646   0.071   6.611   6.984
 2916SOL    HW1 9647   0.096   6.572   0.051
 2916SOL    HW2 9648   0.149   6.602   6.921
 2917SOL     OW 9649   2.503   1.836   4.145
 2917SOL    HW1 9650   2.594   1.794   4.147
 2917SOL    HW2 9651   2.508   1.925   4.100
 2918SOL     OW 9652   5.299   0.701   1.258
 2918SOL    HW1 9653   5.389   0.702   1.300
 2918SOL    HW2 9654   5.306   0.730   1.162
 2919SOL     OW 9655   1.156   5.025   5.658
 2919SOL    HW1 9656   1.151   5.122   5.683
 2919SOL    HW2 9657   1.240   4.985   5.695
 2920SOL     OW 9658   2.680   2.631   1.601
 2920SOL    HW1 9659   2.729   2.717   1.616
 2920SOL    HW2 9660   2.742   2.554   1.620
 2921SOL     OW 9661   6.932   4.744   3.040
 2921SOL    HW1 9662   6.993   4.824   3.042
 2921SOL    HW2 9663   6.838   4.774   3.023
 2922SOL     OW 9664   3.792   5.608   4.220
 2922SOL    HW1 9665   3.779   5.703   4.192
 2922SOL    HW2 9666   3.780   5.601   4.319
 2923SOL     OW 9667   1.616   4.819   3.920
 2923SOL    HW1 9668   1.536   4.779   3.875
 2923SOL    HW2 9669   1.664   4.749   3.973
 2924SOL     OW 9670   4.211   2.266   0.031
 2924SOL    HW1 9671   4.305   2.233   0.045
 2924SOL    HW2 9672   4.172   2.294   0.118
 2925SOL     OW 9673   5.359   6.123   4.656
 2925SOL    HW1 9674   5.294   6.113   4.580
 2925SOL    HW2 9675   5.336   6.205   4.709
 2926SOL     OW 9676   6.849   2.734   5.262
 2926SOL    HW1 9677   6.940   2.744   5.302
 2926SOL    HW2 9678   6.852   2.665   5.190
 2927SOL     OW 9679   1.652   2.236   3.129
 2927SOL    HW1 9680   1.700   2.244   3.041
 2927SOL    HW2 9681   1.715   2.199   3.197
 2928SOL     OW 9682   5.208   4.859   6.924
 2928SOL    HW1 9683   5.120   4.832   6.962
 2928SOL    HW2 9684   5.200   4.949   6.882
 2929SOL     OW 9685   1.822   1.202   2.166
 2929SOL    HW1 9686   1.797   1.294   2.197
 2929SOL    HW2 9687   1.803   1.194   2.068
 2930SOL     OW 9688   1.217   3.053   3.579
 2930SOL    HW1 9689   1.125   3.022   3.559
 2930SOL    HW2 9690   1.252   3.005   3.659
 2931SOL     OW 9691   5.398   4.402   5.915
 2931SOL    HW1 9692   5.421   4.485   5.864
 2931SOL    HW2 9693   5.477   4.374   5.970
 2932SOL     OW 9694   6.279   6.838   0.358
 2932SOL    HW1 9695   6.206   6.904   0.374
 2932SOL    HW2 9696   6.239   6.749   0.336
 2933SOL     OW 9697   0.579   0.907   6.502
 2933SOL    HW1 9698   0.630   0.985   6.464
 2933SOL    HW2 9699   0.618   0.882   6.590
 2934SOL     OW 9700   4.895   5.587   2.784
 2934SOL    HW1 9701   4.965   5.586   2.712
 2934SOL    HW2 9702   4.921   5.521   2.855
 2935SOL     OW 9703   0.220   4.864   6.229
 2935SOL    HW1 9704   0.252   4.848   6.322
 2935SOL    HW2 9705   0.128   4.905   6.232
 2936SOL     OW 9706   4.859   6.391   2.555
 2936SOL    HW1 9707   4.830   6.485   2.535
 2936SOL    HW2 9708   4.941   6.370   2.502
 2937SOL     OW 9709   6.425   3.614   4.246
 2937SOL    HW1 9710   6.388   3.668   4.321
 2937SOL    HW2 9711   6.446   3.674   4.169
 2938SOL     OW 9712   6.912   5.924   1.230
 2938SOL    HW1 9713   6.839   5.922   1.161
 2938SOL    HW2 9714   6.895   5.853   1.298
 2939SOL     OW 9715   6.862   5.758   2.215
 2939SOL    HW1 9716   6.892   5.678   2.268
 2939SOL    HW2 9717   6.942   5.809   2.184
 2940SOL     OW 9718   4.966   6.304   3.363
 2940SOL    HW1 9719   4.946   6.306   3.265
 2940SOL    HW2 9720   4.991   6.396   3.393
 2941SOL     OW 9721   2.948   5.009   1.754
 2941SOL    HW1 9722   2.914   4.971   1.840
 2941SOL    HW2 9723   2.956   4.937   1.686
 2942SOL     OW 9724   2.470   1.522   0.419
 2942SOL    HW1 9725   2.492   1.490   0.511
 2942SOL    HW2 9726   2.430   1.614   0.425
 2943SOL     OW 9727   0.244   5.029   3.467
 2943SOL    HW1 9728   0.194   5.031   3.553
 2943SOL    HW2 9729   0.342   5.017   3.485
 2944SOL     OW 9730   0.545   5.295   3.848
 2944SOL    HW1 9731   0.447   5.298   3.869
 2944SOL    HW2 9732   0.557   5.276   3.751
 2945SOL     OW 9733   5.729   3.265   0.181
 2945SOL    HW1 9734   5.708   3.339   0.245
 2945SOL    HW2 9735   5.668   3.269   0.103
 2946SOL     OW 9736   2.946   3.828   4.413
 2946SOL    HW1 9737   3.044   3.838   4.394
 2946SOL    HW2 9738   2.916   3.737   4.386
 2947SOL     OW 9739   0.050   6.639   0.580
 2947SOL    HW1 9740   0.065   6.593   0.493
 2947SOL    HW2 9741   0.114   6.715   0.590
 2948SOL     OW 9742   6.149   5.399   1.107
 2948SOL    HW1 9743   6.147   5.300   1.120
 2948SOL    HW2 9744   6.145   5.420   1.009
 2949SOL     OW 9745   1.120   5.818   0.504
 2949SOL    HW1 9746   1.167   5.889   0.556
 2949SOL    HW2 9747   1.150   5.822   0.408
 2950SOL     OW 9748   5.122   4.534   2.745
 2950SOL    HW1 9749   5.149   4.616   2.694
 2950SOL    HW2 9750   5.029   4.507   2.718
 2951SOL     OW 9751   1.107   4.176   0.694
 2951SOL    HW1 9752   1.167   4.250   0.662
 2951SOL    HW2 9753   1.158   4.117   0.757
 2952SOL     OW 9754   1.371   1.395   4.097
 2952SOL    HW1 9755   1.403   1.327   4.031
 2952SOL    HW2 9756   1.325   1.349   4.173
 2953SOL     OW 9757   0.941   5.436   3.042
 2953SOL    HW1 9758   0.927   5.535   3.051
 2953SOL    HW2 9759   1.028   5.419   2.996
 2954SOL     OW 9760   6.973   4.813   5.572
 2954SOL    HW1 9761   7.009   4.755   5.499
 2954SOL    HW2 9762   7.009   4.783   5.660
 2955SOL     OW 9763   0.983   4.853   6.064
 2955SOL    HW1 9764   0.901   4.838   6.119
 2955SOL    HW2 9765   1.051   4.904   6.118
 2956SOL     OW 9766   6.192   3.617   5.081
 2956SOL    HW1 9767   6.243   3.586   5.162
 2956SOL    HW2 9768   6.132   3.544   5.049
 2957SOL     OW 9769   1.378   4.528   1.859
 2957SOL    HW1 9770   1.415   4.464   1.927
 2957SOL    HW2 9771   1.399   4.622   1.887
 2958SOL     OW 9772   1.963   3.381   1.302
 2958SOL    HW1 9773   1.931   3.356   1.394
 2958SOL    HW2 9774   2.056   3.348   1.289
 2959SOL     OW 9775   1.223   4.200   4.099
 2959SOL    HW1 9776   1.154   4.128   4.099
 2959SOL    HW2 9777   1.179   4.289   4.112
 2960SOL     OW 9778   5.200   5.253   0.620
 2960SOL    HW1 9779   5.198   5.195   0.539
 2960SOL    HW2 9780   5.153   5.207   0.696
 2961SOL     OW 9781   5.804   1.847   1.029
 2961SOL    HW1 9782   5.742   1.771   1.049
 2961SOL    HW2 9783   5.895   1.812   1.008
 2962SOL     OW 9784   6.837   0.763   4.029
 2962SOL    HW1 9785   6.862   0.835   4.094
 2962SOL    HW2 9786   6.744   0.779   3.996
 2963SOL     OW 9787   1.753   0.937   6.031
 2963SOL    HW1 9788   1.729   0.848   6.069
 2963SOL    HW2 9789   1.822   0.926   5.960
 2964SOL     OW 9790   1.052   1.473   5.713
 2964SOL    HW1 9791   1.134   1.438   5.669
 2964SOL    HW2 9792   1.069   1.484   5.811
 2965SOL     OW 9793   6.435   1.276   6.383
 2965SOL    HW1 9794   6.535   1.275   6.386
 2965SOL    HW2 9795   6.399   1.200   6.436
 2966SOL     OW 9796   3.623   0.622   2.720
 2966SOL    HW1 9797   3.634   0.538   2.772
 2966SOL    HW2 9798   3.708   0.644   2.673
 2967SOL     OW 9799   5.037   6.212   5.327
 2967SOL    HW1 9800   5.137   6.220   5.332
 2967SOL    HW2 9801   5.008   6.128   5.373
 2968SOL     OW 9802   2.071   3.927   1.674
 2968SOL    HW1 9803   2.107   3.840   1.640
 2968SOL    HW2 9804   2.128   4.002   1.641
 2969SOL     OW 9805   4.103   1.824   4.836
 2969SOL    HW1 9806   4.186   1.805   4.785
 2969SOL    HW2 9807   4.065   1.912   4.808
 2970SOL     OW 9808   2.348   2.604   6.514
 2970SOL    HW1 9809   2.363   2.631   6.419
 2970SOL    HW2 9810   2.366   2.682   6.574
 2971SOL     OW 9811   3.933   4.308   5.594
 2971SOL    HW1 9812   3.903   4.256   5.514
 2971SOL    HW2 9813   3.868   4.296   5.668
 2972SOL     OW 9814   0.516   6.030   0.842
 2972SOL    HW1 9815   0.582   5.956   0.831
 2972SOL    HW2 9816   0.454   6.032   0.763
 2973SOL     OW 9817   4.787   0.571   5.020
 2973SOL    HW1 9818   4.821   0.478   5.035
 2973SOL    HW2 9819   4.691   0.576   5.049
 2974SOL     OW 9820   5.195   4.740   2.600
 2974SOL    HW1 9821   5.163   4.801   2.526
 2974SOL    HW2 9822   5.249   4.793   2.665
 2975SOL     OW 9823   0.861   4.125   5.223
 2975SOL    HW1 9824   0.776   4.095   5.180
 2975SOL    HW2 9825   0.938   4.103   5.162
 2976SOL     OW 9826   4.199   6.949   1.528
 2976SOL    HW1 9827   4.295   6.927   1.509
 2976SOL    HW2 9828   4.148   6.952   1.443
 2977SOL     OW 9829   0.982   1.726   2.260
 2977SOL    HW1 9830   1.064   1.679   2.293
 2977SOL    HW2 9831   0.986   1.822   2.289
 2978SOL     OW 9832   3.588   5.511   0.399
 2978SOL    HW1 9833   3.530   5.590   0.418
 2978SOL    HW2 9834   3.682   5.532   0.426
 2979SOL     OW 9835   2.284   1.546   5.779
 2979SOL    HW1 9836   2.331   1.539   5.691
 2979SOL    HW2 9837   2.338   1.500   5.849
 2980SOL     OW 9838   3.621   3.188   3.008
 2980SOL    HW1 9839   3.652   3.242   3.086
 2980SOL    HW2 9840   3.687   3.196   2.933
 2981SOL     OW 9841   2.081   1.230   1.065
 2981SOL    HW1 9842   2.067   1.317   1.018
 2981SOL    HW2 9843   2.122   1.247   1.155
 2982SOL     OW 9844   0.258   0.862   2.161
 2982SOL    HW1 9845   0.290   0.821   2.246
 2982SOL    HW2 9846   0.207   0.946   2.181
 2983SOL     OW 9847   0.013   2.532   6.117
 2983SOL    HW1 9848   6.976   2.452   6.125
 2983SOL    HW2 9849   6.980   2.615   6.118
 2984SOL     OW 9850   0.913   5.980   0.882
 2984SOL    HW1 9851   1.010   6.003   0.886
 2984SOL    HW2 9852   0.883   5.944   0.970
 2985SOL     OW 9853   0.431   6.874   5.749
 2985SOL    HW1 9854   0.399   6.866   5.655
 2985SOL    HW2 9855   0.470   6.787   5.780
 2986SOL     OW 9856   4.146   3.636   2.181
 2986SOL    HW1 9857   4.245   3.638   2.169
 2986SOL    HW2 9858   4.115   3.541   2.187
 2987SOL     OW 9859   2.431   6.846   6.007
 2987SOL    HW1 9860   2.380   6.910   5.950
 2987SOL    HW2 9861   2.484   6.784   5.949
 2988SOL     OW 9862   1.118   1.448   6.535
 2988SOL    HW1 9863   1.177   1.527   6.554
 2988SOL    HW2 9864   1.095   1.402   6.621
 2989SOL     OW 9865   5.554   3.431   5.928
 2989SOL    HW1 9866   5.495   3.471   5.999
 2989SOL    HW2 9867   5.533   3.334   5.917
 2990SOL     OW 9868   5.322   1.794   4.709
 2990SOL    HW1 9869   5.345   1.704   4.746
 2990SOL    HW2 9870   5.382   1.815   4.632
 2991SOL     OW 9871   5.902   3.201   0.586
 2991SOL    HW1 9872   5.995   3.165   0.586
 2991SOL    HW2 9873   5.849   3.157   0.513
 2992SOL     OW 9874   2.020   4.186   4.776
 2992SOL    HW1 9875   2.032   4.141   4.688
 2992SOL    HW2 9876   1.937   4.152   4.820
 2993SOL     OW 9877   3.764   5.723   6.786
 2993SOL    HW1 9878   3.778   5.795   6.719
 2993SOL    HW2 9879   3.852   5.691   6.820
 2994SOL     OW 9880   3.303   5.297   5.181
 2994SOL    HW1 9881   3.280   5.394   5.187
 2994SOL    HW2 9882   3.368   5.284   5.106
 2995SOL     OW 9883   5.827   7.010   2.443
 2995SOL    HW1 9884   5.879   6.951   2.504
 2995SOL    HW2 9885   5.730   6.985   2.448
 2996SOL     OW 9886   6.623   0.279   4.828
 2996SOL    HW1 9887   6.620   0.364   4.776
 2996SOL    HW2 9888   6.622   0.201   4.765
 2997SOL     OW 9889   4.982   6.778   4.041
 2997SOL    HW1 9890   4.937   6.715   3.977
 2997SOL    HW2 9891   5.081   6.768   4.032
 2998SOL     OW 9892   2.797   0.451   1.001
 2998SOL    HW1 9893   2.857   0.483   0.927
 2998SOL    HW2 9894   2.706   0.432   0.964
 2999SOL     OW 9895   2.181   5.463   6.717
 2999SOL    HW1 9896   2.196   5.411   6.801
 2999SOL    HW2 9897   2.084   5.458   6.692
 3000SOL     OW 9898   2.144   4.136   6.357
 3000SOL    HW1 9899   2.190   4.057   6.316
 3000SOL    HW2 9900   2.176   4.219   6.312
 3001SOL     OW 9901   2.338   0.173   6.028
 3001SOL    HW1 9902   2.257   0.206   6.076
 3001SOL    HW2 9903   2.313   0.094   5.973
 3002SOL     OW 9904   1.682   1.713   1.511
 3002SOL    HW1 9905   1.640   1.656   1.582
 3002SOL    HW2 9906   1.616   1.782   1.481
 3003SOL     OW 9907   1.121   5.769   0.001
 3003SOL    HW1 9908   1.079   5.798   0.087
 3003SOL    HW2 9909   1.064   5.699   6.981
 3004SOL     OW 9910   2.872   1.220   4.569
 3004SOL    HW1 9911   2.865   1.308   4.616
 3004SOL    HW2 9912   2.925   1.156   4.625
 3005SOL     OW 9913   2.898   1.782   6.383
 3005SOL    HW1 9914   2.930   1.801   6.291
 3005SOL    HW2 9915   2.813   1.832   6.400
 3006SOL     OW 9916   5.334   1.134   6.067
 3006SOL    HW1 9917   5.298   1.099   5.981
 3006SOL    HW2 9918   5.372   1.059   6.121
 3007SOL     OW 9919   6.655   5.425   6.493
 3007SOL    HW1 9920   6.660   5.335   6.449
 3007SOL    HW2 9921   6.735   5.439   6.551
 3008SOL     OW 9922   5.691   3.806   5.582
 3008SOL    HW1 9923   5.776   3.840   5.622
 3008SOL    HW2 9924   5.658   3.727   5.634
 3009SOL     OW 9925   5.962   4.012   1.508
 3009SOL    HW1 9926   5.953   4.110   1.525
 3009SOL    HW2 9927   6.044   3.977   1.553
 3010SOL     OW 9928   4.774   4.094   1.864
 3010SOL    HW1 9929   4.809   4.152   1.791
 3010SOL    HW2 9930   4.692   4.046   1.833
 3011SOL     OW 9931   5.088   0.503   1.278
 3011SOL    HW1 9932   5.144   0.584   1.260
 3011SOL    HW2 9933   5.044   0.472   1.194
 3012SOL     OW 9934   2.089   2.532   4.545
 3012SOL    HW1 9935   2.063   2.583   4.627
 3012SOL    HW2 9936   2.188   2.541   4.530
 3013SOL     OW 9937   0.580   6.090   5.908
 3013SOL    HW1 9938   0.503   6.056   5.962
 3013SOL    HW2 9939   0.634   6.153   5.964
 3014SOL     OW 9940   4.052   6.727   1.106
 3014SOL    HW1 9941   4.125   6.691   1.165
 3014SOL    HW2 9942   3.973   6.666   1.111
 3015SOL     OW 9943   2.180   6.692   5.899
 3015SOL    HW1 9944   2.260   6.631   5.901
 3015SOL    HW2 9945   2.208   6.783   5.869
 3016SOL     OW 9946   3.515   1.273   4.494
 3016SOL    HW1 9947   3.424   1.249   4.527
 3016SOL    HW2 9948   3.552   1.348   4.549
 3017SOL     OW 9949   1.450   6.371   6.374
 3017SOL    HW1 9950   1.354   6.377   6.345
 3017SOL    HW2 9951   1.467   6.441   6.443
 3018SOL     OW 9952   2.110   2.955   1.785
 3018SOL    HW1 9953   2.119   3.041   1.835
 3018SOL    HW2 9954   2.195   2.904   1.791
 3019SOL     OW 9955   0.924   1.128   5.563
 3019SOL    HW1 9956   0.915   1.203   5.498
 3019SOL    HW2 9957   0.834   1.101   5.595
 3020SOL     OW 9958   5.247   4.090   6.784
 3020SOL    HW1 9959   5.332   4.079   6.835
 3020SOL    HW2 9960   5.216   4.185   6.792
 3021SOL     OW 9961   3.850   6.158   4.609
 3021SOL    HW1 9962   3.862   6.219   4.530
 3021SOL    HW2 9963   3.773   6.190   4.664
 3022SOL     OW 9964   3.737   6.336   1.841
 3022SOL    HW1 9965   3.647   6.292   1.840
 3022SOL    HW2 9966   3.727   6.432   1.813
 3023SOL     OW 9967   6.827   4.457   5.691
 3023SOL    HW1 9968   6.764   4.526   5.655
 3023SOL    HW2 9969   6.868   4.490   5.776
 3024SOL     OW 9970   5.850   2.049   5.839
 3024SOL    HW1 9971   5.925   2.113   5.828
 3024SOL    HW2 9972   5.872   1.983   5.911
 3025SOL     OW 9973   3.728   5.026   0.960
 3025SOL    HW1 9974   3.709   4.934   0.927
 3025SOL    HW2 9975   3.821   5.029   0.997
 3026SOL     OW 9976   6.788   5.313   2.502
 3026SOL    HW1 9977   6.749   5.346   2.416
 3026SOL    HW2 9978   6.809   5.391   2.561
 3027SOL     OW 9979   4.462   0.597   1.058
 3027SOL    HW1 9980   4.408   0.618   0.976
 3027SOL    HW2 9981   4.422   0.645   1.137
 3028SOL     OW 9982   3.334   3.474   3.925
 3028SOL    HW1 9983   3.334   3.510   3.832
 3028SOL    HW2 9984   3.332   3.374   3.922
 3029SOL     OW 9985   0.011   2.354   5.479
 3029SOL    HW1 9986   6.992   2.286   5.419
 3029SOL    HW2 9987   6.963   2.393   5.538
 3030SOL     OW 9988   1.025   4.021   6.265
 3030SOL    HW1 9989   0.945   4.071   6.299
 3030SOL    HW2 9990   1.107   4.057   6.309
 3031SOL     OW 9991   0.235   4.415   0.043
 3031SOL    HW1 9992   0.149   4.463   0.024
 3031SOL    HW2 9993   0.252   4.348   6.992
 3032SOL     OW 9994   3.119   0.266   3.525
 3032SOL    HW1 9995   3.143   0.331   3.597
 3032SOL    HW2 9996   3.166   0.291   3.440
 3033SOL     OW 9997   1.735   0.622   5.977
 3033SOL    HW1 9998   1.810   0.673   5.934
 3033SOL    HW2 9999   1.704   0.550   5.915
 3034SOL     OW10000   4.834   3.849   3.377
 3034SOL    HW110001   4.823   3.761   3.330
 3034SOL    HW210002   4.812   3.923   3.314
 3035SOL     OW10003   5.554   4.588   6.926
 3035SOL    HW110004   5.458   4.595   6.901
 3035SOL    HW210005   5.579   4.663   6.986
 3036SOL     OW10006   2.223   2.607   6.891
 3036SOL    HW110007   2.159   2.672   6.933
 3036SOL    HW210008   2.239   2.633   6.796
 3037SOL     OW10009   0.941   5.676   6.470
 3037SOL    HW110010   1.020   5.715   6.424
 3037SOL    HW210011   0.927   5.582   6.439
 3038SOL     OW10012   6.140   5.362   6.600
 3038SOL    HW110013   6.232   5.330   6.577
 3038SOL    HW210014   6.121   5.346   6.697
 3039SOL     OW10015   6.528   3.270   6.206
 3039SOL    HW110016   6.464   3.319   6.147
 3039SOL    HW210017   6.566   3.332   6.274
 3040SOL     OW10018   3.374   6.770   6.392
 3040SOL    HW110019   3.315   6.695   6.424
 3040SOL    HW210020   3.456   6.774   6.448
 3041SOL     OW10021   1.922   5.934   5.529
 3041SOL    HW110022   1.968   5.847   5.509
 3041SOL    HW210023   1.942   5.960   5.624
 3042SOL     OW10024   6.651   5.837   4.648
 3042SOL    HW110025   6.586   5.761   4.653
 3042SOL    HW210026   6.625   5.907   4.715
 3043SOL     OW10027   2.235   3.680   1.727
 3043SOL    HW110028   2.262   3.610   1.793
 3043SOL    HW210029   2.314   3.739   1.707
 3044SOL     OW10030   3.817   3.918   3.788
 3044SOL    HW110031   3.903   3.923   3.737
 3044SOL    HW210032   3.837   3.905   3.885
 3045SOL     OW10033   5.891   6.556   3.624
 3045SOL    HW110034   5.869   6.472   3.574
 3045SOL    HW210035   5.975   6.595   3.587
 3046SOL     OW10036   6.447   6.282   1.831
 3046SOL    HW110037   6.441   6.256   1.735
 3046SOL    HW210038   6.521   6.231   1.875
 3047SOL     OW10039   4.542   1.235   3.803
 3047SOL    HW110040   4.573   1.304   3.869
 3047SOL    HW210041   4.452   1.261   3.768
 3048SOL     OW10042   4.409   4.634   0.611
 3048SOL    HW110043   4.355   4.558   0.575
 3048SOL    HW210044   4.399   4.638   0.710
 3049SOL     OW10045   6.783   0.420   1.232
 3049SOL    HW110046   6.794   0.517   1.255
 3049SOL    HW210047   6.788   0.365   1.315
 3050SOL     OW10048   4.242   3.336   5.808
 3050SOL    HW110049   4.178   3.303   5.738
 3050SOL    HW210050   4.257   3.434   5.795
 3051SOL     OW10051   2.680   4.303   5.923
 3051SOL    HW110052   2.604   4.246   5.951
 3051SOL    HW210053   2.658   4.399   5.940
 3052SOL     OW10054   6.337   0.002   4.378
 3052SOL    HW110055   6.405   0.069   4.346
 3052SOL    HW210056   6.306   0.028   4.469
 3053SOL     OW10057   0.452   5.798   5.856
 3053SOL    HW110058   0.477   5.835   5.766
 3053SOL    HW210059   0.352   5.795   5.864
 3054SOL     OW10060   6.297   6.200   3.394
 3054SOL    HW110061   6.354   6.203   3.312
 3054SOL    HW210062   6.278   6.105   3.418
 3055SOL     OW10063   5.342   5.668   1.118
 3055SOL    HW110064   5.389   5.722   1.188
 3055SOL    HW210065   5.373   5.697   1.028
 3056SOL     OW10066   4.929   2.470   1.332
 3056SOL    HW110067   4.880   2.483   1.418
 3056SOL    HW210068   5.000   2.540   1.324
 3057SOL     OW10069   0.167   1.778   2.471
 3057SOL    HW110070   0.185   1.872   2.501
 3057SOL    HW210071   0.160   1.718   2.551
 3058SOL     OW10072   5.018   4.336   6.447
 3058SOL    HW110073   5.089   4.286   6.398
 3058SOL    HW210074   4.957   4.381   6.381
 3059SOL     OW10075   1.148   2.877   3.276
 3059SOL    HW110076   1.137   2.971   3.245
 3059SOL    HW210077   1.222   2.873   3.343
 3060SOL     OW10078   6.611   2.568   4.071
 3060SOL    HW110079   6.540   2.540   4.136
 3060SOL    HW210080   6.568   2.609   3.991
 3061SOL     OW10081   5.214   5.959   2.154
 3061SOL    HW110082   5.137   6.023   2.153
 3061SOL    HW210083   5.283   5.991   2.219
 3062SOL     OW10084   3.778   5.159   6.612
 3062SOL    HW110085   3.829   5.081   6.650
 3062SOL    HW210086   3.716   5.127   6.541
 3063SOL     OW10087   5.791   6.344   1.381
 3063SOL    HW110088   5.822   6.349   1.287
 3063SOL    HW210089   5.870   6.339   1.442
 3064SOL     OW10090   4.583   0.859   5.906
 3064SOL    HW110091   4.582   0.959   5.915
 3064SOL    HW210092   4.646   0.833   5.833
 3065SOL     OW10093   4.545   2.017   6.144
 3065SOL    HW110094   4.613   2.046   6.077
 3065SOL    HW210095   4.547   1.918   6.154
 3066SOL     OW10096   4.956   0.388   6.939
 3066SOL    HW110097   4.978   0.291   6.944
 3066SOL    HW210098   4.959   0.418   6.843
 3067SOL     OW10099   1.497   2.094   4.892
 3067SOL    HW110100   1.411   2.056   4.859
 3067SOL    HW210101   1.510   2.185   4.853
 3068SOL     OW10102   6.829   0.467   0.718
 3068SOL    HW110103   6.785   0.387   0.759
 3068SOL    HW210104   6.928   0.459   0.725
 3069SOL     OW10105   4.691   5.755   4.253
 3069SOL    HW110106   4.778   5.790   4.289
 3069SOL    HW210107   4.707   5.668   4.207
 3070SOL     OW10108   2.356   1.188   0.431
 3070SOL    HW110109   2.417   1.178   0.352
 3070SOL    HW210110   2.389   1.263   0.489
 3071SOL     OW10111   6.112   4.184   4.909
 3071SOL    HW110112   6.066   4.257   4.858
 3071SOL    HW210113   6.161   4.124   4.845
 3072SOL     OW10114   2.026   6.337   4.113
 3072SOL    HW110115   1.936   6.304   4.083
 3072SOL    HW210116   2.039   6.315   4.210
 3073SOL     OW10117   0.812   4.640   3.063
 3073SOL    HW110118   0.749   4.717   3.074
 3073SOL    HW210119   0.776   4.560   3.111
 3074SOL     OW10120   2.696   3.585   1.439
 3074SOL    HW110121   2.693   3.671   1.489
 3074SOL    HW210122   2.628   3.522   1.477
 3075SOL     OW10123   3.845   4.586   0.789
 3075SOL    HW110124   3.804   4.647   0.857
 3075SOL    HW210125   3.926   4.542   0.828
 3076SOL     OW10126   2.939   0.806   4.371
 3076SOL    HW110127   2.843   0.829   4.354
 3076SOL    HW210128   2.996   0.887   4.356
 3077SOL     OW10129   0.127   3.212   2.503
 3077SOL    HW110130   0.222   3.193   2.479
 3077SOL    HW210131   0.100   3.154   2.580
 3078SOL     OW10132   6.316   4.912   1.501
 3078SOL    HW110133   6.412   4.888   1.486
 3078SOL    HW210134   6.301   4.933   1.597
 3079SOL     OW10135   6.941   3.903   2.361
 3079SOL    HW110136   7.017   3.930   2.302
 3079SOL    HW210137   6.871   3.857   2.307
 3080SOL     OW10138   3.464   4.967   1.557
 3080SOL    HW110139   3.548   4.920   1.529
 3080SOL    HW210140   3.413   4.909   1.620
 3081SOL     OW10141   2.696   2.223   5.992
 3081SOL    HW110142   2.644   2.149   5.951
 3081SOL    HW210143   2.694   2.303   5.932
 3082SOL     OW10144   6.141   2.787   4.076
 3082SOL    HW110145   6.195   2.769   3.993
 3082SOL    HW210146   6.054   2.738   4.069
 3083SOL     OW10147   4.600   5.473   1.927
 3083SOL    HW110148   4.657   5.555   1.916
 3083SOL    HW210149   4.526   5.494   1.991
 3084SOL     OW10150   0.238   5.520   4.561
 3084SOL    HW110151   0.236   5.618   4.544
 3084SOL    HW210152   0.154   5.478   4.528
 3085SOL     OW10153   6.533   5.573   5.738
 3085SOL    HW110154   6.434   5.586   5.747
 3085SOL    HW210155   6.554   5.476   5.733
 3086SOL     OW10156   6.063   5.790   6.143
 3086SOL    HW110157   6.086   5.884   6.120
 3086SOL    HW210158   6.073   5.732   6.062
 3087SOL     OW10159   2.508   0.121   1.166
 3087SOL    HW110160   2.567   0.105   1.087
 3087SOL    HW210161   2.480   0.217   1.167
 3088SOL     OW10162   2.064   3.024   5.205
 3088SOL    HW110163   2.119   3.076   5.140
 3088SOL    HW210164   1.975   3.004   5.165
 3089SOL     OW10165   3.949   6.937   0.941
 3089SOL    HW110166   3.983   6.855   0.987
 3089SOL    HW210167   3.851   6.948   0.960
 3090SOL     OW10168   0.407   1.880   3.435
 3090SOL    HW110169   0.408   1.925   3.524
 3090SOL    HW210170   0.333   1.814   3.432
 3091SOL     OW10171   1.831   1.837   5.658
 3091SOL    HW110172   1.891   1.757   5.651
 3091SOL    HW210173   1.844   1.896   5.578
 3092SOL     OW10174   4.854   1.780   4.120
 3092SOL    HW110175   4.866   1.768   4.021
 3092SOL    HW210176   4.762   1.753   4.147
 3093SOL     OW10177   6.722   6.450   0.630
 3093SOL    HW110178   6.764   6.538   0.653
 3093SOL    HW210179   6.623   6.461   0.627
 3094SOL     OW10180   1.154   0.982   6.185
 3094SOL    HW110181   1.219   0.906   6.193
 3094SOL    HW210182   1.149   1.032   6.271
 3095SOL     OW10183   2.214   3.702   6.099
 3095SOL    HW110184   2.204   3.793   6.139
 3095SOL    HW210185   2.163   3.635   6.152
 3096SOL     OW10186   1.698   3.765   4.087
 3096SOL    HW110187   1.629   3.744   4.018
 3096SOL    HW210188   1.761   3.687   4.096
 3097SOL     OW10189   4.997   2.552   6.278
 3097SOL    HW110190   4.992   2.459   6.316
 3097SOL    HW210191   5.093   2.574   6.260
 3098SOL     OW10192   2.165   4.645   2.888
 3098SOL    HW110193   2.235   4.617   2.955
 3098SOL    HW210194   2.210   4.677   2.805
 3099SOL     OW10195   0.981   1.649   5.514
 3099SOL    HW110196   0.993   1.609   5.605
 3099SOL    HW210197   0.900   1.609   5.471
 3100SOL     OW10198   5.986   4.238   3.113
 3100SOL    HW110199   6.054   4.233   3.041
 3100SOL    HW210200   5.905   4.186   3.087
 3101SOL     OW10201   4.669   6.812   5.057
 3101SOL    HW110202   4.674   6.712   5.057
 3101SOL    HW210203   4.576   6.841   5.080
 3102SOL     OW10204   5.617   2.843   3.211
 3102SOL    HW110205   5.552   2.791   3.156
 3102SOL    HW210206   5.700   2.788   3.225
 3103SOL     OW10207   1.028   0.835   2.372
 3103SOL    HW110208   1.048   0.920   2.419
 3103SOL    HW210209   0.937   0.840   2.331
 3104SOL     OW10210   5.828   2.349   6.211
 3104SOL    HW110211   5.831   2.440   6.252
 3104SOL    HW210212   5.901   2.293   6.250
 3105SOL     OW10213   5.649   4.919   0.900
 3105SOL    HW110214   5.588   4.856   0.853
 3105SOL    HW210215   5.620   5.013   0.881
 3106SOL     OW10216   5.595   1.482   4.901
 3106SOL    HW110217   5.653   1.416   4.853
 3106SOL    HW210218   5.638   1.506   4.988
 3107SOL     OW10219   5.141   1.473   4.926
 3107SOL    HW110220   5.227   1.507   4.888
 3107SOL    HW210221   5.070   1.475   4.856
 3108SOL     OW10222   3.051   5.310   4.792
 3108SOL    HW110223   3.150   5.323   4.791
 3108SOL    HW210224   3.024   5.252   4.715
 3109SOL     OW10225   6.818   4.770   3.795
 3109SOL    HW110226   6.874   4.795   3.716
 3109SOL    HW210227   6.774   4.682   3.778
 3110SOL     OW10228   2.766   5.033   3.993
 3110SOL    HW110229   2.827   5.046   4.071
 3110SOL    HW210230   2.812   4.974   3.925
 3111SOL     OW10231   0.616   3.656   4.415
 3111SOL    HW110232   0.594   3.754   4.420
 3111SOL    HW210233   0.563   3.606   4.483
 3112SOL     OW10234   4.739   0.598   0.957
 3112SOL    HW110235   4.654   0.610   1.009
 3112SOL    HW210236   4.717   0.572   0.863
 3113SOL     OW10237   1.237   6.637   3.494
 3113SOL    HW110238   1.256   6.735   3.481
 3113SOL    HW210239   1.273   6.608   3.582
 3114SOL     OW10240   5.521   5.360   5.240
 3114SOL    HW110241   5.571   5.282   5.279
 3114SOL    HW210242   5.502   5.342   5.144
 3115SOL     OW10243   5.894   4.867   4.470
 3115SOL    HW110244   5.826   4.939   4.489
 3115SOL    HW210245   5.852   4.795   4.415
 3116SOL     OW10246   0.823   2.871   5.810
 3116SOL    HW110247   0.915   2.832   5.806
 3116SOL    HW210248   0.758   2.806   5.770
 3117SOL     OW10249   3.920   0.603   2.561
 3117SOL    HW110250   4.008   0.649   2.553
 3117SOL    HW210251   3.934   0.504   2.554
 3118SOL     OW10252   1.103   1.679   3.512
 3118SOL    HW110253   1.080   1.774   3.530
 3118SOL    HW210254   1.043   1.618   3.564
 3119SOL     OW10255   4.430   6.886   3.094
 3119SOL    HW110256   4.461   6.950   3.025
 3119SOL    HW210257   4.408   6.798   3.050
 3120SOL     OW10258   3.782   6.712   6.104
 3120SOL    HW110259   3.778   6.794   6.161
 3120SOL    HW210260   3.700   6.657   6.122
 3121SOL     OW10261   4.035   1.452   3.053
 3121SOL    HW110262   4.092   1.372   3.076
 3121SOL    HW210263   4.095   1.531   3.036
 3122SOL     OW10264   4.689   3.437   6.159
 3122SOL    HW110265   4.778   3.425   6.202
 3122SOL    HW210266   4.626   3.480   6.224
 3123SOL     OW10267   2.171   2.947   2.731
 3123SOL    HW110268   2.175   2.986   2.639
 3123SOL    HW210269   2.078   2.915   2.749
 3124SOL     OW10270   5.327   5.775   5.748
 3124SOL    HW110271   5.247   5.831   5.727
 3124SOL    HW210272   5.309   5.720   5.829
 3125SOL     OW10273   2.619   1.493   4.578
 3125SOL    HW110274   2.586   1.586   4.596
 3125SOL    HW210275   2.663   1.457   4.661
 3126SOL     OW10276   5.148   3.755   5.176
 3126SOL    HW110277   5.174   3.759   5.080
 3126SOL    HW210278   5.058   3.797   5.189
 3127SOL     OW10279   0.378   2.352   6.425
 3127SOL    HW110280   0.314   2.320   6.355
 3127SOL    HW210281   0.391   2.280   6.494
 3128SOL     OW10282   3.964   1.756   1.816
 3128SOL    HW110283   3.971   1.843   1.866
 3128SOL    HW210284   3.941   1.774   1.721
 3129SOL     OW10285   4.032   4.835   0.213
 3129SOL    HW110286   4.088   4.918   0.205
 3129SOL    HW210287   4.091   4.756   0.225
 3130SOL     OW10288   6.392   5.888   3.119
 3130SOL    HW110289   6.297   5.859   3.117
 3130SOL    HW210290   6.442   5.843   3.044
 3131SOL     OW10291   0.787   1.548   3.343
 3131SOL    HW110292   0.728   1.468   3.335
 3131SOL    HW210293   0.761   1.602   3.423
 3132SOL     OW10294   3.946   3.965   5.944
 3132SOL    HW110295   3.977   3.939   6.036
 3132SOL    HW210296   3.856   3.927   5.927
 3133SOL     OW10297   5.083   6.095   4.590
 3133SOL    HW110298   5.076   5.996   4.599
 3133SOL    HW210299   4.991   6.134   4.582
 3134SOL     OW10300   4.146   5.143   3.127
 3134SOL    HW110301   4.100   5.224   3.163
 3134SOL    HW210302   4.242   5.164   3.109
 3135SOL     OW10303   4.064   0.617   6.112
 3135SOL    HW110304   4.106   0.700   6.075
 3135SOL    HW210305   4.130   0.569   6.170
 3136SOL     OW10306   6.193   6.223   1.976
 3136SOL    HW110307   6.291   6.223   1.954
 3136SOL    HW210308   6.148   6.296   1.925
 3137SOL     OW10309   4.797   3.902   6.739
 3137SOL    HW110310   4.780   3.821   6.683
 3137SOL    HW210311   4.853   3.967   6.687
 3138SOL     OW10312   6.808   6.359   5.559
 3138SOL    HW110313   6.812   6.267   5.520
 3138SOL    HW210314   6.876   6.367   5.632
 3139SOL     OW10315   1.431   4.773   1.981
 3139SOL    HW110316   1.366   4.846   2.004
 3139SOL    HW210317   1.508   4.812   1.931
 3140SOL     OW10318   4.143   5.556   6.747
 3140SOL    HW110319   4.070   5.490   6.730
 3140SOL    HW210320   4.104   5.642   6.777
 3141SOL     OW10321   6.201   2.359   0.840
 3141SOL    HW110322   6.185   2.261   0.831
 3141SOL    HW210323   6.131   2.409   0.789
 3142SOL     OW10324   4.330   0.551   4.024
 3142SOL    HW110325   4.358   0.557   4.120
 3142SOL    HW210326   4.244   0.599   4.011
 3143SOL     OW10327   5.618   1.454   6.617
 3143SOL    HW110328   5.707   1.434   6.658
 3143SOL    HW210329   5.547   1.443   6.687
 3144SOL     OW10330   3.501   5.060   6.524
 3144SOL    HW110331   3.425   4.994   6.525
 3144SOL    HW210332   3.525   5.085   6.617
 3145SOL     OW10333   1.511   6.269   5.155
 3145SOL    HW110334   1.484   6.257   5.251
 3145SOL    HW210335   1.490   6.186   5.104
 3146SOL     OW10336   6.684   1.385   5.209
 3146SOL    HW110337   6.609   1.449   5.191
 3146SOL    HW210338   6.727   1.359   5.123
 3147SOL     OW10339   4.898   0.320   0.759
 3147SOL    HW110340   4.977   0.297   0.816
 3147SOL    HW210341   4.815   0.284   0.802
 3148SOL     OW10342   5.569   4.754   0.650
 3148SOL    HW110343   5.607   4.662   0.641
 3148SOL    HW210344   5.624   4.817   0.594
 3149SOL     OW10345   4.211   3.353   6.782
 3149SOL    HW110346   4.170   3.408   6.855
 3149SOL    HW210347   4.141   3.327   6.715
 3150SOL     OW10348   0.225   0.976   5.172
 3150SOL    HW110349   0.187   1.062   5.139
 3150SOL    HW210350   0.212   0.970   5.271
 3151SOL     OW10351   1.374   1.429   0.202
 3151SOL    HW110352   1.358   1.346   0.255
 3151SOL    HW210353   1.451   1.479   0.242
 3152SOL     OW10354   3.250   1.161   5.357
 3152SOL    HW110355   3.216   1.202   5.272
 3152SOL    HW210356   3.175   1.153   5.422
 3153SOL     OW10357   5.157   5.561   1.305
 3153SOL    HW110358   5.191   5.573   1.212
 3153SOL    HW210359   5.153   5.650   1.351
 3154SOL     OW10360   3.946   2.525   0.926
 3154SOL    HW110361   3.902   2.462   0.862
 3154SOL    HW210362   3.875   2.572   0.980
 3155SOL     OW10363   7.016   6.516   6.285
 3155SOL    HW110364   0.074   6.459   6.301
 3155SOL    HW210365   6.974   6.540   6.372
 3156SOL     OW10366   2.784   4.752   0.833
 3156SOL    HW110367   2.879   4.757   0.804
 3156SOL    HW210368   2.774   4.679   0.900
 3157SOL     OW10369   1.469   1.995   3.071
 3157SOL    HW110370   1.565   2.014   3.046
 3157SOL    HW210371   1.444   1.904   3.039
 3158SOL     OW10372   1.443   0.611   6.025
 3158SOL    HW110373   1.542   0.602   6.019
 3158SOL    HW210374   1.402   0.521   6.042
 3159SOL     OW10375   5.007   5.010   0.705
 3159SOL    HW110376   5.077   4.999   0.776
 3159SOL    HW210377   5.005   4.927   0.648
 3160SOL     OW10378   2.228   0.787   5.846
 3160SOL    HW110379   2.316   0.814   5.807
 3160SOL    HW210380   2.217   0.688   5.839
 3161SOL     OW10381   2.147   2.063   1.967
 3161SOL    HW110382   2.116   2.004   2.041
 3161SOL    HW210383   2.087   2.143   1.961
 3162SOL     OW10384   1.199   5.681   2.193
 3162SOL    HW110385   1.104   5.655   2.210
 3162SOL    HW210386   1.260   5.613   2.233
 3163SOL     OW10387   5.039   4.601   1.018
 3163SOL    HW110388   5.026   4.645   1.107
 3163SOL    HW210389   5.101   4.657   0.962
 3164SOL     OW10390   2.235   0.153   2.507
 3164SOL    HW110391   2.326   0.120   2.533
 3164SOL    HW210392   2.176   0.153   2.588
 3165SOL     OW10393   6.036   5.356   0.499
 3165SOL    HW110394   6.121   5.379   0.450
 3165SOL    HW210395   5.989   5.441   0.525
 3166SOL     OW10396   3.642   2.045   4.768
 3166SOL    HW110397   3.659   2.107   4.845
 3166SOL    HW210398   3.692   1.960   4.783
 3167SOL     OW10399   6.757   2.496   2.862
 3167SOL    HW110400   6.671   2.547   2.852
 3167SOL    HW210401   6.820   2.523   2.790
 3168SOL     OW10402   6.115   1.559   0.823
 3168SOL    HW110403   6.155   1.555   0.731
 3168SOL    HW210404   6.050   1.485   0.834
 3169SOL     OW10405   1.274   1.942   2.476
 3169SOL    HW110406   1.182   1.967   2.447
 3169SOL    HW210407   1.281   1.947   2.575
 3170SOL     OW10408   2.799   4.707   3.974
 3170SOL    HW110409   2.704   4.677   3.983
 3170SOL    HW210410   2.853   4.669   4.049
 3171SOL     OW10411   6.799   2.200   4.512
 3171SOL    HW110412   6.867   2.203   4.439
 3171SOL    HW210413   6.738   2.279   4.505
 3172SOL     OW10414   6.375   4.221   0.645
 3172SOL    HW110415   6.418   4.278   0.575
 3172SOL    HW210416   6.276   4.218   0.631
 3173SOL     OW10417   5.091   4.429   0.670
 3173SOL    HW110418   5.007   4.417   0.617
 3173SOL    HW210419   5.071   4.415   0.767
 3174SOL     OW10420   2.723   3.720   6.340
 3174SOL    HW110421   2.634   3.686   6.308
 3174SOL    HW210422   2.762   3.780   6.271
 3175SOL     OW10423   6.178   5.644   4.504
 3175SOL    HW110424   6.103   5.662   4.441
 3175SOL    HW210425   6.247   5.715   4.495
 3176SOL     OW10426   6.515   4.982   4.158
 3176SOL    HW110427   6.589   5.050   4.158
 3176SOL    HW210428   6.541   4.904   4.101
 3177SOL     OW10429   5.557   2.260   1.898
 3177SOL    HW110430   5.594   2.201   1.826
 3177SOL    HW210431   5.479   2.215   1.940
 3178SOL     OW10432   1.532   0.671   2.259
 3178SOL    HW110433   1.628   0.698   2.263
 3178SOL    HW210434   1.513   0.605   2.332
 3179SOL     OW10435   0.564   4.185   3.008
 3179SOL    HW110436   0.620   4.156   2.930
 3179SOL    HW210437   0.471   4.150   2.998
 3180SOL     OW10438   6.458   0.185   6.071
 3180SOL    HW110439   6.429   0.136   5.989
 3180SOL    HW210440   6.553   0.160   6.092
 3181SOL     OW10441   6.238   6.612   4.833
 3181SOL    HW110442   6.170   6.577   4.768
 3181SOL    HW210443   6.312   6.546   4.842
 3182SOL     OW10444   1.176   6.892   1.614
 3182SOL    HW110445   1.091   6.845   1.638
 3182SOL    HW210446   1.162   6.948   1.533
 3183SOL     OW10447   4.028   4.399   0.167
 3183SOL    HW110448   4.074   4.444   0.245
 3183SOL    HW210449   3.930   4.419   0.170
 3184SOL     OW10450   6.292   0.453   4.660
 3184SOL    HW110451   6.259   0.375   4.607
 3184SOL    HW210452   6.215   0.496   4.708
 3185SOL     OW10453   0.932   0.282   6.385
 3185SOL    HW110454   0.937   0.382   6.377
 3185SOL    HW210455   0.861   0.258   6.452
 3186SOL     OW10456   0.981   2.423   5.984
 3186SOL    HW110457   0.883   2.413   5.963
 3186SOL    HW210458   1.008   2.518   5.966
 3187SOL     OW10459   5.474   6.872   3.118
 3187SOL    HW110460   5.419   6.933   3.061
 3187SOL    HW210461   5.563   6.857   3.074
 3188SOL     OW10462   0.811   0.128   1.516
 3188SOL    HW110463   0.813   0.112   1.417
 3188SOL    HW210464   0.847   0.219   1.536
 3189SOL     OW10465   2.973   2.051   5.592
 3189SOL    HW110466   3.017   2.119   5.533
 3189SOL    HW210467   2.981   1.960   5.550
 3190SOL     OW10468   6.381   5.804   4.437
 3190SOL    HW110469   6.348   5.841   4.350
 3190SOL    HW210470   6.471   5.763   4.424
 3191SOL     OW10471   4.491   4.927   0.086
 3191SOL    HW110472   4.438   4.843   0.085
 3191SOL    HW210473   4.432   5.005   0.065
 3192SOL     OW10474   4.938   0.380   3.122
 3192SOL    HW110475   4.924   0.285   3.093
 3192SOL    HW210476   4.980   0.381   3.213
 3193SOL     OW10477   4.239   5.320   5.262
 3193SOL    HW110478   4.182   5.337   5.181
 3193SOL    HW210479   4.187   5.342   5.344
 3194SOL     OW10480   2.275   6.964   5.805
 3194SOL    HW110481   2.205   6.921   5.748
 3194SOL    HW210482   2.337   7.018   5.747
 3195SOL     OW10483   7.008   6.008   1.730
 3195SOL    HW110484   6.985   6.033   1.635
 3195SOL    HW210485   0.079   6.036   1.750
 3196SOL     OW10486   5.997   0.824   3.377
 3196SOL    HW110487   5.955   0.906   3.338
 3196SOL    HW210488   5.926   0.756   3.396
 3197SOL     OW10489   3.163   0.869   0.346
 3197SOL    HW110490   3.185   0.904   0.255
 3197SOL    HW210491   3.125   0.777   0.339
 3198SOL     OW10492   5.909   4.605   4.080
 3198SOL    HW110493   5.943   4.560   4.163
 3198SOL    HW210494   5.984   4.612   4.014
 3199SOL     OW10495   5.349   3.420   4.660
 3199SOL    HW110496   5.445   3.422   4.688
 3199SOL    HW210497   5.340   3.376   4.571
 3200SOL     OW10498   6.423   3.297   4.884
 3200SOL    HW110499   6.471   3.210   4.889
 3200SOL    HW210500   6.466   3.363   4.945
 3201SOL     OW10501   6.127   2.938   2.617
 3201SOL    HW110502   6.166   2.933   2.525
 3201SOL    HW210503   6.028   2.949   2.611
 3202SOL     OW10504   3.834   2.857   6.135
 3202SOL    HW110505   3.903   2.830   6.068
 3202SOL    HW210506   3.861   2.826   6.226
 3203SOL     OW10507   3.342   6.607   1.508
 3203SOL    HW110508   3.347   6.686   1.447
 3203SOL    HW210509   3.334   6.524   1.452
 3204SOL     OW10510   5.668   0.161   3.177
 3204SOL    HW110511   5.731   0.099   3.131
 3204SOL    HW210512   5.603   0.198   3.111
 3205SOL     OW10513   5.384   2.777   0.596
 3205SOL    HW110514   5.422   2.789   0.687
 3205SOL    HW210515   5.327   2.695   0.594
 3206SOL     OW10516   3.853   5.547   0.206
 3206SOL    HW110517   3.941   5.529   0.161
 3206SOL    HW210518   3.869   5.575   0.300
 3207SOL     OW10519   2.168   5.868   2.714
 3207SOL    HW110520   2.122   5.906   2.634
 3207SOL    HW210521   2.140   5.772   2.726
 3208SOL     OW10522   0.462   3.969   6.861
 3208SOL    HW110523   0.455   4.020   6.776
 3208SOL    HW210524   0.556   3.939   6.875
 3209SOL     OW10525   4.726   0.066   5.176
 3209SOL    HW110526   4.740   0.125   5.096
 3209SOL    HW210527   4.687   7.001   5.145
 3210SOL     OW10528   5.075   4.999   2.476
 3210SOL    HW110529   4.983   5.007   2.516
 3210SOL    HW210530   5.109   5.090   2.453
 3211SOL     OW10531   2.236   0.580   6.611
 3211SOL    HW110532   2.152   0.596   6.662
 3211SOL    HW210533   2.306   0.646   6.640
 3212SOL     OW10534   3.586   0.121   3.629
 3212SOL    HW110535   3.541   0.124   3.539
 3212SOL    HW210536   3.682   0.147   3.618
 3213SOL     OW10537   1.321   0.293   5.801
 3213SOL    HW110538   1.345   0.197   5.785
 3213SOL    HW210539   1.332   0.314   5.898
 3214SOL     OW10540   1.867   6.932   2.808
 3214SOL    HW110541   1.813   6.966   2.885
 3214SOL    HW210542   1.894   7.008   2.750
 3215SOL     OW10543   2.014   3.346   1.617
 3215SOL    HW110544   2.106   3.313   1.636
 3215SOL    HW210545   1.948   3.271   1.624
 3216SOL     OW10546   0.252   4.219   1.667
 3216SOL    HW110547   0.273   4.262   1.756
 3216SOL    HW210548   0.184   4.274   1.619
 3217SOL     OW10549   5.723   5.400   4.066
 3217SOL    HW110550   5.638   5.352   4.045
 3217SOL    HW210551   5.800   5.354   4.023
 3218SOL     OW10552   5.881   1.509   3.250
 3218SOL    HW110553   5.789   1.475   3.266
 3218SOL    HW210554   5.880   1.574   3.174
 3219SOL     OW10555   4.309   1.610   4.268
 3219SOL    HW110556   4.232   1.636   4.210
 3219SOL    HW210557   4.300   1.515   4.295
 3220SOL     OW10558   0.742   4.266   6.037
 3220SOL    HW110559   0.722   4.172   6.010
 3220SOL    HW210560   0.827   4.296   5.994
 3221SOL     OW10561   4.070   1.899   2.574
 3221SOL    HW110562   4.020   1.830   2.626
 3221SOL    HW210563   4.048   1.889   2.477
 3222SOL     OW10564   2.672   0.880   2.914
 3222SOL    HW110565   2.583   0.836   2.922
 3222SOL    HW210566   2.695   0.892   2.818
 3223SOL     OW10567   2.337   5.083   0.510
 3223SOL    HW110568   2.401   5.006   0.510
 3223SOL    HW210569   2.386   5.166   0.537
 3224SOL     OW10570   4.869   2.608   4.188
 3224SOL    HW110571   4.819   2.679   4.238
 3224SOL    HW210572   4.824   2.520   4.200
 3225SOL     OW10573   2.753   1.097   4.901
 3225SOL    HW110574   2.830   1.052   4.856
 3225SOL    HW210575   2.784   1.180   4.947
 3226SOL     OW10576   5.071   1.214   0.191
 3226SOL    HW110577   5.021   1.289   0.147
 3226SOL    HW210578   5.050   1.212   0.288
 3227SOL     OW10579   6.139   4.091   5.734
 3227SOL    HW110580   6.222   4.073   5.786
 3227SOL    HW210581   6.077   4.147   5.790
 3228SOL     OW10582   1.260   4.229   1.370
 3228SOL    HW110583   1.186   4.295   1.356
 3228SOL    HW210584   1.329   4.241   1.299
 3229SOL     OW10585   0.848   1.002   6.935
 3229SOL    HW110586   0.807   0.971   7.020
 3229SOL    HW210587   0.777   1.012   6.865
 3230SOL     OW10588   3.852   0.078   5.125
 3230SOL    HW110589   3.757   0.050   5.142
 3230SOL    HW210590   3.874   0.157   5.182
 3231SOL     OW10591   2.689   2.050   3.056
 3231SOL    HW110592   2.714   2.087   3.146
 3231SOL    HW210593   2.703   2.121   2.987
 3232SOL     OW10594   3.212   5.226   3.215
 3232SOL    HW110595   3.232   5.134   3.181
 3232SOL    HW210596   3.256   5.238   3.304
 3233SOL     OW10597   2.173   6.766   5.027
 3233SOL    HW110598   2.221   6.734   5.108
 3233SOL    HW210599   2.217   6.849   4.992
 3234SOL     OW10600   3.307   3.616   0.512
 3234SOL    HW110601   3.375   3.551   0.543
 3234SOL    HW210602   3.216   3.574   0.513
 3235SOL     OW10603   0.253   1.521   2.982
 3235SOL    HW110604   0.226   1.607   2.937
 3235SOL    HW210605   0.199   1.509   3.065
 3236SOL     OW10606   6.059   6.317   0.298
 3236SOL    HW110607   6.029   6.286   0.388
 3236SOL    HW210608   6.151   6.282   0.279
 3237SOL     OW10609   6.048   2.901   5.463
 3237SOL    HW110610   5.962   2.856   5.487
 3237SOL    HW210611   6.059   2.984   5.519
 3238SOL     OW10612   0.710   4.335   0.880
 3238SOL    HW110613   0.617   4.332   0.844
 3238SOL    HW210614   0.708   4.366   0.975
 3239SOL     OW10615   6.444   1.320   4.424
 3239SOL    HW110616   6.518   1.362   4.372
 3239SOL    HW210617   6.362   1.376   4.418
 3240SOL     OW10618   1.083   1.413   1.889
 3240SOL    HW110619   1.068   1.419   1.988
 3240SOL    HW210620   1.073   1.318   1.860
 3241SOL     OW10621   6.803   2.355   6.045
 3241SOL    HW110622   6.809   2.336   5.947
 3241SOL    HW210623   6.776   2.272   6.094
 3242SOL     OW10624   6.639   5.303   5.319
 3242SOL    HW110625   6.697   5.385   5.316
 3242SOL    HW210626   6.664   5.248   5.399
 3243SOL     OW10627   6.334   4.830   5.196
 3243SOL    HW110628   6.328   4.856   5.100
 3243SOL    HW210629   6.427   4.846   5.230
 3244SOL     OW10630   5.186   0.049   0.453
 3244SOL    HW110631   5.101   0.030   0.501
 3244SOL    HW210632   5.195   7.010   0.374
 3245SOL     OW10633   1.636   6.676   4.469
 3245SOL    HW110634   1.727   6.716   4.470
 3245SOL    HW210635   1.608   6.660   4.375
 3246SOL     OW10636   6.294   4.583   1.951
 3246SOL    HW110637   6.217   4.558   1.893
 3246SOL    HW210638   6.367   4.516   1.941
 3247SOL     OW10639   2.051   3.987   5.075
 3247SOL    HW110640   2.045   3.891   5.103
 3247SOL    HW210641   2.146   4.017   5.078
 3248SOL     OW10642   6.075   1.987   4.376
 3248SOL    HW110643   6.034   1.896   4.363
 3248SOL    HW210644   6.029   2.053   4.316
 3249SOL     OW10645   3.599   4.090   3.743
 3249SOL    HW110646   3.546   4.101   3.827
 3249SOL    HW210647   3.653   4.006   3.748
 3250SOL     OW10648   4.531   5.476   3.508
 3250SOL    HW110649   4.556   5.385   3.542
 3250SOL    HW210650   4.570   5.546   3.568
 3251SOL     OW10651   2.531   2.518   2.146
 3251SOL    HW110652   2.551   2.542   2.051
 3251SOL    HW210653   2.482   2.593   2.190
 3252SOL     OW10654   1.507   2.196   2.798
 3252SOL    HW110655   1.593   2.149   2.817
 3252SOL    HW210656   1.511   2.289   2.837
 3253SOL     OW10657   6.439   3.403   1.334
 3253SOL    HW110658   6.355   3.373   1.288
 3253SOL    HW210659   6.509   3.421   1.266
 3254SOL     OW10660   5.653   6.950   0.645
 3254SOL    HW110661   5.737   6.902   0.670
 3254SOL    HW210662   5.618   6.999   0.724
 3255SOL     OW10663   3.581   4.912   2.191
 3255SOL    HW110664   3.563   4.866   2.104
 3255SOL    HW210665   3.498   4.911   2.247
 3256SOL     OW10666   5.085   2.629   2.406
 3256SOL    HW110667   5.085   2.701   2.337
 3256SOL    HW210668   5.099   2.540   2.361
 3257SOL     OW10669   2.989   1.339   2.235
 3257SOL    HW110670   2.948   1.417   2.190
 3257SOL    HW210671   2.927   1.261   2.231
 3258SOL     OW10672   0.082   5.789   4.578
 3258SOL    HW110673   0.053   5.789   4.674
 3258SOL    HW210674   0.004   5.812   4.520
 3259SOL     OW10675   6.237   5.449   2.300
 3259SOL    HW110676   6.207   5.503   2.221
 3259SOL    HW210677   6.178   5.369   2.309
 3260SOL     OW10678   2.639   4.825   3.732
 3260SOL    HW110679   2.601   4.915   3.756
 3260SOL    HW210680   2.738   4.827   3.746
 3261SOL     OW10681   6.475   0.685   4.166
 3261SOL    HW110682   6.463   0.586   4.158
 3261SOL    HW210683   6.428   0.718   4.248
 3262SOL     OW10684   3.378   2.084   2.503
 3262SOL    HW110685   3.459   2.027   2.520
 3262SOL    HW210686   3.397   2.146   2.426
 3263SOL     OW10687   5.579   0.446   0.805
 3263SOL    HW110688   5.564   0.481   0.713
 3263SOL    HW210689   5.525   0.364   0.820
 3264SOL     OW10690   1.282   5.531   7.021
 3264SOL    HW110691   1.226   5.609   0.026
 3264SOL    HW210692   1.226   5.469   6.965
 3265SOL     OW10693   6.621   5.720   5.509
 3265SOL    HW110694   6.586   5.712   5.602
 3265SOL    HW210695   6.628   5.817   5.485
 3266SOL     OW10696   3.318   4.566   6.796
 3266SOL    HW110697   3.262   4.615   6.729
 3266SOL    HW210698   3.358   4.484   6.753
 3267SOL     OW10699   2.830   0.280   6.954
 3267SOL    HW110700   2.868   0.354   7.010
 3267SOL    HW210701   2.900   0.210   6.941
 3268SOL     OW10702   5.589   3.920   2.707
 3268SOL    HW110703   5.496   3.905   2.673
 3268SOL    HW210704   5.648   3.845   2.677
 3269SOL     OW10705   2.357   5.537   0.123
 3269SOL    HW110706   2.359   5.497   0.032
 3269SOL    HW210707   2.266   5.526   0.164
 3270SOL     OW10708   1.941   3.589   6.040
 3270SOL    HW110709   1.841   3.591   6.046
 3270SOL    HW210710   1.968   3.581   5.944
 3271SOL     OW10711   1.414   3.933   1.998
 3271SOL    HW110712   1.477   3.924   2.074
 3271SOL    HW210713   1.325   3.964   2.031
 3272SOL     OW10714   3.356   0.292   0.394
 3272SOL    HW110715   3.309   0.235   0.462
 3272SOL    HW210716   3.446   0.318   0.430
 3273SOL     OW10717   4.456   3.911   6.498
 3273SOL    HW110718   4.429   4.004   6.472
 3273SOL    HW210719   4.407   3.885   6.582
 3274SOL     OW10720   4.813   0.368   2.039
 3274SOL    HW110721   4.756   0.405   1.966
 3274SOL    HW210722   4.908   0.365   2.007
 3275SOL     OW10723   4.846   0.440   1.628
 3275SOL    HW110724   4.844   0.459   1.530
 3275SOL    HW210725   4.892   0.352   1.644
 3276SOL     OW10726   6.641   6.281   1.304
 3276SOL    HW110727   6.605   6.370   1.276
 3276SOL    HW210728   6.710   6.251   1.239
 3277SOL     OW10729   5.362   0.874   2.155
 3277SOL    HW110730   5.412   0.788   2.164
 3277SOL    HW210731   5.307   0.873   2.072
 3278SOL     OW10732   4.963   1.146   6.785
 3278SOL    HW110733   5.023   1.226   6.791
 3278SOL    HW210734   4.962   1.098   6.873
 3279SOL     OW10735   3.796   0.264   2.344
 3279SOL    HW110736   3.719   0.282   2.405
 3279SOL    HW210737   3.777   0.183   2.289
 3280SOL     OW10738   0.587   2.031   4.518
 3280SOL    HW110739   0.646   2.109   4.543
 3280SOL    HW210740   0.602   1.956   4.582
 3281SOL     OW10741   5.700   2.765   2.023
 3281SOL    HW110742   5.753   2.708   2.085
 3281SOL    HW210743   5.617   2.716   1.994
 3282SOL     OW10744   6.758   5.233   6.098
 3282SOL    HW110745   6.855   5.252   6.082
 3282SOL    HW210746   6.705   5.316   6.080
 3283SOL     OW10747   3.508   1.783   0.077
 3283SOL    HW110748   3.608   1.781   0.072
 3283SOL    HW210749   3.471   1.704   0.027
 3284SOL     OW10750   2.258   0.987   5.372
 3284SOL    HW110751   2.292   1.081   5.381
 3284SOL    HW210752   2.333   0.926   5.349
 3285SOL     OW10753   4.606   1.660   4.573
 3285SOL    HW110754   4.677   1.729   4.578
 3285SOL    HW210755   4.605   1.606   4.658
 3286SOL     OW10756   1.899   4.114   3.779
 3286SOL    HW110757   1.842   4.147   3.704
 3286SOL    HW210758   1.895   4.014   3.782
 3287SOL     OW10759   3.106   1.764   0.866
 3287SOL    HW110760   3.008   1.780   0.854
 3287SOL    HW210761   3.128   1.767   0.963
 3288SOL     OW10762   3.223   5.641   1.164
 3288SOL    HW110763   3.144   5.700   1.147
 3288SOL    HW210764   3.193   5.558   1.211
 3289SOL     OW10765   5.769   6.938   0.184
 3289SOL    HW110766   5.818   6.954   0.098
 3289SOL    HW210767   5.689   6.997   0.190
 3290SOL     OW10768   0.339   4.195   6.971
 3290SOL    HW110769   0.372   4.112   6.926
 3290SOL    HW210770   0.415   4.243   7.014
 3291SOL     OW10771   5.451   6.563   5.925
 3291SOL    HW110772   5.467   6.656   5.959
 3291SOL    HW210773   5.513   6.545   5.849
 3292SOL     OW10774   0.359   2.953   0.559
 3292SOL    HW110775   0.390   3.015   0.487
 3292SOL    HW210776   0.433   2.937   0.625
 3293SOL     OW10777   0.233   4.857   1.629
 3293SOL    HW110778   0.306   4.921   1.607
 3293SOL    HW210779   0.197   4.818   1.544
 3294SOL     OW10780   3.904   2.681   5.687
 3294SOL    HW110781   3.847   2.681   5.770
 3294SOL    HW210782   3.869   2.748   5.623
 3295SOL     OW10783   1.603   3.556   3.220
 3295SOL    HW110784   1.519   3.603   3.250
 3295SOL    HW210785   1.622   3.579   3.125
 3296SOL     OW10786   2.172   0.783   6.960
 3296SOL    HW110787   2.236   0.859   6.968
 3296SOL    HW210788   2.089   0.804   7.011
 3297SOL     OW10789   2.621   1.204   5.987
 3297SOL    HW110790   2.604   1.138   6.061
 3297SOL    HW210791   2.717   1.230   5.987
 3298SOL     OW10792   3.695   3.882   5.926
 3298SOL    HW110793   3.618   3.868   5.864
 3298SOL    HW210794   3.673   3.842   6.015
 3299SOL     OW10795   2.568   6.505   3.953
 3299SOL    HW110796   2.484   6.560   3.948
 3299SOL    HW210797   2.644   6.564   3.981
 3300SOL     OW10798   2.192   1.311   2.618
 3300SOL    HW110799   2.192   1.285   2.714
 3300SOL    HW210800   2.155   1.236   2.563
 3301SOL     OW10801   0.902   0.443   1.897
 3301SOL    HW110802   0.901   0.514   1.968
 3301SOL    HW210803   0.996   0.414   1.881
 3302SOL     OW10804   1.891   5.612   4.933
 3302SOL    HW110805   1.874   5.697   4.983
 3302SOL    HW210806   1.822   5.602   4.861
 3303SOL     OW10807   4.428   4.361   0.014
 3303SOL    HW110808   4.452   4.288   6.972
 3303SOL    HW210809   4.499   4.432   0.011
 3304SOL     OW10810   2.546   3.667   0.709
 3304SOL    HW110811   2.570   3.722   0.789
 3304SOL    HW210812   2.553   3.722   0.626
 3305SOL     OW10813   3.126   2.863   0.086
 3305SOL    HW110814   3.112   2.956   0.054
 3305SOL    HW210815   3.046   2.834   0.140
 3306SOL     OW10816   2.946   0.547   0.781
 3306SOL    HW110817   3.038   0.580   0.801
 3306SOL    HW210818   2.951   0.470   0.717
 3307SOL     OW10819   1.943   6.165   5.116
 3307SOL    HW110820   1.986   6.171   5.207
 3307SOL    HW210821   1.924   6.257   5.083
 3308SOL     OW10822   5.457   5.251   1.654
 3308SOL    HW110823   5.405   5.271   1.571
 3308SOL    HW210824   5.516   5.172   1.638
 3309SOL     OW10825   5.527   2.976   4.359
 3309SOL    HW110826   5.604   3.021   4.314
 3309SOL    HW210827   5.512   3.018   4.449
 3310SOL     OW10828   6.160   3.944   0.022
 3310SOL    HW110829   6.160   3.990   6.956
 3310SOL    HW210830   6.067   3.943   0.060
 3311SOL     OW10831   0.797   3.098   1.474
 3311SOL    HW110832   0.886   3.104   1.521
 3311SOL    HW210833   0.785   3.178   1.415
 3312SOL     OW10834   5.168   3.851   0.163
 3312SOL    HW110835   5.153   3.872   0.066
 3312SOL    HW210836   5.266   3.838   0.179
 3313SOL     OW10837   0.662   6.128   4.170
 3313SOL    HW110838   0.657   6.178   4.084
 3313SOL    HW210839   0.681   6.191   4.245
 3314SOL     OW10840   3.897   6.067   3.722
 3314SOL    HW110841   3.840   5.989   3.745
 3314SOL    HW210842   3.961   6.085   3.798
 3315SOL     OW10843   0.930   6.721   3.976
 3315SOL    HW110844   0.969   6.679   4.058
 3315SOL    HW210845   0.980   6.691   3.895
 3316SOL     OW10846   3.984   2.076   0.813
 3316SOL    HW110847   4.057   2.047   0.752
 3316SOL    HW210848   4.019   2.141   0.880
 3317SOL     OW10849   5.459   2.462   1.273
 3317SOL    HW110850   5.473   2.472   1.371
 3317SOL    HW210851   5.506   2.380   1.241
 3318SOL     OW10852   3.937   2.696   0.294
 3318SOL    HW110853   3.998   2.757   0.243
 3318SOL    HW210854   3.909   2.741   0.379
 3319SOL     OW10855   6.634   6.463   3.676
 3319SOL    HW110856   6.627   6.369   3.643
 3319SOL    HW210857   6.596   6.525   3.607
 3320SOL     OW10858   5.508   0.310   2.971
 3320SOL    HW110859   5.569   0.285   2.896
 3320SOL    HW210860   5.543   0.392   3.015
 3321SOL     OW10861   4.537   1.722   6.420
 3321SOL    HW110862   4.570   1.726   6.325
 3321SOL    HW210863   4.601   1.770   6.480
 3322SOL     OW10864   5.890   3.447   2.377
 3322SOL    HW110865   5.942   3.371   2.416
 3322SOL    HW210866   5.951   3.524   2.359
 3323SOL     OW10867   6.801   0.708   2.472
 3323SOL    HW110868   6.762   0.789   2.516
 3323SOL    HW210869   6.887   0.734   2.428
 3324SOL     OW10870   6.242   5.633   6.647
 3324SOL    HW110871   6.196   5.704   6.593
 3324SOL    HW210872   6.199   5.545   6.627
 3325SOL     OW10873   2.409   5.292   6.591
 3325SOL    HW110874   2.347   5.360   6.630
 3325SOL    HW210875   2.504   5.324   6.602
 3326SOL     OW10876   3.780   1.457   1.625
 3326SOL    HW110877   3.823   1.367   1.636
 3326SOL    HW210878   3.697   1.461   1.681
 3327SOL     OW10879   1.597   6.154   5.713
 3327SOL    HW110880   1.585   6.077   5.775
 3327SOL    HW210881   1.592   6.239   5.765
 3328SOL     OW10882   3.993   2.401   5.676
 3328SOL    HW110883   3.975   2.430   5.582
 3328SOL    HW210884   4.053   2.466   5.721
 3329SOL     OW10885   0.469   6.428   5.276
 3329SOL    HW110886   0.454   6.334   5.248
 3329SOL    HW210887   0.459   6.489   5.197
 3330SOL     OW10888   6.741   3.159   3.282
 3330SOL    HW110889   6.701   3.083   3.231
 3330SOL    HW210890   6.668   3.211   3.327
 3331SOL     OW10891   1.400   3.774   0.679
 3331SOL    HW110892   1.473   3.792   0.744
 3331SOL    HW210893   1.344   3.698   0.712
 3332SOL     OW10894   6.530   3.508   1.967
 3332SOL    HW110895   6.613   3.553   1.934
 3332SOL    HW210896   6.466   3.496   1.892
 3333SOL     OW10897   2.912   6.581   5.207
 3333SOL    HW110898   2.838   6.518   5.232
 3333SOL    HW210899   2.874   6.659   5.158
 3334SOL     OW10900   1.610   2.947   1.041
 3334SOL    HW110901   1.522   2.904   1.019
 3334SOL    HW210902   1.619   3.032   0.990
 3335SOL     OW10903   5.514   4.080   5.612
 3335SOL    HW110904   5.521   4.168   5.564
 3335SOL    HW210905   5.550   4.008   5.553
 3336SOL     OW10906   3.615   6.029   5.568
 3336SOL    HW110907   3.527   5.994   5.600
 3336SOL    HW210908   3.684   6.015   5.639
 3337SOL     OW10909   3.963   1.301   0.962
 3337SOL    HW110910   3.989   1.388   1.004
 3337SOL    HW210911   3.982   1.305   0.863
 3338SOL     OW10912   6.421   5.945   0.380
 3338SOL    HW110913   6.428   5.852   0.415
 3338SOL    HW210914   6.442   5.946   0.282
 3339SOL     OW10915   0.569   5.128   0.396
 3339SOL    HW110916   0.526   5.192   0.332
 3339SOL    HW210917   0.499   5.088   0.455
 3340SOL     OW10918   4.441   0.789   1.840
 3340SOL    HW110919   4.530   0.770   1.798
 3340SOL    HW210920   4.413   0.883   1.818
 3341SOL     OW10921   0.934   0.358   6.770
 3341SOL    HW110922   0.956   0.446   6.728
 3341SOL    HW210923   0.879   0.304   6.707
 3342SOL     OW10924   1.267   6.926   5.084
 3342SOL    HW110925   1.268   6.869   5.165
 3342SOL    HW210926   1.305   6.875   5.006
 3343SOL     OW10927   0.163   2.098   1.355
 3343SOL    HW110928   0.169   2.054   1.265
 3343SOL    HW210929   0.160   2.197   1.343
 3344SOL     OW10930   1.485   2.084   6.808
 3344SOL    HW110931   1.506   2.181   6.821
 3344SOL    HW210932   1.408   2.076   6.744
 3345SOL     OW10933   3.065   3.142   0.048
 3345SOL    HW110934   2.988   3.102   7.021
 3345SOL    HW210935   3.126   3.188   7.006
 3346SOL     OW10936   3.027   5.377   2.784
 3346SOL    HW110937   3.100   5.345   2.844
 3346SOL    HW210938   3.054   5.464   2.742
 3347SOL     OW10939   5.795   3.941   4.080
 3347SOL    HW110940   5.810   4.027   4.130
 3347SOL    HW210941   5.734   3.882   4.132
 3348SOL     OW10942   4.045   3.820   3.267
 3348SOL    HW110943   3.967   3.863   3.222
 3348SOL    HW210944   4.084   3.751   3.206
 3349SOL     OW10945   5.378   2.159   0.820
 3349SOL    HW110946   5.310   2.103   0.867
 3349SOL    HW210947   5.358   2.162   0.722
 3350SOL     OW10948   2.175   2.517   1.456
 3350SOL    HW110949   2.274   2.515   1.460
 3350SOL    HW210950   2.145   2.578   1.382
 3351SOL     OW10951   6.131   2.964   1.234
 3351SOL    HW110952   6.088   2.927   1.317
 3351SOL    HW210953   6.129   2.895   1.162
 3352SOL     OW10954   0.067   3.643   0.594
 3352SOL    HW110955   0.071   3.599   0.505
 3352SOL    HW210956   7.002   3.691   0.604
 3353SOL     OW10957   0.958   6.312   6.394
 3353SOL    HW110958   0.943   6.215   6.376
 3353SOL    HW210959   0.891   6.366   6.343
 3354SOL     OW10960   0.259   6.039   2.567
 3354SOL    HW110961   0.315   6.108   2.614
 3354SOL    HW210962   0.286   5.948   2.599
 3355SOL     OW10963   5.625   1.068   3.109
 3355SOL    HW110964   5.546   1.126   3.129
 3355SOL    HW210965   5.667   1.098   3.024
 3356SOL     OW10966   2.043   3.440   6.464
 3356SOL    HW110967   1.952   3.474   6.488
 3356SOL    HW210968   2.112   3.498   6.506
 3357SOL     OW10969   2.683   5.879   2.790
 3357SOL    HW110970   2.638   5.807   2.842
 3357SOL    HW210971   2.662   5.868   2.693
 3358SOL     OW10972   0.264   3.527   3.225
 3358SOL    HW110973   0.181   3.480   3.255
 3358SOL    HW210974   0.284   3.503   3.130
 3359SOL     OW10975   2.649   1.818   1.816
 3359SOL    HW110976   2.605   1.883   1.878
 3359SOL    HW210977   2.581   1.758   1.776
 3360SOL     OW10978   2.090   0.816   6.428
 3360SOL    HW110979   2.051   0.902   6.395
 3360SOL    HW210980   2.084   0.747   6.356
 3361SOL     OW10981   2.367   0.888   2.559
 3361SOL    HW110982   2.452   0.901   2.611
 3361SOL    HW210983   2.332   0.977   2.529
 3362SOL     OW10984   3.263   2.153   4.129
 3362SOL    HW110985   3.182   2.206   4.103
 3362SOL    HW210986   3.262   2.138   4.227
 3363SOL     OW10987   6.732   0.425   0.460
 3363SOL    HW110988   6.646   0.456   0.420
 3363SOL    HW210989   6.740   0.462   0.553
 3364SOL     OW10990   1.828   5.819   5.091
 3364SOL    HW110991   1.777   5.807   5.176
 3364SOL    HW210992   1.906   5.879   5.107
 3365SOL     OW10993   6.078   2.518   5.621
 3365SOL    HW110994   6.121   2.432   5.593
 3365SOL    HW210995   5.980   2.502   5.634
 3366SOL     OW10996   4.676   1.625   0.784
 3366SOL    HW110997   4.683   1.715   0.741
 3366SOL    HW210998   4.767   1.585   0.793
 3367SOL     OW10999   1.635   6.838   2.059
 3367SOL    HW111000   1.561   6.898   2.088
 3367SOL    HW211001   1.608   6.790   1.976
 3368SOL     OW11002   6.118   1.146   4.680
 3368SOL    HW111003   6.064   1.107   4.605
 3368SOL    HW211004   6.095   1.099   4.765
 3369SOL     OW11005   3.470   5.472   6.431
 3369SOL    HW111006   3.443   5.378   6.410
 3369SOL    HW211007   3.547   5.470   6.495
 3370SOL     OW11008   5.523   0.887   5.670
 3370SOL    HW111009   5.570   0.838   5.743
 3370SOL    HW211010   5.487   0.973   5.706
 3371SOL     OW11011   6.560   5.180   1.419
 3371SOL    HW111012   6.589   5.147   1.508
 3371SOL    HW211013   6.460   5.177   1.413
 3372SOL     OW11014   1.774   3.114   2.658
 3372SOL    HW111015   1.753   3.056   2.736
 3372SOL    HW211016   1.845   3.179   2.682
 3373SOL     OW11017   1.601   2.978   6.325
 3373SOL    HW111018   1.603   3.061   6.270
 3373SOL    HW211019   1.642   2.903   6.274
 3374SOL     OW11020   3.323   6.128   5.117
 3374SOL    HW111021   3.376   6.199   5.073
 3374SOL    HW211022   3.257   6.090   5.051
 3375SOL     OW11023   3.182   4.326   5.317
 3375SOL    HW111024   3.221   4.314   5.409
 3375SOL    HW211025   3.082   4.333   5.324
 3376SOL     OW11026   3.387   3.338   1.700
 3376SOL    HW111027   3.350   3.281   1.774
 3376SOL    HW211028   3.385   3.434   1.729
 3377SOL     OW11029   2.657   4.996   5.717
 3377SOL    HW111030   2.629   4.975   5.811
 3377SOL    HW211031   2.746   5.040   5.718
 3378SOL     OW11032   6.819   1.170   0.341
 3378SOL    HW111033   6.760   1.090   0.334
 3378SOL    HW211034   6.903   1.145   0.388
 3379SOL     OW11035   6.193   5.474   6.286
 3379SOL    HW111036   6.117   5.474   6.351
 3379SOL    HW211037   6.231   5.566   6.279
 3380SOL     OW11038   0.525   3.743   4.844
 3380SOL    HW111039   0.592   3.759   4.917
 3380SOL    HW211040   0.450   3.809   4.852
 3381SOL     OW11041   3.467   2.348   1.125
 3381SOL    HW111042   3.512   2.263   1.097
 3381SOL    HW211043   3.506   2.380   1.211
 3382SOL     OW11044   0.481   5.853   0.101
 3382SOL    HW111045   0.413   5.872   0.029
 3382SOL    HW211046   0.438   5.800   0.174
 3383SOL     OW11047   0.702   4.108   1.845
 3383SOL    HW111048   0.640   4.097   1.767
 3383SOL    HW211049   0.678   4.043   1.917
 3384SOL     OW11050   3.027   3.797   3.235
 3384SOL    HW111051   3.106   3.843   3.275
 3384SOL    HW211052   2.993   3.850   3.157
 3385SOL     OW11053   6.967   4.117   3.547
 3385SOL    HW111054   6.932   4.202   3.508
 3385SOL    HW211055   0.000   4.069   3.479
 3386SOL     OW11056   5.673   4.448   4.170
 3386SOL    HW111057   5.726   4.512   4.115
 3386SOL    HW211058   5.578   4.446   4.137
 3387SOL     OW11059   3.746   1.591   2.265
 3387SOL    HW111060   3.786   1.559   2.179
 3387SOL    HW211061   3.652   1.621   2.249
 3388SOL     OW11062   6.480   1.564   0.996
 3388SOL    HW111063   6.401   1.620   1.019
 3388SOL    HW211064   6.468   1.526   0.904
 3389SOL     OW11065   3.844   5.564   2.002
 3389SOL    HW111066   3.905   5.602   1.933
 3389SOL    HW211067   3.890   5.489   2.050
 3390SOL     OW11068   4.222   2.166   5.853
 3390SOL    HW111069   4.275   2.172   5.938
 3390SOL    HW211070   4.285   2.165   5.776
 3391SOL     OW11071   3.313   1.365   4.011
 3391SOL    HW111072   3.342   1.325   4.098
 3391SOL    HW211073   3.238   1.429   4.027
 3392SOL     OW11074   5.718   6.100   4.220
 3392SOL    HW111075   5.681   6.186   4.257
 3392SOL    HW211076   5.732   6.035   4.294
 3393SOL     OW11077   0.382   0.344   5.914
 3393SOL    HW111078   0.301   0.286   5.912
 3393SOL    HW211079   0.354   0.440   5.918
 3394SOL     OW11080   4.916   1.378   2.212
 3394SOL    HW111081   4.924   1.320   2.293
 3394SOL    HW211082   4.819   1.394   2.192
 3395SOL     OW11083   2.015   3.670   5.088
 3395SOL    HW111084   2.003   3.633   4.996
 3395SOL    HW211085   2.085   3.617   5.137
 3396SOL     OW11086   5.973   3.437   4.216
 3396SOL    HW111087   6.013   3.527   4.235
 3396SOL    HW211088   5.877   3.448   4.190
 3397SOL     OW11089   2.789   5.719   6.294
 3397SOL    HW111090   2.756   5.716   6.388
 3397SOL    HW211091   2.789   5.813   6.261
 3398SOL     OW11092   0.312   1.973   4.133
 3398SOL    HW111093   0.323   1.883   4.091
 3398SOL    HW211094   0.278   2.038   4.065
 3399SOL     OW11095   4.015   5.410   4.408
 3399SOL    HW111096   3.934   5.455   4.446
 3399SOL    HW211097   4.094   5.471   4.416
 3400SOL     OW11098   5.935   1.890   0.585
 3400SOL    HW111099   5.884   1.969   0.553
 3400SOL    HW211100   5.872   1.815   0.605
 3401SOL     OW11101   6.765   4.908   6.948
 3401SOL    HW111102   6.742   5.005   6.950
 3401SOL    HW211103   6.864   4.896   6.949
 3402SOL     OW11104   4.074   4.443   1.619
 3402SOL    HW111105   4.152   4.442   1.682
 3402SOL    HW211106   4.001   4.499   1.657
 3403SOL     OW11107   4.254   1.839   5.942
 3403SOL    HW111108   4.167   1.864   5.901
 3403SOL    HW211109   4.299   1.770   5.885
 3404SOL     OW11110   4.029   6.037   2.341
 3404SOL    HW111111   4.058   6.090   2.421
 3404SOL    HW211112   4.011   5.943   2.368
 3405SOL     OW11113   6.043   3.953   0.379
 3405SOL    HW111114   6.045   3.957   0.279
 3405SOL    HW211115   5.957   3.912   0.409
 3406SOL     OW11116   0.143   2.561   1.897
 3406SOL    HW111117   0.224   2.618   1.915
 3406SOL    HW211118   0.159   2.469   1.933
 3407SOL     OW11119   1.131   5.408   2.326
 3407SOL    HW111120   1.121   5.350   2.407
 3407SOL    HW211121   1.053   5.469   2.319
 3408SOL     OW11122   5.178   3.472   2.177
 3408SOL    HW111123   5.190   3.511   2.268
 3408SOL    HW211124   5.228   3.386   2.170
 3409SOL     OW11125   3.057   1.885   6.801
 3409SOL    HW111126   3.073   1.786   6.810
 3409SOL    HW211127   3.049   1.909   6.705
 3410SOL     OW11128   0.821   1.780   0.654
 3410SOL    HW111129   0.766   1.741   0.580
 3410SOL    HW211130   0.827   1.879   0.642
 3411SOL     OW11131   4.970   2.193   2.532
 3411SOL    HW111132   4.991   2.110   2.583
 3411SOL    HW211133   4.997   2.181   2.436
 3412SOL     OW11134   4.412   5.238   6.487
 3412SOL    HW111135   4.338   5.304   6.476
 3412SOL    HW211136   4.489   5.282   6.533
 3413SOL     OW11137   5.034   0.832   2.586
 3413SOL    HW111138   4.992   0.861   2.500
 3413SOL    HW211139   4.996   0.885   2.662
 3414SOL     OW11140   4.180   0.929   5.834
 3414SOL    HW111141   4.134   1.017   5.827
 3414SOL    HW211142   4.138   0.864   5.771
 3415SOL     OW11143   1.421   6.316   5.931
 3415SOL    HW111144   1.495   6.376   5.902
 3415SOL    HW211145   1.334   6.355   5.900
 3416SOL     OW11146   1.264   4.924   5.271
 3416SOL    HW111147   1.321   5.005   5.261
 3416SOL    HW211148   1.229   4.896   5.181
 3417SOL     OW11149   5.976   1.286   0.842
 3417SOL    HW111150   6.040   1.246   0.908
 3417SOL    HW211151   5.903   1.221   0.823
 3418SOL     OW11152   2.323   2.445   4.887
 3418SOL    HW111153   2.408   2.490   4.860
 3418SOL    HW211154   2.313   2.360   4.835
 3419SOL     OW11155   4.236   3.683   6.263
 3419SOL    HW111156   4.258   3.663   6.359
 3419SOL    HW211157   4.185   3.606   6.224
 3420SOL     OW11158   2.957   0.605   4.964
 3420SOL    HW111159   2.865   0.639   4.944
 3420SOL    HW211160   3.024   0.664   4.919
 3421SOL     OW11161   1.227   6.276   3.199
 3421SOL    HW111162   1.322   6.245   3.208
 3421SOL    HW211163   1.199   6.322   3.283
 3422SOL     OW11164   3.375   2.069   2.766
 3422SOL    HW111165   3.387   2.096   2.671
 3422SOL    HW211166   3.308   1.995   2.772
 3423SOL     OW11167   3.542   0.600   1.686
 3423SOL    HW111168   3.615   0.551   1.734
 3423SOL    HW211169   3.481   0.641   1.753
 3424SOL     OW11170   4.555   1.951   0.446
 3424SOL    HW111171   4.652   1.967   0.464
 3424SOL    HW211172   4.535   1.854   0.460
 3425SOL     OW11173   3.806   3.531   1.445
 3425SOL    HW111174   3.847   3.448   1.483
 3425SOL    HW211175   3.801   3.523   1.345
 3426SOL     OW11176   5.021   3.992   0.915
 3426SOL    HW111177   5.095   4.052   0.946
 3426SOL    HW211178   4.985   4.027   0.829
 3427SOL     OW11179   0.943   2.116   0.514
 3427SOL    HW111180   0.918   2.114   0.417
 3427SOL    HW211181   0.863   2.094   0.569
 3428SOL     OW11182   4.565   4.841   2.744
 3428SOL    HW111183   4.661   4.816   2.755
 3428SOL    HW211184   4.534   4.892   2.824
 3429SOL     OW11185   0.405   3.185   0.325
 3429SOL    HW111186   0.315   3.161   0.287
 3429SOL    HW211187   0.472   3.190   0.251
 3430SOL     OW11188   0.695   5.393   0.416
 3430SOL    HW111189   0.682   5.425   0.510
 3430SOL    HW211190   0.662   5.299   0.408
 3431SOL     OW11191   0.927   6.052   6.348
 3431SOL    HW111192   0.866   5.987   6.303
 3431SOL    HW211193   1.022   6.020   6.341
 3432SOL     OW11194   3.743   2.111   6.188
 3432SOL    HW111195   3.826   2.155   6.155
 3432SOL    HW211196   3.757   2.012   6.192
 3433SOL     OW11197   4.159   1.487   5.077
 3433SOL    HW111198   4.088   1.543   5.035
 3433SOL    HW211199   4.117   1.420   5.139
 3434SOL     OW11200   4.564   1.062   3.322
 3434SOL    HW111201   4.633   1.003   3.362
 3434SOL    HW211202   4.490   1.007   3.285
 3435SOL     OW11203   0.334   1.006   6.556
 3435SOL    HW111204   0.409   0.940   6.557
 3435SOL    HW211205   0.361   1.087   6.503
 3436SOL     OW11206   4.055   6.688   1.510
 3436SOL    HW111207   4.101   6.772   1.541
 3436SOL    HW211208   3.965   6.682   1.552
 3437SOL     OW11209   4.168   0.425   0.600
 3437SOL    HW111210   4.163   0.524   0.588
 3437SOL    HW211211   4.078   0.385   0.587
 3438SOL     OW11212   0.560   5.464   6.326
 3438SOL    HW111213   0.508   5.474   6.241
 3438SOL    HW211214   0.587   5.554   6.359
 3439SOL     OW11215   2.850   0.581   3.912
 3439SOL    HW111216   2.834   0.611   4.006
 3439SOL    HW211217   2.911   0.502   3.912
 3440SOL     OW11218   3.939   2.335   0.664
 3440SOL    HW111219   3.893   2.404   0.608
 3440SOL    HW211220   4.036   2.333   0.641
 3441SOL     OW11221   4.262   0.268   4.733
 3441SOL    HW111222   4.180   0.214   4.714
 3441SOL    HW211223   4.334   0.244   4.668
 3442SOL     OW11224   0.373   5.718   3.127
 3442SOL    HW111225   0.460   5.688   3.167
 3442SOL    HW211226   0.327   5.640   3.084
 3443SOL     OW11227   6.568   6.565   4.020
 3443SOL    HW111228   6.636   6.632   4.049
 3443SOL    HW211229   6.521   6.598   3.938
 3444SOL     OW11230   3.371   5.928   6.766
 3444SOL    HW111231   3.405   5.896   6.678
 3444SOL    HW211232   3.271   5.938   6.761
 3445SOL     OW11233   6.219   5.106   6.063
 3445SOL    HW111234   6.224   5.145   5.971
 3445SOL    HW211235   6.284   5.152   6.123
 3446SOL     OW11236   2.029   5.737   1.472
 3446SOL    HW111237   2.072   5.776   1.390
 3446SOL    HW211238   2.076   5.770   1.553
 3447SOL     OW11239   5.797   4.300   5.358
 3447SOL    HW111240   5.830   4.323   5.450
 3447SOL    HW211241   5.860   4.335   5.290
 3448SOL     OW11242   3.703   3.062   0.283
 3448SOL    HW111243   3.644   3.057   0.203
 3448SOL    HW211244   3.728   2.969   0.312
 3449SOL     OW11245   6.018   5.782   2.719
 3449SOL    HW111246   6.114   5.788   2.743
 3449SOL    HW211247   5.993   5.860   2.661
 3450SOL     OW11248   0.532   1.728   1.089
 3450SOL    HW111249   0.626   1.735   1.121
 3450SOL    HW211250   0.471   1.712   1.167
 3451SOL     OW11251   2.018   5.393   4.175
 3451SOL    HW111252   2.100   5.450   4.168
 3451SOL    HW211253   2.026   5.315   4.114
 3452SOL     OW11254   6.334   1.814   0.243
 3452SOL    HW111255   6.281   1.735   0.272
 3452SOL    HW211256   6.426   1.808   0.280
 3453SOL     OW11257   6.252   4.924   4.942
 3453SOL    HW111258   6.155   4.943   4.956
 3453SOL    HW211259   6.263   4.867   4.860
 3454SOL     OW11260   0.070   1.024   0.082
 3454SOL    HW111261   0.116   1.107   0.114
 3454SOL    HW211262   0.069   0.956   0.156
 3455SOL     OW11263   1.122   2.613   3.390
 3455SOL    HW111264   1.059   2.560   3.333
 3455SOL    HW211265   1.147   2.698   3.342
 3456SOL     OW11266   6.257   0.037   0.188
 3456SOL    HW111267   6.309   6.981   0.222
 3456SOL    HW211268   6.237   0.024   0.090
 3457SOL     OW11269   2.188   6.579   3.790
 3457SOL    HW111270   2.100   6.576   3.837
 3457SOL    HW211271   2.176   6.555   3.694
 3458SOL     OW11272   4.341   4.719   0.033
 3458SOL    HW111273   4.317   4.673   6.971
 3458SOL    HW211274   4.274   4.698   0.104
 3459SOL     OW11275   6.456   0.052   3.212
 3459SOL    HW111276   6.428   6.979   3.202
 3459SOL    HW211277   6.493   0.085   3.125
 3460SOL     OW11278   5.422   2.826   0.325
 3460SOL    HW111279   5.397   2.842   0.420
 3460SOL    HW211280   5.397   2.732   0.299
 3461SOL     OW11281   2.649   5.621   2.523
 3461SOL    HW111282   2.585   5.615   2.447
 3461SOL    HW211283   2.742   5.608   2.490
 3462SOL     OW11284   4.950   1.937   3.016
 3462SOL    HW111285   5.016   2.003   2.979
 3462SOL    HW211286   4.990   1.891   3.096
 3463SOL     OW11287   1.110   2.919   1.427
 3463SOL    HW111288   1.186   2.858   1.451
 3463SOL    HW211289   1.049   2.873   1.363
 3464SOL     OW11290   5.174   1.505   6.572
 3464SOL    HW111291   5.232   1.443   6.520
 3464SOL    HW211292   5.230   1.577   6.613
 3465SOL     OW11293   2.045   4.521   1.641
 3465SOL    HW111294   2.022   4.453   1.571
 3465SOL    HW211295   2.041   4.479   1.731
 3466SOL     OW11296   6.874   3.802   4.588
 3466SOL    HW111297   6.894   3.844   4.677
 3466SOL    HW211298   6.775   3.797   4.575
 3467SOL     OW11299   3.216   4.141   0.298
 3467SOL    HW111300   3.252   4.049   0.308
 3467SOL    HW211301   3.276   4.195   0.239
 3468SOL     OW11302   4.361   1.609   1.537
 3468SOL    HW111303   4.361   1.522   1.588
 3468SOL    HW211304   4.449   1.621   1.492
 3469SOL     OW11305   3.246   6.464   4.914
 3469SOL    HW111306   3.344   6.446   4.920
 3469SOL    HW211307   3.215   6.506   4.999
 3470SOL     OW11308   1.115   2.543   0.777
 3470SOL    HW111309   1.139   2.451   0.809
 3470SOL    HW211310   1.016   2.551   0.769
 3471SOL     OW11311   5.388   2.984   5.066
 3471SOL    HW111312   5.355   3.077   5.081
 3471SOL    HW211313   5.329   2.938   4.999
 3472SOL     OW11314   4.611   1.996   2.036
 3472SOL    HW111315   4.670   2.069   2.071
 3472SOL    HW211316   4.666   1.936   1.977
 3473SOL     OW11317   6.158   3.922   1.684
 3473SOL    HW111318   6.102   3.982   1.740
 3473SOL    HW211319   6.105   3.843   1.655
 3474SOL     OW11320   4.573   4.511   3.517
 3474SOL    HW111321   4.670   4.533   3.518
 3474SOL    HW211322   4.547   4.475   3.427
 3475SOL     OW11323   6.452   4.090   3.910
 3475SOL    HW111324   6.405   4.030   3.844
 3475SOL    HW211325   6.383   4.142   3.961
 3476SOL     OW11326   1.706   3.276   3.562
 3476SOL    HW111327   1.725   3.180   3.584
 3476SOL    HW211328   1.695   3.286   3.464
 3477SOL     OW11329   1.563   3.945   2.876
 3477SOL    HW111330   1.612   3.921   2.793
 3477SOL    HW211331   1.467   3.920   2.866
 3478SOL     OW11332   2.507   0.812   0.848
 3478SOL    HW111333   2.605   0.796   0.831
 3478SOL    HW211334   2.465   0.853   0.767
 3479SOL     OW11335   1.122   3.978   5.453
 3479SOL    HW111336   1.028   3.942   5.456
 3479SOL    HW211337   1.128   4.051   5.385
 3480SOL     OW11338   0.933   5.659   6.869
 3480SOL    HW111339   0.863   5.599   6.908
 3480SOL    HW211340   0.889   5.727   6.810
 3481SOL     OW11341   5.759   1.250   4.854
 3481SOL    HW111342   5.857   1.265   4.836
 3481SOL    HW211343   5.748   1.169   4.910
 3482SOL     OW11344   6.608   2.922   6.259
 3482SOL    HW111345   6.672   2.988   6.297
 3482SOL    HW211346   6.574   2.862   6.332
 3483SOL     OW11347   5.417   2.100   4.426
 3483SOL    HW111348   5.487   2.134   4.488
 3483SOL    HW211349   5.330   2.145   4.446
 3484SOL     OW11350   1.609   3.101   4.479
 3484SOL    HW111351   1.619   3.172   4.548
 3484SOL    HW211352   1.683   3.035   4.488
 3485SOL     OW11353   0.009   4.502   6.032
 3485SOL    HW111354   0.036   4.558   5.953
 3485SOL    HW211355   0.058   4.534   6.113
 3486SOL     OW11356   1.350   6.631   4.502
 3486SOL    HW111357   1.450   6.625   4.496
 3486SOL    HW211358   1.318   6.578   4.580
 3487SOL     OW11359   4.012   1.352   6.518
 3487SOL    HW111360   4.033   1.438   6.472
 3487SOL    HW211361   3.915   1.350   6.543
 3488SOL     OW11362   5.115   5.932   5.718
 3488SOL    HW111363   5.098   5.915   5.621
 3488SOL    HW211364   5.134   6.029   5.732
 3489SOL     OW11365   3.381   6.095   1.252
 3489SOL    HW111366   3.316   6.127   1.183
 3489SOL    HW211367   3.342   6.017   1.301
 3490SOL     OW11368   4.465   0.348   0.817
 3490SOL    HW111369   4.434   0.292   0.741
 3490SOL    HW211370   4.414   0.324   0.899
 3491SOL     OW11371   4.755   4.518   5.286
 3491SOL    HW111372   4.768   4.453   5.360
 3491SOL    HW211373   4.836   4.577   5.280
 3492SOL     OW11374   5.127   3.715   3.123
 3492SOL    HW111375   5.197   3.755   3.063
 3492SOL    HW211376   5.162   3.710   3.216
 3493SOL     OW11377   0.457   4.188   6.299
 3493SOL    HW111378   0.445   4.166   6.202
 3493SOL    HW211379   0.493   4.108   6.347
 3494SOL     OW11380   4.723   1.216   2.452
 3494SOL    HW111381   4.671   1.205   2.537
 3494SOL    HW211382   4.808   1.265   2.472
 3495SOL     OW11383   2.256   4.119   3.694
 3495SOL    HW111384   2.252   4.058   3.615
 3495SOL    HW211385   2.199   4.083   3.768
 3496SOL     OW11386   6.330   5.448   1.296
 3496SOL    HW111387   6.311   5.374   1.360
 3496SOL    HW211388   6.265   5.444   1.220
 3497SOL     OW11389   3.060   0.418   1.098
 3497SOL    HW111390   2.965   0.428   1.068
 3497SOL    HW211391   3.098   0.508   1.120
 3498SOL     OW11392   2.608   2.002   1.249
 3498SOL    HW111393   2.636   2.098   1.255
 3498SOL    HW211394   2.618   1.959   1.338
 3499SOL     OW11395   6.074   6.873   4.786
 3499SOL    HW111396   6.108   6.827   4.868
 3499SOL    HW211397   6.086   6.813   4.706
 3500SOL     OW11398   3.002   2.212   3.569
 3500SOL    HW111399   3.032   2.191   3.662
 3500SOL    HW211400   3.080   2.210   3.506
 3501SOL     OW11401   1.536   6.921   6.204
 3501SOL    HW111402   1.471   6.973   6.149
 3501SOL    HW211403   1.551   6.968   6.291
 3502SOL     OW11404   5.360   2.433   2.146
 3502SOL    HW111405   5.380   2.453   2.050
 3502SOL    HW211406   5.404   2.348   2.172
 3503SOL     OW11407   0.636   6.120   6.684
 3503SOL    HW111408   0.602   6.211   6.658
 3503SOL    HW211409   0.730   6.110   6.654
 3504SOL     OW11410   1.748   1.210   6.570
 3504SOL    HW111411   1.841   1.243   6.559
 3504SOL    HW211412   1.698   1.270   6.633
 3505SOL     OW11413   5.315   2.425   4.646
 3505SOL    HW111414   5.238   2.478   4.679
 3505SOL    HW211415   5.380   2.409   4.720
 3506SOL     OW11416   4.124   4.841   4.935
 3506SOL    HW111417   4.222   4.824   4.934
 3506SOL    HW211418   4.080   4.796   4.857
 3507SOL     OW11419   2.641   1.647   1.419
 3507SOL    HW111420   2.586   1.610   1.494
 3507SOL    HW211421   2.671   1.740   1.443
 3508SOL     OW11422   3.543   1.116   7.018
 3508SOL    HW111423   3.558   1.023   0.031
 3508SOL    HW211424   3.588   1.125   6.929
 3509SOL     OW11425   4.320   6.183   6.827
 3509SOL    HW111426   4.259   6.231   6.763
 3509SOL    HW211427   4.368   6.250   6.884
 3510SOL     OW11428   2.024   0.736   1.427
 3510SOL    HW111429   1.976   0.780   1.351
 3510SOL    HW211430   2.010   0.637   1.423
 3511SOL     OW11431   3.085   5.263   1.758
 3511SOL    HW111432   3.076   5.297   1.664
 3511SOL    HW211433   3.040   5.175   1.766
 3512SOL     OW11434   0.189   5.982   6.527
 3512SOL    HW111435   0.188   5.972   6.427
 3512SOL    HW211436   0.283   5.969   6.560
 3513SOL     OW11437   4.840   2.012   0.464
 3513SOL    HW111438   4.893   1.967   0.392
 3513SOL    HW211439   4.889   2.094   0.495
 3514SOL     OW11440   3.453   2.027   2.097
 3514SOL    HW111441   3.528   2.090   2.075
 3514SOL    HW211442   3.488   1.933   2.101
 3515SOL     OW11443   0.734   4.396   3.853
 3515SOL    HW111444   0.663   4.463   3.874
 3515SOL    HW211445   0.821   4.427   3.890
 3516SOL     OW11446   4.316   0.761   1.222
 3516SOL    HW111447   4.284   0.830   1.157
 3516SOL    HW211448   4.334   0.805   1.310
 3517SOL     OW11449   5.231   1.689   2.538
 3517SOL    HW111450   5.327   1.673   2.559
 3517SOL    HW211451   5.198   1.619   2.474
 3518SOL     OW11452   6.388   1.172   5.783
 3518SOL    HW111453   6.300   1.125   5.790
 3518SOL    HW211454   6.461   1.114   5.820
 3519SOL     OW11455   3.354   1.065   1.229
 3519SOL    HW111456   3.296   1.069   1.309
 3519SOL    HW211457   3.381   1.158   1.202
 3520SOL     OW11458   2.886   5.704   3.732
 3520SOL    HW111459   2.963   5.709   3.795
 3520SOL    HW211460   2.802   5.730   3.780
 3521SOL     OW11461   2.512   2.715   5.642
 3521SOL    HW111462   2.510   2.615   5.640
 3521SOL    HW211463   2.426   2.750   5.678
 3522SOL     OW11464   1.307   6.233   6.958
 3522SOL    HW111465   1.274   6.326   6.976
 3522SOL    HW211466   1.405   6.237   6.935
 3523SOL     OW11467   3.449   5.598   6.694
 3523SOL    HW111468   3.534   5.549   6.676
 3523SOL    HW211469   3.415   5.640   6.610
 3524SOL     OW11470   4.652   1.303   4.586
 3524SOL    HW111471   4.747   1.275   4.569
 3524SOL    HW211472   4.613   1.338   4.501
 3525SOL     OW11473   0.563   2.907   3.925
 3525SOL    HW111474   0.611   2.827   3.891
 3525SOL    HW211475   0.541   2.967   3.848
 3526SOL     OW11476   6.429   0.160   1.719
 3526SOL    HW111477   6.358   0.105   1.676
 3526SOL    HW211478   6.387   0.224   1.783
 3527SOL     OW11479   6.708   2.768   0.232
 3527SOL    HW111480   6.616   2.802   0.252
 3527SOL    HW211481   6.722   2.681   0.280
 3528SOL     OW11482   2.235   5.820   4.948
 3528SOL    HW111483   2.329   5.842   4.974
 3528SOL    HW211484   2.181   5.904   4.942
 3529SOL     OW11485   4.633   4.177   6.681
 3529SOL    HW111486   4.604   4.100   6.738
 3529SOL    HW211487   4.713   4.220   6.723
 3530SOL     OW11488   6.353   0.288   0.221
 3530SOL    HW111489   6.310   0.198   0.221
 3530SOL    HW211490   6.416   0.295   0.143
 3531SOL     OW11491   4.555   2.237   0.816
 3531SOL    HW111492   4.596   2.234   0.907
 3531SOL    HW211493   4.554   2.332   0.784
 3532SOL     OW11494   2.180   0.373   1.466
 3532SOL    HW111495   2.168   0.390   1.368
 3532SOL    HW211496   2.101   0.323   1.501
 3533SOL     OW11497   2.034   2.834   3.100
 3533SOL    HW111498   2.100   2.909   3.095
 3533SOL    HW211499   1.950   2.867   3.142
 3534SOL     OW11500   0.476   1.190   0.822
 3534SOL    HW111501   0.515   1.100   0.839
 3534SOL    HW211502   0.449   1.197   0.725
 3535SOL     OW11503   3.828   0.233   3.443
 3535SOL    HW111504   3.732   0.234   3.415
 3535SOL    HW211505   3.851   0.143   3.480
 3536SOL     OW11506   4.110   1.720   4.155
 3536SOL    HW111507   4.081   1.706   4.060
 3536SOL    HW211508   4.102   1.817   4.179
 3537SOL     OW11509   1.320   5.906   2.364
 3537SOL    HW111510   1.370   5.993   2.364
 3537SOL    HW211511   1.222   5.924   2.378
 3538SOL     OW11512   3.684   5.644   1.231
 3538SOL    HW111513   3.679   5.744   1.235
 3538SOL    HW211514   3.662   5.605   1.320
 3539SOL     OW11515   3.450   4.098   4.504
 3539SOL    HW111516   3.394   4.153   4.565
 3539SOL    HW211517   3.411   4.098   4.412
 3540SOL     OW11518   1.999   3.068   3.472
 3540SOL    HW111519   1.934   3.045   3.545
 3540SOL    HW211520   2.059   3.141   3.503
 3541SOL     OW11521   3.694   4.051   4.764
 3541SOL    HW111522   3.724   3.988   4.835
 3541SOL    HW211523   3.662   3.998   4.685
 3542SOL     OW11524   6.886   5.666   1.352
 3542SOL    HW111525   6.792   5.642   1.379
 3542SOL    HW211526   6.951   5.624   1.415
 3543SOL     OW11527   5.055   1.905   4.689
 3543SOL    HW111528   5.016   1.882   4.600
 3543SOL    HW211529   5.141   1.856   4.701
 3544SOL     OW11530   3.189   6.962   6.471
 3544SOL    HW111531   3.275   6.925   6.437
 3544SOL    HW211532   3.151   6.900   6.540
 3545SOL     OW11533   2.694   5.211   0.716
 3545SOL    HW111534   2.603   5.249   0.698
 3545SOL    HW211535   2.704   5.124   0.668
 3546SOL     OW11536   1.000   4.501   2.934
 3546SOL    HW111537   0.945   4.424   2.900
 3546SOL    HW211538   0.948   4.550   3.004
 3547SOL     OW11539   4.775   4.672   4.568
 3547SOL    HW111540   4.781   4.666   4.468
 3547SOL    HW211541   4.732   4.759   4.593
 3548SOL     OW11542   6.068   3.338   5.333
 3548SOL    HW111543   6.132   3.413   5.323
 3548SOL    HW211544   6.118   3.251   5.336
 3549SOL     OW11545   5.164   3.583   1.911
 3549SOL    HW111546   5.197   3.548   1.999
 3549SOL    HW211547   5.064   3.586   1.911
 3550SOL     OW11548   4.915   1.754   3.826
 3550SOL    HW111549   4.975   1.674   3.828
 3550SOL    HW211550   4.906   1.787   3.732
 3551SOL     OW11551   1.529   0.218   2.553
 3551SOL    HW111552   1.601   0.235   2.619
 3551SOL    HW211553   1.540   0.126   2.515
 3552SOL     OW11554   6.585   4.263   3.061
 3552SOL    HW111555   6.572   4.246   2.964
 3552SOL    HW211556   6.659   4.204   3.096
 3553SOL     OW11557   5.904   1.655   3.492
 3553SOL    HW111558   5.897   1.605   3.406
 3553SOL    HW211559   5.962   1.736   3.479
 3554SOL     OW11560   3.502   6.139   6.489
 3554SOL    HW111561   3.596   6.160   6.517
 3554SOL    HW211562   3.438   6.178   6.555
 3555SOL     OW11563   0.696   2.732   3.672
 3555SOL    HW111564   0.777   2.782   3.703
 3555SOL    HW211565   0.713   2.634   3.678
 3556SOL     OW11566   4.098   1.578   6.398
 3556SOL    HW111567   4.177   1.585   6.459
 3556SOL    HW211568   4.119   1.622   6.311
 3557SOL     OW11569   1.484   1.324   3.735
 3557SOL    HW111570   1.469   1.251   3.802
 3557SOL    HW211571   1.576   1.360   3.747
 3558SOL     OW11572   0.234   0.252   1.505
 3558SOL    HW111573   0.187   0.250   1.417
 3558SOL    HW211574   0.170   0.227   1.577
 3559SOL     OW11575   0.819   1.096   5.915
 3559SOL    HW111576   0.814   1.030   5.990
 3559SOL    HW211577   0.874   1.174   5.941
 3560SOL     OW11578   6.545   0.634   1.563
 3560SOL    HW111579   6.556   0.535   1.573
 3560SOL    HW211580   6.623   0.681   1.605
 3561SOL     OW11581   5.842   5.073   3.532
 3561SOL    HW111582   5.773   5.141   3.506
 3561SOL    HW211583   5.797   4.986   3.549
 3562SOL     OW11584   3.928   2.194   2.873
 3562SOL    HW111585   3.925   2.174   2.775
 3562SOL    HW211586   3.839   2.228   2.902
 3563SOL     OW11587   3.422   6.167   1.554
 3563SOL    HW111588   3.459   6.100   1.489
 3563SOL    HW211589   3.327   6.186   1.531
 3564SOL     OW11590   6.461   4.344   1.938
 3564SOL    HW111591   6.524   4.395   1.997
 3564SOL    HW211592   6.506   4.262   1.904
 3565SOL     OW11593   0.646   0.892   5.420
 3565SOL    HW111594   0.550   0.917   5.411
 3565SOL    HW211595   0.654   0.802   5.462
 3566SOL     OW11596   0.299   4.900   5.824
 3566SOL    HW111597   0.345   4.989   5.823
 3566SOL    HW211598   0.335   4.843   5.750
 3567SOL     OW11599   6.053   2.073   1.238
 3567SOL    HW111600   6.142   2.118   1.241
 3567SOL    HW211601   6.057   1.989   1.292
 3568SOL     OW11602   5.208   4.365   3.725
 3568SOL    HW111603   5.305   4.379   3.743
 3568SOL    HW211604   5.197   4.306   3.646
 3569SOL     OW11605   4.112   3.415   3.398
 3569SOL    HW111606   4.069   3.325   3.397
 3569SOL    HW211607   4.043   3.485   3.378
 3570SOL     OW11608   0.404   2.735   5.877
 3570SOL    HW111609   0.416   2.827   5.840
 3570SOL    HW211610   0.348   2.681   5.813
 3571SOL     OW11611   3.460   0.178   4.142
 3571SOL    HW111612   3.456   0.274   4.113
 3571SOL    HW211613   3.553   0.144   4.132
 3572SOL     OW11614   4.568   4.505   2.924
 3572SOL    HW111615   4.529   4.547   2.842
 3572SOL    HW211616   4.535   4.554   3.005
 3573SOL     OW11617   0.510   5.011   3.467
 3573SOL    HW111618   0.573   4.939   3.494
 3573SOL    HW211619   0.526   5.035   3.371
 3574SOL     OW11620   2.511   1.537   6.475
 3574SOL    HW111621   2.467   1.592   6.404
 3574SOL    HW211622   2.479   1.567   6.565
 3575SOL     OW11623   4.807   0.174   6.588
 3575SOL    HW111624   4.830   0.174   6.490
 3575SOL    HW211625   4.709   0.159   6.599
 3576SOL     OW11626   1.101   2.682   0.529
 3576SOL    HW111627   1.125   2.633   0.613
 3576SOL    HW211628   1.180   2.682   0.467
 3577SOL     OW11629   1.953   3.920   4.162
 3577SOL    HW111630   1.922   4.001   4.212
 3577SOL    HW211631   1.875   3.867   4.132
 3578SOL     OW11632   4.975   2.169   0.645
 3578SOL    HW111633   4.936   2.117   0.721
 3578SOL    HW211634   4.945   2.265   0.652
 3579SOL     OW11635   0.415   3.206   2.433
 3579SOL    HW111636   0.451   3.260   2.357
 3579SOL    HW211637   0.460   3.233   2.518
 3580SOL     OW11638   6.823   4.273   1.916
 3580SOL    HW111639   6.787   4.231   1.999
 3580SOL    HW211640   6.900   4.219   1.882
 3581SOL     OW11641   1.571   0.901   2.878
 3581SOL    HW111642   1.640   0.973   2.884
 3581SOL    HW211643   1.563   0.870   2.783
 3582SOL     OW11644   4.567   6.594   6.777
 3582SOL    HW111645   4.547   6.626   6.684
 3582SOL    HW211646   4.593   6.498   6.774
 3583SOL     OW11647   1.855   6.201   0.403
 3583SOL    HW111648   1.946   6.186   0.367
 3583SOL    HW211649   1.833   6.129   0.470
 3584SOL     OW11650   5.719   5.343   4.821
 3584SOL    HW111651   5.731   5.383   4.913
 3584SOL    HW211652   5.690   5.415   4.758
 3585SOL     OW11653   4.485   1.878   3.540
 3585SOL    HW111654   4.494   1.881   3.640
 3585SOL    HW211655   4.445   1.790   3.513
 3586SOL     OW11656   0.096   3.067   5.220
 3586SOL    HW111657   0.189   3.089   5.249
 3586SOL    HW211658   0.060   2.992   5.277
 3587SOL     OW11659   2.088   0.461   5.386
 3587SOL    HW111660   2.039   0.384   5.347
 3587SOL    HW211661   2.076   0.542   5.328
 3588SOL     OW11662   6.086   3.694   4.257
 3588SOL    HW111663   6.049   3.701   4.350
 3588SOL    HW211664   6.082   3.783   4.213
 3589SOL     OW11665   0.431   1.632   5.895
 3589SOL    HW111666   0.529   1.612   5.886
 3589SOL    HW211667   0.403   1.694   5.821
 3590SOL     OW11668   6.397   5.164   6.303
 3590SOL    HW111669   6.369   5.243   6.358
 3590SOL    HW211670   6.491   5.140   6.326
 3591SOL     OW11671   5.131   1.231   0.930
 3591SOL    HW111672   5.095   1.257   1.020
 3591SOL    HW211673   5.221   1.188   0.942
 3592SOL     OW11674   0.541   6.083   1.297
 3592SOL    HW111675   0.537   6.136   1.212
 3592SOL    HW211676   0.497   6.135   1.370
 3593SOL     OW11677   4.060   3.304   6.000
 3593SOL    HW111678   4.126   3.294   5.926
 3593SOL    HW211679   3.977   3.253   5.979
 3594SOL     OW11680   4.380   4.440   5.406
 3594SOL    HW111681   4.334   4.402   5.486
 3594SOL    HW211682   4.337   4.405   5.323
 3595SOL     OW11683   4.946   6.490   5.251
 3595SOL    HW111684   4.977   6.395   5.251
 3595SOL    HW211685   4.902   6.511   5.339
 3596SOL     OW11686   3.519   1.499   1.759
 3596SOL    HW111687   3.457   1.472   1.686
 3596SOL    HW211688   3.540   1.420   1.816
 3597SOL     OW11689   4.118   4.600   5.303
 3597SOL    HW111690   4.158   4.681   5.261
 3597SOL    HW211691   4.167   4.519   5.272
 3598SOL     OW11692   6.128   5.209   4.140
 3598SOL    HW111693   6.207   5.163   4.181
 3598SOL    HW211694   6.045   5.184   4.190
 3599SOL     OW11695   2.500   1.456   5.577
 3599SOL    HW111696   2.525   1.530   5.515
 3599SOL    HW211697   2.576   1.438   5.639
 3600SOL     OW11698   2.533   4.277   0.852
 3600SOL    HW111699   2.490   4.367   0.850
 3600SOL    HW211700   2.551   4.246   0.759
 3601SOL     OW11701   2.985   0.261   5.205
 3601SOL    HW111702   2.990   0.309   5.118
 3601SOL    HW211703   2.977   0.163   5.190
 3602SOL     OW11704   1.501   2.078   1.012
 3602SOL    HW111705   1.512   1.996   1.067
 3602SOL    HW211706   1.557   2.152   1.049
 3603SOL     OW11707   1.585   6.688   5.656
 3603SOL    HW111708   1.534   6.698   5.741
 3603SOL    HW211709   1.650   6.764   5.647
 3604SOL     OW11710   0.020   1.496   4.637
 3604SOL    HW111711   0.034   1.432   4.561
 3604SOL    HW211712   0.027   1.590   4.602
 3605SOL     OW11713   0.857   0.459   4.992
 3605SOL    HW111714   0.824   0.501   5.076
 3605SOL    HW211715   0.955   0.441   4.999
 3606SOL     OW11716   1.961   0.915   2.927
 3606SOL    HW111717   1.895   0.989   2.931
 3606SOL    HW211718   1.993   0.893   3.020
 3607SOL     OW11719   5.988   1.408   4.472
 3607SOL    HW111720   5.900   1.380   4.509
 3607SOL    HW211721   5.977   1.436   4.376
 3608SOL     OW11722   4.479   1.821   5.583
 3608SOL    HW111723   4.480   1.819   5.483
 3608SOL    HW211724   4.412   1.756   5.617
 3609SOL     OW11725   3.228   0.002   4.244
 3609SOL    HW111726   3.186   0.081   4.288
 3609SOL    HW211727   3.245   6.953   4.312
 3610SOL     OW11728   0.881   0.344   5.877
 3610SOL    HW111729   0.936   0.371   5.798
 3610SOL    HW211730   0.786   0.336   5.850
 3611SOL     OW11731   5.915   2.600   2.865
 3611SOL    HW111732   5.831   2.549   2.885
 3611SOL    HW211733   5.899   2.698   2.882
 3612SOL     OW11734   5.648   1.371   1.180
 3612SOL    HW111735   5.727   1.370   1.242
 3612SOL    HW211736   5.596   1.286   1.190
 3613SOL     OW11737   4.541   1.402   2.282
 3613SOL    HW111738   4.595   1.342   2.340
 3613SOL    HW211739   4.449   1.411   2.319
 3614SOL     OW11740   3.514   5.947   0.334
 3614SOL    HW111741   3.611   5.947   0.311
 3614SOL    HW211742   3.492   5.866   0.388
 3615SOL     OW11743   5.198   2.613   5.684
 3615SOL    HW111744   5.221   2.535   5.742
 3615SOL    HW211745   5.122   2.664   5.724
 3616SOL     OW11746   2.062   0.592   0.481
 3616SOL    HW111747   2.010   0.524   0.534
 3616SOL    HW211748   1.999   0.662   0.446
 3617SOL     OW11749   4.040   5.527   5.543
 3617SOL    HW111750   3.951   5.573   5.544
 3617SOL    HW211751   4.029   5.435   5.507
 3618SOL     OW11752   1.041   5.547   4.225
 3618SOL    HW111753   1.136   5.515   4.225
 3618SOL    HW211754   0.996   5.519   4.309
 3619SOL     OW11755   0.135   1.742   2.079
 3619SOL    HW111756   0.172   1.780   2.164
 3619SOL    HW211757   0.211   1.706   2.024
 3620SOL     OW11758   4.927   6.274   5.599
 3620SOL    HW111759   4.849   6.285   5.538
 3620SOL    HW211760   5.010   6.306   5.554
 3621SOL     OW11761   3.384   3.304   2.969
 3621SOL    HW111762   3.357   3.345   3.056
 3621SOL    HW211763   3.469   3.253   2.981
 3622SOL     OW11764   1.642   6.265   6.252
 3622SOL    HW111765   1.667   6.197   6.320
 3622SOL    HW211766   1.592   6.340   6.296
 3623SOL     OW11767   2.327   6.310   5.522
 3623SOL    HW111768   2.241   6.358   5.537
 3623SOL    HW211769   2.344   6.246   5.597
 3624SOL     OW11770   2.888   1.488   1.936
 3624SOL    HW111771   2.815   1.434   1.895
 3624SOL    HW211772   2.848   1.564   1.989
 3625SOL     OW11773   6.177   2.448   2.063
 3625SOL    HW111774   6.175   2.375   2.131
 3625SOL    HW211775   6.247   2.429   1.994
 3626SOL     OW11776   0.491   3.233   5.556
 3626SOL    HW111777   0.546   3.223   5.639
 3626SOL    HW211778   0.545   3.281   5.486
 3627SOL     OW11779   3.123   1.522   2.412
 3627SOL    HW111780   3.116   1.590   2.340
 3627SOL    HW211781   3.101   1.431   2.375
 3628SOL     OW11782   6.725   1.119   1.193
 3628SOL    HW111783   6.765   1.185   1.257
 3628SOL    HW211784   6.778   1.118   1.109
 3629SOL     OW11785   1.640   0.775   4.222
 3629SOL    HW111786   1.584   0.726   4.155
 3629SOL    HW211787   1.621   0.873   4.217
 3630SOL     OW11788   6.780   1.307   2.853
 3630SOL    HW111789   6.738   1.394   2.827
 3630SOL    HW211790   6.722   1.231   2.823
 3631SOL     OW11791   2.244   5.429   2.315
 3631SOL    HW111792   2.172   5.378   2.269
 3631SOL    HW211793   2.291   5.369   2.379
 3632SOL     OW11794   5.024   2.996   2.862
 3632SOL    HW111795   5.059   2.987   2.955
 3632SOL    HW211796   4.987   2.908   2.832
 3633SOL     OW11797   4.896   4.894   5.594
 3633SOL    HW111798   4.955   4.815   5.576
 3633SOL    HW211799   4.915   4.930   5.686
 3634SOL     OW11800   2.792   4.921   6.797
 3634SOL    HW111801   2.778   4.938   6.895
 3634SOL    HW211802   2.736   4.843   6.768
 3635SOL     OW11803   1.510   6.201   3.277
 3635SOL    HW111804   1.491   6.286   3.325
 3635SOL    HW211805   1.603   6.204   3.240
 3636SOL     OW11806   6.842   6.189   3.780
 3636SOL    HW111807   6.925   6.196   3.835
 3636SOL    HW211808   6.867   6.182   3.683
 3637SOL     OW11809   4.983   1.959   0.196
 3637SOL    HW111810   4.912   1.935   0.130
 3637SOL    HW211811   5.060   2.001   0.149
 3638SOL     OW11812   0.697   2.982   4.231
 3638SOL    HW111813   0.762   3.056   4.213
 3638SOL    HW211814   0.662   2.946   4.145
 3639SOL     OW11815   3.724   3.000   3.568
 3639SOL    HW111816   3.625   2.993   3.571
 3639SOL    HW211817   3.759   3.023   3.659
 3640SOL     OW11818   4.891   1.656   2.509
 3640SOL    HW111819   4.870   1.721   2.436
 3640SOL    HW211820   4.830   1.673   2.587
 3641SOL     OW11821   6.839   3.292   1.106
 3641SOL    HW111822   6.865   3.210   1.159
 3641SOL    HW211823   6.743   3.313   1.123
 3642SOL     OW11824   3.644   4.515   0.126
 3642SOL    HW111825   3.636   4.557   0.217
 3642SOL    HW211826   3.668   4.418   0.136
 3643SOL     OW11827   4.765   4.942   4.839
 3643SOL    HW111828   4.847   4.981   4.881
 3643SOL    HW211829   4.684   4.973   4.888
 3644SOL     OW11830   3.096   1.286   1.752
 3644SOL    HW111831   3.134   1.194   1.746
 3644SOL    HW211832   3.153   1.342   1.812
 3645SOL     OW11833   1.053   3.997   4.023
 3645SOL    HW111834   0.975   4.047   4.060
 3645SOL    HW211835   1.021   3.918   3.971
 3646SOL     OW11836   2.657   6.102   4.779
 3646SOL    HW111837   2.697   6.108   4.871
 3646SOL    HW211838   2.661   6.008   4.747
 3647SOL     OW11839   3.532   0.630   1.236
 3647SOL    HW111840   3.621   0.661   1.202
 3647SOL    HW211841   3.460   0.678   1.186
 3648SOL     OW11842   5.611   5.589   3.886
 3648SOL    HW111843   5.654   5.525   3.950
 3648SOL    HW211844   5.551   5.652   3.936
 3649SOL     OW11845   5.131   3.163   6.954
 3649SOL    HW111846   5.092   3.082   6.998
 3649SOL    HW211847   5.167   3.138   6.864
 3650SOL     OW11848   5.591   6.233   0.143
 3650SOL    HW111849   5.677   6.269   0.180
 3650SOL    HW211850   5.578   6.139   0.175
 3651SOL     OW11851   0.943   1.851   5.734
 3651SOL    HW111852   1.029   1.828   5.688
 3651SOL    HW211853   0.954   1.842   5.833
 3652SOL     OW11854   5.964   1.999   2.932
 3652SOL    HW111855   6.011   2.052   2.862
 3652SOL    HW211856   6.024   1.926   2.965
 3653SOL     OW11857   2.468   1.265   1.067
 3653SOL    HW111858   2.551   1.316   1.088
 3653SOL    HW211859   2.398   1.285   1.136
 3654SOL     OW11860   4.743   5.619   1.106
 3654SOL    HW111861   4.780   5.708   1.080
 3654SOL    HW211862   4.646   5.614   1.079
 3655SOL     OW11863   1.620   0.094   3.860
 3655SOL    HW111864   1.594   0.063   3.768
 3655SOL    HW211865   1.720   0.103   3.864
 3656SOL     OW11866   1.135   0.829   1.109
 3656SOL    HW111867   1.194   0.877   1.174
 3656SOL    HW211868   1.090   0.896   1.049
 3657SOL     OW11869   0.003   4.599   0.132
 3657SOL    HW111870   6.992   4.686   0.170
 3657SOL    HW211871   6.955   4.559   0.074
 3658SOL     OW11872   2.118   4.362   5.993
 3658SOL    HW111873   2.088   4.455   5.971
 3658SOL    HW211874   2.150   4.317   5.910
 3659SOL     OW11875   0.871   2.376   0.520
 3659SOL    HW111876   0.897   2.291   0.565
 3659SOL    HW211877   0.894   2.454   0.579
 3660SOL     OW11878   4.506   4.983   4.051
 3660SOL    HW111879   4.553   4.967   3.964
 3660SOL    HW211880   4.523   4.906   4.112
 3661SOL     OW11881   0.617   0.904   5.042
 3661SOL    HW111882   0.656   0.968   5.109
 3661SOL    HW211883   0.549   0.952   4.986
 3662SOL     OW11884   3.651   3.378   5.102
 3662SOL    HW111885   3.649   3.297   5.043
 3662SOL    HW211886   3.741   3.385   5.145
 3663SOL     OW11887   1.472   2.519   6.016
 3663SOL    HW111888   1.435   2.575   6.089
 3663SOL    HW211889   1.397   2.472   5.968
 3664SOL     OW11890   2.335   2.728   1.134
 3664SOL    HW111891   2.237   2.710   1.130
 3664SOL    HW211892   2.354   2.821   1.102
 3665SOL     OW11893   6.726   6.069   5.192
 3665SOL    HW111894   6.763   6.054   5.283
 3665SOL    HW211895   6.800   6.065   5.125
 3666SOL     OW11896   1.920   3.841   4.579
 3666SOL    HW111897   1.961   3.866   4.492
 3666SOL    HW211898   1.990   3.841   4.651
 3667SOL     OW11899   1.495   6.077   1.450
 3667SOL    HW111900   1.479   5.996   1.393
 3667SOL    HW211901   1.507   6.048   1.546
 3668SOL     OW11902   5.248   0.796   0.788
 3668SOL    HW111903   5.321   0.787   0.720
 3668SOL    HW211904   5.170   0.843   0.747
 3669SOL     OW11905   6.484   1.148   3.322
 3669SOL    HW111906   6.390   1.176   3.301
 3669SOL    HW211907   6.542   1.164   3.242
 3670SOL     OW11908   1.907   6.123   1.613
 3670SOL    HW111909   1.846   6.201   1.631
 3670SOL    HW211910   1.918   6.069   1.696
 3671SOL     OW11911   0.681   1.117   5.230
 3671SOL    HW111912   0.680   1.072   5.319
 3671SOL    HW211913   0.600   1.176   5.221
 3672SOL     OW11914   2.560   6.731   3.009
 3672SOL    HW111915   2.547   6.646   3.061
 3672SOL    HW211916   2.580   6.806   3.072
 3673SOL     OW11917   3.848   1.514   2.014
 3673SOL    HW111918   3.830   1.586   1.946
 3673SOL    HW211919   3.778   1.444   2.008
 3674SOL     OW11920   0.238   6.102   6.028
 3674SOL    HW111921   0.287   6.178   6.070
 3674SOL    HW211922   0.200   6.130   5.940
 3675SOL     OW11923   6.100   0.332   5.956
 3675SOL    HW111924   6.003   0.350   5.967
 3675SOL    HW211925   6.153   0.387   6.021
 3676SOL     OW11926   2.393   0.633   6.296
 3676SOL    HW111927   2.430   0.552   6.251
 3676SOL    HW211928   2.323   0.605   6.362
 3677SOL     OW11929   0.763   0.164   5.192
 3677SOL    HW111930   0.816   0.236   5.237
 3677SOL    HW211931   0.801   0.075   5.214
 3678SOL     OW11932   2.496   0.859   3.521
 3678SOL    HW111933   2.479   0.772   3.568
 3678SOL    HW211934   2.559   0.914   3.575
 3679SOL     OW11935   3.332   0.806   1.153
 3679SOL    HW111936   3.243   0.774   1.186
 3679SOL    HW211937   3.341   0.904   1.171
 3680SOL     OW11938   4.937   0.735   4.151
 3680SOL    HW111939   4.976   0.775   4.234
 3680SOL    HW211940   4.843   0.706   4.170
 3681SOL     OW11941   1.132   5.209   3.470
 3681SOL    HW111942   1.181   5.123   3.455
 3681SOL    HW211943   1.034   5.194   3.458
 3682SOL     OW11944   5.404   1.053   1.574
 3682SOL    HW111945   5.377   0.961   1.603
 3682SOL    HW211946   5.447   1.101   1.650
 3683SOL     OW11947   5.990   2.330   1.774
 3683SOL    HW111948   6.066   2.266   1.763
 3683SOL    HW211949   5.936   2.332   1.690
 3684SOL     OW11950   2.015   6.666   5.503
 3684SOL    HW111951   1.979   6.581   5.539
 3684SOL    HW211952   2.023   6.659   5.403
 3685SOL     OW11953   1.205   6.170   2.835
 3685SOL    HW111954   1.204   6.259   2.790
 3685SOL    HW211955   1.240   6.101   2.771
 3686SOL     OW11956   1.476   5.670   1.089
 3686SOL    HW111957   1.455   5.576   1.114
 3686SOL    HW211958   1.572   5.676   1.059
 3687SOL     OW11959   6.851   5.001   3.966
 3687SOL    HW111960   6.821   4.922   3.913
 3687SOL    HW211961   6.944   5.026   3.937
 3688SOL     OW11962   0.620   2.096   1.440
 3688SOL    HW111963   0.654   2.130   1.528
 3688SOL    HW211964   0.689   2.114   1.370
 3689SOL     OW11965   3.414   2.663   5.384
 3689SOL    HW111966   3.427   2.754   5.345
 3689SOL    HW211967   3.317   2.641   5.387
 3690SOL     OW11968   6.898   5.547   2.374
 3690SOL    HW111969   6.927   5.460   2.335
 3690SOL    HW211970   6.917   5.547   2.472
 3691SOL     OW11971   3.089   1.901   6.533
 3691SOL    HW111972   3.127   1.983   6.490
 3691SOL    HW211973   3.012   1.867   6.478
 3692SOL     OW11974   1.063   2.677   5.950
 3692SOL    HW111975   1.061   2.690   6.049
 3692SOL    HW211976   1.115   2.750   5.908
 3693SOL     OW11977   1.348   1.056   3.011
 3693SOL    HW111978   1.368   1.050   3.109
 3693SOL    HW211979   1.408   0.994   2.961
 3694SOL     OW11980   0.030   5.408   1.976
 3694SOL    HW111981   6.962   5.410   1.935
 3694SOL    HW211982   0.088   5.344   1.926
 3695SOL     OW11983   5.917   3.861   4.423
 3695SOL    HW111984   5.917   3.885   4.520
 3695SOL    HW211985   5.822   3.858   4.390
 3696SOL     OW11986   3.985   6.560   4.362
 3696SOL    HW111987   3.967   6.654   4.391
 3696SOL    HW211988   4.077   6.533   4.391
 3697SOL     OW11989   0.221   4.635   2.820
 3697SOL    HW111990   0.292   4.676   2.877
 3697SOL    HW211991   0.264   4.584   2.745
 3698SOL     OW11992   1.081   0.115   3.177
 3698SOL    HW111993   1.106   0.174   3.100
 3698SOL    HW211994   1.159   0.057   3.201
 3699SOL     OW11995   2.912   1.252   2.693
 3699SOL    HW111996   3.000   1.208   2.708
 3699SOL    HW211997   2.927   1.345   2.658
 3700SOL     OW11998   1.029   4.998   5.039
 3700SOL    HW111999   1.112   4.943   5.029
 3700SOL    HW212000   0.969   4.955   5.106
 3701SOL     OW12001   6.643   0.498   2.383
 3701SOL    HW112002   6.689   0.580   2.417
 3701SOL    HW212003   6.701   0.418   2.401
 3702SOL     OW12004   6.523   4.714   3.317
 3702SOL    HW112005   6.518   4.641   3.250
 3702SOL    HW212006   6.593   4.780   3.290
 3703SOL     OW12007   1.903   1.794   3.423
 3703SOL    HW112008   1.970   1.759   3.357
 3703SOL    HW212009   1.811   1.789   3.384
 3704SOL     OW12010   6.462   6.721   0.824
 3704SOL    HW112011   6.463   6.776   0.741
 3704SOL    HW212012   6.437   6.627   0.802
 3705SOL     OW12013   0.212   4.278   3.626
 3705SOL    HW112014   0.121   4.240   3.640
 3705SOL    HW212015   0.207   4.356   3.563
 3706SOL     OW12016   0.241   6.802   6.105
 3706SOL    HW112017   0.147   6.780   6.134
 3706SOL    HW212018   0.237   6.868   6.030
 3707SOL     OW12019   5.736   4.361   3.817
 3707SOL    HW112020   5.821   4.348   3.870
 3707SOL    HW212021   5.755   4.421   3.739
 3708SOL     OW12022   0.972   5.643   0.696
 3708SOL    HW112023   1.037   5.674   0.766
 3708SOL    HW212024   0.992   5.687   0.609
 3709SOL     OW12025   0.313   1.441   1.632
 3709SOL    HW112026   0.266   1.434   1.545
 3709SOL    HW212027   0.410   1.460   1.616
 3710SOL     OW12028   1.951   3.712   5.444
 3710SOL    HW112029   1.904   3.793   5.407
 3710SOL    HW212030   1.912   3.630   5.402
 3711SOL     OW12031   1.045   4.703   5.606
 3711SOL    HW112032   1.025   4.790   5.652
 3711SOL    HW212033   1.031   4.714   5.508
 3712SOL     OW12034   4.123   4.817   3.416
 3712SOL    HW112035   4.219   4.824   3.441
 3712SOL    HW212036   4.077   4.750   3.475
 3713SOL     OW12037   5.809   1.126   6.111
 3713SOL    HW112038   5.779   1.162   6.022
 3713SOL    HW212039   5.897   1.080   6.101
 3714SOL     OW12040   0.447   4.832   0.460
 3714SOL    HW112041   0.374   4.858   0.398
 3714SOL    HW212042   0.421   4.854   0.554
 3715SOL     OW12043   5.670   4.677   1.982
 3715SOL    HW112044   5.702   4.597   1.930
 3715SOL    HW212045   5.625   4.647   2.066
 3716SOL     OW12046   5.318   5.700   5.493
 3716SOL    HW112047   5.333   5.711   5.591
 3716SOL    HW212048   5.406   5.688   5.447
 3717SOL     OW12049   4.322   6.895   1.081
 3717SOL    HW112050   4.277   6.984   1.073
 3717SOL    HW212051   4.346   6.878   1.176
 3718SOL     OW12052   4.712   5.997   6.527
 3718SOL    HW112053   4.659   5.921   6.490
 3718SOL    HW212054   4.652   6.077   6.537
 3719SOL     OW12055   2.774   3.300   0.046
 3719SOL    HW112056   2.685   3.336   0.018
 3719SOL    HW212057   2.765   3.252   0.134
 3720SOL     OW12058   0.475   1.890   0.282
 3720SOL    HW112059   0.574   1.894   0.268
 3720SOL    HW212060   0.441   1.801   0.249
 3721SOL     OW12061   6.965   0.121   5.586
 3721SOL    HW112062   6.923   0.168   5.509
 3721SOL    HW212063   6.894   0.083   5.645
 3722SOL     OW12064   4.330   6.383   1.840
 3722SOL    HW112065   4.275   6.417   1.764
 3722SOL    HW212066   4.295   6.421   1.926
 3723SOL     OW12067   3.955   3.881   6.216
 3723SOL    HW112068   3.977   3.783   6.215
 3723SOL    HW212069   3.905   3.904   6.299
 3724SOL     OW12070   5.894   3.887   4.931
 3724SOL    HW112071   5.809   3.915   4.976
 3724SOL    HW212072   5.970   3.899   4.995
 3725SOL     OW12073   0.627   6.092   1.901
 3725SOL    HW112074   0.674   6.164   1.851
 3725SOL    HW212075   0.585   6.131   1.984
 3726SOL     OW12076   6.311   3.503   5.317
 3726SOL    HW112077   6.386   3.437   5.314
 3726SOL    HW212078   6.322   3.563   5.397
 3727SOL     OW12079   5.740   1.703   4.039
 3727SOL    HW112080   5.714   1.798   4.053
 3727SOL    HW212081   5.818   1.698   3.977
 3728SOL     OW12082   1.498   3.934   0.247
 3728SOL    HW112083   1.497   3.979   0.158
 3728SOL    HW212084   1.559   3.855   0.245
 3729SOL     OW12085   0.168   6.986   5.527
 3729SOL    HW112086   0.228   0.022   5.581
 3729SOL    HW212087   0.076   0.004   5.524
 3730SOL     OW12088   6.062   4.247   5.153
 3730SOL    HW112089   6.103   4.226   5.065
 3730SOL    HW212090   5.991   4.180   5.174
 3731SOL     OW12091   5.791   1.574   2.674
 3731SOL    HW112092   5.811   1.671   2.685
 3731SOL    HW212093   5.824   1.544   2.584
 3732SOL     OW12094   4.604   2.195   6.861
 3732SOL    HW112095   4.512   2.204   6.822
 3732SOL    HW212096   4.670   2.239   6.800
 3733SOL     OW12097   1.967   1.460   3.250
 3733SOL    HW112098   1.875   1.462   3.289
 3733SOL    HW212099   1.976   1.532   3.181
 3734SOL     OW12100   4.902   1.608   1.999
 3734SOL    HW112101   4.965   1.538   2.033
 3734SOL    HW212102   4.808   1.581   2.020
 3735SOL     OW12103   3.768   1.137   2.924
 3735SOL    HW112104   3.676   1.177   2.930
 3735SOL    HW212105   3.830   1.201   2.879
 3736SOL     OW12106   1.201   1.307   6.297
 3736SOL    HW112107   1.191   1.379   6.367
 3736SOL    HW212108   1.193   1.347   6.206
 3737SOL     OW12109   5.294   1.660   4.339
 3737SOL    HW112110   5.281   1.741   4.281
 3737SOL    HW212111   5.375   1.674   4.397
 3738SOL     OW12112   0.243   0.998   0.853
 3738SOL    HW112113   0.251   0.907   0.811
 3738SOL    HW212114   0.225   1.066   0.782
 3739SOL     OW12115   3.109   6.295   0.261
 3739SOL    HW112116   3.160   6.211   0.276
 3739SOL    HW212117   3.157   6.372   0.302
 3740SOL     OW12118   6.697   0.230   6.575
 3740SOL    HW112119   6.782   0.276   6.603
 3740SOL    HW212120   6.714   0.179   6.490
 3741SOL     OW12121   5.565   4.473   0.559
 3741SOL    HW112122   5.489   4.416   0.590
 3741SOL    HW212123   5.642   4.414   0.533
 3742SOL     OW12124   4.775   5.210   1.402
 3742SOL    HW112125   4.859   5.239   1.448
 3742SOL    HW212126   4.762   5.263   1.319
 3743SOL     OW12127   2.406   3.858   1.607
 3743SOL    HW112128   2.446   3.948   1.621
 3743SOL    HW212129   2.354   3.857   1.522
 3744SOL     OW12130   6.450   5.284   2.403
 3744SOL    HW112131   6.380   5.332   2.351
 3744SOL    HW212132   6.532   5.341   2.409
 3745SOL     OW12133   6.179   0.897   3.120
 3745SOL    HW112134   6.087   0.860   3.130
 3745SOL    HW212135   6.245   0.838   3.166
 3746SOL     OW12136   5.408   6.642   5.531
 3746SOL    HW112137   5.437   6.734   5.503
 3746SOL    HW212138   5.309   6.643   5.550
 3747SOL     OW12139   2.004   4.478   5.614
 3747SOL    HW112140   2.049   4.402   5.662
 3747SOL    HW212141   2.019   4.468   5.515
 3748SOL     OW12142   4.978   0.907   3.185
 3748SOL    HW112143   5.031   0.950   3.113
 3748SOL    HW212144   5.011   0.938   3.274
 3749SOL     OW12145   5.943   5.529   1.222
 3749SOL    HW112146   5.875   5.492   1.159
 3749SOL    HW212147   6.035   5.504   1.191
 3750SOL     OW12148   7.006   4.740   1.485
 3750SOL    HW112149   6.926   4.743   1.425
 3750SOL    HW212150   0.047   4.669   1.453
 3751SOL     OW12151   1.900   4.507   0.804
 3751SOL    HW112152   1.886   4.606   0.791
 3751SOL    HW212153   1.879   4.483   0.899
 3752SOL     OW12154   1.194   6.840   6.298
 3752SOL    HW112155   1.225   6.906   6.230
 3752SOL    HW212156   1.099   6.816   6.279
 3753SOL     OW12157   0.683   1.848   5.234
 3753SOL    HW112158   0.778   1.831   5.208
 3753SOL    HW212159   0.661   1.944   5.218
 3754SOL     OW12160   6.801   6.791   1.702
 3754SOL    HW112161   6.857   6.714   1.734
 3754SOL    HW212162   6.781   6.851   1.779
 3755SOL     OW12163   4.485   2.486   2.796
 3755SOL    HW112164   4.416   2.422   2.763
 3755SOL    HW212165   4.536   2.523   2.718
 3756SOL     OW12166   3.129   0.085   0.042
 3756SOL    HW112167   3.139   0.144   6.984
 3756SOL    HW212168   3.039   0.042   0.041
 3757SOL     OW12169   2.994   3.392   6.269
 3757SOL    HW112170   2.915   3.391   6.207
 3757SOL    HW212171   2.963   3.404   6.363
 3758SOL     OW12172   0.656   1.311   1.338
 3758SOL    HW112173   0.725   1.357   1.281
 3758SOL    HW212174   0.596   1.257   1.279
 3759SOL     OW12175   5.552   4.322   1.200
 3759SOL    HW112176   5.601   4.395   1.152
 3759SOL    HW212177   5.458   4.353   1.218
 3760SOL     OW12178   2.030   1.431   6.278
 3760SOL    HW112179   2.024   1.507   6.343
 3760SOL    HW212180   1.947   1.427   6.223
 3761SOL     OW12181   6.831   6.988   4.348
 3761SOL    HW112182   6.876   6.990   4.437
 3761SOL    HW212183   6.783   6.902   4.336
 3762SOL     OW12184   0.296   4.122   1.376
 3762SOL    HW112185   0.270   4.204   1.324
 3762SOL    HW212186   0.317   4.147   1.470
 3763SOL     OW12187   0.593   2.585   5.143
 3763SOL    HW112188   0.613   2.628   5.055
 3763SOL    HW212189   0.494   2.574   5.152
 3764SOL     OW12190   2.173   1.074   2.765
 3764SOL    HW112191   2.099   1.114   2.818
 3764SOL    HW212192   2.226   1.013   2.824
 3765SOL     OW12193   6.379   1.494   3.511
 3765SOL    HW112194   6.310   1.488   3.439
 3765SOL    HW212195   6.460   1.542   3.476
 3766SOL     OW12196   2.267   0.546   4.588
 3766SOL    HW112197   2.267   0.572   4.684
 3766SOL    HW212198   2.268   0.446   4.580
 3767SOL     OW12199   6.477   4.481   1.661
 3767SOL    HW112200   6.466   4.446   1.754
 3767SOL    HW212201   6.540   4.422   1.610
 3768SOL     OW12202   4.181   6.576   1.324
 3768SOL    HW112203   4.125   6.633   1.384
 3768SOL    HW212204   4.132   6.491   1.303
 3769SOL     OW12205   3.666   6.616   4.718
 3769SOL    HW112206   3.632   6.652   4.631
 3769SOL    HW212207   3.766   6.619   4.718
 3770SOL     OW12208   1.384   3.196   0.883
 3770SOL    HW112209   1.381   3.127   0.811
 3770SOL    HW212210   1.439   3.274   0.852
 3771SOL     OW12211   5.060   1.707   5.073
 3771SOL    HW112212   5.116   1.779   5.032
 3771SOL    HW212213   5.087   1.618   5.035
 3772SOL     OW12214   4.946   1.373   2.489
 3772SOL    HW112215   5.011   1.345   2.559
 3772SOL    HW212216   4.928   1.471   2.497
 3773SOL     OW12217   6.015   2.872   1.484
 3773SOL    HW112218   5.936   2.814   1.504
 3773SOL    HW212219   6.027   2.937   1.558
 3774SOL     OW12220   2.055   0.782   1.805
 3774SOL    HW112221   2.040   0.858   1.867
 3774SOL    HW212222   2.022   0.806   1.714
 3775SOL     OW12223   5.355   2.992   3.532
 3775SOL    HW112224   5.367   2.904   3.578
 3775SOL    HW212225   5.276   2.987   3.471
 3776SOL     OW12226   2.814   2.481   0.682
 3776SOL    HW112227   2.821   2.546   0.757
 3776SOL    HW212228   2.864   2.397   0.705
 3777SOL     OW12229   1.717   4.244   3.592
 3777SOL    HW112230   1.699   4.342   3.596
 3777SOL    HW212231   1.630   4.194   3.592
 3778SOL     OW12232   1.998   0.110   0.834
 3778SOL    HW112233   2.045   0.168   0.769
 3778SOL    HW212234   2.026   0.133   0.927
 3779SOL     OW12235   1.630   3.462   0.400
 3779SOL    HW112236   1.702   3.406   0.441
 3779SOL    HW212237   1.540   3.426   0.427
 3780SOL     OW12238   2.419   0.143   4.085
 3780SOL    HW112239   2.387   0.236   4.103
 3780SOL    HW212240   2.483   0.144   4.008
 3781SOL     OW12241   3.664   5.030   5.196
 3781SOL    HW112242   3.628   4.948   5.240
 3781SOL    HW212243   3.754   5.051   5.234
 3782SOL     OW12244   2.959   0.751   2.130
 3782SOL    HW112245   3.050   0.715   2.111
 3782SOL    HW212246   2.957   0.793   2.221
 3783SOL     OW12247   4.979   4.613   5.592
 3783SOL    HW112248   4.954   4.616   5.689
 3783SOL    HW212249   5.012   4.521   5.569
 3784SOL     OW12250   5.329   2.748   4.702
 3784SOL    HW112251   5.393   2.680   4.740
 3784SOL    HW212252   5.307   2.724   4.608
 3785SOL     OW12253   6.814   0.208   1.503
 3785SOL    HW112254   6.854   0.123   1.538
 3785SOL    HW212255   6.884   0.280   1.504
 3786SOL     OW12256   2.673   5.775   1.659
 3786SOL    HW112257   2.621   5.854   1.692
 3786SOL    HW212258   2.690   5.713   1.736
 3787SOL     OW12259   3.680   1.322   3.733
 3787SOL    HW112260   3.640   1.343   3.644
 3787SOL    HW212261   3.632   1.374   3.804
 3788SOL     OW12262   6.732   3.005   2.677
 3788SOL    HW112263   6.671   3.074   2.716
 3788SOL    HW212264   6.784   3.044   2.602
 3789SOL     OW12265   1.573   4.718   2.214
 3789SOL    HW112266   1.658   4.669   2.194
 3789SOL    HW212267   1.514   4.716   2.133
 3790SOL     OW12268   1.996   3.769   2.858
 3790SOL    HW112269   1.899   3.787   2.874
 3790SOL    HW212270   2.050   3.810   2.932
 3791SOL     OW12271   6.253   0.537   2.013
 3791SOL    HW112272   6.190   0.612   1.995
 3791SOL    HW212273   6.332   0.543   1.952
 3792SOL     OW12274   1.160   5.729   5.938
 3792SOL    HW112275   1.100   5.749   5.861
 3792SOL    HW212276   1.128   5.778   6.019
 3793SOL     OW12277   6.405   5.849   2.521
 3793SOL    HW112278   6.500   5.856   2.490
 3793SOL    HW212279   6.376   5.753   2.520
 3794SOL     OW12280   4.456   0.318   5.225
 3794SOL    HW112281   4.446   0.370   5.140
 3794SOL    HW212282   4.392   0.241   5.225
 3795SOL     OW12283   5.699   0.786   0.416
 3795SOL    HW112284   5.710   0.884   0.398
 3795SOL    HW212285   5.617   0.753   0.372
 3796SOL     OW12286   0.357   1.951   1.468
 3796SOL    HW112287   0.426   2.005   1.515
 3796SOL    HW212288   0.286   2.012   1.433
 3797SOL     OW12289   6.547   6.178   2.414
 3797SOL    HW112290   6.612   6.114   2.373
 3797SOL    HW212291   6.460   6.130   2.430
 3798SOL     OW12292   1.825   4.417   6.927
 3798SOL    HW112293   1.922   4.392   6.930
 3798SOL    HW212294   1.774   4.359   6.990
 3799SOL     OW12295   1.033   0.786   5.771
 3799SOL    HW112296   1.055   0.877   5.736
 3799SOL    HW212297   0.990   0.732   5.698
 3800SOL     OW12298   4.570   2.827   5.229
 3800SOL    HW112299   4.517   2.751   5.190
 3800SOL    HW212300   4.510   2.906   5.242
 3801SOL     OW12301   6.968   0.759   5.446
 3801SOL    HW112302   6.916   0.841   5.422
 3801SOL    HW212303   0.038   0.786   5.472
 3802SOL     OW12304   1.933   2.261   4.757
 3802SOL    HW112305   1.966   2.250   4.663
 3802SOL    HW212306   1.996   2.320   4.807
 3803SOL     OW12307   4.973   1.282   1.151
 3803SOL    HW112308   4.896   1.292   1.088
 3803SOL    HW212309   4.941   1.245   1.238
 3804SOL     OW12310   4.842   4.071   5.266
 3804SOL    HW112311   4.838   3.971   5.265
 3804SOL    HW212312   4.933   4.101   5.294
 3805SOL     OW12313   2.185   2.923   1.356
 3805SOL    HW112314   2.232   2.835   1.344
 3805SOL    HW212315   2.104   2.910   1.412
 3806SOL     OW12316   4.821   0.206   1.131
 3806SOL    HW112317   4.773   0.156   1.203
 3806SOL    HW212318   4.780   0.182   1.042
 3807SOL     OW12319   1.371   0.227   2.920
 3807SOL    HW112320   1.315   0.144   2.923
 3807SOL    HW212321   1.324   0.298   2.868
 3808SOL     OW12322   3.900   0.930   0.700
 3808SOL    HW112323   3.929   0.983   0.620
 3808SOL    HW212324   3.856   0.846   0.670
 3809SOL     OW12325   3.832   0.887   0.357
 3809SOL    HW112326   3.767   0.847   0.422
 3809SOL    HW212327   3.790   0.891   0.267
 3810SOL     OW12328   0.872   3.526   6.579
 3810SOL    HW112329   0.836   3.490   6.665
 3810SOL    HW212330   0.962   3.487   6.562
 3811SOL     OW12331   0.135   1.279   5.173
 3811SOL    HW112332   0.149   1.363   5.120
 3811SOL    HW212333   0.090   1.211   5.116
 3812SOL     OW12334   3.781   7.020   5.908
 3812SOL    HW112335   3.773   0.058   5.829
 3812SOL    HW212336   3.870   0.011   5.951
 3813SOL     OW12337   3.638   5.194   1.684
 3813SOL    HW112338   3.620   5.121   1.750
 3813SOL    HW212339   3.601   5.169   1.595
 3814SOL     OW12340   1.383   0.376   1.080
 3814SOL    HW112341   1.386   0.310   1.155
 3814SOL    HW212342   1.385   0.327   0.993
 3815SOL     OW12343   4.778   2.235   1.985
 3815SOL    HW112344   4.690   2.269   1.952
 3815SOL    HW212345   4.852   2.287   1.942
 3816SOL     OW12346   0.112   6.111   0.658
 3816SOL    HW112347   0.080   6.043   0.724
 3816SOL    HW212348   0.036   6.171   0.633
 3817SOL     OW12349   5.413   1.598   5.178
 3817SOL    HW112350   5.510   1.581   5.196
 3817SOL    HW212351   5.403   1.686   5.132
 3818SOL     OW12352   3.700   0.423   2.880
 3818SOL    HW112353   3.639   0.356   2.923
 3818SOL    HW212354   3.790   0.418   2.922
 3819SOL     OW12355   5.836   3.453   6.179
 3819SOL    HW112356   5.820   3.494   6.090
 3819SOL    HW212357   5.749   3.439   6.226
 3820SOL     OW12358   4.413   6.900   3.755
 3820SOL    HW112359   4.486   6.832   3.750
 3820SOL    HW212360   4.386   6.927   3.663
 3821SOL     OW12361   1.574   4.207   1.675
 3821SOL    HW112362   1.494   4.217   1.734
 3821SOL    HW212363   1.565   4.124   1.620
 3822SOL     OW12364   0.406   3.297   1.469
 3822SOL    HW112365   0.500   3.326   1.455
 3822SOL    HW212366   0.345   3.360   1.421
 3823SOL     OW12367   1.761   3.679   5.138
 3823SOL    HW112368   1.854   3.695   5.105
 3823SOL    HW212369   1.746   3.580   5.148
 3824SOL     OW12370   0.297   3.340   5.941
 3824SOL    HW112371   0.302   3.340   5.841
 3824SOL    HW212372   0.295   3.245   5.973
 3825SOL     OW12373   0.919   6.106   6.644
 3825SOL    HW112374   0.947   6.109   6.548
 3825SOL    HW212375   0.997   6.079   6.701
 3826SOL     OW12376   0.062   0.733   1.617
 3826SOL    HW112377   0.145   0.763   1.664
 3826SOL    HW212378   0.086   0.668   1.545
 3827SOL     OW12379   4.349   1.392   1.864
 3827SOL    HW112380   4.406   1.454   1.919
 3827SOL    HW212381   4.254   1.398   1.895
 3828SOL     OW12382   3.570   1.522   0.612
 3828SOL    HW112383   3.539   1.611   0.577
 3828SOL    HW212384   3.594   1.531   0.709
 3829SOL     OW12385   0.963   5.016   3.817
 3829SOL    HW112386   1.054   5.024   3.858
 3829SOL    HW212387   0.911   5.099   3.837
 3830SOL     OW12388   1.651   0.185   6.019
 3830SOL    HW112389   1.696   0.245   5.952
 3830SOL    HW212390   1.576   0.234   6.062
 3831SOL     OW12391   4.759   2.409   2.275
 3831SOL    HW112392   4.809   2.437   2.357
 3831SOL    HW212393   4.773   2.477   2.203
 3832SOL     OW12394   6.275   6.716   2.733
 3832SOL    HW112395   6.254   6.759   2.645
 3832SOL    HW212396   6.214   6.639   2.747
 3833SOL     OW12397   1.080   6.306   2.058
 3833SOL    HW112398   1.123   6.386   2.014
 3833SOL    HW212399   1.000   6.278   2.005
 3834SOL     OW12400   2.719   2.045   6.975
 3834SOL    HW112401   2.817   2.063   6.974
 3834SOL    HW212402   2.698   1.975   6.906
 3835SOL     OW12403   4.193   4.695   2.895
 3835SOL    HW112404   4.253   4.635   2.841
 3835SOL    HW212405   4.170   4.776   2.841
 3836SOL     OW12406   1.827   2.704   6.285
 3836SOL    HW112407   1.777   2.642   6.224
 3836SOL    HW212408   1.920   2.671   6.298
 3837SOL     OW12409   3.550   4.632   6.936
 3837SOL    HW112410   3.592   4.570   7.002
 3837SOL    HW212411   3.458   4.600   6.913
 3838SOL     OW12412   0.497   4.024   5.444
 3838SOL    HW112413   0.523   4.110   5.489
 3838SOL    HW212414   0.425   3.980   5.497
 3839SOL     OW12415   0.257   6.579   6.777
 3839SOL    HW112416   0.288   6.674   6.772
 3839SOL    HW212417   0.222   6.551   6.688
 3840SOL     OW12418   3.753   1.370   3.164
 3840SOL    HW112419   3.660   1.333   3.171
 3840SOL    HW212420   3.817   1.295   3.146
 3841SOL     OW12421   1.540   3.116   3.877
 3841SOL    HW112422   1.468   3.107   3.945
 3841SOL    HW212423   1.533   3.042   3.810
 3842SOL     OW12424   1.547   5.277   0.016
 3842SOL    HW112425   1.450   5.255   0.013
 3842SOL    HW212426   1.601   5.193   0.024
 3843SOL     OW12427   0.028   5.094   0.334
 3843SOL    HW112428   0.086   5.173   0.353
 3843SOL    HW212429   0.022   5.036   0.415
 3844SOL     OW12430   2.259   4.010   5.654
 3844SOL    HW112431   2.350   4.026   5.617
 3844SOL    HW212432   2.252   3.915   5.685
 3845SOL     OW12433   3.416   3.809   4.936
 3845SOL    HW112434   3.373   3.885   4.886
 3845SOL    HW212435   3.351   3.733   4.943
 3846SOL     OW12436   0.165   4.471   3.464
 3846SOL    HW112437   0.075   4.452   3.427
 3846SOL    HW212438   0.181   4.570   3.465
 3847SOL     OW12439   0.984   6.759   1.298
 3847SOL    HW112440   0.884   6.754   1.304
 3847SOL    HW212441   1.013   6.854   1.286
 3848SOL     OW12442   2.247   5.652   2.187
 3848SOL    HW112443   2.277   5.571   2.237
 3848SOL    HW212444   2.327   5.708   2.163
 3849SOL     OW12445   2.502   0.996   4.520
 3849SOL    HW112446   2.521   1.079   4.571
 3849SOL    HW212447   2.404   0.990   4.501
 3850SOL     OW12448   1.832   2.456   2.041
 3850SOL    HW112449   1.805   2.407   2.124
 3850SOL    HW212450   1.894   2.531   2.064
 3851SOL     OW12451   1.948   3.056   0.115
 3851SOL    HW112452   2.033   3.049   0.063
 3851SOL    HW212453   1.889   3.126   0.074
 3852SOL     OW12454   4.410   1.097   5.800
 3852SOL    HW112455   4.374   1.159   5.731
 3852SOL    HW212456   4.339   1.031   5.826
 3853SOL     OW12457   0.270   3.031   1.528
 3853SOL    HW112458   0.303   3.113   1.480
 3853SOL    HW212459   0.202   2.985   1.471
 3854SOL     OW12460   1.295   4.436   3.824
 3854SOL    HW112461   1.352   4.355   3.833
 3854SOL    HW212462   1.322   4.504   3.892
 3855SOL     OW12463   6.678   2.276   5.736
 3855SOL    HW112464   6.589   2.310   5.768
 3855SOL    HW212465   6.737   2.353   5.716
 3856SOL     OW12466   1.038   6.782   5.503
 3856SOL    HW112467   0.979   6.791   5.423
 3856SOL    HW212468   1.038   6.868   5.555
 3857SOL     OW12469   6.710   0.532   6.338
 3857SOL    HW112470   6.683   0.473   6.414
 3857SOL    HW212471   6.778   0.485   6.282
 3858SOL     OW12472   3.296   5.543   6.911
 3858SOL    HW112473   3.203   5.581   6.906
 3858SOL    HW212474   3.349   5.573   6.832
 3859SOL     OW12475   0.624   2.298   2.735
 3859SOL    HW112476   0.590   2.207   2.710
 3859SOL    HW212477   0.579   2.367   2.680
 3860SOL     OW12478   2.366   5.763   3.900
 3860SOL    HW112479   2.273   5.799   3.892
 3860SOL    HW212480   2.364   5.663   3.897
 3861SOL     OW12481   3.758   4.101   0.222
 3861SOL    HW112482   3.724   4.131   0.133
 3861SOL    HW212483   3.709   4.149   0.295
 3862SOL     OW12484   0.558   6.769   5.249
 3862SOL    HW112485   0.491   6.719   5.193
 3862SOL    HW212486   0.650   6.734   5.231
 3863SOL     OW12487   2.196   3.241   0.391
 3863SOL    HW112488   2.294   3.226   0.382
 3863SOL    HW212489   2.149   3.154   0.400
 3864SOL     OW12490   3.663   1.731   1.863
 3864SOL    HW112491   3.603   1.657   1.832
 3864SOL    HW212492   3.715   1.766   1.785
 3865SOL     OW12493   4.724   1.058   1.828
 3865SOL    HW112494   4.663   1.136   1.820
 3865SOL    HW212495   4.796   1.064   1.759
 3866SOL     OW12496   4.376   6.638   6.159
 3866SOL    HW112497   4.417   6.721   6.120
 3866SOL    HW212498   4.293   6.663   6.210
 3867SOL     OW12499   2.413   5.325   2.537
 3867SOL    HW112500   2.481   5.337   2.465
 3867SOL    HW212501   2.447   5.366   2.622
 3868SOL     OW12502   2.489   4.910   2.269
 3868SOL    HW112503   2.470   4.926   2.172
 3868SOL    HW212504   2.581   4.872   2.278
 3869SOL     OW12505   1.832   2.083   3.301
 3869SOL    HW112506   1.861   2.050   3.391
 3869SOL    HW212507   1.866   2.022   3.230
 3870SOL     OW12508   3.926   3.575   0.521
 3870SOL    HW112509   3.992   3.639   0.482
 3870SOL    HW212510   3.971   3.518   0.590
 3871SOL     OW12511   2.321   0.457   4.992
 3871SOL    HW112512   2.405   0.449   4.939
 3871SOL    HW212513   2.268   0.535   4.960
 3872SOL     OW12514   4.195   4.198   6.338
 3872SOL    HW112515   4.209   4.288   6.380
 3872SOL    HW212516   4.098   4.184   6.321
 3873SOL     OW12517   6.517   5.234   1.741
 3873SOL    HW112518   6.556   5.143   1.728
 3873SOL    HW212519   6.574   5.302   1.695
 3874SOL     OW12520   5.967   6.167   5.319
 3874SOL    HW112521   6.026   6.247   5.315
 3874SOL    HW212522   5.906   6.174   5.398
 3875SOL     OW12523   3.194   3.244   0.667
 3875SOL    HW112524   3.197   3.163   0.608
 3875SOL    HW212525   3.287   3.279   0.681
 3876SOL     OW12526   5.057   4.706   2.939
 3876SOL    HW112527   5.096   4.634   2.882
 3876SOL    HW212528   5.026   4.668   3.026
 3877SOL     OW12529   4.682   2.772   2.391
 3877SOL    HW112530   4.612   2.820   2.338
 3877SOL    HW212531   4.772   2.804   2.365
 3878SOL     OW12532   6.511   4.667   4.979
 3878SOL    HW112533   6.485   4.575   5.008
 3878SOL    HW212534   6.453   4.695   4.903
 3879SOL     OW12535   2.292   6.666   0.632
 3879SOL    HW112536   2.377   6.632   0.672
 3879SOL    HW212537   2.252   6.735   0.692
 3880SOL     OW12538   5.622   1.969   4.010
 3880SOL    HW112539   5.672   2.023   3.942
 3880SOL    HW212540   5.551   1.915   3.964
 3881SOL     OW12541   0.424   6.866   5.470
 3881SOL    HW112542   0.480   6.833   5.394
 3881SOL    HW212543   0.340   6.906   5.435
 3882SOL     OW12544   0.099   5.033   0.755
 3882SOL    HW112545   0.075   4.953   0.809
 3882SOL    HW212546   0.016   5.073   0.715
 3883SOL     OW12547   4.162   2.361   0.971
 3883SOL    HW112548   4.111   2.435   0.927
 3883SOL    HW212549   4.218   2.314   0.904
 3884SOL     OW12550   3.099   6.282   5.722
 3884SOL    HW112551   3.185   6.271   5.772
 3884SOL    HW212552   3.055   6.367   5.750
 3885SOL     OW12553   1.301   1.192   4.271
 3885SOL    HW112554   1.320   1.127   4.344
 3885SOL    HW212555   1.263   1.144   4.192
 3886SOL     OW12556   6.364   5.875   4.172
 3886SOL    HW112557   6.331   5.941   4.105
 3886SOL    HW212558   6.354   5.782   4.135
 3887SOL     OW12559   0.299   2.702   5.225
 3887SOL    HW112560   0.323   2.799   5.219
 3887SOL    HW212561   0.267   2.670   5.136
 3888SOL     OW12562   4.693   2.204   2.914
 3888SOL    HW112563   4.698   2.207   2.815
 3888SOL    HW212564   4.635   2.277   2.948
 3889SOL     OW12565   6.298   5.151   0.434
 3889SOL    HW112566   6.229   5.194   0.377
 3889SOL    HW212567   6.297   5.052   0.420
 3890SOL     OW12568   5.711   2.980   3.771
 3890SOL    HW112569   5.750   2.923   3.698
 3890SOL    HW212570   5.620   2.945   3.795
 3891SOL     OW12571   3.183   4.513   6.064
 3891SOL    HW112572   3.140   4.580   6.004
 3891SOL    HW212573   3.256   4.465   6.015
 3892SOL     OW12574   5.135   5.492   4.289
 3892SOL    HW112575   5.053   5.533   4.249
 3892SOL    HW212576   5.214   5.513   4.232
 3893SOL     OW12577   3.367   6.833   4.817
 3893SOL    HW112578   3.442   6.785   4.864
 3893SOL    HW212579   3.302   6.766   4.782
 3894SOL     OW12580   5.623   4.479   6.364
 3894SOL    HW112581   5.634   4.484   6.463
 3894SOL    HW212582   5.557   4.547   6.335
 3895SOL     OW12583   1.704   1.930   4.998
 3895SOL    HW112584   1.671   1.894   5.086
 3895SOL    HW212585   1.630   1.981   4.953
 3896SOL     OW12586   5.917   3.309   1.747
 3896SOL    HW112587   5.931   3.254   1.665
 3896SOL    HW212588   5.999   3.304   1.805
 3897SOL     OW12589   2.591   0.295   2.669
 3897SOL    HW112590   2.605   0.268   2.764
 3897SOL    HW212591   2.584   0.394   2.663
 3898SOL     OW12592   3.663   3.856   2.447
 3898SOL    HW112593   3.688   3.917   2.523
 3898SOL    HW212594   3.742   3.802   2.420
 3899SOL     OW12595   3.614   0.943   6.356
 3899SOL    HW112596   3.653   0.852   6.366
 3899SOL    HW212597   3.632   0.978   6.265
 3900SOL     OW12598   1.338   1.821   3.856
 3900SOL    HW112599   1.313   1.918   3.856
 3900SOL    HW212600   1.319   1.782   3.766
 3901SOL     OW12601   3.870   6.567   4.118
 3901SOL    HW112602   3.795   6.632   4.133
 3901SOL    HW212603   3.910   6.541   4.205
 3902SOL     OW12604   3.426   4.929   3.303
 3902SOL    HW112605   3.471   4.922   3.392
 3902SOL    HW212606   3.495   4.935   3.231
 3903SOL     OW12607   2.836   3.864   5.871
 3903SOL    HW112608   2.782   3.798   5.818
 3903SOL    HW212609   2.932   3.836   5.871
 3904SOL     OW12610   1.719   5.484   0.640
 3904SOL    HW112611   1.703   5.582   0.635
 3904SOL    HW212612   1.632   5.436   0.627
 3905SOL     OW12613   4.570   6.162   5.183
 3905SOL    HW112614   4.648   6.205   5.137
 3905SOL    HW212615   4.497   6.229   5.192
 3906SOL     OW12616   6.611   5.687   4.336
 3906SOL    HW112617   6.604   5.675   4.237
 3906SOL    HW212618   6.705   5.669   4.365
 3907SOL     OW12619   1.929   0.451   4.612
 3907SOL    HW112620   1.964   0.376   4.556
 3907SOL    HW212621   1.899   0.526   4.553
 3908SOL     OW12622   2.594   1.910   4.403
 3908SOL    HW112623   2.549   1.882   4.318
 3908SOL    HW212624   2.582   1.840   4.472
 3909SOL     OW12625   6.435   3.169   3.071
 3909SOL    HW112626   6.505   3.105   3.041
 3909SOL    HW212627   6.464   3.263   3.053
 3910SOL     OW12628   1.767   2.383   6.999
 3910SOL    HW112629   1.773   2.310   0.044
 3910SOL    HW212630   1.832   2.366   6.925
 3911SOL     OW12631   6.031   0.798   1.714
 3911SOL    HW112632   6.006   0.819   1.808
 3911SOL    HW212633   5.983   0.860   1.652
 3912SOL     OW12634   5.156   4.666   0.566
 3912SOL    HW112635   5.213   4.696   0.490
 3912SOL    HW212636   5.141   4.568   0.559
 3913SOL     OW12637   3.514   4.320   0.706
 3913SOL    HW112638   3.611   4.304   0.689
 3913SOL    HW212639   3.500   4.347   0.802
 3914SOL     OW12640   0.594   0.990   0.330
 3914SOL    HW112641   0.550   1.080   0.330
 3914SOL    HW212642   0.630   0.970   0.421
 3915SOL     OW12643   4.889   0.147   4.387
 3915SOL    HW112644   4.820   0.147   4.315
 3915SOL    HW212645   4.895   0.056   4.428
 3916SOL     OW12646   1.701   2.830   2.104
 3916SOL    HW112647   1.793   2.791   2.101
 3916SOL    HW212648   1.634   2.755   2.097
 3917SOL     OW12649   2.314   5.581   1.740
 3917SOL    HW112650   2.329   5.660   1.800
 3917SOL    HW212651   2.246   5.521   1.780
 3918SOL     OW12652   3.599   6.826   6.553
 3918SOL    HW112653   3.677   6.880   6.586
 3918SOL    HW212654   3.538   6.806   6.630
 3919SOL     OW12655   4.620   4.830   3.390
 3919SOL    HW112656   4.537   4.837   3.445
 3919SOL    HW212657   4.699   4.855   3.446
 3920SOL     OW12658   5.200   6.997   5.945
 3920SOL    HW112659   5.165   6.903   5.955
 3920SOL    HW212660   5.143   0.025   5.881
 3921SOL     OW12661   1.328   4.300   5.520
 3921SOL    HW112662   1.302   4.229   5.586
 3921SOL    HW212663   1.370   4.376   5.568
 3922SOL     OW12664   5.588   1.073   3.523
 3922SOL    HW112665   5.631   1.001   3.468
 3922SOL    HW212666   5.536   1.032   3.598
 3923SOL     OW12667   5.501   1.441   1.581
 3923SOL    HW112668   5.519   1.529   1.537
 3923SOL    HW212669   5.402   1.429   1.592
 3924SOL     OW12670   5.871   4.810   3.809
 3924SOL    HW112671   5.786   4.859   3.830
 3924SOL    HW212672   5.930   4.812   3.890
 3925SOL     OW12673   3.751   4.697   1.659
 3925SOL    HW112674   3.665   4.694   1.710
 3925SOL    HW212675   3.743   4.643   1.575
 3926SOL     OW12676   0.993   5.968   4.989
 3926SOL    HW112677   0.899   5.952   5.018
 3926SOL    HW212678   1.008   6.067   4.978
 3927SOL     OW12679   6.572   6.009   5.492
 3927SOL    HW112680   6.588   6.048   5.583
 3927SOL    HW212681   6.504   6.064   5.443
 3928SOL     OW12682   4.283   5.502   1.827
 3928SOL    HW112683   4.292   5.414   1.780
 3928SOL    HW212684   4.244   5.487   1.918
 3929SOL     OW12685   1.891   0.517   5.167
 3929SOL    HW112686   1.798   0.554   5.162
 3929SOL    HW212687   1.936   0.528   5.079
 3930SOL     OW12688   1.442   5.554   5.312
 3930SOL    HW112689   1.393   5.517   5.390
 3930SOL    HW212690   1.421   5.651   5.301
 3931SOL     OW12691   0.070   2.284   0.723
 3931SOL    HW112692   0.124   2.315   0.645
 3931SOL    HW212693   0.004   2.355   0.749
 3932SOL     OW12694   1.913   4.738   2.902
 3932SOL    HW112695   1.917   4.809   2.831
 3932SOL    HW212696   2.006   4.705   2.921
 3933SOL     OW12697   0.694   0.395   1.202
 3933SOL    HW112698   0.614   0.354   1.157
 3933SOL    HW212699   0.669   0.424   1.294
 3934SOL     OW12700   0.580   0.033   1.700
 3934SOL    HW112701   0.665   0.054   1.651
 3934SOL    HW212702   0.521   0.114   1.699
 3935SOL     OW12703   6.947   1.367   5.321
 3935SOL    HW112704   6.864   1.403   5.279
 3935SOL    HW212705   7.014   1.345   5.250
 3936SOL     OW12706   6.186   4.378   4.578
 3936SOL    HW112707   6.165   4.300   4.520
 3936SOL    HW212708   6.143   4.461   4.541
 3937SOL     OW12709   1.456   5.718   6.706
 3937SOL    HW112710   1.362   5.686   6.704
 3937SOL    HW212711   1.486   5.732   6.800
 3938SOL     OW12712   1.008   4.215   6.709
 3938SOL    HW112713   1.038   4.306   6.682
 3938SOL    HW212714   1.076   4.147   6.680
 3939SOL     OW12715   1.654   5.102   3.986
 3939SOL    HW112716   1.704   5.187   3.969
 3939SOL    HW212717   1.686   5.031   3.923
 3940SOL     OW12718   2.466   6.519   6.913
 3940SOL    HW112719   2.420   6.489   6.830
 3940SOL    HW212720   2.489   6.616   6.905
 3941SOL     OW12721   5.783   4.764   3.125
 3941SOL    HW112722   5.758   4.853   3.087
 3941SOL    HW212723   5.869   4.773   3.175
 3942SOL     OW12724   0.805   7.013   0.031
 3942SOL    HW112725   0.724   0.047   0.016
 3942SOL    HW212726   0.782   6.916   0.020
 3943SOL     OW12727   1.078   4.413   1.293
 3943SOL    HW112728   0.998   4.464   1.263
 3943SOL    HW212729   1.101   4.344   1.224
 3944SOL     OW12730   6.015   2.868   0.679
 3944SOL    HW112731   6.057   2.849   0.768
 3944SOL    HW212732   5.915   2.859   0.687
 3945SOL     OW12733   0.729   0.524   2.892
 3945SOL    HW112734   0.645   0.470   2.898
 3945SOL    HW212735   0.727   0.580   2.809
 3946SOL     OW12736   4.624   1.728   1.104
 3946SOL    HW112737   4.532   1.713   1.139
 3946SOL    HW212738   4.631   1.691   1.011
 3947SOL     OW12739   5.652   0.675   0.940
 3947SOL    HW112740   5.599   0.597   0.907
 3947SOL    HW212741   5.737   0.682   0.887
 3948SOL     OW12742   1.958   1.186   3.218
 3948SOL    HW112743   1.902   1.128   3.276
 3948SOL    HW212744   1.954   1.281   3.251
 3949SOL     OW12745   5.630   6.751   2.072
 3949SOL    HW112746   5.579   6.817   2.016
 3949SOL    HW212747   5.728   6.763   2.057
 3950SOL     OW12748   2.427   4.385   1.946
 3950SOL    HW112749   2.382   4.316   2.003
 3950SOL    HW212750   2.458   4.460   2.004
 3951SOL     OW12751   0.232   3.831   3.010
 3951SOL    HW112752   0.329   3.817   2.989
 3951SOL    HW212753   0.217   3.814   3.108
 3952SOL     OW12754   6.131   5.478   0.223
 3952SOL    HW112755   6.038   5.510   0.243
 3952SOL    HW212756   6.130   5.378   0.210
 3953SOL     OW12757   3.152   3.174   5.094
 3953SOL    HW112758   3.100   3.196   5.177
 3953SOL    HW212759   3.154   3.075   5.080
 3954SOL     OW12760   0.837   5.837   6.663
 3954SOL    HW112761   0.874   5.929   6.653
 3954SOL    HW212762   0.878   5.777   6.594
 3955SOL     OW12763   6.125   3.254   0.242
 3955SOL    HW112764   6.058   3.278   0.171
 3955SOL    HW212765   6.120   3.320   0.317
 3956SOL     OW12766   0.185   3.799   4.644
 3956SOL    HW112767   0.096   3.838   4.667
 3956SOL    HW212768   0.183   3.700   4.659
 3957SOL     OW12769   1.572   2.486   1.426
 3957SOL    HW112770   1.514   2.518   1.502
 3957SOL    HW212771   1.666   2.514   1.442
 3958SOL     OW12772   4.787   4.647   0.950
 3958SOL    HW112773   4.771   4.698   0.865
 3958SOL    HW212774   4.884   4.629   0.960
 3959SOL     OW12775   2.084   4.960   6.569
 3959SOL    HW112776   2.047   5.052   6.582
 3959SOL    HW212777   2.184   4.962   6.579
 3960SOL     OW12778   5.443   3.342   2.128
 3960SOL    HW112779   5.511   3.366   2.197
 3960SOL    HW212780   5.463   3.391   2.043
 3961SOL     OW12781   0.647   2.335   2.078
 3961SOL    HW112782   0.627   2.396   2.154
 3961SOL    HW212783   0.745   2.315   2.076
 3962SOL     OW12784   7.021   0.099   6.946
 3962SOL    HW112785   0.082   0.153   6.956
 3962SOL    HW212786   6.941   0.157   6.965
 3963SOL     OW12787   5.924   3.029   4.464
 3963SOL    HW112788   5.979   3.048   4.383
 3963SOL    HW212789   5.856   3.101   4.477
 3964SOL     OW12790   6.311   4.783   6.264
 3964SOL    HW112791   6.330   4.800   6.167
 3964SOL    HW212792   6.250   4.705   6.273
 3965SOL     OW12793   2.678   4.721   1.781
 3965SOL    HW112794   2.729   4.685   1.703
 3965SOL    HW212795   2.720   4.690   1.866
 3966SOL     OW12796   0.064   4.752   5.814
 3966SOL    HW112797   0.124   4.682   5.774
 3966SOL    HW212798   0.119   4.830   5.842
 3967SOL     OW12799   3.032   0.770   0.994
 3967SOL    HW112800   3.096   0.738   0.924
 3967SOL    HW212801   3.050   0.723   1.080
 3968SOL     OW12802   5.268   2.363   0.391
 3968SOL    HW112803   5.197   2.322   0.334
 3968SOL    HW212804   5.306   2.443   0.344
 3969SOL     OW12805   6.231   6.958   1.372
 3969SOL    HW112806   6.168   7.016   1.319
 3969SOL    HW212807   6.258   7.006   1.455
 3970SOL     OW12808   5.651   3.826   3.636
 3970SOL    HW112809   5.678   3.908   3.685
 3970SOL    HW212810   5.693   3.825   3.545
 3971SOL     OW12811   6.960   5.432   3.935
 3971SOL    HW112812   6.974   5.399   4.028
 3971SOL    HW212813   6.936   5.355   3.875
 3972SOL     OW12814   0.959   1.567   6.322
 3972SOL    HW112815   0.993   1.520   6.404
 3972SOL    HW212816   0.950   1.665   6.342
 3973SOL     OW12817   3.937   2.974   1.095
 3973SOL    HW112818   3.943   3.066   1.133
 3973SOL    HW212819   3.849   2.933   1.120
 3974SOL     OW12820   5.881   0.557   6.271
 3974SOL    HW112821   5.899   0.504   6.354
 3974SOL    HW212822   5.786   0.589   6.272
 3975SOL     OW12823   0.676   6.254   3.395
 3975SOL    HW112824   0.637   6.166   3.367
 3975SOL    HW212825   0.684   6.313   3.315
 3976SOL     OW12826   0.758   2.800   5.261
 3976SOL    HW112827   0.817   2.790   5.181
 3976SOL    HW212828   0.669   2.757   5.244
 3977SOL     OW12829   2.411   4.846   5.713
 3977SOL    HW112830   2.429   4.912   5.785
 3977SOL    HW212831   2.495   4.798   5.689
 3978SOL     OW12832   4.484   3.367   6.781
 3978SOL    HW112833   4.384   3.371   6.785
 3978SOL    HW212834   4.520   3.456   6.752
 3979SOL     OW12835   0.296   5.907   2.940
 3979SOL    HW112836   0.200   5.893   2.916
 3979SOL    HW212837   0.321   5.848   3.016
 3980SOL     OW12838   5.792   4.212   4.202
 3980SOL    HW112839   5.759   4.306   4.186
 3980SOL    HW212840   5.718   4.159   4.245
 3981SOL     OW12841   5.919   1.362   6.660
 3981SOL    HW112842   5.881   1.286   6.713
 3981SOL    HW212843   5.944   1.330   6.569
 3982SOL     OW12844   1.805   2.726   4.027
 3982SOL    HW112845   1.710   2.742   4.002
 3982SOL    HW212846   1.809   2.659   4.102
 3983SOL     OW12847   2.233   1.534   3.649
 3983SOL    HW112848   2.293   1.557   3.572
 3983SOL    HW212849   2.153   1.484   3.616
 3984SOL     OW12850   1.062   5.912   2.603
 3984SOL    HW112851   1.022   6.003   2.595
 3984SOL    HW212852   1.158   5.920   2.630
 3985SOL     OW12853   1.252   1.930   1.403
 3985SOL    HW112854   1.236   2.008   1.464
 3985SOL    HW212855   1.192   1.937   1.324
 3986SOL     OW12856   0.678   6.986   3.218
 3986SOL    HW112857   0.578   6.982   3.222
 3986SOL    HW212858   0.709   6.961   3.127
 3987SOL     OW12859   1.648   4.759   5.509
 3987SOL    HW112860   1.671   4.802   5.421
 3987SOL    HW212861   1.553   4.779   5.532
 3988SOL     OW12862   4.744   4.987   2.275
 3988SOL    HW112863   4.774   4.938   2.357
 3988SOL    HW212864   4.802   4.959   2.197
 3989SOL     OW12865   4.255   1.249   6.531
 3989SOL    HW112866   4.162   1.284   6.528
 3989SOL    HW212867   4.269   1.183   6.458
 3990SOL     OW12868   5.921   5.417   3.472
 3990SOL    HW112869   5.838   5.402   3.419
 3990SOL    HW212870   5.999   5.380   3.422
 3991SOL     OW12871   0.587   2.123   5.178
 3991SOL    HW112872   0.594   2.162   5.086
 3991SOL    HW212873   0.662   2.157   5.234
 3992SOL     OW12874   5.944   3.610   5.688
 3992SOL    HW112875   6.041   3.602   5.707
 3992SOL    HW212876   5.927   3.592   5.591
 3993SOL     OW12877   1.449   1.128   3.924
 3993SOL    HW112878   1.367   1.112   3.979
 3993SOL    HW212879   1.479   1.042   3.884
 3994SOL     OW12880   2.860   1.858   3.049
 3994SOL    HW112881   2.885   1.847   2.953
 3994SOL    HW212882   2.806   1.941   3.061
 3995SOL     OW12883   2.251   4.132   1.607
 3995SOL    HW112884   2.231   4.144   1.704
 3995SOL    HW212885   2.349   4.124   1.594
 3996SOL     OW12886   0.566   5.522   5.518
 3996SOL    HW112887   0.553   5.551   5.424
 3996SOL    HW212888   0.571   5.422   5.522
 3997SOL     OW12889   6.001   2.985   4.946
 3997SOL    HW112890   5.912   3.015   4.980
 3997SOL    HW212891   6.072   3.046   4.983
 3998SOL     OW12892   4.008   1.927   2.900
 3998SOL    HW112893   4.027   2.025   2.893
 3998SOL    HW212894   4.055   1.890   2.981
 3999SOL     OW12895   4.360   3.603   1.379
 3999SOL    HW112896   4.417   3.561   1.308
 3999SOL    HW212897   4.407   3.684   1.415
 4000SOL     OW12898   3.035   4.809   2.740
 4000SOL    HW112899   3.069   4.835   2.649
 4000SOL    HW212900   3.080   4.725   2.770
 4001SOL     OW12901   0.509   5.517   4.317
 4001SOL    HW112902   0.413   5.545   4.317
 4001SOL    HW212903   0.525   5.451   4.243
 4002SOL     OW12904   3.228   3.909   4.750
 4002SOL    HW112905   3.259   3.988   4.697
 4002SOL    HW212906   3.130   3.896   4.737
 4003SOL     OW12907   3.383   1.681   4.513
 4003SOL    HW112908   3.415   1.740   4.439
 4003SOL    HW212909   3.322   1.610   4.476
 4004SOL     OW12910   1.681   3.792   4.886
 4004SOL    HW112911   1.698   3.741   4.970
 4004SOL    HW212912   1.703   3.735   4.807
 4005SOL     OW12913   6.053   1.902   1.904
 4005SOL    HW112914   5.973   1.854   1.939
 4005SOL    HW212915   6.107   1.938   1.980
 4006SOL     OW12916   6.596   5.920   1.568
 4006SOL    HW112917   6.613   5.836   1.517
 4006SOL    HW212918   6.523   5.905   1.634
 4007SOL     OW12919   0.606   1.504   1.566
 4007SOL    HW112920   0.648   1.593   1.545
 4007SOL    HW212921   0.623   1.441   1.491
 4008SOL     OW12922   4.090   0.436   2.038
 4008SOL    HW112923   4.094   0.520   1.984
 4008SOL    HW212924   4.008   0.438   2.096
 4009SOL     OW12925   3.582   2.255   1.586
 4009SOL    HW112926   3.614   2.349   1.574
 4009SOL    HW212927   3.573   2.235   1.684
 4010SOL     OW12928   1.362   5.647   1.501
 4010SOL    HW112929   1.315   5.667   1.587
 4010SOL    HW212930   1.457   5.621   1.521
 4011SOL     OW12931   6.343   6.801   5.747
 4011SOL    HW112932   6.355   6.720   5.804
 4011SOL    HW212933   6.315   6.773   5.655
 4012SOL     OW12934   6.232   4.297   2.290
 4012SOL    HW112935   6.313   4.356   2.287
 4012SOL    HW212936   6.154   4.350   2.324
 4013SOL     OW12937   0.376   1.897   6.990
 4013SOL    HW112938   0.473   1.913   7.009
 4013SOL    HW212939   0.321   1.932   0.044
 4014SOL     OW12940   4.523   0.065   2.905
 4014SOL    HW112941   4.573   0.067   2.818
 4014SOL    HW212942   4.563   0.132   2.967
 4015SOL     OW12943   3.182   6.521   5.196
 4015SOL    HW112944   3.213   6.443   5.250
 4015SOL    HW212945   3.087   6.541   5.219
 4016SOL     OW12946   4.219   5.061   3.998
 4016SOL    HW112947   4.200   5.157   4.020
 4016SOL    HW212948   4.311   5.037   4.027
 4017SOL     OW12949   1.547   6.091   5.985
 4017SOL    HW112950   1.588   6.083   6.076
 4017SOL    HW212951   1.474   6.160   5.986
 4018SOL     OW12952   5.649   5.309   0.452
 4018SOL    HW112953   5.564   5.305   0.400
 4018SOL    HW212954   5.631   5.345   0.543
 4019SOL     OW12955   0.761   2.293   3.437
 4019SOL    HW112956   0.696   2.368   3.447
 4019SOL    HW212957   0.712   2.209   3.417
 4020SOL     OW12958   6.680   6.263   4.809
 4020SOL    HW112959   6.649   6.261   4.714
 4020SOL    HW212960   6.764   6.316   4.817
 4021SOL     OW12961   4.771   5.417   5.900
 4021SOL    HW112962   4.829   5.498   5.898
 4021SOL    HW212963   4.695   5.432   5.963
 4022SOL     OW12964   4.307   0.860   1.493
 4022SOL    HW112965   4.242   0.792   1.528
 4022SOL    HW212966   4.273   0.952   1.512
 4023SOL     OW12967   1.908   1.477   3.822
 4023SOL    HW112968   1.862   1.389   3.834
 4023SOL    HW212969   1.997   1.476   3.868
 4024SOL     OW12970   1.084   6.945   6.583
 4024SOL    HW112971   1.116   7.009   6.653
 4024SOL    HW212972   1.163   6.901   6.540
 4025SOL     OW12973   0.938   4.667   4.811
 4025SOL    HW112974   0.883   4.601   4.759
 4025SOL    HW212975   0.921   4.759   4.777
 4026SOL     OW12976   0.375   6.469   4.289
 4026SOL    HW112977   0.386   6.567   4.306
 4026SOL    HW212978   0.463   6.430   4.262
 4027SOL     OW12979   3.226   5.668   4.698
 4027SOL    HW112980   3.226   5.568   4.704
 4027SOL    HW212981   3.199   5.696   4.606
 4028SOL     OW12982   4.836   1.721   4.817
 4028SOL    HW112983   4.786   1.705   4.903
 4028SOL    HW212984   4.904   1.792   4.832
 4029SOL     OW12985   1.921   6.712   0.703
 4029SOL    HW112986   1.862   6.655   0.646
 4029SOL    HW212987   1.893   6.702   0.799
 4030SOL     OW12988   6.856   1.455   1.628
 4030SOL    HW112989   6.944   1.498   1.646
 4030SOL    HW212990   6.870   1.366   1.585
 4031SOL     OW12991   6.309   6.279   0.850
 4031SOL    HW112992   6.377   6.286   0.923
 4031SOL    HW212993   6.335   6.205   0.788
 4032SOL     OW12994   5.016   2.399   1.940
 4032SOL    HW112995   4.993   2.488   1.902
 4032SOL    HW212996   5.108   2.373   1.909
 4033SOL     OW12997   1.469   4.142   3.532
 4033SOL    HW112998   1.463   4.053   3.578
 4033SOL    HW212999   1.377   4.176   3.514
 4034SOL     OW13000   3.138   1.558   4.091
 4034SOL    HW113001   3.131   1.628   4.019
 4034SOL    HW213002   3.092   1.591   4.173
 4035SOL     OW13003   3.343   2.066   0.995
 4035SOL    HW113004   3.314   2.055   0.900
 4035SOL    HW213005   3.273   2.031   1.056
 4036SOL     OW13006   3.958   0.353   2.996
 4036SOL    HW113007   4.010   0.411   2.934
 4036SOL    HW213008   3.968   0.385   3.090
 4037SOL     OW13009   1.517   0.958   5.809
 4037SOL    HW113010   1.493   0.868   5.843
 4037SOL    HW213011   1.475   0.973   5.720
 4038SOL     OW13012   3.770   5.765   5.737
 4038SOL    HW113013   3.857   5.798   5.701
 4038SOL    HW213014   3.709   5.741   5.661
 4039SOL     OW13015   6.480   4.390   2.323
 4039SOL    HW113016   6.519   4.482   2.332
 4039SOL    HW213017   6.553   4.324   2.303
 4040SOL     OW13018   1.705   6.935   5.686
 4040SOL    HW113019   1.718   7.002   5.760
 4040SOL    HW213020   1.789   6.928   5.633
 4041SOL     OW13021   1.006   6.546   1.457
 4041SOL    HW113022   0.980   6.470   1.397
 4041SOL    HW213023   1.007   6.631   1.405
 4042SOL     OW13024   1.925   1.161   4.527
 4042SOL    HW113025   2.001   1.109   4.489
 4042SOL    HW213026   1.961   1.240   4.577
 4043SOL     OW13027   4.217   2.901   5.341
 4043SOL    HW113028   4.224   2.912   5.440
 4043SOL    HW213029   4.300   2.935   5.297
 4044SOL     OW13030   4.580   4.446   3.777
 4044SOL    HW113031   4.557   4.450   3.680
 4044SOL    HW213032   4.679   4.438   3.788
 4045SOL     OW13033   4.587   1.362   4.849
 4045SOL    HW113034   4.505   1.414   4.824
 4045SOL    HW213035   4.619   1.310   4.770
 4046SOL     OW13036   5.230   0.546   4.840
 4046SOL    HW113037   5.191   0.547   4.932
 4046SOL    HW213038   5.320   0.589   4.843
 4047SOL     OW13039   2.500   2.796   6.736
 4047SOL    HW113040   2.551   2.823   6.654
 4047SOL    HW213041   2.526   2.855   6.812
 4048SOL     OW13042   4.791   2.485   3.257
 4048SOL    HW113043   4.822   2.420   3.327
 4048SOL    HW213044   4.711   2.448   3.210
 4049SOL     OW13045   3.996   3.084   2.176
 4049SOL    HW113046   4.016   3.101   2.080
 4049SOL    HW213047   3.919   3.021   2.184
 4050SOL     OW13048   6.799   4.968   2.729
 4050SOL    HW113049   6.780   5.010   2.640
 4050SOL    HW213050   6.884   4.915   2.723
 4051SOL     OW13051   5.775   0.235   3.604
 4051SOL    HW113052   5.779   0.255   3.701
 4051SOL    HW213053   5.868   0.220   3.569
 4052SOL     OW13054   4.623   0.981   5.063
 4052SOL    HW113055   4.640   0.939   4.974
 4052SOL    HW213056   4.710   1.014   5.101
 4053SOL     OW13057   0.635   4.835   2.928
 4053SOL    HW113058   0.692   4.890   2.989
 4053SOL    HW213059   0.694   4.783   2.865
 4054SOL     OW13060   4.762   3.680   1.342
 4054SOL    HW113061   4.815   3.669   1.258
 4054SOL    HW213062   4.778   3.603   1.403
 4055SOL     OW13063   0.148   4.066   6.493
 4055SOL    HW113064   0.120   4.104   6.405
 4055SOL    HW213065   0.169   3.968   6.482
 4056SOL     OW13066   4.871   4.309   6.704
 4056SOL    HW113067   4.927   4.327   6.785
 4056SOL    HW213068   4.926   4.324   6.622
 4057SOL     OW13069   6.811   5.501   5.037
 4057SOL    HW113070   6.780   5.538   5.124
 4057SOL    HW213071   6.797   5.401   5.036
 4058SOL     OW13072   3.161   0.798   3.550
 4058SOL    HW113073   3.199   0.710   3.523
 4058SOL    HW213074   3.068   0.807   3.514
 4059SOL     OW13075   2.105   0.824   3.471
 4059SOL    HW113076   2.106   0.808   3.372
 4059SOL    HW213077   2.145   0.914   3.490
 4060SOL     OW13078   6.869   6.500   3.798
 4060SOL    HW113079   6.789   6.492   3.739
 4060SOL    HW213080   6.920   6.414   3.797
 4061SOL     OW13081   1.430   3.826   2.531
 4061SOL    HW113082   1.498   3.754   2.540
 4061SOL    HW213083   1.394   3.850   2.621
 4062SOL     OW13084   2.504   3.729   0.438
 4062SOL    HW113085   2.514   3.748   0.340
 4062SOL    HW213086   2.552   3.644   0.460
 4063SOL     OW13087   3.860   1.188   1.740
 4063SOL    HW113088   3.898   1.126   1.672
 4063SOL    HW213089   3.901   1.170   1.829
 4064SOL     OW13090   2.548   0.037   4.662
 4064SOL    HW113091   2.613   7.011   4.603
 4064SOL    HW213092   2.455   0.012   4.636
 4065SOL     OW13093   2.279   0.736   2.001
 4065SOL    HW113094   2.205   0.710   1.939
 4065SOL    HW213095   2.243   0.746   2.094
 4066SOL     OW13096   0.269   3.722   5.034
 4066SOL    HW113097   0.265   3.817   5.065
 4066SOL    HW213098   0.365   3.696   5.020
 4067SOL     OW13099   5.672   3.960   1.761
 4067SOL    HW113100   5.583   3.997   1.736
 4067SOL    HW213101   5.737   4.036   1.773
 4068SOL     OW13102   2.300   2.561   5.875
 4068SOL    HW113103   2.388   2.559   5.924
 4068SOL    HW213104   2.231   2.604   5.933
 4069SOL     OW13105   4.265   1.038   6.355
 4069SOL    HW113106   4.175   1.010   6.322
 4069SOL    HW213107   4.320   0.956   6.374
 4070SOL     OW13108   2.030   4.650   4.460
 4070SOL    HW113109   1.987   4.666   4.549
 4070SOL    HW213110   2.081   4.564   4.463
 4071SOL     OW13111   1.238   0.388   4.564
 4071SOL    HW113112   1.156   0.341   4.598
 4071SOL    HW213113   1.268   0.344   4.479
 4072SOL     OW13114   2.918   5.897   2.028
 4072SOL    HW113115   2.832   5.867   1.987
 4072SOL    HW213116   2.959   5.822   2.079
 4073SOL     OW13117   4.943   5.164   6.694
 4073SOL    HW113118   4.996   5.235   6.648
 4073SOL    HW213119   4.877   5.125   6.629
 4074SOL     OW13120   1.670   5.386   1.951
 4074SOL    HW113121   1.574   5.381   1.925
 4074SOL    HW213122   1.691   5.478   1.985
 4075SOL     OW13123   5.710   6.984   6.318
 4075SOL    HW113124   5.719   0.042   6.376
 4075SOL    HW213125   5.690   7.012   6.225
 4076SOL     OW13126   2.068   5.410   3.149
 4076SOL    HW113127   2.122   5.356   3.085
 4076SOL    HW213128   1.982   5.364   3.168
 4077SOL     OW13129   2.425   2.017   1.021
 4077SOL    HW113130   2.424   2.112   0.987
 4077SOL    HW213131   2.498   2.006   1.088
 4078SOL     OW13132   4.471   4.569   2.210
 4078SOL    HW113133   4.379   4.586   2.244
 4078SOL    HW213134   4.468   4.500   2.138
 4079SOL     OW13135   0.862   3.192   4.149
 4079SOL    HW113136   0.907   3.210   4.237
 4079SOL    HW213137   0.866   3.274   4.092
 4080SOL     OW13138   6.602   2.303   4.844
 4080SOL    HW113139   6.589   2.310   4.943
 4080SOL    HW213140   6.540   2.234   4.807
 4081SOL     OW13141   6.138   3.784   2.142
 4081SOL    HW113142   6.060   3.779   2.080
 4081SOL    HW213143   6.160   3.880   2.160
 4082SOL     OW13144   0.142   3.435   1.368
 4082SOL    HW113145   0.125   3.513   1.429
 4082SOL    HW213146   0.079   3.361   1.390
 4083SOL     OW13147   6.776   3.939   5.978
 4083SOL    HW113148   6.772   4.039   5.970
 4083SOL    HW213149   6.797   3.915   6.073
 4084SOL     OW13150   4.130   0.291   4.399
 4084SOL    HW113151   4.081   0.340   4.471
 4084SOL    HW213152   4.089   0.312   4.310
 4085SOL     OW13153   2.500   5.058   6.243
 4085SOL    HW113154   2.581   5.116   6.238
 4085SOL    HW213155   2.518   4.981   6.304
 4086SOL     OW13156   0.289   2.173   2.282
 4086SOL    HW113157   0.269   2.270   2.274
 4086SOL    HW213158   0.344   2.144   2.204
 4087SOL     OW13159   1.265   0.451   2.791
 4087SOL    HW113160   1.214   0.533   2.764
 4087SOL    HW213161   1.265   0.385   2.717
 4088SOL     OW13162   0.611   3.358   6.265
 4088SOL    HW113163   0.624   3.261   6.243
 4088SOL    HW213164   0.698   3.406   6.255
 4089SOL     OW13165   0.689   2.648   5.699
 4089SOL    HW113166   0.756   2.577   5.681
 4089SOL    HW213167   0.610   2.609   5.747
 4090SOL     OW13168   3.213   5.932   6.148
 4090SOL    HW113169   3.227   5.852   6.091
 4090SOL    HW213170   3.189   6.010   6.091
 4091SOL     OW13171   4.213   5.716   1.347
 4091SOL    HW113172   4.280   5.757   1.285
 4091SOL    HW213173   4.125   5.762   1.337
 4092SOL     OW13174   0.956   0.702   3.454
 4092SOL    HW113175   0.870   0.751   3.440
 4092SOL    HW213176   0.943   0.605   3.431
 4093SOL     OW13177   4.430   0.092   3.949
 4093SOL    HW113178   4.439   0.013   3.888
 4093SOL    HW213179   4.442   0.176   3.897
 4094SOL     OW13180   3.381   2.878   5.941
 4094SOL    HW113181   3.433   2.812   5.886
 4094SOL    HW213182   3.297   2.902   5.894
 4095SOL     OW13183   1.944   4.143   6.018
 4095SOL    HW113184   2.000   4.209   5.968
 4095SOL    HW213185   1.984   4.052   6.009
 4096SOL     OW13186   4.395   4.564   1.228
 4096SOL    HW113187   4.384   4.587   1.325
 4096SOL    HW213188   4.482   4.517   1.214
 4097SOL     OW13189   3.380   3.752   3.172
 4097SOL    HW113190   3.318   3.674   3.165
 4097SOL    HW213191   3.334   3.827   3.218
 4098SOL     OW13192   1.680   3.116   2.126
 4098SOL    HW113193   1.747   3.119   2.200
 4098SOL    HW213194   1.661   3.020   2.102
 4099SOL     OW13195   2.486   6.033   1.046
 4099SOL    HW113196   2.462   5.955   0.989
 4099SOL    HW213197   2.412   6.100   1.044
 4100SOL     OW13198   3.459   0.514   2.480
 4100SOL    HW113199   3.498   0.422   2.488
 4100SOL    HW213200   3.504   0.575   2.545
 4101SOL     OW13201   4.811   1.396   6.886
 4101SOL    HW113202   4.871   1.351   6.820
 4101SOL    HW213203   4.736   1.334   6.909
 4102SOL     OW13204   5.294   1.640   5.907
 4102SOL    HW113205   5.352   1.683   5.838
 4102SOL    HW213206   5.332   1.550   5.929
 4103SOL     OW13207   6.530   0.702   1.850
 4103SOL    HW113208   6.593   0.778   1.832
 4103SOL    HW213209   6.461   0.731   1.915
 4104SOL     OW13210   2.007   4.021   2.163
 4104SOL    HW113211   2.020   3.988   2.070
 4104SOL    HW213212   1.933   4.089   2.164
 4105SOL     OW13213   6.071   4.580   0.089
 4105SOL    HW113214   6.110   4.488   0.090
 4105SOL    HW213215   5.976   4.576   0.060
 4106SOL     OW13216   0.461   3.122   3.762
 4106SOL    HW113217   0.367   3.154   3.777
 4106SOL    HW213218   0.472   3.095   3.667
 4107SOL     OW13219   6.868   0.686   1.278
 4107SOL    HW113220   6.789   0.746   1.290
 4107SOL    HW213221   6.930   0.726   1.211
 4108SOL     OW13222   6.497   2.633   5.103
 4108SOL    HW113223   6.541   2.543   5.102
 4108SOL    HW213224   6.451   2.650   5.016
 4109SOL     OW13225   2.062   6.240   4.366
 4109SOL    HW113226   2.142   6.296   4.389
 4109SOL    HW213227   2.092   6.150   4.337
 4110SOL     OW13228   4.706   3.209   5.314
 4110SOL    HW113229   4.711   3.308   5.332
 4110SOL    HW213230   4.744   3.189   5.224
 4111SOL     OW13231   4.073   3.762   6.760
 4111SOL    HW113232   4.065   3.822   6.839
 4111SOL    HW213233   4.103   3.816   6.681
 4112SOL     OW13234   3.691   1.069   6.053
 4112SOL    HW113235   3.591   1.068   6.051
 4112SOL    HW213236   3.726   0.995   5.995
 4113SOL     OW13237   3.300   5.887   4.030
 4113SOL    HW113238   3.298   5.926   4.122
 4113SOL    HW213239   3.394   5.882   3.998
 4114SOL     OW13240   3.449   1.015   3.219
 4114SOL    HW113241   3.365   0.989   3.171
 4114SOL    HW213242   3.461   0.956   3.299
 4115SOL     OW13243   5.310   3.882   3.038
 4115SOL    HW113244   5.402   3.871   3.077
 4115SOL    HW213245   5.299   3.975   3.004
 4116SOL     OW13246   2.562   1.085   1.797
 4116SOL    HW113247   2.520   1.058   1.711
 4116SOL    HW213248   2.661   1.077   1.790
 4117SOL     OW13249   1.227   5.380   2.077
 4117SOL    HW113250   1.218   5.395   2.175
 4117SOL    HW213251   1.151   5.425   2.030
 4118SOL     OW13252   1.548   0.749   5.432
 4118SOL    HW113253   1.452   0.737   5.405
 4118SOL    HW213254   1.555   0.826   5.496
 4119SOL     OW13255   4.905   1.197   3.480
 4119SOL    HW113256   4.848   1.237   3.409
 4119SOL    HW213257   4.939   1.108   3.449
 4120SOL     OW13258   5.615   0.832   1.682
 4120SOL    HW113259   5.683   0.784   1.737
 4120SOL    HW213260   5.540   0.862   1.741
 4121SOL     OW13261   5.223   2.586   3.619
 4121SOL    HW113262   5.150   2.557   3.556
 4121SOL    HW213263   5.276   2.506   3.647
 4122SOL     OW13264   1.986   4.796   6.751
 4122SOL    HW113265   1.995   4.866   6.680
 4122SOL    HW213266   1.912   4.733   6.726
 4123SOL     OW13267   3.283   3.561   5.209
 4123SOL    HW113268   3.306   3.611   5.293
 4123SOL    HW213269   3.316   3.467   5.216
 4124SOL     OW13270   4.407   6.800   2.721
 4124SOL    HW113271   4.431   6.851   2.805
 4124SOL    HW213272   4.308   6.788   2.717
 4125SOL     OW13273   4.059   1.963   1.968
 4125SOL    HW113274   3.976   1.980   2.021
 4125SOL    HW213275   4.094   2.049   1.932
 4126SOL     OW13276   1.663   3.954   4.553
 4126SOL    HW113277   1.746   3.900   4.561
 4126SOL    HW213278   1.632   3.952   4.458
 4127SOL     OW13279   5.314   5.084   3.629
 4127SOL    HW113280   5.300   5.150   3.555
 4127SOL    HW213281   5.401   5.103   3.675
 4128SOL     OW13282   6.439   1.968   1.942
 4128SOL    HW113283   6.406   1.942   1.851
 4128SOL    HW213284   6.363   1.975   2.005
 4129SOL     OW13285   0.180   2.647   6.811
 4129SOL    HW113286   0.192   2.666   6.908
 4129SOL    HW213287   0.111   2.576   6.800
 4130SOL     OW13288   6.223   2.804   0.895
 4130SOL    HW113289   6.144   2.755   0.931
 4130SOL    HW213290   6.274   2.744   0.834
 4131SOL     OW13291   6.718   4.010   3.603
 4131SOL    HW113292   6.650   4.080   3.625
 4131SOL    HW213293   6.807   4.053   3.591
 4132SOL     OW13294   4.878   1.420   4.241
 4132SOL    HW113295   4.794   1.444   4.290
 4132SOL    HW213296   4.900   1.324   4.258
 4133SOL     OW13297   2.368   2.831   0.586
 4133SOL    HW113298   2.444   2.869   0.638
 4133SOL    HW213299   2.403   2.788   0.503
 4134SOL     OW13300   2.047   1.611   6.483
 4134SOL    HW113301   2.114   1.680   6.509
 4134SOL    HW213302   1.977   1.604   6.555
 4135SOL     OW13303   1.417   0.879   0.927
 4135SOL    HW113304   1.371   0.794   0.954
 4135SOL    HW213305   1.370   0.957   0.970
 4136SOL     OW13306   1.950   2.036   3.551
 4136SOL    HW113307   1.969   1.938   3.539
 4136SOL    HW213308   1.898   2.049   3.635
 4137SOL     OW13309   3.990   3.145   4.902
 4137SOL    HW113310   3.971   3.228   4.955
 4137SOL    HW213311   3.944   3.067   4.945
 4138SOL     OW13312   4.731   5.353   1.190
 4138SOL    HW113313   4.656   5.317   1.135
 4138SOL    HW213314   4.759   5.442   1.154
 4139SOL     OW13315   3.774   1.755   0.085
 4139SOL    HW113316   3.826   1.679   0.045
 4139SOL    HW213317   3.831   1.837   0.084
 4140SOL     OW13318   4.494   2.214   4.917
 4140SOL    HW113319   4.572   2.219   4.978
 4140SOL    HW213320   4.462   2.307   4.896
 4141SOL     OW13321   5.058   6.298   0.898
 4141SOL    HW113322   5.048   6.334   0.805
 4141SOL    HW213323   5.136   6.341   0.942
 4142SOL     OW13324   6.050   2.901   2.297
 4142SOL    HW113325   6.137   2.941   2.326
 4142SOL    HW213326   5.986   2.974   2.272
 4143SOL     OW13327   2.049   2.338   1.933
 4143SOL    HW113328   2.069   2.350   1.835
 4143SOL    HW213329   1.975   2.400   1.959
 4144SOL     OW13330   4.414   0.769   2.737
 4144SOL    HW113331   4.441   0.709   2.812
 4144SOL    HW213332   4.372   0.852   2.774
 4145SOL     OW13333   2.877   0.723   3.047
 4145SOL    HW113334   2.817   0.792   3.007
 4145SOL    HW213335   2.875   0.640   2.991
 4146SOL     OW13336   4.949   4.874   0.464
 4146SOL    HW113337   4.954   4.894   0.366
 4146SOL    HW213338   5.016   4.804   0.487
 4147SOL     OW13339   2.638   0.992   6.185
 4147SOL    HW113340   2.576   0.939   6.127
 4147SOL    HW213341   2.600   0.999   6.277
 4148SOL     OW13342   0.198   6.382   2.346
 4148SOL    HW113343   0.140   6.413   2.270
 4148SOL    HW213344   0.160   6.417   2.432
 4149SOL     OW13345   4.233   4.743   2.581
 4149SOL    HW113346   4.286   4.824   2.556
 4149SOL    HW213347   4.136   4.759   2.560
 4150SOL     OW13348   3.628   0.428   4.361
 4150SOL    HW113349   3.573   0.439   4.443
 4150SOL    HW213350   3.693   0.353   4.374
 4151SOL     OW13351   0.378   5.163   0.961
 4151SOL    HW113352   0.462   5.213   0.984
 4151SOL    HW213353   0.299   5.212   0.999
 4152SOL     OW13354   3.572   4.474   1.049
 4152SOL    HW113355   3.644   4.406   1.062
 4152SOL    HW213356   3.492   4.430   1.008
 4153SOL     OW13357   6.463   6.069   6.855
 4153SOL    HW113358   6.381   6.111   6.893
 4153SOL    HW213359   6.443   5.976   6.824
 4154SOL     OW13360   4.024   2.208   4.524
 4154SOL    HW113361   4.124   2.207   4.524
 4154SOL    HW213362   3.991   2.292   4.481
 4155SOL     OW13363   0.724   3.514   1.066
 4155SOL    HW113364   0.791   3.531   0.994
 4155SOL    HW213365   0.715   3.596   1.123
 4156SOL     OW13366   5.910   0.662   5.489
 4156SOL    HW113367   5.967   0.712   5.423
 4156SOL    HW213368   5.969   0.607   5.548
 4157SOL     OW13369   4.136   1.012   4.088
 4157SOL    HW113370   4.157   0.961   4.172
 4157SOL    HW213371   4.155   1.109   4.104
 4158SOL     OW13372   0.773   6.881   3.439
 4158SOL    HW113373   0.729   6.927   3.516
 4158SOL    HW213374   0.726   6.906   3.354
 4159SOL     OW13375   0.875   4.874   5.219
 4159SOL    HW113376   0.947   4.880   5.289
 4159SOL    HW213377   0.791   4.916   5.253
 4160SOL     OW13378   6.191   1.384   1.493
 4160SOL    HW113379   6.110   1.381   1.435
 4160SOL    HW213380   6.166   1.360   1.587
 4161SOL     OW13381   5.946   1.736   2.384
 4161SOL    HW113382   6.032   1.773   2.350
 4161SOL    HW213383   5.924   1.652   2.336
 4162SOL     OW13384   0.398   0.357   4.495
 4162SOL    HW113385   0.398   0.319   4.403
 4162SOL    HW213386   0.362   0.290   4.559
 4163SOL     OW13387   0.673   2.114   5.563
 4163SOL    HW113388   0.650   2.017   5.556
 4163SOL    HW213389   0.768   2.129   5.536
 4164SOL     OW13390   2.220   0.050   5.379
 4164SOL    HW113391   2.284   0.034   5.304
 4164SOL    HW213392   2.131   0.076   5.342
 4165SOL     OW13393   0.721   5.831   2.065
 4165SOL    HW113394   0.661   5.856   2.141
 4165SOL    HW213395   0.739   5.733   2.067
 4166SOL     OW13396   6.629   1.679   2.945
 4166SOL    HW113397   6.709   1.708   2.998
 4166SOL    HW213398   6.655   1.608   2.880
 4167SOL     OW13399   1.391   2.765   0.959
 4167SOL    HW113400   1.375   2.686   1.019
 4167SOL    HW213401   1.306   2.818   0.952
 4168SOL     OW13402   2.440   5.942   0.642
 4168SOL    HW113403   2.454   5.873   0.714
 4168SOL    HW213404   2.404   5.897   0.560
 4169SOL     OW13405   6.335   3.233   6.941
 4169SOL    HW113406   6.356   3.329   6.964
 4169SOL    HW213407   6.274   3.195   7.010
 4170SOL     OW13408   2.819   0.997   5.307
 4170SOL    HW113409   2.875   0.916   5.286
 4170SOL    HW213410   2.824   1.016   5.405
 4171SOL     OW13411   6.614   2.637   1.488
 4171SOL    HW113412   6.685   2.580   1.447
 4171SOL    HW213413   6.526   2.616   1.445
 4172SOL     OW13414   2.687   0.117   0.500
 4172SOL    HW113415   2.639   0.188   0.447
 4172SOL    HW213416   2.622   0.047   0.528
 4173SOL     OW13417   4.227   4.022   5.421
 4173SOL    HW113418   4.134   4.003   5.391
 4173SOL    HW213419   4.292   3.976   5.361
 4174SOL     OW13420   4.414   0.902   3.541
 4174SOL    HW113421   4.428   1.001   3.540
 4174SOL    HW213422   4.327   0.880   3.498
 4175SOL     OW13423   2.671   0.654   1.706
 4175SOL    HW113424   2.627   0.648   1.796
 4175SOL    HW213425   2.605   0.690   1.640
 4176SOL     OW13426   5.682   4.996   3.003
 4176SOL    HW113427   5.735   5.078   3.025
 4176SOL    HW213428   5.675   4.985   2.904
 4177SOL     OW13429   0.757   5.942   3.136
 4177SOL    HW113430   0.678   5.990   3.176
 4177SOL    HW213431   0.828   6.009   3.114
 4178SOL     OW13432   3.957   2.482   5.421
 4178SOL    HW113433   3.882   2.545   5.399
 4178SOL    HW213434   4.018   2.474   5.343
 4179SOL     OW13435   0.360   1.707   0.552
 4179SOL    HW113436   0.339   1.654   0.470
 4179SOL    HW213437   0.409   1.649   0.618
 4180SOL     OW13438   5.941   3.860   1.977
 4180SOL    HW113439   5.860   3.808   1.950
 4180SOL    HW213440   5.964   3.926   1.905
 4181SOL     OW13441   5.361   1.228   6.729
 4181SOL    HW113442   5.406   1.297   6.787
 4181SOL    HW213443   5.295   1.177   6.784
 4182SOL     OW13444   6.283   0.043   4.042
 4182SOL    HW113445   6.219   6.991   4.022
 4182SOL    HW213446   6.232   0.124   4.071
 4183SOL     OW13447   0.333   0.827   1.700
 4183SOL    HW113448   0.364   0.911   1.745
 4183SOL    HW213449   0.405   0.758   1.705
 4184SOL     OW13450   3.993   4.741   6.423
 4184SOL    HW113451   3.923   4.812   6.420
 4184SOL    HW213452   3.950   4.651   6.411
 4185SOL     OW13453   0.231   1.525   4.798
 4185SOL    HW113454   0.298   1.562   4.733
 4185SOL    HW213455   0.141   1.523   4.754
 4186SOL     OW13456   2.705   3.589   1.764
 4186SOL    HW113457   2.671   3.500   1.735
 4186SOL    HW213458   2.728   3.586   1.861
 4187SOL     OW13459   4.740   4.959   5.854
 4187SOL    HW113460   4.825   5.011   5.849
 4187SOL    HW213461   4.667   5.018   5.889
 4188SOL     OW13462   5.624   6.144   2.605
 4188SOL    HW113463   5.680   6.227   2.608
 4188SOL    HW213464   5.565   6.146   2.525
 4189SOL     OW13465   1.076   3.569   3.187
 4189SOL    HW113466   0.997   3.556   3.247
 4189SOL    HW213467   1.114   3.480   3.162
 4190SOL     OW13468   2.166   6.097   1.444
 4190SOL    HW113469   2.120   6.176   1.404
 4190SOL    HW213470   2.120   6.071   1.529
 4191SOL     OW13471   0.209   2.180   3.971
 4191SOL    HW113472   0.273   2.242   3.925
 4191SOL    HW213473   0.158   2.231   4.040
 4192SOL     OW13474   6.009   5.982   3.613
 4192SOL    HW113475   5.927   5.930   3.590
 4192SOL    HW213476   6.002   6.074   3.575
 4193SOL     OW13477   1.727   6.752   3.646
 4193SOL    HW113478   1.809   6.780   3.696
 4193SOL    HW213479   1.646   6.788   3.691
 4194SOL     OW13480   4.757   0.006   3.403
 4194SOL    HW113481   4.844   6.992   3.370
 4194SOL    HW213482   4.774   0.079   3.470
 4195SOL     OW13483   4.735   0.566   3.070
 4195SOL    HW113484   4.807   0.497   3.077
 4195SOL    HW213485   4.764   0.639   3.008
 4196SOL     OW13486   5.154   2.180   3.674
 4196SOL    HW113487   5.106   2.112   3.730
 4196SOL    HW213488   5.131   2.166   3.577
 4197SOL     OW13489   5.482   4.623   4.723
 4197SOL    HW113490   5.490   4.710   4.674
 4197SOL    HW213491   5.540   4.625   4.804
 4198SOL     OW13492   6.101   3.343   5.947
 4198SOL    HW113493   6.138   3.269   6.002
 4198SOL    HW213494   6.094   3.314   5.852
 4199SOL     OW13495   2.644   3.931   6.080
 4199SOL    HW113496   2.717   3.879   6.035
 4199SOL    HW213497   2.594   3.871   6.144
 4200SOL     OW13498   2.617   0.244   5.054
 4200SOL    HW113499   2.552   0.231   5.129
 4200SOL    HW213500   2.576   0.304   4.985
 4201SOL     OW13501   6.375   6.807   4.707
 4201SOL    HW113502   6.442   6.737   4.681
 4201SOL    HW213503   6.307   6.767   4.768
 4202SOL     OW13504   5.720   3.338   4.935
 4202SOL    HW113505   5.783   3.392   4.992
 4202SOL    HW213506   5.630   3.334   4.979
 4203SOL     OW13507   3.072   5.421   4.395
 4203SOL    HW113508   3.029   5.358   4.458
 4203SOL    HW213509   3.146   5.375   4.346
 4204SOL     OW13510   1.678   3.689   0.249
 4204SOL    HW113511   1.684   3.599   0.292
 4204SOL    HW213512   1.728   3.688   0.162
 4205SOL     OW13513   1.917   6.854   3.804
 4205SOL    HW113514   1.997   6.831   3.861
 4205SOL    HW213515   1.868   6.931   3.844
 4206SOL     OW13516   4.532   6.524   2.880
 4206SOL    HW113517   4.514   6.460   2.955
 4206SOL    HW213518   4.453   6.583   2.866
 4207SOL     OW13519   2.299   6.419   6.701
 4207SOL    HW113520   2.345   6.382   6.620
 4207SOL    HW213521   2.254   6.346   6.751
 4208SOL     OW13522   0.713   1.656   2.186
 4208SOL    HW113523   0.806   1.641   2.218
 4208SOL    HW213524   0.656   1.689   2.261
 4209SOL     OW13525   2.078   0.900   5.564
 4209SOL    HW113526   2.116   0.820   5.610
 4209SOL    HW213527   2.139   0.928   5.490
 4210SOL     OW13528   3.596   3.898   6.899
 4210SOL    HW113529   3.650   3.813   6.895
 4210SOL    HW213530   3.613   3.951   6.816
 4211SOL     OW13531   6.726   3.321   4.340
 4211SOL    HW113532   6.694   3.285   4.427
 4211SOL    HW213533   6.783   3.402   4.356
 4212SOL     OW13534   5.604   6.472   0.888
 4212SOL    HW113535   5.643   6.564   0.887
 4212SOL    HW213536   5.601   6.436   0.795
 4213SOL     OW13537   1.015   0.913   1.397
 4213SOL    HW113538   0.953   0.954   1.330
 4213SOL    HW213539   1.095   0.971   1.408
 4214SOL     OW13540   3.790   5.329   3.551
 4214SOL    HW113541   3.830   5.315   3.642
 4214SOL    HW213542   3.734   5.412   3.552
 4215SOL     OW13543   1.830   5.662   0.082
 4215SOL    HW113544   1.753   5.652   0.019
 4215SOL    HW213545   1.861   5.757   0.082
 4216SOL     OW13546   2.234   2.926   5.391
 4216SOL    HW113547   2.254   3.005   5.449
 4216SOL    HW213548   2.183   2.956   5.311
 4217SOL     OW13549   6.414   0.822   4.386
 4217SOL    HW113550   6.456   0.828   4.476
 4217SOL    HW213551   6.373   0.910   4.363
 4218SOL     OW13552   3.006   5.567   2.008
 4218SOL    HW113553   3.055   5.498   2.063
 4218SOL    HW213554   3.069   5.606   1.941
 4219SOL     OW13555   5.162   0.643   2.292
 4219SOL    HW113556   5.121   0.732   2.275
 4219SOL    HW213557   5.260   0.646   2.271
 4220SOL     OW13558   1.105   4.611   3.197
 4220SOL    HW113559   1.072   4.554   3.272
 4220SOL    HW213560   1.171   4.677   3.232
 4221SOL     OW13561   5.501   5.958   5.635
 4221SOL    HW113562   5.450   5.880   5.672
 4221SOL    HW213563   5.591   5.961   5.677
 4222SOL     OW13564   2.011   3.046   0.398
 4222SOL    HW113565   1.970   2.984   0.465
 4222SOL    HW213566   1.969   3.032   0.309
 4223SOL     OW13567   3.777   4.026   2.639
 4223SOL    HW113568   3.806   4.036   2.735
 4223SOL    HW213569   3.850   3.983   2.586
 4224SOL     OW13570   3.475   2.399   5.403
 4224SOL    HW113571   3.455   2.482   5.351
 4224SOL    HW213572   3.394   2.373   5.456
 4225SOL     OW13573   4.944   5.898   4.379
 4225SOL    HW113574   5.031   5.848   4.374
 4225SOL    HW213575   4.913   5.900   4.474
 4226SOL     OW13576   2.604   2.013   2.032
 4226SOL    HW113577   2.619   2.106   2.064
 4226SOL    HW213578   2.610   1.950   2.109
 4227SOL     OW13579   5.687   3.680   0.147
 4227SOL    HW113580   5.779   3.646   0.128
 4227SOL    HW213581   5.637   3.612   0.200
 4228SOL     OW13582   4.425   6.104   3.116
 4228SOL    HW113583   4.484   6.065   3.186
 4228SOL    HW213584   4.428   6.204   3.123
 4229SOL     OW13585   4.454   4.616   4.534
 4229SOL    HW113586   4.472   4.672   4.616
 4229SOL    HW213587   4.356   4.619   4.513
 4230SOL     OW13588   2.050   0.808   4.398
 4230SOL    HW113589   2.046   0.830   4.495
 4230SOL    HW213590   2.146   0.795   4.370
 4231SOL     OW13591   3.732   6.718   6.847
 4231SOL    HW113592   3.689   6.679   6.928
 4231SOL    HW213593   3.757   6.813   6.865
 4232SOL     OW13594   2.104   3.854   1.951
 4232SOL    HW113595   2.159   3.794   2.009
 4232SOL    HW213596   2.108   3.821   1.856
 4233SOL     OW13597   4.465   4.329   0.855
 4233SOL    HW113598   4.372   4.301   0.879
 4233SOL    HW213599   4.461   4.413   0.800
 4234SOL     OW13600   3.528   3.929   6.169
 4234SOL    HW113601   3.557   3.869   6.244
 4234SOL    HW213602   3.440   3.899   6.135
 4235SOL     OW13603   0.513   3.324   4.839
 4235SOL    HW113604   0.581   3.397   4.830
 4235SOL    HW213605   0.480   3.299   4.748
 4236SOL     OW13606   1.034   3.068   3.964
 4236SOL    HW113607   0.982   3.003   3.909
 4236SOL    HW213608   0.982   3.092   4.046
 4237SOL     OW13609   5.281   3.387   5.319
 4237SOL    HW113610   5.225   3.470   5.329
 4237SOL    HW213611   5.329   3.369   5.405
 4238SOL     OW13612   4.918   4.615   4.839
 4238SOL    HW113613   4.851   4.680   4.875
 4238SOL    HW213614   4.975   4.580   4.913
 4239SOL     OW13615   5.734   4.726   5.570
 4239SOL    HW113616   5.777   4.659   5.510
 4239SOL    HW213617   5.637   4.734   5.547
 4240SOL     OW13618   2.586   4.529   5.517
 4240SOL    HW113619   2.675   4.498   5.548
 4240SOL    HW213620   2.517   4.510   5.587
 4241SOL     OW13621   3.325   2.448   0.095
 4241SOL    HW113622   3.346   2.406   0.007
 4241SOL    HW213623   3.331   2.548   0.088
 4242SOL     OW13624   2.726   0.166   1.389
 4242SOL    HW113625   2.747   0.077   1.348
 4242SOL    HW213626   2.641   0.160   1.442
 4243SOL     OW13627   2.010   1.433   1.709
 4243SOL    HW113628   1.941   1.393   1.648
 4243SOL    HW213629   2.050   1.360   1.765
 4244SOL     OW13630   2.720   0.067   0.061
 4244SOL    HW113631   2.623   0.081   0.078
 4244SOL    HW213632   2.757   0.145   0.009
 4245SOL     OW13633   6.902   1.887   1.781
 4245SOL    HW113634   6.957   1.968   1.801
 4245SOL    HW213635   6.904   1.825   1.859
 4246SOL     OW13636   3.131   1.948   3.040
 4246SOL    HW113637   3.149   1.904   2.952
 4246SOL    HW213638   3.067   1.892   3.093
 4247SOL     OW13639   2.419   4.714   6.157
 4247SOL    HW113640   2.323   4.708   6.130
 4247SOL    HW213641   2.425   4.708   6.257
 4248SOL     OW13642   2.723   6.377   1.377
 4248SOL    HW113643   2.671   6.295   1.351
 4248SOL    HW213644   2.761   6.420   1.295
 4249SOL     OW13645   6.517   1.009   5.048
 4249SOL    HW113646   6.479   0.950   5.120
 4249SOL    HW213647   6.517   0.959   4.961
 4250SOL     OW13648   1.056   5.704   4.644
 4250SOL    HW113649   1.032   5.685   4.739
 4250SOL    HW213650   1.013   5.636   4.584
 4251SOL     OW13651   4.579   1.684   6.141
 4251SOL    HW113652   4.657   1.660   6.083
 4251SOL    HW213653   4.500   1.627   6.116
 4252SOL     OW13654   0.877   6.524   6.839
 4252SOL    HW113655   0.953   6.491   6.783
 4252SOL    HW213656   0.810   6.570   6.780
 4253SOL     OW13657   2.731   6.588   2.485
 4253SOL    HW113658   2.785   6.553   2.561
 4253SOL    HW213659   2.788   6.591   2.403
 4254SOL     OW13660   0.937   1.151   4.173
 4254SOL    HW113661   0.859   1.197   4.216
 4254SOL    HW213662   1.014   1.149   4.238
 4255SOL     OW13663   2.049   3.018   4.605
 4255SOL    HW113664   2.128   2.957   4.617
 4255SOL    HW213665   2.080   3.107   4.574
 4256SOL     OW13666   5.928   6.377   1.138
 4256SOL    HW113667   5.874   6.337   1.063
 4256SOL    HW213668   6.023   6.347   1.129
 4257SOL     OW13669   0.467   1.539   2.726
 4257SOL    HW113670   0.532   1.611   2.750
 4257SOL    HW213671   0.503   1.451   2.755
 4258SOL     OW13672   2.347   6.612   0.184
 4258SOL    HW113673   2.434   6.564   0.176
 4258SOL    HW213674   2.298   6.577   0.264
 4259SOL     OW13675   1.694   0.883   0.857
 4259SOL    HW113676   1.745   0.959   0.898
 4259SOL    HW213677   1.607   0.871   0.905
 4260SOL     OW13678   0.100   0.590   5.659
 4260SOL    HW113679   0.102   0.498   5.618
 4260SOL    HW213680   0.009   0.629   5.648
 4261SOL     OW13681   1.797   0.021   3.145
 4261SOL    HW113682   1.813   0.118   3.125
 4261SOL    HW213683   1.706   7.017   3.111
 4262SOL     OW13684   1.091   3.428   4.948
 4262SOL    HW113685   1.148   3.433   4.867
 4262SOL    HW213686   1.017   3.495   4.942
 4263SOL     OW13687   2.957   0.393   2.415
 4263SOL    HW113688   2.926   0.353   2.329
 4263SOL    HW213689   2.964   0.321   2.485
 4264SOL     OW13690   4.408   2.164   6.690
 4264SOL    HW113691   4.430   2.145   6.594
 4264SOL    HW213692   4.352   2.091   6.727
 4265SOL     OW13693   3.434   5.635   5.955
 4265SOL    HW113694   3.512   5.693   5.930
 4265SOL    HW213695   3.415   5.644   6.053
 4266SOL     OW13696   1.692   3.504   2.470
 4266SOL    HW113697   1.724   3.592   2.435
 4266SOL    HW213698   1.663   3.446   2.393
 4267SOL     OW13699   1.339   3.645   3.251
 4267SOL    HW113700   1.339   3.734   3.207
 4267SOL    HW213701   1.247   3.607   3.252
 4268SOL     OW13702   0.843   4.432   4.755
 4268SOL    HW113703   0.896   4.396   4.832
 4268SOL    HW213704   0.762   4.375   4.741
 4269SOL     OW13705   2.869   1.822   4.393
 4269SOL    HW113706   2.773   1.834   4.370
 4269SOL    HW213707   2.926   1.858   4.319
 4270SOL     OW13708   3.820   4.319   1.017
 4270SOL    HW113709   3.826   4.227   1.057
 4270SOL    HW213710   3.879   4.382   1.066
 4271SOL     OW13711   5.902   6.286   6.903
 4271SOL    HW113712   5.960   6.359   6.867
 4271SOL    HW213713   5.880   6.306   6.999
 4272SOL     OW13714   6.211   1.755   5.877
 4272SOL    HW113715   6.214   1.695   5.957
 4272SOL    HW213716   6.174   1.704   5.799
 4273SOL     OW13717   3.775   6.273   3.580
 4273SOL    HW113718   3.679   6.251   3.563
 4273SOL    HW213719   3.824   6.191   3.609
 4274SOL     OW13720   5.913   0.864   1.980
 4274SOL    HW113721   5.844   0.824   2.041
 4274SOL    HW213722   5.983   0.911   2.035
 4275SOL     OW13723   5.961   1.529   4.192
 4275SOL    HW113724   5.898   1.577   4.131
 4275SOL    HW213725   6.000   1.450   4.144
 4276SOL     OW13726   2.106   0.225   2.955
 4276SOL    HW113727   2.108   0.184   3.046
 4276SOL    HW213728   2.196   0.217   2.913
 4277SOL     OW13729   6.185   4.890   2.875
 4277SOL    HW113730   6.136   4.803   2.883
 4277SOL    HW213731   6.161   4.949   2.952
 4278SOL     OW13732   0.129   0.094   1.762
 4278SOL    HW113733   0.176   0.027   1.820
 4278SOL    HW213734   0.069   0.151   1.818
 4279SOL     OW13735   0.595   3.216   3.043
 4279SOL    HW113736   0.647   3.190   2.962
 4279SOL    HW213737   0.642   3.183   3.125
 4280SOL     OW13738   2.436   0.580   5.658
 4280SOL    HW113739   2.511   0.631   5.616
 4280SOL    HW213740   2.473   0.512   5.722
 4281SOL     OW13741   6.656   6.781   2.788
 4281SOL    HW113742   6.677   6.876   2.768
 4281SOL    HW213743   6.624   6.773   2.883
 4282SOL     OW13744   5.390   5.018   2.257
 4282SOL    HW113745   5.480   5.048   2.224
 4282SOL    HW213746   5.377   4.921   2.235
 4283SOL     OW13747   0.228   2.233   5.564
 4283SOL    HW113748   0.170   2.152   5.551
 4283SOL    HW213749   0.177   2.315   5.538
 4284SOL     OW13750   4.607   6.332   6.759
 4284SOL    HW113751   4.593   6.296   6.666
 4284SOL    HW213752   4.702   6.360   6.769
 4285SOL     OW13753   3.183   1.725   5.807
 4285SOL    HW113754   3.093   1.716   5.850
 4285SOL    HW213755   3.209   1.822   5.804
 4286SOL     OW13756   5.098   6.873   6.613
 4286SOL    HW113757   5.104   6.892   6.711
 4286SOL    HW213758   5.051   6.785   6.599
 4287SOL     OW13759   5.330   0.294   0.454
 4287SOL    HW113760   5.279   0.209   0.461
 4287SOL    HW213761   5.331   0.326   0.359
 4288SOL     OW13762   6.429   6.491   2.631
 4288SOL    HW113763   6.418   6.589   2.648
 4288SOL    HW213764   6.452   6.477   2.535
 4289SOL     OW13765   0.214   5.542   5.876
 4289SOL    HW113766   0.211   5.600   5.957
 4289SOL    HW213767   0.295   5.484   5.878
 4290SOL     OW13768   0.092   0.620   2.966
 4290SOL    HW113769   0.072   0.567   2.884
 4290SOL    HW213770   0.013   0.618   3.028
 4291SOL     OW13771   4.832   5.085   5.387
 4291SOL    HW113772   4.835   5.037   5.474
 4291SOL    HW213773   4.755   5.149   5.386
 4292SOL     OW13774   6.122   0.263   6.627
 4292SOL    HW113775   6.161   0.279   6.718
 4292SOL    HW213776   6.193   0.270   6.558
 4293SOL     OW13777   4.325   2.194   6.098
 4293SOL    HW113778   4.232   2.165   6.122
 4293SOL    HW213779   4.388   2.118   6.110
 4294SOL     OW13780   2.411   1.813   0.055
 4294SOL    HW113781   2.404   1.714   0.041
 4294SOL    HW213782   2.505   1.836   0.081
 4295SOL     OW13783   3.957   6.909   2.721
 4295SOL    HW113784   4.031   6.930   2.785
 4295SOL    HW213785   3.997   6.884   2.632
 4296SOL     OW13786   1.826   5.147   1.905
 4296SOL    HW113787   1.838   5.142   1.806
 4296SOL    HW213788   1.777   5.231   1.928
 4297SOL     OW13789   5.035   4.037   6.600
 4297SOL    HW113790   4.988   4.118   6.566
 4297SOL    HW213791   5.116   4.064   6.651
 4298SOL     OW13792   1.522   6.059   0.434
 4298SOL    HW113793   1.556   6.153   0.429
 4298SOL    HW213794   1.580   6.000   0.379
 4299SOL     OW13795   0.086   4.060   7.018
 4299SOL    HW113796   0.166   4.113   0.023
 4299SOL    HW213797   0.058   4.087   6.926
 4300SOL     OW13798   3.506   0.960   2.168
 4300SOL    HW113799   3.450   0.891   2.214
 4300SOL    HW213800   3.484   0.961   2.070
 4301SOL     OW13801   2.477   5.573   3.649
 4301SOL    HW113802   2.571   5.548   3.626
 4301SOL    HW213803   2.448   5.521   3.729
 4302SOL     OW13804   3.223   5.028   6.722
 4302SOL    HW113805   3.311   5.063   6.754
 4302SOL    HW213806   3.165   5.006   6.801
 4303SOL     OW13807   4.801   5.320   3.158
 4303SOL    HW113808   4.741   5.300   3.235
 4303SOL    HW213809   4.751   5.307   3.072
 4304SOL     OW13810   2.545   4.677   1.179
 4304SOL    HW113811   2.446   4.694   1.178
 4304SOL    HW213812   2.576   4.667   1.273
 4305SOL     OW13813   0.887   6.750   6.191
 4305SOL    HW113814   0.837   6.830   6.158
 4305SOL    HW213815   0.947   6.717   6.119
 4306SOL     OW13816   6.777   4.798   5.088
 4306SOL    HW113817   6.678   4.803   5.076
 4306SOL    HW213818   6.802   4.709   5.125
 4307SOL     OW13819   6.885   1.890   4.772
 4307SOL    HW113820   6.920   1.954   4.840
 4307SOL    HW213821   6.958   1.864   4.709
 4308SOL     OW13822   4.582   5.861   6.829
 4308SOL    HW113823   4.665   5.915   6.814
 4308SOL    HW213824   4.504   5.922   6.839
 4309SOL     OW13825   1.997   1.553   0.634
 4309SOL    HW113826   2.007   1.516   0.726
 4309SOL    HW213827   1.994   1.477   0.568
 4310SOL     OW13828   5.740   1.001   4.957
 4310SOL    HW113829   5.771   0.964   5.045
 4310SOL    HW213830   5.654   0.957   4.932
 4311SOL     OW13831   0.535   0.044   0.503
 4311SOL    HW113832   0.548   0.096   0.419
 4311SOL    HW213833   0.600   6.991   0.507
 4312SOL     OW13834   0.120   3.030   3.287
 4312SOL    HW113835   0.180   3.054   3.211
 4312SOL    HW213836   0.156   3.068   3.372
 4313SOL     OW13837   0.971   2.907   0.707
 4313SOL    HW113838   1.023   2.992   0.698
 4313SOL    HW213839   0.992   2.846   0.631
 4314SOL     OW13840   2.285   1.675   6.304
 4314SOL    HW113841   2.200   1.635   6.341
 4314SOL    HW213842   2.332   1.607   6.248
 4315SOL     OW13843   3.258   2.321   5.560
 4315SOL    HW113844   3.294   2.360   5.645
 4315SOL    HW213845   3.196   2.386   5.516
 4316SOL     OW13846   4.824   4.238   1.103
 4316SOL    HW113847   4.872   4.302   1.164
 4316SOL    HW213848   4.863   4.147   1.113
 4317SOL     OW13849   4.971   0.238   2.752
 4317SOL    HW113850   4.926   0.276   2.671
 4317SOL    HW213851   4.902   0.202   2.815
 4318SOL     OW13852   2.160   5.831   3.605
 4318SOL    HW113853   2.259   5.827   3.590
 4318SOL    HW213854   2.133   5.757   3.667
 4319SOL     OW13855   2.384   4.812   0.252
 4319SOL    HW113856   2.285   4.805   0.238
 4319SOL    HW213857   2.402   4.837   0.347
 4320SOL     OW13858   4.841   1.363   1.769
 4320SOL    HW113859   4.937   1.390   1.760
 4320SOL    HW213860   4.817   1.357   1.866
 4321SOL     OW13861   0.202   6.292   3.505
 4321SOL    HW113862   0.302   6.291   3.507
 4321SOL    HW213863   0.167   6.330   3.591
 4322SOL     OW13864   2.834   2.308   2.981
 4322SOL    HW113865   2.848   2.327   2.883
 4322SOL    HW213866   2.916   2.334   3.032
 4323SOL     OW13867   5.853   3.918   2.257
 4323SOL    HW113868   5.761   3.949   2.235
 4323SOL    HW213869   5.901   3.893   2.173
 4324SOL     OW13870   6.479   3.727   5.018
 4324SOL    HW113871   6.525   3.707   5.105
 4324SOL    HW213872   6.381   3.708   5.027
 4325SOL     OW13873   1.349   0.030   0.248
 4325SOL    HW113874   1.335   6.971   0.191
 4325SOL    HW213875   1.312   0.110   0.202
 4326SOL     OW13876   5.451   2.601   2.675
 4326SOL    HW113877   5.391   2.528   2.709
 4326SOL    HW213878   5.396   2.684   2.659
 4327SOL     OW13879   3.486   6.637   3.686
 4327SOL    HW113880   3.571   6.585   3.673
 4327SOL    HW213881   3.414   6.575   3.717
 4328SOL     OW13882   5.557   0.456   1.442
 4328SOL    HW113883   5.578   0.452   1.344
 4328SOL    HW213884   5.475   0.402   1.461
 4329SOL     OW13885   6.475   3.640   0.787
 4329SOL    HW113886   6.431   3.637   0.877
 4329SOL    HW213887   6.573   3.658   0.799
 4330SOL     OW13888   2.667   6.775   5.275
 4330SOL    HW113889   2.750   6.793   5.223
 4330SOL    HW213890   2.595   6.838   5.244
 4331SOL     OW13891   5.705   1.177   2.847
 4331SOL    HW113892   5.740   1.269   2.860
 4331SOL    HW213893   5.778   1.110   2.861
 4332SOL     OW13894   0.007   6.601   1.639
 4332SOL    HW113895   7.021   6.614   1.540
 4332SOL    HW213896   0.094   6.636   1.671
 4333SOL     OW13897   3.058   3.153   5.584
 4333SOL    HW113898   3.115   3.231   5.608
 4333SOL    HW213899   3.113   3.070   5.583
 4334SOL     OW13900   1.173   2.363   3.983
 4334SOL    HW113901   1.084   2.407   3.969
 4334SOL    HW213902   1.196   2.367   4.080
 4335SOL     OW13903   2.467   2.339   1.740
 4335SOL    HW113904   2.429   2.360   1.651
 4335SOL    HW213905   2.434   2.249   1.770
 4336SOL     OW13906   2.278   5.897   4.645
 4336SOL    HW113907   2.297   5.873   4.740
 4336SOL    HW213908   2.179   5.908   4.633
 4337SOL     OW13909   0.326   4.511   3.821
 4337SOL    HW113910   0.347   4.476   3.730
 4337SOL    HW213911   0.256   4.582   3.813
 4338SOL     OW13912   3.130   3.311   4.874
 4338SOL    HW113913   3.119   3.281   4.969
 4338SOL    HW213914   3.040   3.323   4.832
 4339SOL     OW13915   3.893   3.395   5.208
 4339SOL    HW113916   3.973   3.352   5.167
 4339SOL    HW213917   3.914   3.423   5.301
 4340SOL     OW13918   6.511   3.857   0.330
 4340SOL    HW113919   6.452   3.909   0.269
 4340SOL    HW213920   6.562   3.919   0.389
 4341SOL     OW13921   5.619   0.005   1.234
 4341SOL    HW113922   5.677   6.958   1.190
 4341SOL    HW213923   5.677   0.068   1.287
 4342SOL     OW13924   5.097   3.629   2.474
 4342SOL    HW113925   5.027   3.647   2.406
 4342SOL    HW213926   5.129   3.715   2.513
 4343SOL     OW13927   4.943   6.637   6.619
 4343SOL    HW113928   4.878   6.660   6.546
 4343SOL    HW213929   4.907   6.670   6.706
 4344SOL     OW13930   1.631   4.090   2.502
 4344SOL    HW113931   1.533   4.089   2.523
 4344SOL    HW213932   1.653   4.172   2.449
 4345SOL     OW13933   3.757   3.551   2.252
 4345SOL    HW113934   3.756   3.465   2.201
 4345SOL    HW213935   3.815   3.542   2.332
 4346SOL     OW13936   1.250   3.169   1.420
 4346SOL    HW113937   1.278   3.205   1.509
 4346SOL    HW213938   1.202   3.083   1.432
 4347SOL     OW13939   5.929   5.898   0.569
 4347SOL    HW113940   5.987   5.869   0.645
 4347SOL    HW213941   5.866   5.970   0.600
 4348SOL     OW13942   6.871   4.713   6.198
 4348SOL    HW113943   6.889   4.626   6.153
 4348SOL    HW213944   6.772   4.727   6.206
 4349SOL     OW13945   0.508   3.959   3.674
 4349SOL    HW113946   0.441   3.944   3.746
 4349SOL    HW213947   0.568   4.035   3.700
 4350SOL     OW13948   5.558   0.311   4.037
 4350SOL    HW113949   5.574   0.362   4.122
 4350SOL    HW213950   5.460   0.313   4.016
 4351SOL     OW13951   0.351   6.704   2.004
 4351SOL    HW113952   0.429   6.750   1.961
 4351SOL    HW213953   0.374   6.608   2.021
 4352SOL     OW13954   4.643   4.477   1.146
 4352SOL    HW113955   4.673   4.526   1.063
 4352SOL    HW213956   4.705   4.400   1.163
 4353SOL     OW13957   1.837   3.772   0.517
 4353SOL    HW113958   1.760   3.724   0.475
 4353SOL    HW213959   1.890   3.819   0.446
 4354SOL     OW13960   6.444   4.012   2.892
 4354SOL    HW113961   6.514   4.068   2.848
 4354SOL    HW213962   6.432   3.927   2.841
 4355SOL     OW13963   2.096   5.064   4.432
 4355SOL    HW113964   2.009   5.094   4.472
 4355SOL    HW213965   2.170   5.121   4.467
 4356SOL     OW13966   5.999   1.185   5.405
 4356SOL    HW113967   5.978   1.279   5.433
 4356SOL    HW213968   6.089   1.160   5.440
 4357SOL     OW13969   4.853   5.916   2.479
 4357SOL    HW113970   4.767   5.866   2.487
 4357SOL    HW213971   4.844   5.987   2.408
 4358SOL     OW13972   3.200   0.466   1.372
 4358SOL    HW113973   3.196   0.388   1.310
 4358SOL    HW213974   3.286   0.464   1.422
 4359SOL     OW13975   3.001   4.203   1.323
 4359SOL    HW113976   3.042   4.112   1.328
 4359SOL    HW213977   3.012   4.241   1.231
 4360SOL     OW13978   3.264   6.794   3.559
 4360SOL    HW113979   3.328   6.729   3.601
 4360SOL    HW213980   3.289   6.887   3.585
 4361SOL     OW13981   1.786   0.105   6.408
 4361SOL    HW113982   1.851   0.109   6.484
 4361SOL    HW213983   1.835   0.120   6.322
 4362SOL     OW13984   6.625   4.998   1.652
 4362SOL    HW113985   6.712   5.023   1.695
 4362SOL    HW213986   6.627   4.901   1.629
 4363SOL     OW13987   4.719   0.879   2.474
 4363SOL    HW113988   4.659   0.956   2.497
 4363SOL    HW213989   4.700   0.802   2.535
 4364SOL     OW13990   3.764   3.321   3.225
 4364SOL    HW113991   3.753   3.313   3.324
 4364SOL    HW213992   3.857   3.297   3.199
 4365SOL     OW13993   2.378   0.686   1.055
 4365SOL    HW113994   2.419   0.715   0.969
 4365SOL    HW213995   2.342   0.594   1.045
 4366SOL     OW13996   5.202   4.981   5.161
 4366SOL    HW113997   5.184   4.919   5.084
 4366SOL    HW213998   5.214   5.074   5.127
 4367SOL     OW13999   1.451   6.956   1.369
 4367SOL    HW114000   1.421   6.861   1.369
 4367SOL    HW214001   1.539   6.963   1.322
 4368SOL     OW14002   5.044   4.952   4.357
 4368SOL    HW114003   5.035   4.988   4.450
 4368SOL    HW214004   5.120   4.998   4.311
 4369SOL     OW14005   6.510   4.180   3.675
 4369SOL    HW114006   6.417   4.185   3.638
 4369SOL    HW214007   6.506   4.155   3.771
 4370SOL     OW14008   5.288   4.483   1.813
 4370SOL    HW114009   5.303   4.442   1.722
 4370SOL    HW214010   5.355   4.555   1.828
 4371SOL     OW14011   3.284   0.363   3.293
 4371SOL    HW114012   3.303   0.452   3.251
 4371SOL    HW214013   3.263   0.297   3.221
 4372SOL     OW14014   1.830   4.687   5.693
 4372SOL    HW114015   1.767   4.724   5.624
 4372SOL    HW214016   1.896   4.627   5.649
 4373SOL     OW14017   3.807   0.953   1.066
 4373SOL    HW114018   3.772   1.039   1.027
 4373SOL    HW214019   3.887   0.973   1.122
 4374SOL     OW14020   1.616   6.310   0.321
 4374SOL    HW114021   1.705   6.287   0.360
 4374SOL    HW214022   1.587   6.400   0.354
 4375SOL     OW14023   4.309   0.721   5.457
 4375SOL    HW114024   4.370   0.752   5.384
 4375SOL    HW214025   4.227   0.777   5.458
 4376SOL     OW14026   2.088   4.568   6.826
 4376SOL    HW114027   2.059   4.661   6.802
 4376SOL    HW214028   2.053   4.504   6.759
 4377SOL     OW14029   5.167   5.797   0.216
 4377SOL    HW114030   5.069   5.786   0.228
 4377SOL    HW214031   5.188   5.892   0.195
 4378SOL     OW14032   3.123   5.209   1.462
 4378SOL    HW114033   3.032   5.171   1.480
 4378SOL    HW214034   3.173   5.148   1.400
 4379SOL     OW14035   5.371   6.417   0.994
 4379SOL    HW114036   5.456   6.455   0.959
 4379SOL    HW214037   5.341   6.469   1.073
 4380SOL     OW14038   1.410   5.940   4.649
 4380SOL    HW114039   1.354   5.967   4.571
 4380SOL    HW214040   1.355   5.943   4.733
 4381SOL     OW14041   3.854   6.316   5.000
 4381SOL    HW114042   3.892   6.373   5.073
 4381SOL    HW214043   3.805   6.239   5.039
 4382SOL     OW14044   5.926   3.033   3.355
 4382SOL    HW114045   5.842   3.085   3.338
 4382SOL    HW214046   5.914   2.976   3.436
 4383SOL     OW14047   0.815   6.947   6.580
 4383SOL    HW114048   0.913   6.963   6.593
 4383SOL    HW214049   0.802   6.864   6.526
 4384SOL     OW14050   3.624   0.265   1.765
 4384SOL    HW114051   3.700   0.324   1.792
 4384SOL    HW214052   3.659   0.181   1.724
 4385SOL     OW14053   5.831   2.802   4.784
 4385SOL    HW114054   5.782   2.715   4.790
 4385SOL    HW214055   5.780   2.865   4.727
 4386SOL     OW14056   2.141   5.239   0.424
 4386SOL    HW114057   2.215   5.179   0.452
 4386SOL    HW214058   2.162   5.280   0.335
 4387SOL     OW14059   6.569   2.822   0.772
 4387SOL    HW114060   6.564   2.831   0.872
 4387SOL    HW214061   6.664   2.828   0.743
 4388SOL     OW14062   3.363   0.898   5.542
 4388SOL    HW114063   3.324   0.982   5.504
 4388SOL    HW214064   3.295   0.825   5.538
 4389SOL     OW14065   1.324   3.417   2.446
 4389SOL    HW114066   1.267   3.476   2.387
 4389SOL    HW214067   1.412   3.402   2.402
 4390SOL     OW14068   5.023   3.707   0.865
 4390SOL    HW114069   5.055   3.800   0.880
 4390SOL    HW214070   5.009   3.692   0.767
 4391SOL     OW14071   0.406   5.783   1.635
 4391SOL    HW114072   0.486   5.772   1.577
 4391SOL    HW214073   0.435   5.804   1.728
 4392SOL     OW14074   5.209   5.814   4.342
 4392SOL    HW114075   5.252   5.747   4.281
 4392SOL    HW214076   5.256   5.813   4.430
 4393SOL     OW14077   5.465   6.742   2.761
 4393SOL    HW114078   5.369   6.762   2.782
 4393SOL    HW214079   5.484   6.646   2.781
 4394SOL     OW14080   4.611   1.663   2.844
 4394SOL    HW114081   4.599   1.576   2.796
 4394SOL    HW214082   4.700   1.664   2.890
 4395SOL     OW14083   5.377   2.906   1.227
 4395SOL    HW114084   5.467   2.867   1.244
 4395SOL    HW214085   5.313   2.832   1.204
 4396SOL     OW14086   2.073   0.355   1.780
 4396SOL    HW114087   2.141   0.290   1.816
 4396SOL    HW214088   2.030   0.316   1.698
 4397SOL     OW14089   4.359   2.594   0.625
 4397SOL    HW114090   4.276   2.628   0.669
 4397SOL    HW214091   4.384   2.506   0.666
 4398SOL     OW14092   0.559   5.534   5.230
 4398SOL    HW114093   0.583   5.566   5.139
 4398SOL    HW214094   0.462   5.507   5.231
 4399SOL     OW14095   2.384   6.912   1.202
 4399SOL    HW114096   2.438   6.829   1.189
 4399SOL    HW214097   2.444   6.992   1.198
 4400SOL     OW14098   3.640   5.304   2.680
 4400SOL    HW114099   3.701   5.229   2.654
 4400SOL    HW214100   3.598   5.284   2.768
 4401SOL     OW14101   4.541   6.399   5.015
 4401SOL    HW114102   4.544   6.354   4.926
 4401SOL    HW214103   4.447   6.423   5.037
 4402SOL     OW14104   0.312   6.541   0.842
 4402SOL    HW114105   0.350   6.456   0.807
 4402SOL    HW214106   0.214   6.530   0.856
 4403SOL     OW14107   6.603   1.594   3.358
 4403SOL    HW114108   6.603   1.528   3.283
 4403SOL    HW214109   6.692   1.591   3.404
 4404SOL     OW14110   1.361   3.638   2.930
 4404SOL    HW114111   1.397   3.601   2.844
 4404SOL    HW214112   1.376   3.571   3.003
 4405SOL     OW14113   3.264   3.810   6.564
 4405SOL    HW114114   3.238   3.767   6.651
 4405SOL    HW214115   3.321   3.891   6.583
 4406SOL     OW14116   6.507   2.472   3.349
 4406SOL    HW114117   6.587   2.495   3.405
 4406SOL    HW214118   6.500   2.373   3.339
 4407SOL     OW14119   0.920   0.996   0.596
 4407SOL    HW114120   1.010   1.039   0.610
 4407SOL    HW214121   0.923   0.938   0.515
 4408SOL     OW14122   4.815   6.199   1.042
 4408SOL    HW114123   4.793   6.276   1.102
 4408SOL    HW214124   4.904   6.216   0.999
 4409SOL     OW14125   3.562   1.403   2.836
 4409SOL    HW114126   3.499   1.473   2.803
 4409SOL    HW214127   3.539   1.378   2.930
 4410SOL     OW14128   2.309   5.177   0.180
 4410SOL    HW114129   2.335   5.180   0.083
 4410SOL    HW214130   2.380   5.220   0.235
 4411SOL     OW14131   3.449   2.827   1.776
 4411SOL    HW114132   3.388   2.748   1.775
 4411SOL    HW214133   3.417   2.893   1.843
 4412SOL     OW14134   2.825   1.345   6.657
 4412SOL    HW114135   2.748   1.332   6.595
 4412SOL    HW214136   2.870   1.432   6.635
 4413SOL     OW14137   3.937   6.037   4.257
 4413SOL    HW114138   3.976   5.988   4.335
 4413SOL    HW214139   3.949   6.135   4.271
 4414SOL     OW14140   3.451   4.173   1.606
 4414SOL    HW114141   3.545   4.197   1.581
 4414SOL    HW214142   3.453   4.113   1.686
 4415SOL     OW14143   5.210   1.188   1.914
 4415SOL    HW114144   5.168   1.264   1.865
 4415SOL    HW214145   5.185   1.192   2.011
 4416SOL     OW14146   2.718   2.233   5.463
 4416SOL    HW114147   2.807   2.256   5.422
 4416SOL    HW214148   2.664   2.181   5.397
 4417SOL     OW14149   4.844   1.180   1.402
 4417SOL    HW114150   4.789   1.097   1.413
 4417SOL    HW214151   4.930   1.169   1.451
 4418SOL     OW14152   4.335   0.435   3.001
 4418SOL    HW114153   4.266   0.412   2.932
 4418SOL    HW214154   4.341   0.362   3.068
 4419SOL     OW14155   6.372   5.243   6.571
 4419SOL    HW114156   6.365   5.155   6.617
 4419SOL    HW214157   6.462   5.283   6.589
 4420SOL     OW14158   5.369   1.463   0.778
 4420SOL    HW114159   5.297   1.523   0.743
 4420SOL    HW214160   5.327   1.393   0.837
 4421SOL     OW14161   1.230   1.480   3.373
 4421SOL    HW114162   1.197   1.553   3.433
 4421SOL    HW214163   1.152   1.427   3.338
 4422SOL     OW14164   1.862   4.260   5.704
 4422SOL    HW114165   1.881   4.353   5.672
 4422SOL    HW214166   1.782   4.224   5.656
 4423SOL     OW14167   0.580   2.209   6.119
 4423SOL    HW114168   0.631   2.215   6.033
 4423SOL    HW214169   0.592   2.293   6.172
 4424SOL     OW14170   2.150   5.207   2.922
 4424SOL    HW114171   2.140   5.205   2.823
 4424SOL    HW214172   2.234   5.256   2.946
 4425SOL     OW14173   5.456   4.114   3.018
 4425SOL    HW114174   5.509   4.035   2.986
 4425SOL    HW214175   5.494   4.145   3.105
 4426SOL     OW14176   0.333   6.325   6.831
 4426SOL    HW114177   0.304   6.264   6.757
 4426SOL    HW214178   0.293   6.415   6.819
 4427SOL     OW14179   0.469   5.262   3.576
 4427SOL    HW114180   0.505   5.173   3.549
 4427SOL    HW214181   0.377   5.273   3.538
 4428SOL     OW14182   1.531   0.075   2.205
 4428SOL    HW114183   1.486   0.161   2.232
 4428SOL    HW214184   1.581   0.039   2.283
 4429SOL     OW14185   1.841   6.610   0.949
 4429SOL    HW114186   1.846   6.516   0.916
 4429SOL    HW214187   1.770   6.616   1.020
 4430SOL     OW14188   1.814   0.721   2.281
 4430SOL    HW114189   1.873   0.642   2.267
 4430SOL    HW214190   1.857   0.784   2.345
 4431SOL     OW14191   2.483   1.491   2.490
 4431SOL    HW114192   2.577   1.502   2.458
 4431SOL    HW214193   2.430   1.441   2.422
 4432SOL     OW14194   3.681   3.698   4.877
 4432SOL    HW114195   3.591   3.740   4.876
 4432SOL    HW214196   3.726   3.712   4.789
 4433SOL     OW14197   4.880   6.648   1.446
 4433SOL    HW114198   4.853   6.685   1.357
 4433SOL    HW214199   4.979   6.655   1.457
 4434SOL     OW14200   5.896   2.485   5.908
 4434SOL    HW114201   5.863   2.438   5.827
 4434SOL    HW214202   5.860   2.440   5.990
 4435SOL     OW14203   3.587   2.515   1.715
 4435SOL    HW114204   3.658   2.585   1.716
 4435SOL    HW214205   3.610   2.443   1.780
 4436SOL     OW14206   5.802   6.700   6.908
 4436SOL    HW114207   5.885   6.663   6.950
 4436SOL    HW214208   5.734   6.628   6.898
 4437SOL     OW14209   2.933   0.047   5.577
 4437SOL    HW114210   3.002   7.010   5.535
 4437SOL    HW214211   2.972   0.092   5.657
 4438SOL     OW14212   3.883   2.026   0.519
 4438SOL    HW114213   3.834   1.943   0.492
 4438SOL    HW214214   3.909   2.078   0.438
 4439SOL     OW14215   0.680   5.295   2.959
 4439SOL    HW114216   0.716   5.219   2.904
 4439SOL    HW214217   0.754   5.336   3.012
 4440SOL     OW14218   6.496   1.708   6.715
 4440SOL    HW114219   6.587   1.708   6.757
 4440SOL    HW214220   6.466   1.802   6.699
 4441SOL     OW14221   6.145   0.719   4.541
 4441SOL    HW114222   6.183   0.752   4.628
 4441SOL    HW214223   6.215   0.727   4.470
 4442SOL     OW14224   1.532   5.981   1.702
 4442SOL    HW114225   1.545   5.997   1.800
 4442SOL    HW214226   1.530   5.883   1.684
 4443SOL     OW14227   1.294   1.185   1.640
 4443SOL    HW114228   1.315   1.252   1.569
 4443SOL    HW214229   1.201   1.199   1.673
 4444SOL     OW14230   5.160   2.059   2.885
 4444SOL    HW114231   5.133   2.043   2.790
 4444SOL    HW214232   5.257   2.038   2.896
 4445SOL     OW14233   1.331   2.147   6.086
 4445SOL    HW114234   1.301   2.174   6.177
 4445SOL    HW214235   1.430   2.160   6.078
 4446SOL     OW14236   6.294   5.657   4.019
 4446SOL    HW114237   6.200   5.649   3.984
 4446SOL    HW214238   6.359   5.631   3.947
 4447SOL     OW14239   4.935   3.815   4.912
 4447SOL    HW114240   4.895   3.744   4.970
 4447SOL    HW214241   4.877   3.828   4.832
 4448SOL     OW14242   2.396   2.646   6.237
 4448SOL    HW114243   2.478   2.630   6.183
 4448SOL    HW214244   2.328   2.694   6.181
 4449SOL     OW14245   0.356   1.637   5.301
 4449SOL    HW114246   0.398   1.574   5.367
 4449SOL    HW214247   0.263   1.660   5.331
 4450SOL     OW14248   4.014   3.079   2.821
 4450SOL    HW114249   3.969   3.004   2.773
 4450SOL    HW214250   3.985   3.079   2.917
 4451SOL     OW14251   0.426   5.417   1.289
 4451SOL    HW114252   0.391   5.486   1.353
 4451SOL    HW214253   0.355   5.396   1.222
 4452SOL     OW14254   0.619   3.887   6.115
 4452SOL    HW114255   0.668   3.802   6.136
 4452SOL    HW214256   0.591   3.885   6.019
 4453SOL     OW14257   5.700   1.481   0.424
 4453SOL    HW114258   5.686   1.406   0.358
 4453SOL    HW214259   5.784   1.529   0.402
 4454SOL     OW14260   6.078   3.459   2.622
 4454SOL    HW114261   6.094   3.554   2.592
 4454SOL    HW214262   6.094   3.397   2.545
 4455SOL     OW14263   4.973   2.807   2.631
 4455SOL    HW114264   4.937   2.730   2.579
 4455SOL    HW214265   4.964   2.891   2.576
 4456SOL     OW14266   7.021   5.513   2.610
 4456SOL    HW114267   0.006   5.565   2.695
 4456SOL    HW214268   0.070   5.443   2.607
 4457SOL     OW14269   4.425   2.617   6.267
 4457SOL    HW114270   4.517   2.653   6.253
 4457SOL    HW214271   4.389   2.651   6.354
 4458SOL     OW14272   4.689   1.933   1.430
 4458SOL    HW114273   4.666   1.918   1.526
 4458SOL    HW214274   4.605   1.930   1.375
 4459SOL     OW14275   6.580   5.393   6.926
 4459SOL    HW114276   6.551   5.444   6.845
 4459SOL    HW214277   6.593   5.456   7.002
 4460SOL     OW14278   1.369   6.823   0.095
 4460SOL    HW114279   1.274   6.850   0.076
 4460SOL    HW214280   1.369   6.744   0.155
 4461SOL     OW14281   2.058   0.019   3.179
 4461SOL    HW114282   2.096   6.989   3.103
 4461SOL    HW214283   1.960   0.005   3.184
 4462SOL     OW14284   0.559   2.567   1.124
 4462SOL    HW114285   0.654   2.574   1.094
 4462SOL    HW214286   0.537   2.645   1.184
 4463SOL     OW14287   0.800   4.145   6.361
 4463SOL    HW114288   0.771   4.225   6.415
 4463SOL    HW214289   0.723   4.081   6.354
 4464SOL     OW14290   6.765   3.702   0.806
 4464SOL    HW114291   6.815   3.772   0.755
 4464SOL    HW214292   6.796   3.700   0.901
 4465SOL     OW14293   5.460   4.722   1.316
 4465SOL    HW114294   5.540   4.739   1.260
 4465SOL    HW214295   5.487   4.716   1.412
 4466SOL     OW14296   6.893   3.186   4.061
 4466SOL    HW114297   6.941   3.251   4.119
 4466SOL    HW214298   6.870   3.229   3.974
 4467SOL     OW14299   1.661   0.500   4.461
 4467SOL    HW114300   1.600   0.529   4.388
 4467SOL    HW214301   1.609   0.481   4.543
 4468SOL     OW14302   1.134   1.528   0.522
 4468SOL    HW114303   1.049   1.496   0.480
 4468SOL    HW214304   1.112   1.587   0.600
 4469SOL     OW14305   4.939   6.636   0.195
 4469SOL    HW114306   4.955   6.662   0.290
 4469SOL    HW214307   4.931   6.537   0.188
 4470SOL     OW14308   4.884   4.542   1.626
 4470SOL    HW114309   4.873   4.597   1.543
 4470SOL    HW214310   4.917   4.601   1.700
 4471SOL     OW14311   6.231   2.247   1.565
 4471SOL    HW114312   6.168   2.274   1.491
 4471SOL    HW214313   6.188   2.177   1.621
 4472SOL     OW14314   2.338   5.090   1.425
 4472SOL    HW114315   2.338   5.188   1.409
 4472SOL    HW214316   2.411   5.047   1.372
 4473SOL     OW14317   5.384   0.500   6.874
 4473SOL    HW114318   5.404   0.598   6.869
 4473SOL    HW214319   5.468   0.450   6.892
 4474SOL     OW14320   6.781   1.677   5.681
 4474SOL    HW114321   6.775   1.708   5.776
 4474SOL    HW214322   6.798   1.755   5.621
 4475SOL     OW14323   1.771   4.434   1.038
 4475SOL    HW114324   1.682   4.395   1.011
 4475SOL    HW214325   1.812   4.375   1.107
 4476SOL     OW14326   3.072   6.657   2.371
 4476SOL    HW114327   2.997   6.627   2.313
 4476SOL    HW214328   3.146   6.590   2.368
 4477SOL     OW14329   1.242   1.616   1.109
 4477SOL    HW114330   1.294   1.549   1.058
 4477SOL    HW214331   1.302   1.660   1.177
 4478SOL     OW14332   0.824   4.278   0.463
 4478SOL    HW114333   0.814   4.183   0.492
 4478SOL    HW214334   0.852   4.333   0.542
 4479SOL     OW14335   0.502   5.753   6.144
 4479SOL    HW114336   0.411   5.730   6.178
 4479SOL    HW214337   0.501   5.751   6.044
 4480SOL     OW14338   6.735   3.398   3.114
 4480SOL    HW114339   6.740   3.320   3.176
 4480SOL    HW214340   6.641   3.406   3.079
 4481SOL     OW14341   0.574   0.623   3.441
 4481SOL    HW114342   0.520   0.596   3.521
 4481SOL    HW214343   0.618   0.711   3.457
 4482SOL     OW14344   0.493   4.321   3.638
 4482SOL    HW114345   0.553   4.263   3.694
 4482SOL    HW214346   0.400   4.283   3.639
 4483SOL     OW14347   6.832   4.120   0.924
 4483SOL    HW114348   6.802   4.211   0.895
 4483SOL    HW214349   6.758   4.054   0.907
 4484SOL     OW14350   3.966   3.218   6.601
 4484SOL    HW114351   4.008   3.303   6.571
 4484SOL    HW214352   3.912   3.235   6.683
 4485SOL     OW14353   4.363   6.519   5.606
 4485SOL    HW114354   4.369   6.548   5.510
 4485SOL    HW214355   4.406   6.589   5.664
 4486SOL     OW14356   5.790   3.673   4.647
 4486SOL    HW114357   5.698   3.701   4.672
 4486SOL    HW214358   5.853   3.749   4.662
 4487SOL     OW14359   3.577   3.009   6.104
 4487SOL    HW114360   3.650   2.941   6.116
 4487SOL    HW214361   3.489   2.962   6.100
 4488SOL     OW14362   0.407   2.605   6.460
 4488SOL    HW114363   0.331   2.664   6.432
 4488SOL    HW214364   0.394   2.514   6.422
 4489SOL     OW14365   0.695   2.534   4.059
 4489SOL    HW114366   0.695   2.439   4.088
 4489SOL    HW214367   0.616   2.552   4.001
 4490SOL     OW14368   6.939   1.594   3.502
 4490SOL    HW114369   6.941   1.494   3.502
 4490SOL    HW214370   6.973   1.628   3.415
 4491SOL     OW14371   2.479   5.417   2.004
 4491SOL    HW114372   2.439   5.326   1.998
 4491SOL    HW214373   2.540   5.432   1.926
 4492SOL     OW14374   5.865   3.629   4.974
 4492SOL    HW114375   5.931   3.557   4.994
 4492SOL    HW214376   5.911   3.706   4.930
 4493SOL     OW14377   6.214   4.864   3.773
 4493SOL    HW114378   6.165   4.826   3.852
 4493SOL    HW214379   6.172   4.951   3.747
 4494SOL     OW14380   5.074   3.147   2.129
 4494SOL    HW114381   5.061   3.227   2.187
 4494SOL    HW214382   5.044   3.065   2.178
 4495SOL     OW14383   5.909   4.382   2.375
 4495SOL    HW114384   5.894   4.291   2.412
 4495SOL    HW214385   5.942   4.442   2.449
 4496SOL     OW14386   6.093   3.545   6.136
 4496SOL    HW114387   6.019   3.511   6.194
 4496SOL    HW214388   6.099   3.488   6.054
 4497SOL     OW14389   5.827   0.162   0.589
 4497SOL    HW114390   5.748   0.104   0.611
 4497SOL    HW214391   5.878   0.121   0.512
 4498SOL     OW14392   1.385   4.497   6.651
 4498SOL    HW114393   1.458   4.492   6.583
 4498SOL    HW214394   1.424   4.512   6.742
 4499SOL     OW14395   5.896   3.953   0.130
 4499SOL    HW114396   5.821   3.890   0.109
 4499SOL    HW214397   5.878   4.041   0.087
 4500SOL     OW14398   3.508   3.945   2.042
 4500SOL    HW114399   3.595   3.989   2.065
 4500SOL    HW214400   3.508   3.852   2.077
 4501SOL     OW14401   1.213   5.501   5.021
 4501SOL    HW114402   1.276   5.578   5.015
 4501SOL    HW214403   1.219   5.446   4.938
 4502SOL     OW14404   5.713   2.873   0.603
 4502SOL    HW114405   5.622   2.888   0.642
 4502SOL    HW214406   5.726   2.931   0.523
 4503SOL     OW14407   1.050   4.158   2.475
 4503SOL    HW114408   1.043   4.254   2.500
 4503SOL    HW214409   0.967   4.110   2.501
 4504SOL     OW14410   5.287   1.933   4.257
 4504SOL    HW114411   5.338   1.996   4.316
 4504SOL    HW214412   5.288   1.967   4.163
 4505SOL     OW14413   2.347   6.065   6.784
 4505SOL    HW114414   2.420   5.996   6.781
 4505SOL    HW214415   2.334   6.095   6.879
 4506SOL     OW14416   3.030   6.321   5.449
 4506SOL    HW114417   3.056   6.274   5.533
 4506SOL    HW214418   3.071   6.274   5.371
 4507SOL     OW14419   6.373   4.247   2.573
 4507SOL    HW114420   6.327   4.165   2.542
 4507SOL    HW214421   6.397   4.305   2.495
 4508SOL     OW14422   1.802   4.739   1.046
 4508SOL    HW114423   1.816   4.789   0.960
 4508SOL    HW214424   1.746   4.658   1.028
 4509SOL     OW14425   0.450   2.598   3.905
 4509SOL    HW114426   0.405   2.656   3.837
 4509SOL    HW214427   0.419   2.623   3.996
 4510SOL     OW14428   2.842   0.145   0.297
 4510SOL    HW114429   2.791   0.125   0.381
 4510SOL    HW214430   2.784   0.130   0.217
 4511SOL     OW14431   0.566   2.613   0.655
 4511SOL    HW114432   0.505   2.632   0.732
 4511SOL    HW214433   0.512   2.594   0.573
 4512SOL     OW14434   2.086   3.755   0.895
 4512SOL    HW114435   2.111   3.848   0.871
 4512SOL    HW214436   2.159   3.692   0.869
 4513SOL     OW14437   6.655   2.237   2.274
 4513SOL    HW114438   6.576   2.220   2.332
 4513SOL    HW214439   6.712   2.309   2.315
 4514SOL     OW14440   1.640   0.212   4.714
 4514SOL    HW114441   1.655   0.218   4.615
 4514SOL    HW214442   1.615   0.301   4.750
 4515SOL     OW14443   0.123   3.845   0.192
 4515SOL    HW114444   0.111   3.931   0.142
 4515SOL    HW214445   0.183   3.861   0.271
 4516SOL     OW14446   6.997   0.087   3.576
 4516SOL    HW114447   6.934   0.159   3.604
 4516SOL    HW214448   7.018   0.029   3.656
 4517SOL     OW14449   2.698   0.697   6.979
 4517SOL    HW114450   2.717   0.667   6.886
 4517SOL    HW214451   2.783   0.697   0.009
 4518SOL     OW14452   1.383   1.063   3.275
 4518SOL    HW114453   1.419   0.980   3.317
 4518SOL    HW214454   1.306   1.098   3.329
 4519SOL     OW14455   0.184   2.305   4.986
 4519SOL    HW114456   0.199   2.278   4.891
 4519SOL    HW214457   0.192   2.224   5.045
 4520SOL     OW14458   6.937   4.256   3.837
 4520SOL    HW114459   0.001   4.291   3.873
 4520SOL    HW214460   6.885   4.214   3.912
 4521SOL     OW14461   4.808   1.233   6.309
 4521SOL    HW114462   4.720   1.191   6.329
 4521SOL    HW214463   4.817   1.317   6.363
 4522SOL     OW14464   4.512   6.703   3.407
 4522SOL    HW114465   4.531   6.683   3.503
 4522SOL    HW214466   4.523   6.801   3.391
 4523SOL     OW14467   5.020   1.549   6.135
 4523SOL    HW114468   5.032   1.450   6.138
 4523SOL    HW214469   5.058   1.585   6.049
 4524SOL     OW14470   5.617   1.906   5.201
 4524SOL    HW114471   5.574   1.944   5.119
 4524SOL    HW214472   5.548   1.894   5.272
 4525SOL     OW14473   0.144   1.640   4.231
 4525SOL    HW114474   0.076   1.663   4.301
 4525SOL    HW214475   0.211   1.577   4.270
 4526SOL     OW14476   2.555   2.298   0.985
 4526SOL    HW114477   2.522   2.386   1.020
 4526SOL    HW214478   2.576   2.306   0.888
 4527SOL     OW14479   4.647   0.110   2.617
 4527SOL    HW114480   4.675   0.136   2.525
 4527SOL    HW214481   4.562   0.157   2.641
 4528SOL     OW14482   4.276   6.969   0.013
 4528SOL    HW114483   4.225   6.923   0.085
 4528SOL    HW214484   4.266   6.918   6.950
 4529SOL     OW14485   3.291   0.102   3.873
 4529SOL    HW114486   3.258   0.196   3.878
 4529SOL    HW214487   3.295   0.063   3.965
 4530SOL     OW14488   6.687   1.966   4.590
 4530SOL    HW114489   6.711   2.061   4.567
 4530SOL    HW214490   6.755   1.929   4.653
 4531SOL     OW14491   6.742   4.031   2.978
 4531SOL    HW114492   6.802   4.109   2.963
 4531SOL    HW214493   6.757   3.995   3.070
 4532SOL     OW14494   0.495   1.980   0.558
 4532SOL    HW114495   0.513   1.929   0.474
 4532SOL    HW214496   0.429   1.929   0.614
 4533SOL     OW14497   3.254   6.387   1.303
 4533SOL    HW114498   3.268   6.296   1.343
 4533SOL    HW214499   3.157   6.408   1.300
 4534SOL     OW14500   6.617   4.512   6.779
 4534SOL    HW114501   6.595   4.609   6.772
 4534SOL    HW214502   6.712   4.497   6.752
 4535SOL     OW14503   4.573   1.675   2.238
 4535SOL    HW114504   4.575   1.579   2.211
 4535SOL    HW214505   4.565   1.733   2.157
 4536SOL     OW14506   6.761   0.142   3.415
 4536SOL    HW114507   6.712   0.209   3.359
 4536SOL    HW214508   6.825   0.191   3.475
 4537SOL     OW14509   4.938   3.381   5.779
 4537SOL    HW114510   4.845   3.408   5.805
 4537SOL    HW214511   4.994   3.370   5.861
 4538SOL     OW14512   3.221   2.221   1.383
 4538SOL    HW114513   3.214   2.220   1.483
 4538SOL    HW214514   3.164   2.295   1.347
 4539SOL     OW14515   2.941   4.489   0.791
 4539SOL    HW114516   3.003   4.411   0.803
 4539SOL    HW214517   2.894   4.508   0.877
 4540SOL     OW14518   3.351   3.030   3.867
 4540SOL    HW114519   3.344   3.087   3.948
 4540SOL    HW214520   3.276   3.052   3.804
 4541SOL     OW14521   6.293   1.701   1.473
 4541SOL    HW114522   6.376   1.720   1.525
 4541SOL    HW214523   6.312   1.632   1.403
 4542SOL     OW14524   5.683   6.127   3.571
 4542SOL    HW114525   5.688   6.056   3.501
 4542SOL    HW214526   5.718   6.213   3.533
 4543SOL     OW14527   5.005   2.531   2.855
 4543SOL    HW114528   5.004   2.434   2.880
 4543SOL    HW214529   4.915   2.557   2.820
 4544SOL     OW14530   5.737   4.269   0.486
 4544SOL    HW114531   5.814   4.310   0.534
 4544SOL    HW214532   5.734   4.171   0.505
 4545SOL     OW14533   5.027   3.650   0.594
 4545SOL    HW114534   4.953   3.582   0.591
 4545SOL    HW214535   5.065   3.662   0.502
 4546SOL     OW14536   1.240   6.040   0.602
 4546SOL    HW114537   1.327   6.073   0.565
 4546SOL    HW214538   1.170   6.111   0.590
 4547SOL     OW14539   4.291   1.731   2.498
 4547SOL    HW114540   4.232   1.804   2.534
 4547SOL    HW214541   4.238   1.671   2.439
 4548SOL     OW14542   1.808   2.892   4.492
 4548SOL    HW114543   1.811   2.852   4.400
 4548SOL    HW214544   1.896   2.934   4.513
 4549SOL     OW14545   6.176   1.477   3.338
 4549SOL    HW114546   6.190   1.392   3.286
 4549SOL    HW214547   6.087   1.516   3.315
 4550SOL     OW14548   2.151   5.607   5.822
 4550SOL    HW114549   2.143   5.510   5.798
 4550SOL    HW214550   2.242   5.626   5.859
 4551SOL     OW14551   6.259   3.629   0.986
 4551SOL    HW114552   6.182   3.571   0.958
 4551SOL    HW214553   6.237   3.724   0.965
 4552SOL     OW14554   6.971   3.956   5.336
 4552SOL    HW114555   6.997   4.050   5.312
 4552SOL    HW214556   6.880   3.936   5.299
 4553SOL     OW14557   5.015   5.310   0.368
 4553SOL    HW114558   5.047   5.403   0.385
 4553SOL    HW214559   4.966   5.276   0.449
 4554SOL     OW14560   6.053   5.658   3.916
 4554SOL    HW114561   6.076   5.755   3.926
 4554SOL    HW214562   6.009   5.642   3.828
 4555SOL     OW14563   3.723   2.348   6.986
 4555SOL    HW114564   3.754   2.391   0.048
 4555SOL    HW214565   3.695   2.419   6.921
 4556SOL     OW14566   3.641   0.809   4.577
 4556SOL    HW114567   3.673   0.896   4.540
 4556SOL    HW214568   3.716   0.742   4.575
 4557SOL     OW14569   5.428   0.713   3.884
 4557SOL    HW114570   5.399   0.684   3.975
 4557SOL    HW214571   5.361   0.683   3.816
 4558SOL     OW14572   0.256   4.310   0.287
 4558SOL    HW114573   0.330   4.266   0.337
 4558SOL    HW214574   0.273   4.302   0.189
 4559SOL     OW14575   1.478   6.997   1.010
 4559SOL    HW114576   1.540   0.003   1.083
 4559SOL    HW214577   1.422   6.921   1.040
 4560SOL     OW14578   6.450   2.118   4.493
 4560SOL    HW114579   6.531   2.063   4.516
 4560SOL    HW214580   6.432   2.111   4.395
 4561SOL     OW14581   2.436   6.223   6.559
 4561SOL    HW114582   2.404   6.163   6.633
 4561SOL    HW214583   2.387   6.201   6.475
 4562SOL     OW14584   3.072   3.925   5.284
 4562SOL    HW114585   3.000   3.974   5.235
 4562SOL    HW214586   3.044   3.830   5.300
 4563SOL     OW14587   5.322   2.840   6.921
 4563SOL    HW114588   5.404   2.844   6.864
 4563SOL    HW214589   5.336   2.894   7.004
 4564SOL     OW14590   6.678   5.841   1.052
 4564SOL    HW114591   6.689   5.871   0.957
 4564SOL    HW214592   6.597   5.884   1.092
 4565SOL     OW14593   4.762   0.932   4.410
 4565SOL    HW114594   4.717   0.913   4.323
 4565SOL    HW214595   4.838   0.869   4.423
 4566SOL     OW14596   1.857   0.465   1.482
 4566SOL    HW114597   1.821   0.505   1.567
 4566SOL    HW214598   1.786   0.464   1.413
 4567SOL     OW14599   6.132   2.696   0.522
 4567SOL    HW114600   6.073   2.751   0.581
 4567SOL    HW214601   6.208   2.660   0.576
 4568SOL     OW14602   4.654   5.015   3.780
 4568SOL    HW114603   4.715   5.017   3.859
 4568SOL    HW214604   4.689   4.951   3.712
 4569SOL     OW14605   2.314   0.545   3.176
 4569SOL    HW114606   2.247   0.515   3.108
 4569SOL    HW214607   2.287   0.634   3.212
 4570SOL     OW14608   4.822   6.257   4.792
 4570SOL    HW114609   4.754   6.183   4.788
 4570SOL    HW214610   4.869   6.253   4.880
 4571SOL     OW14611   4.131   3.511   3.957
 4571SOL    HW114612   4.145   3.491   3.860
 4571SOL    HW214613   4.119   3.425   4.008
 4572SOL     OW14614   2.504   4.424   1.677
 4572SOL    HW114615   2.482   4.433   1.774
 4572SOL    HW214616   2.483   4.510   1.630
 4573SOL     OW14617   4.969   6.659   1.929
 4573SOL    HW114618   4.933   6.648   1.836
 4573SOL    HW214619   4.898   6.634   1.995
 4574SOL     OW14620   0.037   4.661   1.837
 4574SOL    HW114621   6.973   4.704   1.864
 4574SOL    HW214622   0.076   4.712   1.760
 4575SOL     OW14623   6.377   5.896   1.749
 4575SOL    HW114624   6.339   5.827   1.811
 4575SOL    HW214625   6.367   5.986   1.790
 4576SOL     OW14626   3.535   5.691   4.560
 4576SOL    HW114627   3.493   5.768   4.512
 4576SOL    HW214628   3.532   5.708   4.659
 4577SOL     OW14629   2.560   5.420   2.731
 4577SOL    HW114630   2.575   5.517   2.710
 4577SOL    HW214631   2.496   5.412   2.808
 4578SOL     OW14632   6.048   6.232   3.531
 4578SOL    HW114633   6.143   6.245   3.557
 4578SOL    HW214634   6.014   6.314   3.484
 4579SOL     OW14635   4.857   1.665   3.013
 4579SOL    HW114636   4.894   1.758   3.022
 4579SOL    HW214637   4.794   1.647   3.087
 4580SOL     OW14638   0.907   4.691   0.618
 4580SOL    HW114639   0.854   4.695   0.703
 4580SOL    HW214640   0.947   4.600   0.608
 4581SOL     OW14641   3.029   5.450   5.016
 4581SOL    HW114642   3.049   5.368   4.961
 4581SOL    HW214643   2.995   5.522   4.957
 4582SOL     OW14644   4.661   5.669   2.352
 4582SOL    HW114645   4.729   5.613   2.304
 4582SOL    HW214646   4.595   5.610   2.398
 4583SOL     OW14647   4.032   6.975   4.907
 4583SOL    HW114648   4.002   0.006   4.985
 4583SOL    HW214649   3.995   6.882   4.914
 4584SOL     OW14650   0.144   5.075   5.571
 4584SOL    HW114651   0.107   4.987   5.601
 4584SOL    HW214652   0.166   5.070   5.473
 4585SOL     OW14653   3.018   6.389   2.055
 4585SOL    HW114654   3.080   6.344   1.991
 4585SOL    HW214655   3.014   6.487   2.035
 4586SOL     OW14656   1.527   6.581   1.433
 4586SOL    HW114657   1.453   6.624   1.485
 4586SOL    HW214658   1.512   6.482   1.429
 4587SOL     OW14659   3.700   4.669   1.180
 4587SOL    HW114660   3.634   4.617   1.126
 4587SOL    HW214661   3.780   4.690   1.123
 4588SOL     OW14662   3.836   3.802   4.586
 4588SOL    HW114663   3.740   3.822   4.605
 4588SOL    HW214664   3.866   3.855   4.506
 4589SOL     OW14665   2.495   1.871   3.456
 4589SOL    HW114666   2.514   1.876   3.358
 4589SOL    HW214667   2.440   1.949   3.483
 4590SOL     OW14668   3.721   0.066   2.176
 4590SOL    HW114669   3.668   0.009   2.239
 4590SOL    HW214670   3.661   0.100   2.104
 4591SOL     OW14671   5.168   5.570   4.570
 4591SOL    HW114672   5.115   5.491   4.601
 4591SOL    HW214673   5.180   5.565   4.471
 4592SOL     OW14674   3.583   2.200   6.660
 4592SOL    HW114675   3.618   2.110   6.687
 4592SOL    HW214676   3.650   2.247   6.603
 4593SOL     OW14677   5.280   5.199   1.416
 4593SOL    HW114678   5.192   5.246   1.424
 4593SOL    HW214679   5.286   5.154   1.327
 4594SOL     OW14680   4.712   2.273   2.610
 4594SOL    HW114681   4.648   2.197   2.597
 4594SOL    HW214682   4.806   2.239   2.603
 4595SOL     OW14683   4.040   3.097   5.274
 4595SOL    HW114684   4.088   3.176   5.309
 4595SOL    HW214685   4.102   3.018   5.271
 4596SOL     OW14686   4.897   1.043   2.058
 4596SOL    HW114687   4.862   1.048   1.965
 4596SOL    HW214688   4.830   1.082   2.121
 4597SOL     OW14689   6.877   3.640   6.141
 4597SOL    HW114690   6.971   3.673   6.136
 4597SOL    HW214691   6.871   3.566   6.207
 4598SOL     OW14692   2.772   3.935   0.744
 4598SOL    HW114693   2.716   3.912   0.823
 4598SOL    HW214694   2.865   3.957   0.774
 4599SOL     OW14695   2.995   5.134   1.127
 4599SOL    HW114696   2.966   5.230   1.127
 4599SOL    HW214697   2.973   5.094   1.038
 4600SOL     OW14698   2.286   3.629   1.094
 4600SOL    HW114699   2.186   3.633   1.106
 4600SOL    HW214700   2.311   3.673   1.008
 4601SOL     OW14701   1.665   5.380   2.985
 4601SOL    HW114702   1.695   5.353   3.077
 4601SOL    HW214703   1.633   5.474   2.987
 4602SOL     OW14704   0.492   0.143   1.992
 4602SOL    HW114705   0.478   0.215   2.061
 4602SOL    HW214706   0.573   0.165   1.938
 4603SOL     OW14707   2.265   1.319   1.248
 4603SOL    HW114708   2.276   1.419   1.253
 4603SOL    HW214709   2.267   1.281   1.340
 4604SOL     OW14710   1.088   6.868   3.608
 4604SOL    HW114711   1.040   6.942   3.655
 4604SOL    HW214712   1.071   6.782   3.657
 4605SOL     OW14713   5.545   6.450   5.673
 4605SOL    HW114714   5.492   6.492   5.599
 4605SOL    HW214715   5.643   6.461   5.654
 4606SOL     OW14716   6.529   6.326   4.215
 4606SOL    HW114717   6.593   6.285   4.151
 4606SOL    HW214718   6.506   6.419   4.185
 4607SOL     OW14719   2.559   2.956   6.941
 4607SOL    HW114720   2.493   3.031   6.948
 4607SOL    HW214721   2.562   2.906   0.005
 4608SOL     OW14722   1.704   4.046   5.903
 4608SOL    HW114723   1.707   3.998   5.815
 4608SOL    HW214724   1.794   4.087   5.921
 4609SOL     OW14725   3.593   0.084   0.110
 4609SOL    HW114726   3.500   0.059   0.085
 4609SOL    HW214727   3.621   0.165   0.058
 4610SOL     OW14728   6.723   3.507   0.370
 4610SOL    HW114729   6.727   3.599   0.330
 4610SOL    HW214730   6.735   3.513   0.469
 4611SOL     OW14731   1.619   5.375   5.545
 4611SOL    HW114732   1.617   5.446   5.615
 4611SOL    HW214733   1.710   5.372   5.503
 4612SOL     OW14734   1.039   0.636   6.710
 4612SOL    HW114735   1.080   0.641   6.801
 4612SOL    HW214736   1.110   0.637   6.640
 4613SOL     OW14737   4.149   4.524   1.133
 4613SOL    HW114738   4.083   4.492   1.201
 4613SOL    HW214739   4.242   4.511   1.166
 4614SOL     OW14740   1.554   4.094   0.860
 4614SOL    HW114741   1.594   4.061   0.774
 4614SOL    HW214742   1.584   4.034   0.935
 4615SOL     OW14743   5.656   3.096   6.778
 4615SOL    HW114744   5.714   3.016   6.762
 4615SOL    HW214745   5.606   3.118   6.694
 4616SOL     OW14746   5.673   0.498   6.537
 4616SOL    HW114747   5.678   0.548   6.450
 4616SOL    HW214748   5.578   0.469   6.553
 4617SOL     OW14749   0.331   4.364   1.909
 4617SOL    HW114750   0.389   4.442   1.884
 4617SOL    HW214751   0.389   4.290   1.944
 4618SOL     OW14752   1.768   2.842   6.923
 4618SOL    HW114753   1.734   2.919   6.869
 4618SOL    HW214754   1.691   2.788   6.957
 4619SOL     OW14755   4.932   1.158   4.300
 4619SOL    HW114756   4.863   1.088   4.285
 4619SOL    HW214757   4.937   1.180   4.398
 4620SOL     OW14758   1.720   5.581   0.937
 4620SOL    HW114759   1.676   5.492   0.923
 4620SOL    HW214760   1.781   5.576   1.016
 4621SOL     OW14761   6.669   0.939   0.260
 4621SOL    HW114762   6.628   0.850   0.280
 4621SOL    HW214763   6.622   0.980   0.182
 4622SOL     OW14764   1.545   4.497   0.631
 4622SOL    HW114765   1.539   4.595   0.651
 4622SOL    HW214766   1.640   4.467   0.642
 4623SOL     OW14767   6.846   4.035   4.306
 4623SOL    HW114768   6.897   3.951   4.291
 4623SOL    HW214769   6.783   4.023   4.383
 4624SOL     OW14770   4.194   6.475   6.371
 4624SOL    HW114771   4.135   6.553   6.393
 4624SOL    HW214772   4.288   6.496   6.398
 4625SOL     OW14773   0.357   4.372   6.477
 4625SOL    HW114774   0.376   4.336   6.568
 4625SOL    HW214775   0.381   4.304   6.408
 4626SOL     OW14776   6.887   4.769   2.111
 4626SOL    HW114777   6.860   4.770   2.015
 4626SOL    HW214778   6.874   4.678   2.149
 4627SOL     OW14779   1.994   6.918   4.088
 4627SOL    HW114780   2.075   6.879   4.132
 4627SOL    HW214781   1.912   6.881   4.132
 4628SOL     OW14782   6.894   2.730   2.461
 4628SOL    HW114783   6.866   2.763   2.371
 4628SOL    HW214784   6.824   2.671   2.499
 4629SOL     OW14785   4.312   5.731   4.068
 4629SOL    HW114786   4.240   5.662   4.058
 4629SOL    HW214787   4.340   5.763   3.978
 4630SOL     OW14788   2.666   5.917   2.522
 4630SOL    HW114789   2.636   6.013   2.518
 4630SOL    HW214790   2.591   5.858   2.494
 4631SOL     OW14791   1.447   0.456   2.425
 4631SOL    HW114792   1.421   0.413   2.339
 4631SOL    HW214793   1.479   0.386   2.489
 4632SOL     OW14794   5.987   6.005   4.198
 4632SOL    HW114795   6.040   6.046   4.271
 4632SOL    HW214796   5.905   6.060   4.181
 4633SOL     OW14797   4.493   3.667   6.118
 4633SOL    HW114798   4.496   3.575   6.078
 4633SOL    HW214799   4.404   3.680   6.163
 4634SOL     OW14800   2.110   3.688   0.536
 4634SOL    HW114801   2.100   3.602   0.485
 4634SOL    HW214802   2.020   3.724   0.559
 4635SOL     OW14803   4.563   2.944   1.420
 4635SOL    HW114804   4.601   2.987   1.502
 4635SOL    HW214805   4.605   2.854   1.408
 4636SOL     OW14806   0.936   5.627   1.431
 4636SOL    HW114807   0.961   5.681   1.351
 4636SOL    HW214808   0.861   5.565   1.407
 4637SOL     OW14809   0.658   1.034   5.713
 4637SOL    HW114810   0.633   0.937   5.706
 4637SOL    HW214811   0.709   1.049   5.798
 4638SOL     OW14812   4.450   4.783   5.781
 4638SOL    HW114813   4.430   4.688   5.757
 4638SOL    HW214814   4.432   4.797   5.879
 4639SOL     OW14815   0.051   2.455   5.883
 4639SOL    HW114816   0.044   2.356   5.896
 4639SOL    HW214817   0.032   2.501   5.970
 4640SOL     OW14818   0.320   5.737   3.551
 4640SOL    HW114819   0.407   5.787   3.553
 4640SOL    HW214820   0.334   5.647   3.511
 4641SOL     OW14821   2.368   3.754   5.348
 4641SOL    HW114822   2.453   3.709   5.376
 4641SOL    HW214823   2.386   3.812   5.268
 4642SOL     OW14824   5.978   5.233   4.709
 4642SOL    HW114825   5.882   5.257   4.724
 4642SOL    HW214826   6.035   5.284   4.773
 4643SOL     OW14827   4.516   3.802   1.417
 4643SOL    HW114828   4.516   3.902   1.411
 4643SOL    HW214829   4.604   3.766   1.387
 4644SOL     OW14830   3.735   5.329   5.379
 4644SOL    HW114831   3.758   5.409   5.433
 4644SOL    HW214832   3.643   5.297   5.404
 4645SOL     OW14833   1.712   5.838   4.632
 4645SOL    HW114834   1.670   5.858   4.721
 4645SOL    HW214835   1.658   5.880   4.560
 4646SOL     OW14836   3.618   1.482   0.894
 4646SOL    HW114837   3.527   1.498   0.934
 4646SOL    HW214838   3.678   1.559   0.915
 4647SOL     OW14839   5.958   0.090   5.272
 4647SOL    HW114840   5.900   0.152   5.324
 4647SOL    HW214841   6.048   0.133   5.259
 4648SOL     OW14842   2.595   6.240   3.320
 4648SOL    HW114843   2.498   6.263   3.318
 4648SOL    HW214844   2.610   6.165   3.384
 4649SOL     OW14845   5.708   5.086   6.162
 4649SOL    HW114846   5.667   5.063   6.073
 4649SOL    HW214847   5.636   5.113   6.226
 4650SOL     OW14848   6.810   5.541   1.830
 4650SOL    HW114849   6.751   5.567   1.907
 4650SOL    HW214850   6.757   5.489   1.763
 4651SOL     OW14851   5.988   2.474   0.674
 4651SOL    HW114852   5.919   2.449   0.606
 4651SOL    HW214853   5.943   2.502   0.759
 4652SOL     OW14854   0.749   6.401   5.343
 4652SOL    HW114855   0.768   6.308   5.374
 4652SOL    HW214856   0.651   6.410   5.322
 4653SOL     OW14857   2.027   4.694   0.446
 4653SOL    HW114858   2.022   4.783   0.491
 4653SOL    HW214859   2.096   4.696   0.374
 4654SOL     OW14860   1.967   1.593   0.211
 4654SOL    HW114861   2.003   1.605   0.304
 4654SOL    HW214862   2.011   1.659   0.150
 4655SOL     OW14863   0.155   4.983   5.332
 4655SOL    HW114864   0.212   5.041   5.275
 4655SOL    HW214865   0.202   4.896   5.348
 4656SOL     OW14866   1.778   6.721   2.564
 4656SOL    HW114867   1.855   6.658   2.552
 4656SOL    HW214868   1.797   6.782   2.642
 4657SOL     OW14869   6.305   0.788   6.061
 4657SOL    HW114870   6.372   0.723   6.097
 4657SOL    HW214871   6.283   0.856   6.131
 4658SOL     OW14872   5.379   6.792   3.748
 4658SOL    HW114873   5.359   6.793   3.846
 4658SOL    HW214874   5.449   6.860   3.728
 4659SOL     OW14875   1.645   3.682   3.547
 4659SOL    HW114876   1.715   3.616   3.575
 4659SOL    HW214877   1.567   3.633   3.508
 4660SOL     OW14878   6.943   1.084   5.478
 4660SOL    HW114879   6.952   1.183   5.466
 4660SOL    HW214880   6.846   1.059   5.468
 4661SOL     OW14881   3.425   2.921   3.595
 4661SOL    HW114882   3.424   2.933   3.694
 4661SOL    HW214883   3.447   2.826   3.573
 4662SOL     OW14884   6.611   6.635   4.744
 4662SOL    HW114885   6.550   6.602   4.816
 4662SOL    HW214886   6.621   6.564   4.674
 4663SOL     OW14887   0.715   1.401   3.027
 4663SOL    HW114888   0.639   1.466   3.029
 4663SOL    HW214889   0.792   1.442   2.978
 4664SOL     OW14890   3.471   5.322   6.958
 4664SOL    HW114891   3.505   5.348   0.026
 4664SOL    HW214892   3.429   5.401   6.913
 4665SOL     OW14893   5.171   0.850   6.295
 4665SOL    HW114894   5.095   0.820   6.351
 4665SOL    HW214895   5.155   0.825   6.199
 4666SOL     OW14896   1.978   1.001   0.574
 4666SOL    HW114897   1.923   1.083   0.560
 4666SOL    HW214898   1.923   0.931   0.619
 4667SOL     OW14899   0.026   6.186   3.952
 4667SOL    HW114900   0.039   6.125   4.030
 4667SOL    HW214901   0.114   6.224   3.924
 4668SOL     OW14902   5.850   0.840   5.146
 4668SOL    HW114903   5.776   0.787   5.187
 4668SOL    HW214904   5.928   0.842   5.209
 4669SOL     OW14905   2.376   2.025   2.271
 4669SOL    HW114906   2.445   1.952   2.272
 4669SOL    HW214907   2.287   1.986   2.249
 4670SOL     OW14908   2.680   2.392   5.065
 4670SOL    HW114909   2.748   2.382   5.138
 4670SOL    HW214910   2.703   2.330   4.990
 4671SOL     OW14911   7.005   1.979   2.778
 4671SOL    HW114912   0.053   2.009   2.713
 4671SOL    HW214913   6.989   2.052   2.845
 4672SOL     OW14914   3.034   2.577   5.602
 4672SOL    HW114915   3.075   2.571   5.511
 4672SOL    HW214916   2.962   2.646   5.602
 4673SOL     OW14917   5.826   7.019   2.157
 4673SOL    HW114918   5.859   0.013   2.250
 4673SOL    HW214919   5.866   6.934   2.123
 4674SOL     OW14920   4.864   0.154   6.316
 4674SOL    HW114921   4.767   0.136   6.301
 4674SOL    HW214922   4.918   0.092   6.258
 4675SOL     OW14923   0.749   4.908   6.214
 4675SOL    HW114924   0.652   4.910   6.193
 4675SOL    HW214925   0.765   4.857   6.298
 4676SOL     OW14926   1.519   4.517   3.422
 4676SOL    HW114927   1.603   4.494   3.373
 4676SOL    HW214928   1.542   4.543   3.516
 4677SOL     OW14929   0.968   3.405   0.944
 4677SOL    HW114930   1.000   3.327   0.997
 4677SOL    HW214931   1.024   3.485   0.966
 4678SOL     OW14932   1.099   1.972   0.729
 4678SOL    HW114933   1.052   2.020   0.656
 4678SOL    HW214934   1.045   1.977   0.813
 4679SOL     OW14935   4.778   6.883   1.734
 4679SOL    HW114936   4.794   6.784   1.736
 4679SOL    HW214937   4.680   6.901   1.745
 4680SOL     OW14938   2.675   1.182   0.075
 4680SOL    HW114939   2.765   1.185   0.119
 4680SOL    HW214940   2.680   1.229   7.009
 4681SOL     OW14941   4.902   4.838   2.109
 4681SOL    HW114942   4.864   4.897   2.038
 4681SOL    HW214943   4.877   4.743   2.091
 4682SOL     OW14944   3.661   3.530   6.468
 4682SOL    HW114945   3.610   3.477   6.536
 4682SOL    HW214946   3.641   3.495   6.377
 4683SOL     OW14947   6.652   3.623   3.898
 4683SOL    HW114948   6.731   3.619   3.837
 4683SOL    HW214949   6.630   3.530   3.930
 4684SOL     OW14950   4.970   0.494   6.011
 4684SOL    HW114951   5.004   0.582   6.045
 4684SOL    HW214952   5.012   0.420   6.064
 4685SOL     OW14953   2.907   3.581   4.311
 4685SOL    HW114954   2.888   3.544   4.220
 4685SOL    HW214955   2.960   3.514   4.364
 4686SOL     OW14956   1.814   6.850   6.023
 4686SOL    HW114957   1.826   6.752   6.036
 4686SOL    HW214958   1.720   6.876   6.047
 4687SOL     OW14959   1.041   6.816   2.311
 4687SOL    HW114960   1.007   6.730   2.350
 4687SOL    HW214961   0.967   6.860   2.259
 4688SOL     OW14962   4.737   2.112   5.060
 4688SOL    HW114963   4.705   2.206   5.075
 4688SOL    HW214964   4.792   2.108   4.977
 4689SOL     OW14965   6.659   0.875   1.288
 4689SOL    HW114966   6.574   0.882   1.340
 4689SOL    HW214967   6.683   0.964   1.250
 4690SOL     OW14968   2.922   2.364   1.037
 4690SOL    HW114969   2.889   2.269   1.038
 4690SOL    HW214970   3.016   2.366   1.002
 4691SOL     OW14971   6.046   2.728   2.057
 4691SOL    HW114972   6.046   2.765   2.150
 4691SOL    HW214973   6.026   2.630   2.060
 4692SOL     OW14974   6.804   2.352   3.351
 4692SOL    HW114975   6.821   2.441   3.309
 4692SOL    HW214976   6.889   2.315   3.387
 4693SOL     OW14977   0.314   0.550   3.245
 4693SOL    HW114978   0.305   0.477   3.178
 4693SOL    HW214979   0.406   0.548   3.284
 4694SOL     OW14980   1.196   6.791   5.850
 4694SOL    HW114981   1.136   6.870   5.837
 4694SOL    HW214982   1.192   6.732   5.769
 4695SOL     OW14983   1.484   4.633   1.616
 4695SOL    HW114984   1.505   4.542   1.580
 4695SOL    HW214985   1.441   4.624   1.706
 4696SOL     OW14986   2.161   6.266   5.918
 4696SOL    HW114987   2.106   6.184   5.931
 4696SOL    HW214988   2.179   6.310   6.006
 4697SOL     OW14989   4.501   5.586   1.402
 4697SOL    HW114990   4.433   5.532   1.353
 4697SOL    HW214991   4.538   5.656   1.342
 4698SOL     OW14992   6.032   1.456   4.754
 4698SOL    HW114993   6.025   1.390   4.679
 4698SOL    HW214994   6.126   1.488   4.762
 4699SOL     OW14995   0.851   1.958   3.366
 4699SOL    HW114996   0.918   1.958   3.440
 4699SOL    HW214997   0.759   1.953   3.405
 4700SOL     OW14998   6.877   1.400   3.888
 4700SOL    HW114999   6.910   1.425   3.980
 4700SOL    HW215000   6.789   1.445   3.871
 4701SOL     OW15001   2.368   2.820   1.722
 4701SOL    HW115002   2.377   2.721   1.715
 4701SOL    HW215003   2.456   2.863   1.702
 4702SOL     OW15004   5.969   4.899   1.511
 4702SOL    HW115005   5.960   4.951   1.426
 4702SOL    HW215006   6.065   4.894   1.537
 4703SOL     OW15007   6.719   5.577   4.093
 4703SOL    HW115008   6.796   5.638   4.074
 4703SOL    HW215009   6.747   5.482   4.076
 4704SOL     OW15010   1.406   4.754   3.714
 4704SOL    HW115011   1.415   4.821   3.641
 4704SOL    HW215012   1.310   4.726   3.722
 4705SOL     OW15013   3.073   3.115   1.518
 4705SOL    HW115014   3.035   3.136   1.608
 4705SOL    HW215015   3.140   3.185   1.493
 4706SOL     OW15016   1.992   0.842   1.169
 4706SOL    HW115017   1.964   0.900   1.093
 4706SOL    HW215018   2.033   0.758   1.134
 4707SOL     OW15019   2.088   5.687   1.935
 4707SOL    HW115020   2.102   5.694   2.034
 4707SOL    HW215021   2.051   5.596   1.914
 4708SOL     OW15022   2.094   3.177   6.459
 4708SOL    HW115023   2.061   3.271   6.476
 4708SOL    HW215024   2.089   3.157   6.362
 4709SOL     OW15025   6.189   3.323   4.115
 4709SOL    HW115026   6.121   3.391   4.141
 4709SOL    HW215027   6.269   3.330   4.176
 4710SOL     OW15028   5.999   4.772   5.729
 4710SOL    HW115029   5.991   4.822   5.815
 4710SOL    HW215030   5.909   4.763   5.686
 4711SOL     OW15031   4.944   4.627   3.186
 4711SOL    HW115032   4.959   4.687   3.265
 4711SOL    HW215033   4.846   4.614   3.172
 4712SOL     OW15034   4.304   4.728   6.450
 4712SOL    HW115035   4.215   4.727   6.405
 4712SOL    HW215036   4.341   4.822   6.448
 4713SOL     OW15037   5.742   4.287   1.746
 4713SOL    HW115038   5.725   4.345   1.666
 4713SOL    HW215039   5.680   4.314   1.820
 4714SOL     OW15040   5.179   2.194   5.762
 4714SOL    HW115041   5.223   2.281   5.784
 4714SOL    HW215042   5.084   2.196   5.793
 4715SOL     OW15043   6.670   1.198   1.922
 4715SOL    HW115044   6.769   1.201   1.907
 4715SOL    HW215045   6.648   1.249   2.006
 4716SOL     OW15046   3.738   4.184   5.022
 4716SOL    HW115047   3.742   4.232   4.934
 4716SOL    HW215048   3.802   4.107   5.021
 4717SOL     OW15049   0.968   4.394   5.962
 4717SOL    HW115050   1.065   4.391   5.986
 4717SOL    HW215051   0.954   4.466   5.894
 4718SOL     OW15052   4.912   3.420   2.542
 4718SOL    HW115053   4.957   3.508   2.526
 4718SOL    HW215054   4.948   3.379   2.626
 4719SOL     OW15055   5.477   4.297   3.821
 4719SOL    HW115056   5.467   4.197   3.814
 4719SOL    HW215057   5.573   4.321   3.806
 4720SOL     OW15058   1.321   1.944   5.304
 4720SOL    HW115059   1.279   1.916   5.217
 4720SOL    HW215060   1.417   1.916   5.305
 4721SOL     OW15061   0.738   2.981   2.481
 4721SOL    HW115062   0.695   2.891   2.493
 4721SOL    HW215063   0.749   2.999   2.384
 4722SOL     OW15064   1.416   5.637   5.799
 4722SOL    HW115065   1.483   5.582   5.849
 4722SOL    HW215066   1.325   5.617   5.834
 4723SOL     OW15067   3.329   5.021   5.837
 4723SOL    HW115068   3.423   4.987   5.833
 4723SOL    HW215069   3.266   4.943   5.841
 4724SOL     OW15070   0.194   0.758   3.724
 4724SOL    HW115071   0.201   0.723   3.630
 4724SOL    HW215072   0.275   0.812   3.745
 4725SOL     OW15073   4.904   6.124   1.470
 4725SOL    HW115074   4.998   6.151   1.450
 4725SOL    HW215075   4.868   6.070   1.394
 4726SOL     OW15076   1.996   2.868   6.642
 4726SOL    HW115077   1.957   2.895   6.554
 4726SOL    HW215078   2.089   2.834   6.628
 4727SOL     OW15079   6.712   5.387   1.584
 4727SOL    HW115080   6.666   5.463   1.539
 4727SOL    HW215081   6.764   5.334   1.516
 4728SOL     OW15082   4.347   0.293   3.463
 4728SOL    HW115083   4.355   0.371   3.525
 4728SOL    HW215084   4.312   0.214   3.514
 4729SOL     OW15085   0.570   0.232   2.868
 4729SOL    HW115086   0.489   0.291   2.866
 4729SOL    HW215087   0.582   0.190   2.779
 4730SOL     OW15088   2.549   1.175   2.894
 4730SOL    HW115089   2.621   1.147   2.958
 4730SOL    HW215090   2.547   1.275   2.889
 4731SOL     OW15091   3.585   6.940   2.351
 4731SOL    HW115092   3.501   6.943   2.406
 4731SOL    HW215093   3.659   6.898   2.404
 4732SOL     OW15094   0.302   4.911   4.061
 4732SOL    HW115095   0.236   4.869   4.124
 4732SOL    HW215096   0.308   4.856   3.978
 4733SOL     OW15097   2.537   4.520   3.355
 4733SOL    HW115098   2.605   4.449   3.339
 4733SOL    HW215099   2.506   4.515   3.450
 4734SOL     OW15100   4.155   4.573   5.861
 4734SOL    HW115101   4.247   4.544   5.884
 4734SOL    HW215102   4.145   4.575   5.761
 4735SOL     OW15103   0.283   0.696   5.268
 4735SOL    HW115104   0.273   0.791   5.239
 4735SOL    HW215105   0.371   0.660   5.239
 4736SOL     OW15106   6.209   0.244   4.496
 4736SOL    HW115107   6.269   0.247   4.416
 4736SOL    HW215108   6.124   0.197   4.473
 4737SOL     OW15109   1.925   5.316   6.964
 4737SOL    HW115110   1.876   5.364   6.891
 4737SOL    HW215111   1.935   5.219   6.941
 4738SOL     OW15112   0.270   6.271   3.930
 4738SOL    HW115113   0.297   6.367   3.924
 4738SOL    HW215114   0.306   6.231   4.014
 4739SOL     OW15115   5.996   3.829   2.922
 4739SOL    HW115116   5.996   3.780   3.010
 4739SOL    HW215117   5.927   3.902   2.924
 4740SOL     OW15118   1.623   6.538   0.706
 4740SOL    HW115119   1.600   6.588   0.789
 4740SOL    HW215120   1.612   6.440   0.722
 4741SOL     OW15121   6.099   4.068   2.645
 4741SOL    HW115122   6.028   4.119   2.597
 4741SOL    HW215123   6.124   3.987   2.592
 4742SOL     OW15124   2.080   5.410   1.830
 4742SOL    HW115125   2.039   5.349   1.898
 4742SOL    HW215126   2.053   5.380   1.739
 4743SOL     OW15127   2.475   3.205   0.362
 4743SOL    HW115128   2.496   3.286   0.307
 4743SOL    HW215129   2.504   3.221   0.457
 4744SOL     OW15130   3.041   1.982   5.860
 4744SOL    HW115131   2.978   1.906   5.875
 4744SOL    HW215132   3.017   2.028   5.774
 4745SOL     OW15133   4.728   5.870   4.763
 4745SOL    HW115134   4.771   5.886   4.673
 4745SOL    HW215135   4.668   5.947   4.785
 4746SOL     OW15136   5.580   1.275   0.921
 4746SOL    HW115137   5.640   1.292   0.999
 4746SOL    HW215138   5.619   1.318   0.839
 4747SOL     OW15139   1.179   3.024   2.341
 4747SOL    HW115140   1.271   3.062   2.345
 4747SOL    HW215141   1.143   3.033   2.248
 4748SOL     OW15142   1.973   6.524   0.290
 4748SOL    HW115143   2.070   6.522   0.315
 4748SOL    HW215144   1.961   6.477   0.203
 4749SOL     OW15145   3.784   0.894   0.098
 4749SOL    HW115146   3.724   0.869   0.021
 4749SOL    HW215147   3.880   0.884   0.069
 4750SOL     OW15148   0.819   2.139   4.994
 4750SOL    HW115149   0.760   2.058   4.996
 4750SOL    HW215150   0.867   2.143   4.906
 4751SOL     OW15151   1.475   4.122   6.005
 4751SOL    HW115152   1.562   4.119   5.957
 4751SOL    HW215153   1.464   4.039   6.061
 4752SOL     OW15154   1.927   5.786   0.493
 4752SOL    HW115155   1.831   5.761   0.479
 4752SOL    HW215156   1.976   5.710   0.535
 4753SOL     OW15157   0.496   1.341   6.867
 4753SOL    HW115158   0.398   1.318   6.863
 4753SOL    HW215159   0.532   1.349   6.774
 4754SOL     OW15160   1.213   0.626   6.504
 4754SOL    HW115161   1.280   0.700   6.498
 4754SOL    HW215162   1.216   0.570   6.422
 4755SOL     OW15163   2.681   6.513   2.860
 4755SOL    HW115164   2.699   6.474   2.951
 4755SOL    HW215165   2.594   6.563   2.862
 4756SOL     OW15166   5.268   2.904   0.851
 4756SOL    HW115167   5.289   2.812   0.884
 4756SOL    HW215168   5.271   2.968   0.927
 4757SOL     OW15169   2.348   4.050   0.631
 4757SOL    HW115170   2.289   4.113   0.580
 4757SOL    HW215171   2.442   4.083   0.628
 4758SOL     OW15172   6.630   4.291   6.186
 4758SOL    HW115173   6.626   4.257   6.280
 4758SOL    HW215174   6.541   4.282   6.142
 4759SOL     OW15175   6.864   3.981   6.585
 4759SOL    HW115176   6.962   3.977   6.603
 4759SOL    HW215177   6.815   3.924   6.651
 4760SOL     OW15178   0.643   2.948   0.169
 4760SOL    HW115179   0.561   2.907   0.128
 4760SOL    HW215180   0.645   2.928   0.266
 4761SOL     OW15181   3.012   6.333   6.444
 4761SOL    HW115182   2.951   6.341   6.524
 4761SOL    HW215183   2.962   6.361   6.362
 4762SOL     OW15184   2.850   1.195   2.962
 4762SOL    HW115185   2.926   1.157   3.013
 4762SOL    HW215186   2.883   1.227   2.873
 4763SOL     OW15187   5.036   4.789   4.642
 4763SOL    HW115188   4.980   4.738   4.707
 4763SOL    HW215189   5.012   4.760   4.549
 4764SOL     OW15190   3.156   3.489   3.666
 4764SOL    HW115191   3.143   3.586   3.690
 4764SOL    HW215192   3.247   3.476   3.628
 4765SOL     OW15193   0.076   5.436   0.052
 4765SOL    HW115194   0.053   5.493   0.131
 4765SOL    HW215195   0.175   5.427   0.046
 4766SOL     OW15196   2.654   1.446   3.004
 4766SOL    HW115197   2.641   1.376   3.075
 4766SOL    HW215198   2.751   1.466   2.994
 4767SOL     OW15199   4.578   0.336   6.800
 4767SOL    HW115200   4.625   0.414   6.760
 4767SOL    HW215201   4.586   0.338   6.899
 4768SOL     OW15202   2.352   0.432   5.288
 4768SOL    HW115203   2.335   0.470   5.197
 4768SOL    HW215204   2.269   0.441   5.343
 4769SOL     OW15205   4.490   0.859   2.270
 4769SOL    HW115206   4.445   0.770   2.264
 4769SOL    HW215207   4.588   0.848   2.249
 4770SOL     OW15208   2.797   0.677   3.431
 4770SOL    HW115209   2.736   0.715   3.361
 4770SOL    HW215210   2.886   0.657   3.390
 4771SOL     OW15211   3.639   4.882   6.930
 4771SOL    HW115212   3.599   4.791   6.923
 4771SOL    HW215213   3.662   4.901   0.003
 4772SOL     OW15214   4.299   2.289   0.651
 4772SOL    HW115215   4.307   2.233   0.568
 4772SOL    HW215216   4.354   2.249   0.724
 4773SOL     OW15217   0.292   4.802   3.811
 4773SOL    HW115218   0.220   4.857   3.768
 4773SOL    HW215219   0.379   4.818   3.765
 4774SOL     OW15220   2.317   4.036   6.987
 4774SOL    HW115221   2.360   4.089   0.038
 4774SOL    HW215222   2.293   3.945   7.021
 4775SOL     OW15223   1.408   3.148   2.644
 4775SOL    HW115224   1.499   3.127   2.681
 4775SOL    HW215225   1.343   3.153   2.720
 4776SOL     OW15226   4.503   5.236   1.090
 4776SOL    HW115227   4.485   5.293   1.010
 4776SOL    HW215228   4.482   5.140   1.068
 4777SOL     OW15229   1.787   3.880   1.714
 4777SOL    HW115230   1.885   3.900   1.715
 4777SOL    HW215231   1.765   3.813   1.784
 4778SOL     OW15232   5.454   3.594   3.384
 4778SOL    HW115233   5.359   3.597   3.354
 4778SOL    HW215234   5.513   3.578   3.305
 4779SOL     OW15235   5.947   1.293   2.626
 4779SOL    HW115236   5.971   1.208   2.581
 4779SOL    HW215237   6.020   1.360   2.611
 4780SOL     OW15238   1.624   1.400   5.205
 4780SOL    HW115239   1.715   1.433   5.231
 4780SOL    HW215240   1.631   1.342   5.124
 4781SOL     OW15241   2.395   5.653   2.782
 4781SOL    HW115242   2.353   5.706   2.709
 4781SOL    HW215243   2.324   5.604   2.833
 4782SOL     OW15244   6.623   6.317   6.404
 4782SOL    HW115245   6.612   6.406   6.359
 4782SOL    HW215246   6.577   6.319   6.492
 4783SOL     OW15247   5.089   4.798   3.353
 4783SOL    HW115248   5.090   4.833   3.446
 4783SOL    HW215249   5.159   4.845   3.299
 4784SOL     OW15250   4.775   4.128   4.493
 4784SOL    HW115251   4.697   4.176   4.530
 4784SOL    HW215252   4.859   4.180   4.510
 4785SOL     OW15253   5.659   5.468   0.714
 4785SOL    HW115254   5.666   5.542   0.780
 4785SOL    HW215255   5.563   5.455   0.688
 4786SOL     OW15256   1.364   4.730   3.203
 4786SOL    HW115257   1.419   4.648   3.185
 4786SOL    HW215258   1.366   4.790   3.123
 4787SOL     OW15259   3.472   2.122   3.057
 4787SOL    HW115260   3.447   2.089   2.966
 4787SOL    HW215261   3.570   2.111   3.070
 4788SOL     OW15262   2.331   0.421   4.168
 4788SOL    HW115263   2.291   0.427   4.260
 4788SOL    HW215264   2.258   0.412   4.101
 4789SOL     OW15265   4.617   5.621   6.601
 4789SOL    HW115266   4.598   5.523   6.607
 4789SOL    HW215267   4.575   5.668   6.678
 4790SOL     OW15268   5.950   0.068   6.124
 4790SOL    HW115269   5.887   0.146   6.123
 4790SOL    HW215270   6.006   0.069   6.041
 4791SOL     OW15271   4.546   2.305   3.260
 4791SOL    HW115272   4.480   2.299   3.185
 4791SOL    HW215273   4.533   2.228   3.323
 4792SOL     OW15274   3.303   3.162   0.173
 4792SOL    HW115275   3.213   3.136   0.139
 4792SOL    HW215276   3.314   3.131   0.267
 4793SOL     OW15277   0.635   1.285   0.089
 4793SOL    HW115278   0.605   1.305   7.018
 4793SOL    HW215279   0.717   1.338   0.110
 4794SOL     OW15280   5.546   1.045   2.045
 4794SOL    HW115281   5.468   1.000   2.088
 4794SOL    HW215282   5.617   1.062   2.114
 4795SOL     OW15283   6.568   1.707   4.719
 4795SOL    HW115284   6.628   1.632   4.692
 4795SOL    HW215285   6.596   1.791   4.673
 4796SOL     OW15286   4.521   4.223   0.606
 4796SOL    HW115287   4.479   4.132   0.613
 4796SOL    HW215288   4.521   4.267   0.695
 4797SOL     OW15289   1.675   5.581   4.325
 4797SOL    HW115290   1.676   5.481   4.332
 4797SOL    HW215291   1.760   5.617   4.364
 4798SOL     OW15292   0.212   6.235   6.594
 4798SOL    HW115293   0.208   6.141   6.562
 4798SOL    HW215294   0.120   6.268   6.614
 4799SOL     OW15295   5.594   0.941   5.235
 4799SOL    HW115296   5.617   0.844   5.223
 4799SOL    HW215297   5.495   0.953   5.230
 4800SOL     OW15298   1.962   2.679   4.325
 4800SOL    HW115299   1.902   2.605   4.295
 4800SOL    HW215300   2.047   2.641   4.361
 4801SOL     OW15301   6.994   1.668   0.887
 4801SOL    HW115302   6.922   1.604   0.911
 4801SOL    HW215303   0.006   1.711   0.971
 4802SOL     OW15304   1.473   6.336   1.366
 4802SOL    HW115305   1.461   6.238   1.377
 4802SOL    HW215306   1.544   6.354   1.298
 4803SOL     OW15307   0.559   6.455   1.537
 4803SOL    HW115308   0.612   6.519   1.593
 4803SOL    HW215309   0.470   6.495   1.516
 4804SOL     OW15310   4.320   5.011   6.546
 4804SOL    HW115311   4.370   5.089   6.508
 4804SOL    HW215312   4.249   5.045   6.607
 4805SOL     OW15313   6.436   6.739   1.689
 4805SOL    HW115314   6.496   6.695   1.756
 4805SOL    HW215315   6.427   6.680   1.609
 4806SOL     OW15316   0.497   2.090   4.296
 4806SOL    HW115317   0.528   2.061   4.386
 4806SOL    HW215318   0.409   2.047   4.275
 4807SOL     OW15319   0.786   6.691   2.040
 4807SOL    HW115320   0.885   6.703   2.033
 4807SOL    HW215321   0.758   6.700   2.135
 4808SOL     OW15322   6.614   1.055   0.023
 4808SOL    HW115323   6.701   1.103   0.015
 4808SOL    HW215324   6.616   0.973   6.988
 4809SOL     OW15325   4.395   6.213   0.750
 4809SOL    HW115326   4.356   6.129   0.712
 4809SOL    HW215327   4.481   6.192   0.795
 4810SOL     OW15328   1.820   0.198   5.467
 4810SOL    HW115329   1.885   0.234   5.400
 4810SOL    HW215330   1.835   0.100   5.478
 4811SOL     OW15331   5.026   4.554   4.424
 4811SOL    HW115332   4.965   4.527   4.350
 4811SOL    HW215333   5.001   4.505   4.508
 4812SOL     OW15334   6.450   4.810   2.787
 4812SOL    HW115335   6.521   4.828   2.855
 4812SOL    HW215336   6.362   4.847   2.819
 4813SOL     OW15337   6.239   3.527   3.079
 4813SOL    HW115338   6.251   3.622   3.110
 4813SOL    HW215339   6.166   3.523   3.011
 4814SOL     OW15340   0.081   2.631   1.190
 4814SOL    HW115341   0.109   2.719   1.229
 4814SOL    HW215342   0.115   2.557   1.248
 4815SOL     OW15343   4.612   1.504   3.531
 4815SOL    HW115344   4.702   1.471   3.502
 4815SOL    HW215345   4.617   1.534   3.626
 4816SOL     OW15346   6.253   3.751   4.693
 4816SOL    HW115347   6.340   3.710   4.666
 4816SOL    HW215348   6.183   3.680   4.697
 4817SOL     OW15349   5.646   1.234   6.428
 4817SOL    HW115350   5.641   1.319   6.480
 4817SOL    HW215351   5.719   1.239   6.361
 4818SOL     OW15352   0.185   6.811   3.157
 4818SOL    HW115353   0.125   6.733   3.137
 4818SOL    HW215354   0.158   6.852   3.244
 4819SOL     OW15355   0.475   2.955   0.824
 4819SOL    HW115356   0.443   3.027   0.886
 4819SOL    HW215357   0.458   2.865   0.865
 4820SOL     OW15358   5.844   3.045   2.180
 4820SOL    HW115359   5.841   3.129   2.125
 4820SOL    HW215360   5.753   3.024   2.214
 4821SOL     OW15361   0.054   5.582   3.707
 4821SOL    HW115362   0.146   5.596   3.744
 4821SOL    HW215363   7.021   5.532   3.773
 4822SOL     OW15364   2.641   5.917   4.379
 4822SOL    HW115365   2.673   5.824   4.398
 4822SOL    HW215366   2.715   5.971   4.339
 4823SOL     OW15367   0.756   1.782   0.121
 4823SOL    HW115368   0.833   1.823   0.170
 4823SOL    HW215369   0.734   1.839   0.041
 4824SOL     OW15370   6.564   2.518   0.519
 4824SOL    HW115371   6.514   2.485   0.599
 4824SOL    HW215372   6.498   2.547   0.449
 4825SOL     OW15373   1.495   5.405   3.468
 4825SOL    HW115374   1.412   5.426   3.519
 4825SOL    HW215375   1.572   5.456   3.507
 4826SOL     OW15376   5.008   6.734   0.457
 4826SOL    HW115377   4.982   6.655   0.513
 4826SOL    HW215378   4.949   6.811   0.478
 4827SOL     OW15379   5.481   1.178   1.812
 4827SOL    HW115380   5.398   1.211   1.856
 4827SOL    HW215381   5.535   1.126   1.877
 4828SOL     OW15382   5.407   1.416   6.423
 4828SOL    HW115383   5.471   1.350   6.384
 4828SOL    HW215384   5.379   1.481   6.352
 4829SOL     OW15385   4.903   5.531   5.387
 4829SOL    HW115386   4.923   5.567   5.478
 4829SOL    HW215387   4.986   5.536   5.330
 4830SOL     OW15388   1.540   6.304   2.967
 4830SOL    HW115389   1.510   6.399   2.981
 4830SOL    HW215390   1.624   6.288   3.017
 4831SOL     OW15391   2.716   4.189   6.267
 4831SOL    HW115392   2.631   4.239   6.255
 4831SOL    HW215393   2.738   4.138   6.183
 4832SOL     OW15394   3.683   3.374   3.758
 4832SOL    HW115395   3.773   3.418   3.759
 4832SOL    HW215396   3.615   3.438   3.723
 4833SOL     OW15397   5.860   2.198   5.082
 4833SOL    HW115398   5.944   2.163   5.122
 4833SOL    HW215399   5.865   2.298   5.076
 4834SOL     OW15400   1.268   3.719   1.351
 4834SOL    HW115401   1.306   3.675   1.433
 4834SOL    HW215402   1.176   3.751   1.370
 4835SOL     OW15403   1.657   3.615   6.130
 4835SOL    HW115404   1.615   3.590   6.217
 4835SOL    HW215405   1.655   3.715   6.120
 4836SOL     OW15406   3.471   0.243   5.828
 4836SOL    HW115407   3.376   0.242   5.861
 4836SOL    HW215408   3.477   0.299   5.746
 4837SOL     OW15409   1.560   3.924   4.274
 4837SOL    HW115410   1.610   3.859   4.216
 4837SOL    HW215411   1.513   3.990   4.217
 4838SOL     OW15412   1.496   4.563   6.910
 4838SOL    HW115413   1.501   4.660   6.887
 4838SOL    HW215414   1.534   4.549   7.002
 4839SOL     OW15415   2.993   0.199   1.485
 4839SOL    HW115416   2.905   0.161   1.460
 4839SOL    HW215417   2.990   0.299   1.477
 4840SOL     OW15418   5.322   1.892   3.523
 4840SOL    HW115419   5.234   1.932   3.497
 4840SOL    HW215420   5.344   1.816   3.462
 4841SOL     OW15421   3.186   4.952   3.191
 4841SOL    HW115422   3.273   4.929   3.233
 4841SOL    HW215423   3.111   4.932   3.255
 4842SOL     OW15424   4.230   4.743   3.758
 4842SOL    HW115425   4.307   4.742   3.821
 4842SOL    HW215426   4.144   4.740   3.810
 4843SOL     OW15427   6.262   2.719   7.021
 4843SOL    HW115428   6.214   2.775   0.066
 4843SOL    HW215429   6.343   2.768   6.988
 4844SOL     OW15430   1.378   4.774   6.536
 4844SOL    HW115431   1.439   4.696   6.546
 4844SOL    HW215432   1.283   4.743   6.534
 4845SOL     OW15433   5.572   4.328   5.530
 4845SOL    HW115434   5.597   4.327   5.433
 4845SOL    HW215435   5.630   4.394   5.578
 4846SOL     OW15436   6.635   3.085   3.853
 4846SOL    HW115437   6.725   3.044   3.846
 4846SOL    HW215438   6.628   3.136   3.939
 4847SOL     OW15439   1.952   6.730   6.508
 4847SOL    HW115440   1.942   6.651   6.448
 4847SOL    HW215441   2.037   6.722   6.560
 4848SOL     OW15442   4.894   1.458   3.572
 4848SOL    HW115443   4.917   1.473   3.668
 4848SOL    HW215444   4.915   1.363   3.547
 4849SOL     OW15445   1.056   5.586   1.659
 4849SOL    HW115446   1.121   5.660   1.677
 4849SOL    HW215447   1.026   5.591   1.563
 4850SOL     OW15448   3.080   7.012   2.136
 4850SOL    HW115449   3.177   6.998   2.116
 4850SOL    HW215450   3.048   0.073   2.090
 4851SOL     OW15451   4.168   4.408   6.583
 4851SOL    HW115452   4.118   4.445   6.661
 4851SOL    HW215453   4.232   4.477   6.549
 4852SOL     OW15454   3.862   4.254   5.887
 4852SOL    HW115455   3.899   4.334   5.934
 4852SOL    HW215456   3.914   4.173   5.914
 4853SOL     OW15457   4.430   0.258   2.650
 4853SOL    HW115458   4.471   0.310   2.725
 4853SOL    HW215459   4.361   0.313   2.604
 4854SOL     OW15460   3.987   0.057   1.636
 4854SOL    HW115461   4.067   0.013   1.596
 4854SOL    HW215462   4.014   0.141   1.683
 4855SOL     OW15463   4.620   4.737   5.431
 4855SOL    HW115464   4.551   4.761   5.362
 4855SOL    HW215465   4.659   4.648   5.409
 4856SOL     OW15466   0.496   2.916   3.572
 4856SOL    HW115467   0.557   2.849   3.613
 4856SOL    HW215468   0.403   2.878   3.568
 4857SOL     OW15469   2.925   1.542   5.542
 4857SOL    HW115470   2.884   1.558   5.452
 4857SOL    HW215471   2.853   1.520   5.608
 4858SOL     OW15472   2.816   5.799   5.230
 4858SOL    HW115473   2.725   5.812   5.270
 4858SOL    HW215474   2.854   5.712   5.261
 4859SOL     OW15475   6.995   5.570   2.895
 4859SOL    HW115476   7.018   5.488   2.949
 4859SOL    HW215477   6.897   5.586   2.900
 4860SOL     OW15478   3.559   5.165   0.762
 4860SOL    HW115479   3.538   5.253   0.803
 4860SOL    HW215480   3.621   5.114   0.821
 4861SOL     OW15481   4.941   5.063   4.609
 4861SOL    HW115482   4.962   4.988   4.672
 4861SOL    HW215483   4.854   5.105   4.635
 4862SOL     OW15484   1.542   5.216   3.282
 4862SOL    HW115485   1.501   5.300   3.316
 4862SOL    HW215486   1.469   5.153   3.254
 4863SOL     OW15487   5.819   1.922   2.134
 4863SOL    HW115488   5.871   1.868   2.201
 4863SOL    HW215489   5.822   2.019   2.161
 4864SOL     OW15490   2.392   3.089   1.580
 4864SOL    HW115491   2.487   3.070   1.606
 4864SOL    HW215492   2.346   3.002   1.559
 4865SOL     OW15493   3.961   0.372   4.753
 4865SOL    HW115494   3.934   0.395   4.847
 4865SOL    HW215495   3.989   0.276   4.750
 4866SOL     OW15496   1.462   5.033   1.661
 4866SOL    HW115497   1.528   4.984   1.603
 4866SOL    HW215498   1.377   4.982   1.665
 4867SOL     OW15499   5.393   4.655   6.357
 4867SOL    HW115500   5.365   4.723   6.425
 4867SOL    HW215501   5.389   4.695   6.266
 4868SOL     OW15502   1.361   5.861   1.967
 4868SOL    HW115503   1.320   5.806   2.040
 4868SOL    HW215504   1.443   5.814   1.932
 4869SOL     OW15505   0.464   1.849   1.884
 4869SOL    HW115506   0.402   1.774   1.907
 4869SOL    HW215507   0.556   1.813   1.870
 4870SOL     OW15508   6.074   1.618   2.051
 4870SOL    HW115509   6.121   1.630   1.963
 4870SOL    HW215510   6.064   1.521   2.070
 4871SOL     OW15511   1.463   2.512   5.076
 4871SOL    HW115512   1.454   2.584   5.145
 4871SOL    HW215513   1.434   2.547   4.987
 4872SOL     OW15514   2.388   2.657   3.055
 4872SOL    HW115515   2.354   2.699   3.140
 4872SOL    HW215516   2.465   2.597   3.077
 4873SOL     OW15517   1.189   0.192   6.283
 4873SOL    HW115518   1.268   0.183   6.344
 4873SOL    HW215519   1.117   0.243   6.329
 4874SOL     OW15520   6.413   1.459   4.899
 4874SOL    HW115521   6.462   1.403   4.833
 4874SOL    HW215522   6.376   1.540   4.854
 4875SOL     OW15523   0.061   2.995   0.473
 4875SOL    HW115524   0.090   2.936   0.548
 4875SOL    HW215525   6.989   2.973   0.448
 4876SOL     OW15526   6.312   1.479   6.544
 4876SOL    HW115527   6.302   1.519   6.453
 4876SOL    HW215528   6.385   1.411   6.543
 4877SOL     OW15529   3.879   2.130   2.333
 4877SOL    HW115530   3.860   2.140   2.431
 4877SOL    HW215531   3.964   2.178   2.310
 4878SOL     OW15532   1.318   2.926   2.831
 4878SOL    HW115533   1.354   2.886   2.915
 4878SOL    HW215534   1.320   2.858   2.758
 4879SOL     OW15535   3.005   6.639   2.842
 4879SOL    HW115536   2.983   6.595   2.929
 4879SOL    HW215537   2.971   6.581   2.767
 4880SOL     OW15538   0.226   2.728   6.141
 4880SOL    HW115539   0.199   2.742   6.046
 4880SOL    HW215540   0.323   2.706   6.145
 4881SOL     OW15541   3.039   6.788   5.617
 4881SOL    HW115542   3.014   6.699   5.578
 4881SOL    HW215543   3.086   6.842   5.549
 4882SOL     OW15544   6.025   6.358   6.329
 4882SOL    HW115545   5.934   6.377   6.292
 4882SOL    HW215546   6.016   6.302   6.412
 4883SOL     OW15547   6.093   5.691   0.443
 4883SOL    HW115548   6.065   5.755   0.372
 4883SOL    HW215549   6.021   5.683   0.512
 4884SOL     OW15550   4.145   6.684   2.664
 4884SOL    HW115551   4.103   6.656   2.750
 4884SOL    HW215552   4.188   6.605   2.621
 4885SOL     OW15553   0.286   6.983   1.956
 4885SOL    HW115554   0.370   0.011   1.936
 4885SOL    HW215555   0.306   6.885   1.962
 4886SOL     OW15556   6.164   0.999   5.781
 4886SOL    HW115557   6.214   0.925   5.736
 4886SOL    HW215558   6.128   0.967   5.868
 4887SOL     OW15559   0.087   2.629   5.483
 4887SOL    HW115560   0.176   2.631   5.438
 4887SOL    HW215561   0.045   2.539   5.472
 4888SOL     OW15562   4.647   5.816   1.382
 4888SOL    HW115563   4.600   5.842   1.466
 4888SOL    HW215564   4.712   5.887   1.357
 4889SOL     OW15565   1.169   3.000   6.147
 4889SOL    HW115566   1.218   2.925   6.103
 4889SOL    HW215567   1.089   3.025   6.092
 4890SOL     OW15568   5.796   0.306   3.899
 4890SOL    HW115569   5.849   0.385   3.929
 4890SOL    HW215570   5.702   0.315   3.933
 4891SOL     OW15571   0.288   4.554   0.786
 4891SOL    HW115572   0.226   4.518   0.717
 4891SOL    HW215573   0.332   4.637   0.752
 4892SOL     OW15574   2.087   5.053   1.501
 4892SOL    HW115575   2.183   5.081   1.496
 4892SOL    HW215576   2.082   4.956   1.526
 4893SOL     OW15577   0.096   4.424   6.634
 4893SOL    HW115578   0.172   4.431   6.569
 4893SOL    HW215579   0.063   4.516   6.657
 4894SOL     OW15580   0.373   0.065   3.506
 4894SOL    HW115581   0.357   0.136   3.438
 4894SOL    HW215582   0.294   0.003   3.508
 4895SOL     OW15583   6.717   3.686   6.490
 4895SOL    HW115584   6.806   3.644   6.508
 4895SOL    HW215585   6.693   3.748   6.565
 4896SOL     OW15586   4.593   1.574   5.778
 4896SOL    HW115587   4.498   1.598   5.758
 4896SOL    HW215588   4.649   1.590   5.697
 4897SOL     OW15589   3.140   5.935   0.050
 4897SOL    HW115590   3.234   5.960   0.073
 4897SOL    HW215591   3.114   5.980   6.986
 4898SOL     OW15592   4.851   2.902   4.538
 4898SOL    HW115593   4.938   2.912   4.490
 4898SOL    HW215594   4.846   2.970   4.612
 4899SOL     OW15595   0.502   3.069   4.420
 4899SOL    HW115596   0.561   3.008   4.366
 4899SOL    HW215597   0.446   3.124   4.359
 4900SOL     OW15598   7.008   6.773   6.171
 4900SOL    HW115599   6.998   6.699   6.238
 4900SOL    HW215600   6.953   6.852   6.200
 4901SOL     OW15601   6.586   6.627   3.432
 4901SOL    HW115602   6.605   6.726   3.434
 4901SOL    HW215603   6.490   6.612   3.410
 4902SOL     OW15604   3.004   5.995   0.570
 4902SOL    HW115605   2.906   6.014   0.574
 4902SOL    HW215606   3.024   5.939   0.490
 4903SOL     OW15607   6.535   4.549   0.061
 4903SOL    HW115608   6.539   4.617   7.010
 4903SOL    HW215609   6.500   4.463   0.025
 4904SOL     OW15610   2.892   0.931   3.521
 4904SOL    HW115611   2.828   0.867   3.478
 4904SOL    HW215612   2.872   0.938   3.619
 4905SOL     OW15613   5.512   4.321   3.528
 4905SOL    HW115614   5.478   4.297   3.619
 4905SOL    HW215615   5.524   4.420   3.521
 4906SOL     OW15616   5.914   0.087   1.880
 4906SOL    HW115617   5.896   0.026   1.958
 4906SOL    HW215618   5.827   0.123   1.846
 4907SOL     OW15619   3.144   2.904   1.337
 4907SOL    HW115620   3.129   2.962   1.417
 4907SOL    HW215621   3.167   2.961   1.258
 4908SOL     OW15622   4.876   5.076   6.275
 4908SOL    HW115623   4.900   5.135   6.198
 4908SOL    HW215624   4.778   5.055   6.271
 4909SOL     OW15625   6.259   6.660   5.429
 4909SOL    HW115626   6.318   6.639   5.351
 4909SOL    HW215627   6.170   6.690   5.396
 4910SOL     OW15628   5.378   6.688   5.187
 4910SOL    HW115629   5.338   6.596   5.191
 4910SOL    HW215630   5.306   6.754   5.164
 4911SOL     OW15631   0.232   3.822   6.424
 4911SOL    HW115632   0.308   3.768   6.462
 4911SOL    HW215633   0.194   3.775   6.344
 4912SOL     OW15634   1.622   3.002   1.664
 4912SOL    HW115635   1.595   3.056   1.584
 4912SOL    HW215636   1.571   3.033   1.744
 4913SOL     OW15637   3.072   3.931   2.126
 4913SOL    HW115638   2.994   3.914   2.187
 4913SOL    HW215639   3.154   3.945   2.181
 4914SOL     OW15640   1.273   0.239   2.624
 4914SOL    HW115641   1.236   0.149   2.646
 4914SOL    HW215642   1.371   0.232   2.604
 4915SOL     OW15643   4.707   6.585   4.541
 4915SOL    HW115644   4.735   6.548   4.453
 4915SOL    HW215645   4.782   6.575   4.607
 4916SOL     OW15646   1.866   1.616   1.852
 4916SOL    HW115647   1.774   1.598   1.818
 4916SOL    HW215648   1.928   1.547   1.817
 4917SOL     OW15649   0.535   5.571   6.708
 4917SOL    HW115650   0.596   5.559   6.786
 4917SOL    HW215651   0.589   5.593   6.627
 4918SOL     OW15652   3.330   6.397   3.782
 4918SOL    HW115653   3.401   6.330   3.801
 4918SOL    HW215654   3.306   6.394   3.685
 4919SOL     OW15655   2.454   2.482   1.498
 4919SOL    HW115656   2.521   2.533   1.552
 4919SOL    HW215657   2.465   2.505   1.402
 4920SOL     OW15658   4.501   2.391   6.405
 4920SOL    HW115659   4.508   2.471   6.344
 4920SOL    HW215660   4.409   2.354   6.400
 4921SOL     OW15661   6.626   4.717   1.643
 4921SOL    HW115662   6.671   4.694   1.730
 4921SOL    HW215663   6.572   4.639   1.612
 4922SOL     OW15664   1.499   4.060   5.300
 4922SOL    HW115665   1.576   4.123   5.289
 4922SOL    HW215666   1.463   4.068   5.393
 4923SOL     OW15667   4.296   2.108   0.908
 4923SOL    HW115668   4.334   2.111   1.000
 4923SOL    HW215669   4.261   2.016   0.889
 4924SOL     OW15670   1.329   3.144   4.837
 4924SOL    HW115671   1.349   3.185   4.926
 4924SOL    HW215672   1.285   3.056   4.850
 4925SOL     OW15673   5.299   4.962   4.640
 4925SOL    HW115674   5.230   4.906   4.595
 4925SOL    HW215675   5.390   4.927   4.617
 4926SOL     OW15676   4.848   3.341   1.175
 4926SOL    HW115677   4.820   3.360   1.269
 4926SOL    HW215678   4.851   3.426   1.123
 4927SOL     OW15679   2.856   3.533   2.512
 4927SOL    HW115680   2.879   3.443   2.474
 4927SOL    HW215681   2.780   3.524   2.576
 4928SOL     OW15682   6.508   2.022   6.297
 4928SOL    HW115683   6.421   2.064   6.275
 4928SOL    HW215684   6.495   1.924   6.312
 4929SOL     OW15685   1.116   4.748   3.773
 4929SOL    HW115686   1.125   4.803   3.856
 4929SOL    HW215687   1.033   4.692   3.779
 4930SOL     OW15688   0.624   3.441   0.629
 4930SOL    HW115689   0.668   3.462   0.542
 4930SOL    HW215690   0.526   3.427   0.613
 4931SOL     OW15691   6.055   0.111   0.786
 4931SOL    HW115692   6.080   0.032   0.842
 4931SOL    HW215693   6.018   0.079   0.699
 4932SOL     OW15694   2.264   1.623   0.697
 4932SOL    HW115695   2.280   1.694   0.765
 4932SOL    HW215696   2.274   1.533   0.740
 4933SOL     OW15697   2.988   6.975   4.475
 4933SOL    HW115698   3.044   6.898   4.445
 4933SOL    HW215699   2.896   6.944   4.496
 4934SOL     OW15700   1.545   6.486   5.458
 4934SOL    HW115701   1.566   6.568   5.512
 4934SOL    HW215702   1.459   6.500   5.409
 4935SOL     OW15703   1.321   2.551   1.143
 4935SOL    HW115704   1.382   2.476   1.120
 4935SOL    HW215705   1.229   2.515   1.161
 4936SOL     OW15706   5.897   3.895   1.190
 4936SOL    HW115707   5.906   3.805   1.149
 4936SOL    HW215708   5.985   3.922   1.230
 4937SOL     OW15709   1.095   3.939   5.068
 4937SOL    HW115710   1.122   3.880   4.992
 4937SOL    HW215711   1.115   3.891   5.154
 4938SOL     OW15712   3.014   3.787   1.116
 4938SOL    HW115713   3.089   3.725   1.092
 4938SOL    HW215714   2.927   3.745   1.090
 4939SOL     OW15715   0.739   1.396   1.775
 4939SOL    HW115716   0.668   1.416   1.709
 4939SOL    HW215717   0.818   1.456   1.758
 4940SOL     OW15718   1.962   1.824   4.902
 4940SOL    HW115719   2.030   1.892   4.927
 4940SOL    HW215720   1.871   1.855   4.929
 4941SOL     OW15721   3.452   1.893   5.954
 4941SOL    HW115722   3.464   1.793   5.954
 4941SOL    HW215723   3.444   1.926   6.048
 4942SOL     OW15724   0.429   0.410   2.573
 4942SOL    HW115725   0.526   0.406   2.550
 4942SOL    HW215726   0.418   0.425   2.671
 4943SOL     OW15727   5.460   2.138   6.634
 4943SOL    HW115728   5.404   2.055   6.626
 4943SOL    HW215729   5.491   2.166   6.543
 4944SOL     OW15730   1.026   5.091   0.072
 4944SOL    HW115731   1.032   5.135   0.162
 4944SOL    HW215732   1.085   5.010   0.070
 4945SOL     OW15733   2.679   0.620   6.694
 4945SOL    HW115734   2.763   0.669   6.671
 4945SOL    HW215735   2.692   0.522   6.679
 4946SOL     OW15736   1.859   6.224   6.903
 4946SOL    HW115737   1.811   6.186   6.824
 4946SOL    HW215738   1.795   6.274   6.961
 4947SOL     OW15739   1.225   6.893   1.119
 4947SOL    HW115740   1.274   6.812   1.151
 4947SOL    HW215741   1.165   6.867   1.043
 4948SOL     OW15742   1.599   3.705   2.266
 4948SOL    HW115743   1.558   3.794   2.282
 4948SOL    HW215744   1.531   3.643   2.228
 4949SOL     OW15745   6.717   5.162   6.962
 4949SOL    HW115746   6.663   5.246   6.951
 4949SOL    HW215747   6.772   5.169   0.023
 4950SOL     OW15748   3.566   3.325   5.809
 4950SOL    HW115749   3.498   3.393   5.837
 4950SOL    HW215750   3.618   3.361   5.731
 4951SOL     OW15751   4.861   5.292   4.121
 4951SOL    HW115752   4.849   5.194   4.133
 4951SOL    HW215753   4.950   5.320   4.157
 4952SOL     OW15754   0.678   1.321   6.583
 4952SOL    HW115755   0.729   1.291   6.664
 4952SOL    HW215756   0.692   1.255   6.509
 4953SOL     OW15757   1.459   1.421   5.423
 4953SOL    HW115758   1.531   1.422   5.354
 4953SOL    HW215759   1.488   1.473   5.503
 4954SOL     OW15760   3.278   4.222   5.666
 4954SOL    HW115761   3.345   4.235   5.592
 4954SOL    HW215762   3.188   4.207   5.627
 4955SOL     OW15763   3.908   5.889   0.364
 4955SOL    HW115764   3.883   5.866   0.270
 4955SOL    HW215765   3.912   5.805   0.419
 4956SOL     OW15766   2.440   6.501   3.551
 4956SOL    HW115767   2.370   6.434   3.578
 4956SOL    HW215768   2.518   6.493   3.613
 4957SOL     OW15769   5.987   5.705   0.898
 4957SOL    HW115770   6.045   5.765   0.843
 4957SOL    HW215771   5.959   5.754   0.981
 4958SOL     OW15772   2.991   5.777   1.077
 4958SOL    HW115773   3.013   5.832   0.997
 4958SOL    HW215774   2.903   5.731   1.063
 4959SOL     OW15775   2.123   0.974   2.212
 4959SOL    HW115776   2.060   1.031   2.265
 4959SOL    HW215777   2.209   1.024   2.197
 4960SOL     OW15778   5.180   3.900   4.895
 4960SOL    HW115779   5.082   3.885   4.883
 4960SOL    HW215780   5.211   3.971   4.831
 4961SOL     OW15781   3.892   3.481   2.479
 4961SOL    HW115782   3.992   3.485   2.477
 4961SOL    HW215783   3.860   3.503   2.570
 4962SOL     OW15784   1.546   2.553   0.847
 4962SOL    HW115785   1.626   2.599   0.808
 4962SOL    HW215786   1.495   2.617   0.904
 4963SOL     OW15787   0.577   3.957   6.378
 4963SOL    HW115788   0.596   3.931   6.283
 4963SOL    HW215789   0.547   3.877   6.429
 4964SOL     OW15790   1.311   5.081   3.188
 4964SOL    HW115791   1.297   5.171   3.146
 4964SOL    HW215792   1.328   5.013   3.117
 4965SOL     OW15793   2.278   6.624   2.929
 4965SOL    HW115794   2.365   6.653   2.891
 4965SOL    HW215795   2.293   6.552   2.997
 4966SOL     OW15796   3.973   6.723   5.505
 4966SOL    HW115797   3.976   6.783   5.425
 4966SOL    HW215798   3.896   6.749   5.563
 4967SOL     OW15799   4.479   4.969   2.977
 4967SOL    HW115800   4.447   4.917   3.056
 4967SOL    HW215801   4.456   5.066   2.990
 4968SOL     OW15802   6.710   2.639   3.506
 4968SOL    HW115803   6.739   2.690   3.426
 4968SOL    HW215804   6.788   2.591   3.546
 4969SOL     OW15805   1.594   5.970   3.654
 4969SOL    HW115806   1.506   6.016   3.661
 4969SOL    HW215807   1.586   5.877   3.690
 4970SOL     OW15808   2.730   0.896   0.390
 4970SOL    HW115809   2.794   0.901   0.467
 4970SOL    HW215810   2.752   0.816   0.334
 4971SOL     OW15811   0.773   6.018   2.266
 4971SOL    HW115812   0.710   5.941   2.277
 4971SOL    HW215813   0.867   5.984   2.264
 4972SOL     OW15814   7.010   3.534   1.127
 4972SOL    HW115815   0.030   3.530   1.037
 4972SOL    HW215816   6.966   3.446   1.147
 4973SOL     OW15817   5.745   2.539   0.166
 4973SOL    HW115818   5.809   2.463   0.160
 4973SOL    HW215819   5.707   2.558   0.075
 4974SOL     OW15820   2.975   0.782   5.207
 4974SOL    HW115821   2.934   0.718   5.141
 4974SOL    HW215822   3.064   0.813   5.172
 4975SOL     OW15823   6.193   4.313   0.898
 4975SOL    HW115824   6.256   4.373   0.849
 4975SOL    HW215825   6.131   4.368   0.953
 4976SOL     OW15826   1.906   0.155   3.858
 4976SOL    HW115827   1.906   0.215   3.778
 4976SOL    HW215828   1.992   0.164   3.907
 4977SOL     OW15829   1.374   3.374   4.271
 4977SOL    HW115830   1.313   3.437   4.223
 4977SOL    HW215831   1.434   3.425   4.332
 4978SOL     OW15832   6.824   5.242   4.447
 4978SOL    HW115833   6.876   5.318   4.485
 4978SOL    HW215834   6.759   5.277   4.380
 4979SOL     OW15835   3.521   7.002   5.697
 4979SOL    HW115836   3.553   0.062   5.743
 4979SOL    HW215837   3.426   6.984   5.724
 4980SOL     OW15838   5.807   2.767   4.313
 4980SOL    HW115839   5.777   2.830   4.385
 4980SOL    HW215840   5.801   2.813   4.225
 4981SOL     OW15841   2.783   6.939   2.173
 4981SOL    HW115842   2.715   6.879   2.132
 4981SOL    HW215843   2.874   6.913   2.140
 4982SOL     OW15844   3.689   2.148   5.032
 4982SOL    HW115845   3.780   2.114   5.055
 4982SOL    HW215846   3.648   2.190   5.113
 4983SOL     OW15847   4.871   3.705   2.997
 4983SOL    HW115848   4.862   3.694   3.096
 4983SOL    HW215849   4.821   3.786   2.968
 4984SOL     OW15850   4.984   3.408   5.109
 4984SOL    HW115851   5.076   3.443   5.122
 4984SOL    HW215852   4.917   3.481   5.124
 4985SOL     OW15853   4.656   0.519   2.390
 4985SOL    HW115854   4.730   0.528   2.323
 4985SOL    HW215855   4.568   0.526   2.344
 4986SOL     OW15856   1.560   6.118   1.100
 4986SOL    HW115857   1.541   6.207   1.057
 4986SOL    HW215858   1.508   6.047   1.053
 4987SOL     OW15859   2.091   3.893   2.376
 4987SOL    HW115860   2.166   3.841   2.335
 4987SOL    HW215861   2.049   3.952   2.308
 4988SOL     OW15862   6.801   4.617   3.561
 4988SOL    HW115863   6.851   4.530   3.550
 4988SOL    HW215864   6.837   4.684   3.496
 4989SOL     OW15865   0.125   0.677   4.575
 4989SOL    HW115866   0.130   0.598   4.636
 4989SOL    HW215867   0.196   0.743   4.600
 4990SOL     OW15868   4.043   1.686   6.108
 4990SOL    HW115869   4.122   1.747   6.098
 4990SOL    HW215870   4.069   1.594   6.079
 4991SOL     OW15871   2.168   5.555   4.855
 4991SOL    HW115872   2.189   5.652   4.865
 4991SOL    HW215873   2.071   5.540   4.870
 4992SOL     OW15874   2.990   2.738   5.334
 4992SOL    HW115875   2.892   2.722   5.350
 4992SOL    HW215876   3.003   2.831   5.298
 4993SOL     OW15877   2.338   5.281   4.059
 4993SOL    HW115878   2.356   5.183   4.064
 4993SOL    HW215879   2.352   5.322   4.149
 4994SOL     OW15880   3.749   4.960   5.610
 4994SOL    HW115881   3.829   4.905   5.634
 4994SOL    HW215882   3.705   4.922   5.529
 4995SOL     OW15883   0.949   2.027   6.630
 4995SOL    HW115884   0.914   1.997   6.719
 4995SOL    HW215885   0.880   2.084   6.586
 4996SOL     OW15886   0.259   1.260   4.744
 4996SOL    HW115887   0.266   1.246   4.645
 4996SOL    HW215888   0.237   1.356   4.763
 4997SOL     OW15889   3.603   2.107   1.095
 4997SOL    HW115890   3.509   2.071   1.093
 4997SOL    HW215891   3.668   2.031   1.099
 4998SOL     OW15892   0.868   4.329   3.593
 4998SOL    HW115893   0.902   4.392   3.523
 4998SOL    HW215894   0.911   4.351   3.681
 4999SOL     OW15895   0.073   3.021   2.727
 4999SOL    HW115896   0.165   3.036   2.765
 4999SOL    HW215897   0.029   2.946   2.776
 5000SOL     OW15898   2.031   6.255   2.743
 5000SOL    HW115899   2.078   6.253   2.655
 5000SOL    HW215900   2.077   6.322   2.803
 5001SOL     OW15901   0.637   6.393   3.167
 5001SOL    HW115902   0.721   6.426   3.123
 5001SOL    HW215903   0.563   6.388   3.099
 5002SOL     OW15904   1.037   5.388   3.749
 5002SOL    HW115905   0.975   5.313   3.769
 5002SOL    HW215906   1.001   5.441   3.672
 5003SOL     OW15907   3.958   1.827   1.550
 5003SOL    HW115908   3.891   1.896   1.575
 5003SOL    HW215909   3.983   1.836   1.454
 5004SOL     OW15910   3.918   5.640   0.460
 5004SOL    HW115911   3.983   5.565   0.472
 5004SOL    HW215912   3.841   5.628   0.523
 5005SOL     OW15913   4.521   2.992   1.130
 5005SOL    HW115914   4.603   3.028   1.086
 5005SOL    HW215915   4.541   2.969   1.226
 5006SOL     OW15916   4.688   1.145   2.185
 5006SOL    HW115917   4.605   1.127   2.133
 5006SOL    HW215918   4.666   1.146   2.283
 5007SOL     OW15919   6.960   5.314   2.967
 5007SOL    HW115920   6.874   5.264   2.964
 5007SOL    HW215921   7.013   5.296   2.884
 5008SOL     OW15922   4.335   0.396   3.806
 5008SOL    HW115923   4.243   0.402   3.767
 5008SOL    HW215924   4.334   0.436   3.898
 5009SOL     OW15925   1.355   2.196   5.692
 5009SOL    HW115926   1.440   2.244   5.671
 5009SOL    HW215927   1.342   2.194   5.791
 5010SOL     OW15928   5.212   4.691   0.823
 5010SOL    HW115929   5.278   4.616   0.823
 5010SOL    HW215930   5.175   4.703   0.731
 5011SOL     OW15931   1.820   2.359   5.231
 5011SOL    HW115932   1.890   2.425   5.202
 5011SOL    HW215933   1.775   2.392   5.314
 5012SOL     OW15934   5.468   2.593   5.497
 5012SOL    HW115935   5.536   2.599   5.424
 5012SOL    HW215936   5.394   2.658   5.480
 5013SOL     OW15937   6.168   5.645   5.879
 5013SOL    HW115938   6.088   5.584   5.877
 5013SOL    HW215939   6.200   5.660   5.786
 5014SOL     OW15940   6.407   3.191   0.245
 5014SOL    HW115941   6.309   3.189   0.228
 5014SOL    HW215942   6.442   3.098   0.256
 5015SOL     OW15943   6.424   4.513   4.644
 5015SOL    HW115944   6.345   4.453   4.631
 5015SOL    HW215945   6.458   4.543   4.555
 5016SOL     OW15946   1.314   2.160   6.369
 5016SOL    HW115947   1.284   2.139   6.462
 5016SOL    HW215948   1.414   2.156   6.365
 5017SOL     OW15949   1.268   2.750   1.762
 5017SOL    HW115950   1.358   2.765   1.723
 5017SOL    HW215951   1.270   2.669   1.821
 5018SOL     OW15952   0.511   0.615   0.699
 5018SOL    HW115953   0.442   0.579   0.762
 5018SOL    HW215954   0.484   0.706   0.668
 5019SOL     OW15955   1.895   4.182   4.256
 5019SOL    HW115956   1.955   4.246   4.208
 5019SOL    HW215957   1.859   4.225   4.338
 5020SOL     OW15958   1.637   7.003   2.449
 5020SOL    HW115959   1.573   6.929   2.469
 5020SOL    HW215960   1.730   6.973   2.465
 5021SOL     OW15961   2.647   0.525   0.599
 5021SOL    HW115962   2.704   0.571   0.667
 5021SOL    HW215963   2.603   0.594   0.541
 5022SOL     OW15964   6.977   3.272   1.501
 5022SOL    HW115965   6.893   3.324   1.483
 5022SOL    HW215966   6.955   3.187   1.547
 5023SOL     OW15967   0.688   2.229   4.003
 5023SOL    HW115968   0.779   2.269   4.007
 5023SOL    HW215969   0.690   2.138   4.045
 5024SOL     OW15970   4.495   4.185   0.277
 5024SOL    HW115971   4.497   4.085   0.274
 5024SOL    HW215972   4.402   4.217   0.261
 5025SOL     OW15973   4.556   1.924   4.333
 5025SOL    HW115974   4.488   1.889   4.398
 5025SOL    HW215975   4.511   1.947   4.247
 5026SOL     OW15976   5.110   5.597   5.208
 5026SOL    HW115977   5.182   5.666   5.197
 5026SOL    HW215978   5.151   5.510   5.237
 5027SOL     OW15979   5.534   6.225   1.359
 5027SOL    HW115980   5.506   6.205   1.265
 5027SOL    HW215981   5.622   6.273   1.358
 5028SOL     OW15982   0.465   2.472   2.580
 5028SOL    HW115983   0.401   2.400   2.554
 5028SOL    HW215984   0.438   2.558   2.537
 5029SOL     OW15985   6.119   2.920   3.218
 5029SOL    HW115986   6.050   2.974   3.266
 5029SOL    HW215987   6.149   2.968   3.136
 5030SOL     OW15988   0.863   3.289   0.699
 5030SOL    HW115989   0.774   3.320   0.663
 5030SOL    HW215990   0.869   3.312   0.796
 5031SOL     OW15991   5.843   0.691   6.663
 5031SOL    HW115992   5.839   0.747   6.581
 5031SOL    HW215993   5.765   0.629   6.666
 5032SOL     OW15994   2.168   4.392   6.266
 5032SOL    HW115995   2.099   4.464   6.275
 5032SOL    HW215996   2.174   4.364   6.170
 5033SOL     OW15997   2.076   7.021   3.614
 5033SOL    HW115998   2.100   0.093   3.638
 5033SOL    HW215999   2.063   6.968   3.698
 5034SOL     OW16000   4.486   6.197   3.454
 5034SOL    HW116001   4.541   6.276   3.425
 5034SOL    HW216002   4.526   6.113   3.418
 5035SOL     OW16003   2.016   5.147   3.955
 5035SOL    HW116004   2.009   5.082   4.031
 5035SOL    HW216005   1.943   5.214   3.962
 5036SOL     OW16006   1.380   2.611   4.837
 5036SOL    HW116007   1.394   2.514   4.819
 5036SOL    HW216008   1.426   2.665   4.767
 5037SOL     OW16009   5.051   4.611   1.825
 5037SOL    HW116010   4.998   4.579   1.904
 5037SOL    HW216011   5.131   4.551   1.813
 5038SOL     OW16012   2.961   3.859   4.681
 5038SOL    HW116013   2.938   3.861   4.584
 5038SOL    HW216014   2.974   3.764   4.710
 5039SOL     OW16015   0.698   2.757   6.217
 5039SOL    HW116016   0.682   2.848   6.178
 5039SOL    HW216017   0.649   2.688   6.163
 5040SOL     OW16018   1.176   1.254   5.249
 5040SOL    HW116019   1.223   1.227   5.165
 5040SOL    HW216020   1.223   1.332   5.290
 5041SOL     OW16021   6.449   2.376   1.460
 5041SOL    HW116022   6.378   2.343   1.522
 5041SOL    HW216023   6.537   2.338   1.487
 5042SOL     OW16024   0.948   1.805   5.073
 5042SOL    HW116025   1.024   1.781   5.012
 5042SOL    HW216026   0.977   1.880   5.133
 5043SOL     OW16027   2.196   0.270   0.727
 5043SOL    HW116028   2.266   0.223   0.674
 5043SOL    HW216029   2.237   0.344   0.781
 5044SOL     OW16030   6.971   6.089   1.467
 5044SOL    HW116031   0.048   6.104   1.462
 5044SOL    HW216032   6.937   6.069   1.375
 5045SOL     OW16033   6.194   2.643   2.930
 5045SOL    HW116034   6.242   2.726   2.901
 5045SOL    HW216035   6.098   2.649   2.902
 5046SOL     OW16036   4.308   3.133   1.755
 5046SOL    HW116037   4.300   3.232   1.756
 5046SOL    HW216038   4.401   3.106   1.778
 5047SOL     OW16039   2.709   5.463   3.359
 5047SOL    HW116040   2.723   5.485   3.455
 5047SOL    HW216041   2.788   5.412   3.325
 5048SOL     OW16042   1.359   0.045   5.743
 5048SOL    HW116043   1.275   7.022   5.772
 5048SOL    HW216044   1.404   7.015   5.671
 5049SOL     OW16045   3.854   1.949   6.514
 5049SOL    HW116046   3.840   2.029   6.455
 5049SOL    HW216047   3.785   1.948   6.586
 5050SOL     OW16048   1.302   0.625   0.943
 5050SOL    HW116049   1.215   0.649   0.986
 5050SOL    HW216050   1.335   0.538   0.981
 5051SOL     OW16051   4.326   3.890   0.929
 5051SOL    HW116052   4.403   3.846   0.973
 5051SOL    HW216053   4.287   3.958   0.991
 5052SOL     OW16054   1.833   4.301   4.514
 5052SOL    HW116055   1.742   4.326   4.481
 5052SOL    HW216056   1.841   4.324   4.611
 5053SOL     OW16057   6.889   0.829   0.581
 5053SOL    HW116058   6.917   0.824   0.485
 5053SOL    HW216059   6.793   0.856   0.587
 5054SOL     OW16060   4.311   5.784   3.224
 5054SOL    HW116061   4.352   5.852   3.284
 5054SOL    HW216062   4.252   5.828   3.157
 5055SOL     OW16063   5.915   4.406   5.570
 5055SOL    HW116064   6.005   4.409   5.614
 5055SOL    HW216065   5.845   4.438   5.634
 5056SOL     OW16066   6.471   5.111   3.063
 5056SOL    HW116067   6.387   5.158   3.037
 5056SOL    HW216068   6.460   5.071   3.154
 5057SOL     OW16069   6.714   6.034   2.834
 5057SOL    HW116070   6.772   6.082   2.899
 5057SOL    HW216071   6.720   6.078   2.744
 5058SOL     OW16072   2.599   6.035   5.485
 5058SOL    HW116073   2.517   6.062   5.535
 5058SOL    HW216074   2.577   5.959   5.424
 5059SOL     OW16075   6.735   6.144   2.595
 5059SOL    HW116076   6.651   6.181   2.557
 5059SOL    HW216077   6.814   6.188   2.552
 5060SOL     OW16078   6.989   2.895   0.095
 5060SOL    HW116079   6.920   2.911   0.024
 5060SOL    HW216080   6.946   2.847   0.172
 5061SOL     OW16081   5.291   3.845   0.560
 5061SOL    HW116082   5.341   3.919   0.515
 5061SOL    HW216083   5.323   3.757   0.525
 5062SOL     OW16084   6.560   0.250   6.797
 5062SOL    HW116085   6.532   0.154   6.810
 5062SOL    HW216086   6.576   0.267   6.700
 5063SOL     OW16087   1.559   6.389   2.144
 5063SOL    HW116088   1.517   6.328   2.211
 5063SOL    HW216089   1.651   6.413   2.173
 5064SOL     OW16090   4.827   4.493   6.332
 5064SOL    HW116091   4.771   4.429   6.280
 5064SOL    HW216092   4.768   4.558   6.379
 5065SOL     OW16093   1.963   7.018   5.796
 5065SOL    HW116094   1.961   6.992   5.893
 5065SOL    HW216095   2.006   6.945   5.743
 5066SOL     OW16096   4.706   4.599   0.177
 5066SOL    HW116097   4.664   4.562   0.094
 5066SOL    HW216098   4.650   4.575   0.256
 5067SOL     OW16099   5.406   0.965   6.280
 5067SOL    HW116100   5.427   1.018   6.363
 5067SOL    HW216101   5.325   0.908   6.297
 5068SOL     OW16102   3.499   5.347   1.867
 5068SOL    HW116103   3.553   5.304   1.795
 5068SOL    HW216104   3.428   5.282   1.898
 5069SOL     OW16105   6.727   5.137   2.944
 5069SOL    HW116106   6.637   5.116   2.981
 5069SOL    HW216107   6.745   5.081   2.864
 5070SOL     OW16108   4.925   2.568   3.903
 5070SOL    HW116109   4.962   2.475   3.899
 5070SOL    HW216110   4.909   2.593   3.998
 5071SOL     OW16111   5.132   1.400   1.794
 5071SOL    HW116112   5.146   1.418   1.697
 5071SOL    HW216113   5.168   1.476   1.848
 5072SOL     OW16114   0.560   4.108   2.501
 5072SOL    HW116115   0.505   4.192   2.508
 5072SOL    HW216116   0.499   4.029   2.505
 5073SOL     OW16117   4.463   2.390   3.773
 5073SOL    HW116118   4.397   2.435   3.713
 5073SOL    HW216119   4.556   2.414   3.744
 5074SOL     OW16120   4.075   3.807   4.977
 5074SOL    HW116121   4.025   3.730   5.016
 5074SOL    HW216122   4.079   3.797   4.877
 5075SOL     OW16123   6.163   0.126   4.855
 5075SOL    HW116124   6.120   0.039   4.876
 5075SOL    HW216125   6.097   0.187   4.811
 5076SOL     OW16126   5.341   0.284   0.152
 5076SOL    HW116127   5.343   0.237   0.064
 5076SOL    HW216128   5.246   0.292   0.184
 5077SOL     OW16129   6.894   0.911   2.962
 5077SOL    HW116130   6.856   0.917   2.869
 5077SOL    HW216131   6.929   1.000   2.990
 5078SOL     OW16132   0.197   2.060   4.390
 5078SOL    HW116133   0.202   2.012   4.303
 5078SOL    HW216134   0.254   2.013   4.458
 5079SOL     OW16135   5.228   5.270   4.431
 5079SOL    HW116136   5.175   5.296   4.511
 5079SOL    HW216137   5.220   5.340   4.360
 5080SOL     OW16138   5.057   0.189   5.877
 5080SOL    HW116139   5.067   0.239   5.963
 5080SOL    HW216140   4.961   0.164   5.863
 5081SOL     OW16141   3.127   3.536   3.175
 5081SOL    HW116142   3.085   3.626   3.191
 5081SOL    HW216143   3.075   3.466   3.223
 5082SOL     OW16144   1.133   2.257   5.203
 5082SOL    HW116145   1.203   2.216   5.262
 5082SOL    HW216146   1.047   2.263   5.253
 5083SOL     OW16147   1.107   3.364   2.170
 5083SOL    HW116148   1.019   3.386   2.212
 5083SOL    HW216149   1.146   3.446   2.127
 5084SOL     OW16150   1.548   5.528   2.432
 5084SOL    HW116151   1.564   5.468   2.510
 5084SOL    HW216152   1.566   5.478   2.347
 5085SOL     OW16153   6.708   2.220   0.707
 5085SOL    HW116154   6.624   2.274   0.708
 5085SOL    HW216155   6.703   2.152   0.635
 5086SOL     OW16156   6.808   4.563   4.351
 5086SOL    HW116157   6.804   4.656   4.315
 5086SOL    HW216158   6.884   4.514   4.308
 5087SOL     OW16159   5.833   5.639   6.171
 5087SOL    HW116160   5.802   5.602   6.259
 5087SOL    HW216161   5.909   5.702   6.186
 5088SOL     OW16162   5.654   1.392   6.159
 5088SOL    HW116163   5.678   1.309   6.108
 5088SOL    HW216164   5.581   1.440   6.111
 5089SOL     OW16165   5.222   2.885   4.134
 5089SOL    HW116166   5.287   2.958   4.154
 5089SOL    HW216167   5.270   2.808   4.092
 5090SOL     OW16168   0.827   5.249   6.936
 5090SOL    HW116169   0.742   5.213   6.973
 5090SOL    HW216170   0.904   5.211   6.986
 5091SOL     OW16171   0.660   5.800   4.379
 5091SOL    HW116172   0.721   5.793   4.300
 5091SOL    HW216173   0.650   5.710   4.421
 5092SOL     OW16174   3.674   3.644   0.487
 5092SOL    HW116175   3.767   3.612   0.506
 5092SOL    HW216176   3.614   3.565   0.473
 5093SOL     OW16177   0.643   0.562   2.300
 5093SOL    HW116178   0.702   0.634   2.264
 5093SOL    HW216179   0.564   0.603   2.347
 5094SOL     OW16180   0.918   0.565   6.251
 5094SOL    HW116181   0.984   0.498   6.218
 5094SOL    HW216182   0.826   0.538   6.223
 5095SOL     OW16183   3.190   6.769   4.415
 5095SOL    HW116184   3.264   6.805   4.471
 5095SOL    HW216185   3.176   6.672   4.437
 5096SOL     OW16186   3.143   5.755   1.687
 5096SOL    HW116187   3.123   5.851   1.665
 5096SOL    HW216188   3.176   5.750   1.781
 5097SOL     OW16189   0.976   1.984   0.090
 5097SOL    HW116190   0.986   2.068   0.143
 5097SOL    HW216191   1.067   1.944   0.074
 5098SOL     OW16192   1.628   3.181   2.953
 5098SOL    HW116193   1.716   3.225   2.970
 5098SOL    HW216194   1.644   3.086   2.926
 5099SOL     OW16195   0.677   1.729   4.293
 5099SOL    HW116196   0.726   1.737   4.379
 5099SOL    HW216197   0.663   1.820   4.253
 5100SOL     OW16198   5.154   4.565   5.027
 5100SOL    HW116199   5.096   4.575   5.108
 5100SOL    HW216200   5.208   4.481   5.035
 5101SOL     OW16201   5.803   6.148   0.645
 5101SOL    HW116202   5.794   6.244   0.617
 5101SOL    HW216203   5.785   6.140   0.743
 5102SOL     OW16204   4.221   6.231   3.473
 5102SOL    HW116205   4.320   6.221   3.462
 5102SOL    HW216206   4.201   6.316   3.521
 5103SOL     OW16207   1.631   1.918   3.737
 5103SOL    HW116208   1.617   1.841   3.675
 5103SOL    HW216209   1.723   1.914   3.775
 5104SOL     OW16210   0.718   0.601   0.552
 5104SOL    HW116211   0.636   0.605   0.610
 5104SOL    HW216212   0.709   0.525   0.488
 5105SOL     OW16213   1.757   3.279   0.674
 5105SOL    HW116214   1.747   3.378   0.671
 5105SOL    HW216215   1.747   3.242   0.581
 5106SOL     OW16216   2.136   0.013   1.633
 5106SOL    HW116217   2.216   0.073   1.646
 5106SOL    HW216218   2.054   0.069   1.623
 5107SOL     OW16219   1.019   0.126   6.034
 5107SOL    HW116220   0.978   0.206   5.991
 5107SOL    HW216221   1.041   0.146   6.130
 5108SOL     OW16222   4.111   3.306   4.245
 5108SOL    HW116223   4.060   3.392   4.242
 5108SOL    HW216224   4.181   3.311   4.316
 5109SOL     OW16225   1.208   2.607   2.193
 5109SOL    HW116226   1.113   2.637   2.191
 5109SOL    HW216227   1.261   2.668   2.252
 5110SOL     OW16228   1.417   6.113   5.412
 5110SOL    HW116229   1.500   6.059   5.423
 5110SOL    HW216230   1.337   6.054   5.426
 5111SOL     OW16231   1.086   1.371   6.790
 5111SOL    HW116232   1.057   1.440   6.856
 5111SOL    HW216233   1.011   1.306   6.774
 5112SOL     OW16234   0.777   0.295   3.560
 5112SOL    HW116235   0.678   0.292   3.568
 5112SOL    HW216236   0.806   0.247   3.477
 5113SOL     OW16237   1.253   2.081   6.613
 5113SOL    HW116238   1.205   2.161   6.651
 5113SOL    HW216239   1.211   1.997   6.649
 5114SOL     OW16240   5.013   4.852   6.380
 5114SOL    HW116241   4.963   4.929   6.342
 5114SOL    HW216242   4.950   4.778   6.401
 5115SOL     OW16243   2.918   3.723   5.524
 5115SOL    HW116244   2.969   3.677   5.452
 5115SOL    HW216245   2.856   3.791   5.484
 5116SOL     OW16246   6.079   4.553   0.794
 5116SOL    HW116247   6.081   4.516   0.886
 5116SOL    HW216248   6.071   4.653   0.798
 5117SOL     OW16249   2.527   6.113   2.258
 5117SOL    HW116250   2.525   6.013   2.268
 5117SOL    HW216251   2.532   6.155   2.349
 5118SOL     OW16252   4.734   0.020   1.321
 5118SOL    HW116253   4.655   7.020   1.378
 5118SOL    HW216254   4.818   0.002   1.371
 5119SOL     OW16255   6.498   0.828   3.406
 5119SOL    HW116256   6.513   0.927   3.406
 5119SOL    HW216257   6.472   0.798   3.497
 5120SOL     OW16258   3.675   1.221   0.969
 5120SOL    HW116259   3.614   1.299   0.951
 5120SOL    HW216260   3.769   1.247   0.945
 5121SOL     OW16261   1.224   3.825   4.204
 5121SOL    HW116262   1.283   3.813   4.124
 5121SOL    HW216263   1.142   3.876   4.178
 5122SOL     OW16264   2.612   5.643   2.999
 5122SOL    HW116265   2.535   5.606   2.946
 5122SOL    HW216266   2.676   5.569   3.019
 5123SOL     OW16267   0.012   3.131   1.948
 5123SOL    HW116268   6.937   3.112   1.939
 5123SOL    HW216269   0.056   3.125   1.858
 5124SOL     OW16270   3.438   6.814   6.747
 5124SOL    HW116271   3.371   6.883   6.775
 5124SOL    HW216272   3.444   6.742   6.817
 5125SOL     OW16273   1.003   1.640   6.707
 5125SOL    HW116274   1.038   1.673   6.620
 5125SOL    HW216275   0.912   1.601   6.694
 5126SOL     OW16276   4.100   1.423   0.587
 5126SOL    HW116277   4.001   1.424   0.574
 5126SOL    HW216278   4.133   1.516   0.602
 5127SOL     OW16279   4.859   3.847   5.513
 5127SOL    HW116280   4.938   3.907   5.527
 5127SOL    HW216281   4.871   3.762   5.564
 5128SOL     OW16282   0.274   0.827   0.051
 5128SOL    HW116283   0.188   0.853   0.007
 5128SOL    HW216284   0.331   0.908   0.065
 5129SOL     OW16285   4.590   2.601   4.342
 5129SOL    HW116286   4.612   2.638   4.432
 5129SOL    HW216287   4.637   2.654   4.272
 5130SOL     OW16288   1.715   6.959   4.642
 5130SOL    HW116289   1.737   0.030   4.668
 5130SOL    HW216290   1.618   6.941   4.658
 5131SOL     OW16291   3.823   4.914   2.705
 5131SOL    HW116292   3.805   4.990   2.642
 5131SOL    HW216293   3.746   4.903   2.766
 5132SOL     OW16294   3.320   2.117   6.553
 5132SOL    HW116295   3.411   2.136   6.591
 5132SOL    HW216296   3.250   2.156   6.613
 5133SOL     OW16297   2.518   3.712   6.567
 5133SOL    HW116298   2.478   3.804   6.576
 5133SOL    HW216299   2.593   3.715   6.501
 5134SOL     OW16300   5.504   5.800   2.007
 5134SOL    HW116301   5.497   5.893   1.972
 5134SOL    HW216302   5.536   5.739   1.935
 5135SOL     OW16303   1.640   2.800   2.571
 5135SOL    HW116304   1.582   2.838   2.498
 5135SOL    HW216305   1.736   2.806   2.542
 5136SOL     OW16306   6.698   0.712   5.186
 5136SOL    HW116307   6.780   0.768   5.174
 5136SOL    HW216308   6.691   0.648   5.109
 5137SOL     OW16309   5.336   0.472   3.524
 5137SOL    HW116310   5.308   0.539   3.593
 5137SOL    HW216311   5.433   0.482   3.504
 5138SOL     OW16312   3.844   3.553   3.051
 5138SOL    HW116313   3.796   3.550   2.963
 5138SOL    HW216314   3.825   3.469   3.102
 5139SOL     OW16315   5.496   0.288   4.950
 5139SOL    HW116316   5.427   0.264   4.882
 5139SOL    HW216317   5.583   0.306   4.905
 5140SOL     OW16318   2.837   3.432   5.218
 5140SOL    HW116319   2.758   3.456   5.274
 5140SOL    HW216320   2.835   3.484   5.133
 5141SOL     OW16321   0.466   2.312   1.341
 5141SOL    HW116322   0.467   2.320   1.242
 5141SOL    HW216323   0.510   2.226   1.368
 5142SOL     OW16324   0.145   6.553   3.358
 5142SOL    HW116325   0.245   6.564   3.360
 5142SOL    HW216326   0.123   6.458   3.383
 5143SOL     OW16327   5.957   5.165   2.090
 5143SOL    HW116328   5.882   5.110   2.126
 5143SOL    HW216329   5.921   5.231   2.024
 5144SOL     OW16330   1.693   2.742   4.840
 5144SOL    HW116331   1.662   2.750   4.745
 5144SOL    HW216332   1.775   2.797   4.853
 5145SOL     OW16333   0.955   5.122   6.320
 5145SOL    HW116334   0.921   5.131   6.414
 5145SOL    HW216335   1.031   5.056   6.319
 5146SOL     OW16336   5.476   5.880   6.896
 5146SOL    HW116337   5.503   5.785   6.882
 5146SOL    HW216338   5.555   5.934   6.924
 5147SOL     OW16339   4.174   0.838   3.421
 5147SOL    HW116340   4.134   0.928   3.438
 5147SOL    HW216341   4.156   0.811   3.326
 5148SOL     OW16342   6.215   1.553   0.544
 5148SOL    HW116343   6.280   1.621   0.577
 5148SOL    HW216344   6.193   1.572   0.448
 5149SOL     OW16345   2.757   6.485   3.721
 5149SOL    HW116346   2.738   6.574   3.763
 5149SOL    HW216347   2.773   6.417   3.794
 5150SOL     OW16348   6.442   0.587   4.882
 5150SOL    HW116349   6.399   0.676   4.868
 5150SOL    HW216350   6.412   0.524   4.810
 5151SOL     OW16351   5.233   5.258   2.236
 5151SOL    HW116352   5.268   5.168   2.260
 5151SOL    HW216353   5.307   5.325   2.240
 5152SOL     OW16354   2.216   0.952   0.429
 5152SOL    HW116355   2.128   0.971   0.474
 5152SOL    HW216356   2.269   1.037   0.423
 5153SOL     OW16357   1.903   1.873   6.612
 5153SOL    HW116358   1.877   1.777   6.623
 5153SOL    HW216359   1.976   1.895   6.676
 5154SOL     OW16360   1.083   3.217   6.783
 5154SOL    HW116361   0.983   3.225   6.791
 5154SOL    HW216362   1.127   3.277   6.850
 5155SOL     OW16363   1.292   0.544   0.185
 5155SOL    HW116364   1.291   0.445   0.170
 5155SOL    HW216365   1.384   0.573   0.210
 5156SOL     OW16366   5.237   3.508   5.703
 5156SOL    HW116367   5.267   3.424   5.657
 5156SOL    HW216368   5.203   3.486   5.794
 5157SOL     OW16369   3.188   0.469   2.597
 5157SOL    HW116370   3.261   0.484   2.530
 5157SOL    HW216371   3.138   0.386   2.573
 5158SOL     OW16372   1.002   2.838   1.671
 5158SOL    HW116373   1.036   2.852   1.578
 5158SOL    HW216374   1.079   2.822   1.733
 5159SOL     OW16375   6.210   3.348   5.676
 5159SOL    HW116376   6.233   3.435   5.633
 5159SOL    HW216377   6.287   3.317   5.732
 5160SOL     OW16378   5.835   0.432   3.199
 5160SOL    HW116379   5.912   0.434   3.136
 5160SOL    HW216380   5.827   0.341   3.239
 5161SOL     OW16381   1.179   1.663   6.927
 5161SOL    HW116382   1.221   1.753   6.936
 5161SOL    HW216383   1.125   1.659   6.843
 5162SOL     OW16384   0.088   0.928   6.146
 5162SOL    HW116385   0.120   0.957   6.056
 5162SOL    HW216386   0.088   1.006   6.208
 5163SOL     OW16387   3.615   1.484   1.404
 5163SOL    HW116388   3.699   1.501   1.456
 5163SOL    HW216389   3.555   1.423   1.456
 5164SOL     OW16390   2.482   2.373   0.236
 5164SOL    HW116391   2.445   2.284   0.209
 5164SOL    HW216392   2.521   2.419   0.156
 5165SOL     OW16393   1.020   5.652   5.192
 5165SOL    HW116394   0.930   5.612   5.214
 5165SOL    HW216395   1.076   5.582   5.148
 5166SOL     OW16396   6.599   5.584   6.274
 5166SOL    HW116397   6.608   5.517   6.348
 5166SOL    HW216398   6.585   5.536   6.187
 5167SOL     OW16399   6.306   3.164   6.313
 5167SOL    HW116400   6.398   3.169   6.273
 5167SOL    HW216401   6.312   3.182   6.411
 5168SOL     OW16402   6.184   0.784   3.985
 5168SOL    HW116403   6.202   0.716   4.055
 5168SOL    HW216404   6.226   0.755   3.899
 5169SOL     OW16405   4.751   6.041   4.550
 5169SOL    HW116406   4.672   6.024   4.490
 5169SOL    HW216407   4.789   6.131   4.529
 5170SOL     OW16408   2.080   2.594   6.368
 5170SOL    HW116409   2.082   2.499   6.336
 5170SOL    HW216410   2.143   2.605   6.444
 5171SOL     OW16411   0.791   6.994   6.094
 5171SOL    HW116412   0.882   0.012   6.086
 5171SOL    HW216413   0.721   0.043   6.083
 5172SOL     OW16414   4.931   5.340   6.116
 5172SOL    HW116415   4.890   5.419   6.160
 5172SOL    HW216416   4.899   5.333   6.022
 5173SOL     OW16417   4.449   6.419   4.280
 5173SOL    HW116418   4.357   6.387   4.301
 5173SOL    HW216419   4.473   6.391   4.187
 5174SOL     OW16420   0.513   5.680   3.984
 5174SOL    HW116421   0.562   5.762   4.015
 5174SOL    HW216422   0.536   5.603   4.043
 5175SOL     OW16423   2.707   1.951   6.574
 5175SOL    HW116424   2.770   2.029   6.571
 5175SOL    HW216425   2.633   1.965   6.508
 5176SOL     OW16426   5.857   6.244   5.964
 5176SOL    HW116427   5.814   6.196   5.887
 5176SOL    HW216428   5.792   6.309   6.003
 5177SOL     OW16429   4.685   4.836   1.135
 5177SOL    HW116430   4.736   4.775   1.074
 5177SOL    HW216431   4.592   4.847   1.101
 5178SOL     OW16432   0.688   3.879   1.579
 5178SOL    HW116433   0.665   3.828   1.661
 5178SOL    HW216434   0.784   3.907   1.584
 5179SOL     OW16435   4.457   5.860   2.948
 5179SOL    HW116436   4.496   5.889   2.861
 5179SOL    HW216437   4.444   5.940   3.007
 5180SOL     OW16438   3.201   5.172   2.660
 5180SOL    HW116439   3.172   5.130   2.746
 5180SOL    HW216440   3.130   5.235   2.629
 5181SOL     OW16441   6.896   1.432   5.635
 5181SOL    HW116442   6.854   1.392   5.553
 5181SOL    HW216443   6.841   1.510   5.666
 5182SOL     OW16444   1.976   6.473   2.221
 5182SOL    HW116445   2.007   6.441   2.132
 5182SOL    HW216446   1.937   6.396   2.273
 5183SOL     OW16447   5.024   2.004   3.849
 5183SOL    HW116448   4.961   2.060   3.904
 5183SOL    HW216449   4.995   1.909   3.852
 5184SOL     OW16450   3.423   1.063   1.598
 5184SOL    HW116451   3.494   1.044   1.665
 5184SOL    HW216452   3.407   0.983   1.541
 5185SOL     OW16453   6.364   0.439   1.052
 5185SOL    HW116454   6.298   0.414   0.981
 5185SOL    HW216455   6.326   0.513   1.107
 5186SOL     OW16456   0.068   2.348   6.559
 5186SOL    HW116457   0.159   2.308   6.548
 5186SOL    HW216458   0.004   2.275   6.584
 5187SOL     OW16459   0.948   4.353   5.006
 5187SOL    HW116460   0.925   4.395   5.093
 5187SOL    HW216461   1.039   4.311   5.011
 5188SOL     OW16462   6.420   0.902   1.426
 5188SOL    HW116463   6.349   0.836   1.401
 5188SOL    HW216464   6.388   0.959   1.501
 5189SOL     OW16465   5.787   6.002   6.583
 5189SOL    HW116466   5.701   5.993   6.633
 5189SOL    HW216467   5.836   5.915   6.584
 5190SOL     OW16468   1.570   4.781   0.766
 5190SOL    HW116469   1.496   4.741   0.820
 5190SOL    HW216470   1.563   4.881   0.769
 5191SOL     OW16471   3.277   4.072   1.183
 5191SOL    HW116472   3.256   4.170   1.185
 5191SOL    HW216473   3.300   4.041   1.276
 5192SOL     OW16474   0.727   4.072   2.762
 5192SOL    HW116475   0.734   3.991   2.820
 5192SOL    HW216476   0.653   4.059   2.696
 5193SOL     OW16477   4.198   0.599   5.108
 5193SOL    HW116478   4.183   0.535   5.032
 5193SOL    HW216479   4.142   0.681   5.094
 5194SOL     OW16480   4.057   1.765   5.088
 5194SOL    HW116481   3.976   1.706   5.085
 5194SOL    HW216482   4.085   1.788   4.994
 5195SOL     OW16483   1.905   1.381   4.915
 5195SOL    HW116484   1.981   1.385   4.980
 5195SOL    HW216485   1.940   1.394   4.822
 5196SOL     OW16486   6.316   5.861   2.808
 5196SOL    HW116487   6.332   5.848   2.710
 5196SOL    HW216488   6.326   5.958   2.831
 5197SOL     OW16489   2.211   3.671   5.534
 5197SOL    HW116490   2.261   3.702   5.453
 5197SOL    HW216491   2.114   3.662   5.512
 5198SOL     OW16492   6.504   5.540   3.873
 5198SOL    HW116493   6.563   5.570   3.948
 5198SOL    HW216494   6.544   5.458   3.831
 5199SOL     OW16495   0.382   5.142   1.355
 5199SOL    HW116496   0.395   5.096   1.443
 5199SOL    HW216497   0.410   5.238   1.362
 5200SOL     OW16498   0.496   4.831   6.156
 5200SOL    HW116499   0.480   4.736   6.182
 5200SOL    HW216500   0.418   4.887   6.182
 5201SOL     OW16501   0.530   5.584   4.680
 5201SOL    HW116502   0.574   5.525   4.612
 5201SOL    HW216503   0.465   5.645   4.635
 5202SOL     OW16504   0.193   5.285   1.574
 5202SOL    HW116505   0.288   5.312   1.586
 5202SOL    HW216506   0.181   5.239   1.486
 5203SOL     OW16507   6.596   3.574   6.952
 5203SOL    HW116508   6.573   3.550   6.857
 5203SOL    HW216509   6.538   3.521   7.014
 5204SOL     OW16510   5.478   5.136   6.296
 5204SOL    HW116511   5.466   5.199   6.373
 5204SOL    HW216512   5.395   5.082   6.284
 5205SOL     OW16513   3.041   5.955   0.822
 5205SOL    HW116514   3.124   6.005   0.850
 5205SOL    HW216515   3.032   5.958   0.723
 5206SOL     OW16516   0.122   4.185   4.653
 5206SOL    HW116517   0.067   4.165   4.735
 5206SOL    HW216518   0.061   4.199   4.575
 5207SOL     OW16519   1.512   6.090   1.970
 5207SOL    HW116520   1.481   6.182   1.997
 5207SOL    HW216521   1.435   6.026   1.977
 5208SOL     OW16522   4.506   1.961   0.789
 5208SOL    HW116523   4.500   2.060   0.801
 5208SOL    HW216524   4.581   1.939   0.727
 5209SOL     OW16525   6.138   5.550   3.151
 5209SOL    HW116526   6.137   5.648   3.129
 5209SOL    HW216527   6.193   5.535   3.233
 5210SOL     OW16528   4.952   3.446   3.580
 5210SOL    HW116529   5.015   3.414   3.510
 5210SOL    HW216530   4.870   3.389   3.580
 5211SOL     OW16531   3.031   4.310   1.702
 5211SOL    HW116532   2.997   4.375   1.769
 5211SOL    HW216533   3.082   4.237   1.749
 5212SOL     OW16534   6.977   6.556   6.583
 5212SOL    HW116535   0.033   6.596   6.536
 5212SOL    HW216536   6.943   6.619   6.652
 5213SOL     OW16537   4.549   1.752   6.805
 5213SOL    HW116538   4.459   1.750   6.847
 5213SOL    HW216539   4.555   1.829   6.741
 5214SOL     OW16540   4.305   1.965   0.209
 5214SOL    HW116541   4.349   1.996   0.125
 5214SOL    HW216542   4.283   2.045   0.266
 5215SOL     OW16543   6.036   5.935   4.626
 5215SOL    HW116544   6.024   5.838   4.645
 5215SOL    HW216545   6.125   5.966   4.659
 5216SOL     OW16546   2.790   6.600   0.748
 5216SOL    HW116547   2.864   6.535   0.764
 5216SOL    HW216548   2.815   6.662   0.674
 5217SOL     OW16549   2.876   5.249   3.297
 5217SOL    HW116550   2.973   5.274   3.292
 5217SOL    HW216551   2.861   5.190   3.376
 5218SOL     OW16552   1.205   0.416   3.261
 5218SOL    HW116553   1.121   0.403   3.208
 5218SOL    HW216554   1.268   0.474   3.211
 5219SOL     OW16555   3.295   6.486   0.865
 5219SOL    HW116556   3.350   6.490   0.782
 5219SOL    HW216557   3.201   6.510   0.844
 5220SOL     OW16558   0.958   0.117   1.734
 5220SOL    HW116559   0.877   0.117   1.674
 5220SOL    HW216560   1.035   0.158   1.686
 5221SOL     OW16561   4.959   1.182   0.455
 5221SOL    HW116562   5.000   1.225   0.535
 5221SOL    HW216563   4.903   1.104   0.484
 5222SOL     OW16564   6.478   5.053   2.022
 5222SOL    HW116565   6.418   5.052   2.102
 5222SOL    HW216566   6.481   4.961   1.982
 5223SOL     OW16567   3.749   6.366   1.426
 5223SOL    HW116568   3.701   6.446   1.463
 5223SOL    HW216569   3.704   6.336   1.343
 5224SOL     OW16570   5.377   0.140   3.251
 5224SOL    HW116571   5.343   0.069   3.190
 5224SOL    HW216572   5.476   0.151   3.238
 5225SOL     OW16573   0.440   0.316   5.485
 5225SOL    HW116574   0.434   0.291   5.388
 5225SOL    HW216575   0.468   0.236   5.538
 5226SOL     OW16576   2.564   0.764   3.282
 5226SOL    HW116577   2.521   0.810   3.359
 5226SOL    HW216578   2.504   0.690   3.249
 5227SOL     OW16579   5.604   4.086   4.628
 5227SOL    HW116580   5.646   4.106   4.540
 5227SOL    HW216581   5.577   3.990   4.631
 5228SOL     OW16582   5.299   0.031   2.191
 5228SOL    HW116583   5.326   6.989   2.262
 5228SOL    HW216584   5.199   0.038   2.189
 5229SOL     OW16585   0.403   3.774   4.179
 5229SOL    HW116586   0.501   3.794   4.172
 5229SOL    HW216587   0.369   3.800   4.269
 5230SOL     OW16588   1.007   1.825   6.456
 5230SOL    HW116589   1.005   1.902   6.519
 5230SOL    HW216590   1.057   1.850   6.372
 5231SOL     OW16591   3.244   3.949   3.314
 5231SOL    HW116592   3.255   4.000   3.399
 5231SOL    HW216593   3.194   4.005   3.248
 5232SOL     OW16594   5.665   2.555   4.866
 5232SOL    HW116595   5.721   2.486   4.912
 5232SOL    HW216596   5.572   2.552   4.902
 5233SOL     OW16597   0.608   6.720   2.302
 5233SOL    HW116598   0.564   6.787   2.243
 5233SOL    HW216599   0.553   6.637   2.306
 5234SOL     OW16600   3.431   4.132   2.226
 5234SOL    HW116601   3.441   4.100   2.132
 5234SOL    HW216602   3.466   4.226   2.233
 5235SOL     OW16603   0.689   1.690   1.911
 5235SOL    HW116604   0.711   1.602   1.869
 5235SOL    HW216605   0.707   1.686   2.009
 5236SOL     OW16606   6.675   2.903   1.459
 5236SOL    HW116607   6.657   2.806   1.474
 5236SOL    HW216608   6.605   2.958   1.503
 5237SOL     OW16609   2.023   2.311   2.872
 5237SOL    HW116610   2.053   2.263   2.789
 5237SOL    HW216611   2.083   2.390   2.887
 5238SOL     OW16612   1.545   3.399   1.681
 5238SOL    HW116613   1.570   3.382   1.776
 5238SOL    HW216614   1.620   3.446   1.635
 5239SOL     OW16615   3.347   2.894   4.700
 5239SOL    HW116616   3.324   2.889   4.603
 5239SOL    HW216617   3.275   2.943   4.749
 5240SOL     OW16618   4.354   2.338   4.261
 5240SOL    HW116619   4.365   2.429   4.301
 5240SOL    HW216620   4.316   2.275   4.329
 5241SOL     OW16621   4.178   6.036   5.492
 5241SOL    HW116622   4.200   5.944   5.525
 5241SOL    HW216623   4.261   6.080   5.459
 5242SOL     OW16624   2.869   0.914   6.463
 5242SOL    HW116625   2.791   0.969   6.493
 5242SOL    HW216626   2.882   0.925   6.364
 5243SOL     OW16627   2.230   3.779   0.056
 5243SOL    HW116628   2.253   3.775   0.153
 5243SOL    HW216629   2.239   3.688   0.015
 5244SOL     OW16630   6.243   3.001   6.764
 5244SOL    HW116631   6.321   2.984   6.704
 5244SOL    HW216632   6.263   3.079   6.823
 5245SOL     OW16633   3.781   4.946   6.399
 5245SOL    HW116634   3.691   4.952   6.442
 5245SOL    HW216635   3.780   4.993   6.311
 5246SOL     OW16636   1.440   3.875   3.634
 5246SOL    HW116637   1.353   3.857   3.588
 5246SOL    HW216638   1.514   3.834   3.581
 5247SOL     OW16639   0.775   4.340   6.587
 5247SOL    HW116640   0.838   4.275   6.628
 5247SOL    HW216641   0.698   4.357   6.649
 5248SOL     OW16642   5.019   2.259   0.272
 5248SOL    HW116643   5.042   2.267   0.176
 5248SOL    HW216644   4.961   2.178   0.286
 5249SOL     OW16645   1.067   5.420   6.612
 5249SOL    HW116646   1.027   5.509   6.587
 5249SOL    HW216647   1.007   5.347   6.580
 5250SOL     OW16648   2.248   1.757   5.022
 5250SOL    HW116649   2.149   1.749   5.016
 5250SOL    HW216650   2.275   1.851   5.001
 5251SOL     OW16651   1.296   2.807   2.585
 5251SOL    HW116652   1.226   2.877   2.568
 5251SOL    HW216653   1.376   2.826   2.527
 5252SOL     OW16654   5.560   5.567   1.465
 5252SOL    HW116655   5.647   5.519   1.473
 5252SOL    HW216656   5.507   5.529   1.389
 5253SOL     OW16657   5.736   3.217   4.509
 5253SOL    HW116658   5.690   3.303   4.531
 5253SOL    HW216659   5.704   3.183   4.421
 5254SOL     OW16660   5.163   0.132   4.969
 5254SOL    HW116661   5.216   0.140   4.884
 5254SOL    HW216662   5.146   0.035   4.988
 5255SOL     OW16663   1.972   5.020   2.105
 5255SOL    HW116664   1.946   5.080   2.030
 5255SOL    HW216665   1.983   4.927   2.071
 5256SOL     OW16666   4.367   5.963   1.745
 5256SOL    HW116667   4.421   5.887   1.780
 5256SOL    HW216668   4.343   6.025   1.821
 5257SOL     OW16669   2.040   1.299   1.964
 5257SOL    HW116670   2.098   1.292   2.045
 5257SOL    HW216671   1.947   1.324   1.991
 5258SOL     OW16672   4.946   2.231   1.234
 5258SOL    HW116673   4.940   2.318   1.282
 5258SOL    HW216674   5.037   2.220   1.196
 5259SOL     OW16675   5.287   5.033   0.851
 5259SOL    HW116676   5.350   4.980   0.908
 5259SOL    HW216677   5.269   5.121   0.895
 5260SOL     OW16678   5.376   3.097   2.271
 5260SOL    HW116679   5.389   3.186   2.227
 5260SOL    HW216680   5.298   3.050   2.229
 5261SOL     OW16681   2.396   2.551   4.552
 5261SOL    HW116682   2.438   2.562   4.643
 5261SOL    HW216683   2.467   2.525   4.486
 5262SOL     OW16684   0.937   0.646   2.075
 5262SOL    HW116685   0.977   0.715   2.015
 5262SOL    HW216686   0.989   0.641   2.160
 5263SOL     OW16687   1.198   6.395   6.267
 5263SOL    HW116688   1.111   6.405   6.315
 5263SOL    HW216689   1.192   6.318   6.203
 5264SOL     OW16690   1.279   1.278   0.785
 5264SOL    HW116691   1.287   1.179   0.776
 5264SOL    HW216692   1.260   1.318   0.696
 5265SOL     OW16693   4.709   5.515   4.110
 5265SOL    HW116694   4.772   5.439   4.110
 5265SOL    HW216695   4.627   5.491   4.058
 5266SOL     OW16696   0.505   6.706   0.959
 5266SOL    HW116697   0.433   6.650   0.919
 5266SOL    HW216698   0.472   6.745   1.045
 5267SOL     OW16699   3.476   3.656   4.364
 5267SOL    HW116700   3.541   3.581   4.353
 5267SOL    HW216701   3.447   3.661   4.460
 5268SOL     OW16702   6.107   4.242   6.604
 5268SOL    HW116703   6.098   4.214   6.509
 5268SOL    HW216704   6.054   4.326   6.620
 5269SOL     OW16705   2.574   5.282   5.425
 5269SOL    HW116706   2.546   5.187   5.441
 5269SOL    HW216707   2.619   5.289   5.336
 5270SOL     OW16708   6.949   1.156   3.026
 5270SOL    HW116709   6.917   1.228   2.964
 5270SOL    HW216710   0.017   1.180   3.063
 5271SOL     OW16711   6.034   3.394   5.037
 5271SOL    HW116712   6.043   3.335   5.118
 5271SOL    HW216713   6.048   3.339   4.955
 5272SOL     OW16714   2.191   2.480   3.649
 5272SOL    HW116715   2.148   2.567   3.626
 5272SOL    HW216716   2.202   2.425   3.565
 5273SOL     OW16717   0.077   1.612   5.366
 5273SOL    HW116718   0.103   1.574   5.455
 5273SOL    HW216719   7.022   1.560   5.329
 5274SOL     OW16720   0.437   4.724   4.982
 5274SOL    HW116721   0.475   4.641   4.942
 5274SOL    HW216722   0.344   4.739   4.946
 5275SOL     OW16723   2.308   6.197   6.309
 5275SOL    HW116724   2.210   6.175   6.302
 5275SOL    HW216725   2.353   6.173   6.223
 5276SOL     OW16726   0.174   1.393   6.550
 5276SOL    HW116727   0.257   1.339   6.538
 5276SOL    HW216728   0.114   1.379   6.471
 5277SOL     OW16729   0.944   0.652   1.435
 5277SOL    HW116730   0.958   0.748   1.412
 5277SOL    HW216731   0.986   0.595   1.364
 5278SOL     OW16732   0.459   4.607   0.142
 5278SOL    HW116733   0.392   4.538   0.113
 5278SOL    HW216734   0.479   4.595   0.239
 5279SOL     OW16735   2.721   6.815   0.076
 5279SOL    HW116736   2.735   6.914   0.077
 5279SOL    HW216737   2.645   6.793   0.015
 5280SOL     OW16738   4.477   6.398   6.031
 5280SOL    HW116739   4.442   6.438   6.115
 5280SOL    HW216740   4.488   6.299   6.043
 5281SOL     OW16741   2.434   6.614   4.220
 5281SOL    HW116742   2.407   6.626   4.125
 5281SOL    HW216743   2.446   6.516   4.239
 5282SOL     OW16744   6.449   6.263   1.123
 5282SOL    HW116745   6.506   6.342   1.099
 5282SOL    HW216746   6.486   6.220   1.205
 5283SOL     OW16747   1.640   0.380   4.049
 5283SOL    HW116748   1.644   0.397   3.951
 5283SOL    HW216749   1.594   0.457   4.094
 5284SOL     OW16750   4.923   3.457   2.075
 5284SOL    HW116751   4.918   3.378   2.013
 5284SOL    HW216752   5.012   3.458   2.121
 5285SOL     OW16753   2.271   1.812   3.701
 5285SOL    HW116754   2.240   1.891   3.649
 5285SOL    HW216755   2.203   1.739   3.696
 5286SOL     OW16756   0.041   2.904   1.754
 5286SOL    HW116757   0.008   2.866   1.841
 5286SOL    HW216758   0.139   2.924   1.761
 5287SOL     OW16759   0.292   5.804   2.112
 5287SOL    HW116760   0.214   5.852   2.153
 5287SOL    HW216761   0.265   5.766   2.024
 5288SOL     OW16762   4.242   0.626   2.294
 5288SOL    HW116763   4.151   0.662   2.275
 5288SOL    HW216764   4.286   0.601   2.208
 5289SOL     OW16765   1.446   5.210   6.631
 5289SOL    HW116766   1.470   5.122   6.591
 5289SOL    HW216767   1.406   5.270   6.561
 5290SOL     OW16768   2.382   2.280   5.139
 5290SOL    HW116769   2.375   2.341   5.218
 5290SOL    HW216770   2.372   2.333   5.055
 5291SOL     OW16771   2.682   6.769   4.790
 5291SOL    HW116772   2.700   6.848   4.848
 5291SOL    HW216773   2.599   6.723   4.822
 5292SOL     OW16774   0.676   3.882   4.067
 5292SOL    HW116775   0.703   3.887   3.971
 5292SOL    HW216776   0.630   3.967   4.094
 5293SOL     OW16777   2.707   0.562   3.672
 5293SOL    HW116778   2.773   0.573   3.746
 5293SOL    HW216779   2.749   0.591   3.586
 5294SOL     OW16780   5.060   0.239   4.604
 5294SOL    HW116781   4.999   0.225   4.526
 5294SOL    HW216782   5.056   0.158   4.664
 5295SOL     OW16783   2.323   0.485   0.852
 5295SOL    HW116784   2.235   0.523   0.882
 5295SOL    HW216785   2.344   0.517   0.760
 5296SOL     OW16786   5.158   5.035   2.022
 5296SOL    HW116787   5.180   4.969   2.093
 5296SOL    HW216788   5.065   5.019   1.989
 5297SOL     OW16789   3.762   5.235   5.733
 5297SOL    HW116790   3.672   5.260   5.766
 5297SOL    HW216791   3.753   5.164   5.663
 5298SOL     OW16792   3.445   0.593   6.564
 5298SOL    HW116793   3.477   0.589   6.659
 5298SOL    HW216794   3.368   0.657   6.557
 5299SOL     OW16795   1.431   0.591   1.266
 5299SOL    HW116796   1.530   0.585   1.271
 5299SOL    HW216797   1.396   0.514   1.212
 5300SOL     OW16798   2.952   4.442   6.175
 5300SOL    HW116799   3.042   4.451   6.131
 5300SOL    HW216800   2.954   4.364   6.238
 5301SOL     OW16801   5.649   0.440   5.584
 5301SOL    HW116802   5.607   0.527   5.558
 5301SOL    HW216803   5.728   0.457   5.643
 5302SOL     OW16804   4.809   5.940   3.312
 5302SOL    HW116805   4.776   5.957   3.219
 5302SOL    HW216806   4.893   5.992   3.328
 5303SOL     OW16807   1.746   6.319   5.551
 5303SOL    HW116808   1.672   6.382   5.527
 5303SOL    HW216809   1.709   6.243   5.604
 5304SOL     OW16810   0.082   6.948   2.906
 5304SOL    HW116811   0.150   6.986   2.970
 5304SOL    HW216812   0.128   6.922   2.821
 5305SOL     OW16813   6.127   5.443   5.235
 5305SOL    HW116814   6.215   5.472   5.271
 5305SOL    HW216815   6.078   5.389   5.304
 5306SOL     OW16816   1.246   1.925   0.009
 5306SOL    HW116817   1.304   1.944   0.088
 5306SOL    HW216818   1.276   1.979   6.953
 5307SOL     OW16819   1.452   1.268   1.879
 5307SOL    HW116820   1.407   1.230   1.960
 5307SOL    HW216821   1.427   1.215   1.799
 5308SOL     OW16822   1.873   4.594   3.816
 5308SOL    HW116823   1.833   4.603   3.907
 5308SOL    HW216824   1.970   4.620   3.819
 5309SOL     OW16825   6.317   6.095   2.482
 5309SOL    HW116826   6.284   6.098   2.387
 5309SOL    HW216827   6.338   6.000   2.506
 5310SOL     OW16828   5.704   2.093   3.791
 5310SOL    HW116829   5.624   2.102   3.731
 5310SOL    HW216830   5.740   2.184   3.812
 5311SOL     OW16831   5.869   0.083   7.009
 5311SOL    HW116832   5.858   0.100   6.911
 5311SOL    HW216833   5.891   0.170   0.033
 5312SOL     OW16834   4.948   6.589   1.015
 5312SOL    HW116835   5.023   6.592   0.948
 5312SOL    HW216836   4.918   6.682   1.035
 5313SOL     OW16837   0.850   6.611   5.820
 5313SOL    HW116838   0.939   6.597   5.864
 5313SOL    HW216839   0.823   6.707   5.829
 5314SOL     OW16840   5.506   1.566   2.596
 5314SOL    HW116841   5.585   1.627   2.593
 5314SOL    HW216842   5.517   1.491   2.531
 5315SOL     OW16843   4.457   1.283   3.458
 5315SOL    HW116844   4.510   1.368   3.457
 5315SOL    HW216845   4.513   1.208   3.423
 5316SOL     OW16846   0.158   2.665   5.766
 5316SOL    HW116847   0.120   2.578   5.795
 5316SOL    HW216848   0.144   2.676   5.667
 5317SOL     OW16849   5.606   2.987   2.313
 5317SOL    HW116850   5.517   3.032   2.309
 5317SOL    HW216851   5.593   2.888   2.313
 5318SOL     OW16852   7.004   4.675   6.680
 5318SOL    HW116853   6.989   4.746   6.750
 5318SOL    HW216854   6.919   4.659   6.630
 5319SOL     OW16855   4.143   5.713   2.249
 5319SOL    HW116856   4.193   5.711   2.335
 5319SOL    HW216857   4.206   5.736   2.174
 5320SOL     OW16858   4.611   6.133   0.541
 5320SOL    HW116859   4.628   6.133   0.443
 5320SOL    HW216860   4.623   6.040   0.577
 5321SOL     OW16861   1.203   4.172   5.289
 5321SOL    HW116862   1.282   4.118   5.260
 5321SOL    HW216863   1.233   4.243   5.352
 5322SOL     OW16864   4.022   5.604   1.796
 5322SOL    HW116865   4.104   5.554   1.822
 5322SOL    HW216866   4.046   5.678   1.733
 5323SOL     OW16867   4.583   0.112   6.291
 5323SOL    HW116868   4.583   0.164   6.206
 5323SOL    HW216869   4.505   0.140   6.347
 5324SOL     OW16870   1.037   1.143   1.769
 5324SOL    HW116871   0.985   1.166   1.687
 5324SOL    HW216872   0.992   1.067   1.817
 5325SOL     OW16873   2.217   3.011   4.190
 5325SOL    HW116874   2.127   2.970   4.201
 5325SOL    HW216875   2.270   2.996   4.274
 5326SOL     OW16876   6.200   0.342   0.858
 5326SOL    HW116877   6.140   0.415   0.892
 5326SOL    HW216878   6.146   0.259   0.842
 5327SOL     OW16879   0.753   2.184   6.504
 5327SOL    HW116880   0.682   2.122   6.536
 5327SOL    HW216881   0.721   2.233   6.423
 5328SOL     OW16882   4.042   5.125   0.410
 5328SOL    HW116883   4.110   5.092   0.346
 5328SOL    HW216884   4.064   5.219   0.438
 5329SOL     OW16885   2.195   5.835   6.296
 5329SOL    HW116886   2.183   5.916   6.353
 5329SOL    HW216887   2.179   5.753   6.352
 5330SOL     OW16888   2.464   5.324   0.568
 5330SOL    HW116889   2.416   5.397   0.617
 5330SOL    HW216890   2.469   5.348   0.471
 5331SOL     OW16891   5.727   1.949   6.739
 5331SOL    HW116892   5.767   2.040   6.747
 5331SOL    HW216893   5.701   1.916   6.830
 5332SOL     OW16894   0.778   5.091   2.831
 5332SOL    HW116895   0.843   5.117   2.760
 5332SOL    HW216896   0.795   4.997   2.859
 5333SOL     OW16897   0.763   6.266   4.382
 5333SOL    HW116898   0.783   6.363   4.394
 5333SOL    HW216899   0.676   6.243   4.426
 5334SOL     OW16900   3.125   6.920   5.127
 5334SOL    HW116901   3.203   6.982   5.116
 5334SOL    HW216902   3.154   6.826   5.105
 5335SOL     OW16903   6.015   6.361   0.830
 5335SOL    HW116904   6.100   6.309   0.828
 5335SOL    HW216905   5.975   6.362   0.738
 5336SOL     OW16906   0.934   3.711   1.659
 5336SOL    HW116907   0.869   3.687   1.732
 5336SOL    HW216908   1.020   3.740   1.700
 5337SOL     OW16909   5.306   4.952   1.631
 5337SOL    HW116910   5.370   4.982   1.560
 5337SOL    HW216911   5.348   4.963   1.721
 5338SOL     OW16912   5.685   2.783   0.306
 5338SOL    HW116913   5.588   2.795   0.324
 5338SOL    HW216914   5.701   2.695   0.261
 5339SOL     OW16915   6.033   0.879   2.268
 5339SOL    HW116916   6.117   0.851   2.314
 5339SOL    HW216917   5.969   0.802   2.265
 5340SOL     OW16918   5.744   2.055   0.159
 5340SOL    HW116919   5.725   1.973   0.104
 5340SOL    HW216920   5.746   2.135   0.099
 5341SOL     OW16921   4.488   0.347   1.122
 5341SOL    HW116922   4.574   0.306   1.091
 5341SOL    HW216923   4.484   0.443   1.095
 5342SOL     OW16924   1.642   0.439   5.565
 5342SOL    HW116925   1.716   0.378   5.537
 5342SOL    HW216926   1.680   0.529   5.586
 5343SOL     OW16927   3.238   3.726   1.482
 5343SOL    HW116928   3.180   3.797   1.521
 5343SOL    HW216929   3.187   3.641   1.476
 5344SOL     OW16930   1.849   2.987   3.245
 5344SOL    HW116931   1.898   2.997   3.331
 5344SOL    HW216932   1.834   3.077   3.204
 5345SOL     OW16933   5.261   0.261   2.772
 5345SOL    HW116934   5.167   0.232   2.757
 5345SOL    HW216935   5.272   0.355   2.740
 5346SOL     OW16936   3.906   0.872   4.240
 5346SOL    HW116937   3.895   0.804   4.312
 5346SOL    HW216938   3.979   0.936   4.265
 5347SOL     OW16939   6.625   1.717   2.033
 5347SOL    HW116940   6.563   1.792   2.009
 5347SOL    HW216941   6.720   1.750   2.026
 5348SOL     OW16942   6.564   1.467   0.219
 5348SOL    HW116943   6.512   1.548   0.246
 5348SOL    HW216944   6.518   1.385   0.252
 5349SOL     OW16945   5.479   1.007   0.032
 5349SOL    HW116946   5.408   1.014   6.985
 5349SOL    HW216947   5.440   1.020   0.123
 5350SOL     OW16948   2.965   0.907   6.906
 5350SOL    HW116949   2.872   0.937   6.884
 5350SOL    HW216950   3.007   0.972   6.970
 5351SOL     OW16951   4.668   1.411   2.031
 5351SOL    HW116952   4.635   1.360   2.110
 5351SOL    HW216953   4.590   1.440   1.976
 5352SOL     OW16954   3.979   0.587   3.991
 5352SOL    HW116955   3.999   0.684   3.975
 5352SOL    HW216956   3.890   0.564   3.951
 5353SOL     OW16957   6.390   0.659   6.292
 5353SOL    HW116958   6.474   0.606   6.303
 5353SOL    HW216959   6.325   0.633   6.364
 5354SOL     OW16960   0.881   2.484   1.156
 5354SOL    HW116961   0.828   2.416   1.206
 5354SOL    HW216962   0.975   2.486   1.192
 5355SOL     OW16963   4.631   1.182   5.546
 5355SOL    HW116964   4.617   1.276   5.517
 5355SOL    HW216965   4.546   1.145   5.584
 5356SOL     OW16966   6.481   3.340   2.201
 5356SOL    HW116967   6.491   3.393   2.117
 5356SOL    HW216968   6.453   3.401   2.276
 5357SOL     OW16969   4.590   5.526   0.194
 5357SOL    HW116970   4.557   5.579   0.116
 5357SOL    HW216971   4.614   5.434   0.164
 5358SOL     OW16972   5.424   4.048   1.464
 5358SOL    HW116973   5.489   3.979   1.434
 5358SOL    HW216974   5.470   4.136   1.474
 5359SOL     OW16975   2.612   0.438   5.427
 5359SOL    HW116976   2.518   0.469   5.416
 5359SOL    HW216977   2.619   0.384   5.511
 5360SOL     OW16978   4.360   2.534   0.218
 5360SOL    HW116979   4.428   2.517   0.147
 5360SOL    HW216980   4.313   2.449   0.241
 5361SOL     OW16981   0.766   1.568   6.635
 5361SOL    HW116982   0.731   1.649   6.588
 5361SOL    HW216983   0.728   1.485   6.594
 5362SOL     OW16984   4.537   6.190   4.124
 5362SOL    HW116985   4.540   6.113   4.061
 5362SOL    HW216986   4.628   6.232   4.129
 5363SOL     OW16987   0.635   5.905   4.769
 5363SOL    HW116988   0.713   5.878   4.825
 5363SOL    HW216989   0.666   5.967   4.696
 5364SOL     OW16990   1.209   5.634   6.757
 5364SOL    HW116991   1.126   5.615   6.809
 5364SOL    HW216992   1.245   5.549   6.718
 5365SOL     OW16993   4.023   2.785   6.328
 5365SOL    HW116994   4.075   2.742   6.403
 5365SOL    HW216995   4.032   2.884   6.335
 5366SOL     OW16996   4.039   3.724   5.416
 5366SOL    HW116997   4.135   3.719   5.389
 5366SOL    HW216998   3.996   3.802   5.371
 5367SOL     OW16999   6.906   3.649   1.371
 5367SOL    HW117000   6.921   3.608   1.281
 5367SOL    HW217001   6.990   3.694   1.402
 5368SOL     OW17002   0.477   0.285   3.630
 5368SOL    HW117003   0.434   0.213   3.577
 5368SOL    HW217004   0.506   0.249   3.719
 5369SOL     OW17005   1.721   3.469   2.724
 5369SOL    HW117006   1.742   3.499   2.631
 5369SOL    HW217007   1.797   3.415   2.760
 5370SOL     OW17008   3.745   2.741   1.780
 5370SOL    HW117009   3.665   2.788   1.742
 5370SOL    HW217010   3.739   2.739   1.879
 5371SOL     OW17011   2.311   4.226   4.633
 5371SOL    HW117012   2.311   4.245   4.732
 5371SOL    HW217013   2.387   4.274   4.590
 5372SOL     OW17014   3.812   6.469   2.395
 5372SOL    HW117015   3.826   6.560   2.358
 5372SOL    HW217016   3.717   6.442   2.381
 5373SOL     OW17017   3.196   4.904   3.834
 5373SOL    HW117018   3.284   4.933   3.871
 5373SOL    HW217019   3.207   4.876   3.739
 5374SOL     OW17020   3.062   2.753   0.757
 5374SOL    HW117021   2.989   2.711   0.812
 5374SOL    HW217022   3.022   2.793   0.675
 5375SOL     OW17023   1.625   4.404   4.384
 5375SOL    HW117024   1.600   4.499   4.370
 5375SOL    HW217025   1.644   4.361   4.296
 5376SOL     OW17026   3.093   5.345   5.737
 5376SOL    HW117027   3.182   5.389   5.752
 5376SOL    HW217028   3.069   5.292   5.818
 5377SOL     OW17029   1.730   2.260   1.631
 5377SOL    HW117030   1.737   2.359   1.626
 5377SOL    HW217031   1.787   2.219   1.559
 5378SOL     OW17032   5.619   6.927   6.859
 5378SOL    HW117033   5.592   6.900   6.767
 5378SOL    HW217034   5.706   6.883   6.883
 5379SOL     OW17035   0.217   0.330   6.997
 5379SOL    HW117036   0.196   0.426   6.976
 5379SOL    HW217037   0.316   0.320   7.009
 5380SOL     OW17038   2.541   1.761   4.620
 5380SOL    HW117039   2.580   1.831   4.680
 5380SOL    HW217040   2.466   1.714   4.667
 5381SOL     OW17041   6.041   3.657   2.363
 5381SOL    HW117042   5.967   3.713   2.400
 5381SOL    HW217043   6.092   3.709   2.295
 5382SOL     OW17044   1.676   6.424   1.093
 5382SOL    HW117045   1.578   6.417   1.070
 5382SOL    HW217046   1.730   6.380   1.021
 5383SOL     OW17047   2.558   1.916   4.855
 5383SOL    HW117048   2.468   1.905   4.896
 5383SOL    HW217049   2.590   2.010   4.870
 5384SOL     OW17050   4.998   5.895   5.021
 5384SOL    HW117051   4.996   5.975   4.961
 5384SOL    HW217052   5.076   5.837   4.996
 5385SOL     OW17053   3.785   4.029   2.086
 5385SOL    HW117054   3.824   4.094   2.151
 5385SOL    HW217055   3.845   3.949   2.078
 5386SOL     OW17056   6.199   6.243   5.819
 5386SOL    HW117057   6.144   6.247   5.903
 5386SOL    HW217058   6.163   6.170   5.760
 5387SOL     OW17059   4.193   5.045   0.170
 5387SOL    HW117060   4.143   5.027   0.085
 5387SOL    HW217061   4.261   5.116   0.154
 5388SOL     OW17062   6.095   5.816   3.095
 5388SOL    HW117063   6.081   5.902   3.144
 5388SOL    HW217064   6.027   5.808   3.022
 5389SOL     OW17065   5.667   3.230   1.434
 5389SOL    HW117066   5.594   3.265   1.375
 5389SOL    HW217067   5.739   3.190   1.377
 5390SOL     OW17068   6.747   4.186   6.936
 5390SOL    HW117069   6.649   4.192   6.953
 5390SOL    HW217070   6.763   4.135   6.852
 5391SOL     OW17071   3.113   5.063   0.206
 5391SOL    HW117072   3.193   5.118   0.229
 5391SOL    HW217073   3.081   5.015   0.288
 5392SOL     OW17074   0.670   2.707   3.413
 5392SOL    HW117075   0.676   2.707   3.513
 5392SOL    HW217076   0.761   2.723   3.375
 5393SOL     OW17077   6.504   0.490   6.567
 5393SOL    HW117078   6.597   0.494   6.603
 5393SOL    HW217079   6.458   0.577   6.584
 5394SOL     OW17080   2.011   3.693   6.707
 5394SOL    HW117081   1.976   3.753   6.778
 5394SOL    HW217082   1.940   3.627   6.681
 5395SOL     OW17083   4.905   0.997   1.631
 5395SOL    HW117084   4.846   0.941   1.573
 5395SOL    HW217085   4.975   1.042   1.575
 5396SOL     OW17086   4.479   2.503   1.011
 5396SOL    HW117087   4.499   2.423   1.068
 5396SOL    HW217088   4.389   2.540   1.037
 5397SOL     OW17089   1.611   2.100   2.529
 5397SOL    HW117090   1.709   2.093   2.547
 5397SOL    HW217091   1.562   2.105   2.616
 5398SOL     OW17092   2.924   3.726   2.292
 5398SOL    HW117093   2.858   3.692   2.225
 5398SOL    HW217094   2.932   3.660   2.367
 5399SOL     OW17095   0.661   4.823   0.123
 5399SOL    HW117096   0.591   4.753   0.136
 5399SOL    HW217097   0.729   4.816   0.195
 5400SOL     OW17098   2.519   3.694   0.168
 5400SOL    HW117099   2.590   3.764   0.163
 5400SOL    HW217100   2.539   3.622   0.101
 5401SOL     OW17101   5.795   2.033   1.235
 5401SOL    HW117102   5.884   2.076   1.219
 5401SOL    HW217103   5.780   1.960   1.169
 5402SOL     OW17104   1.012   5.913   2.195
 5402SOL    HW117105   1.084   5.844   2.202
 5402SOL    HW217106   0.965   5.904   2.107
 5403SOL     OW17107   0.979   2.399   6.256
 5403SOL    HW117108   0.885   2.375   6.279
 5403SOL    HW217109   0.991   2.392   6.157
 5404SOL     OW17110   0.055   2.359   3.208
 5404SOL    HW117111   0.035   2.449   3.248
 5404SOL    HW217112   0.078   2.295   3.281
 5405SOL     OW17113   6.568   4.041   4.724
 5405SOL    HW117114   6.624   4.122   4.740
 5405SOL    HW217115   6.608   3.963   4.772
 5406SOL     OW17116   2.006   6.533   2.576
 5406SOL    HW117117   2.002   6.563   2.672
 5406SOL    HW217118   2.013   6.433   2.573
 5407SOL     OW17119   4.002   2.661   6.894
 5407SOL    HW117120   3.947   2.598   6.840
 5407SOL    HW217121   4.089   2.618   6.917
 5408SOL     OW17122   4.149   1.059   0.226
 5408SOL    HW117123   4.155   0.967   0.264
 5408SOL    HW217124   4.063   1.102   0.255
 5409SOL     OW17125   4.966   0.808   1.807
 5409SOL    HW117126   4.963   0.891   1.752
 5409SOL    HW217127   4.880   0.797   1.856
 5410SOL     OW17128   1.971   2.724   2.112
 5410SOL    HW117129   2.035   2.694   2.182
 5410SOL    HW217130   2.001   2.812   2.075
 5411SOL     OW17131   2.888   4.907   5.473
 5411SOL    HW117132   2.891   4.878   5.378
 5411SOL    HW217133   2.792   4.920   5.501
 5412SOL     OW17134   6.949   1.511   2.563
 5412SOL    HW117135   0.021   1.532   2.591
 5412SOL    HW217136   6.940   1.525   2.465
 5413SOL     OW17137   1.370   6.592   2.418
 5413SOL    HW117138   1.457   6.545   2.404
 5413SOL    HW217139   1.301   6.525   2.447
 5414SOL     OW17140   4.709   6.887   6.587
 5414SOL    HW117141   4.622   6.914   6.547
 5414SOL    HW217142   4.712   6.914   6.683
 5415SOL     OW17143   5.793   3.353   3.466
 5415SOL    HW117144   5.698   3.326   3.451
 5415SOL    HW217145   5.831   3.301   3.543
 5416SOL     OW17146   4.276   5.252   4.929
 5416SOL    HW117147   4.330   5.318   4.876
 5416SOL    HW217148   4.180   5.279   4.928
 5417SOL     OW17149   2.446   0.288   5.782
 5417SOL    HW117150   2.367   0.288   5.721
 5417SOL    HW217151   2.416   0.265   5.875
 5418SOL     OW17152   3.219   1.564   3.383
 5418SOL    HW117153   3.215   1.470   3.349
 5418SOL    HW217154   3.256   1.565   3.475
 5419SOL     OW17155   3.183   3.722   6.830
 5419SOL    HW117156   3.223   3.664   6.900
 5419SOL    HW217157   3.083   3.722   6.839
 5420SOL     OW17158   1.476   2.404   2.533
 5420SOL    HW117159   1.563   2.452   2.547
 5420SOL    HW217160   1.456   2.347   2.612
 5421SOL     OW17161   2.468   3.309   0.636
 5421SOL    HW117162   2.373   3.301   0.669
 5421SOL    HW217163   2.487   3.404   0.614
 5422SOL     OW17164   0.351   3.361   0.558
 5422SOL    HW117165   0.253   3.359   0.580
 5422SOL    HW217166   0.370   3.296   0.485
 5423SOL     OW17167   3.927   3.496   5.471
 5423SOL    HW117168   3.898   3.494   5.567
 5423SOL    HW217169   3.971   3.583   5.451
 5424SOL     OW17170   5.672   3.096   5.395
 5424SOL    HW117171   5.701   3.072   5.488
 5424SOL    HW217172   5.650   3.013   5.344
 5425SOL     OW17173   5.408   1.119   4.930
 5425SOL    HW117174   5.373   1.184   4.998
 5425SOL    HW217175   5.342   1.110   4.855
 5426SOL     OW17176   6.996   0.723   4.359
 5426SOL    HW117177   6.898   0.721   4.373
 5426SOL    HW217178   0.021   0.695   4.443
 5427SOL     OW17179   4.360   6.835   0.577
 5427SOL    HW117180   4.333   6.818   0.672
 5427SOL    HW217181   4.399   6.752   0.537
 5428SOL     OW17182   1.521   0.210   0.648
 5428SOL    HW117183   1.513   0.210   0.548
 5428SOL    HW217184   1.615   0.187   0.673
 5429SOL     OW17185   1.327   2.653   6.264
 5429SOL    HW117186   1.364   2.714   6.335
 5429SOL    HW217187   1.289   2.571   6.307
 5430SOL     OW17188   2.558   2.463   5.538
 5430SOL    HW117189   2.491   2.479   5.466
 5430SOL    HW217190   2.612   2.381   5.516
 5431SOL     OW17191   3.470   5.126   4.060
 5431SOL    HW117192   3.490   5.222   4.080
 5431SOL    HW217193   3.479   5.073   4.144
 5432SOL     OW17194   5.949   4.160   0.804
 5432SOL    HW117195   5.881   4.227   0.833
 5432SOL    HW217196   6.039   4.187   0.838
 5433SOL     OW17197   2.183   2.085   3.145
 5433SOL    HW117198   2.161   2.145   3.222
 5433SOL    HW217199   2.279   2.096   3.121
 5434SOL     OW17200   2.022   6.396   4.786
 5434SOL    HW117201   1.978   6.405   4.876
 5434SOL    HW217202   1.973   6.328   4.732
 5435SOL     OW17203   4.619   1.993   1.687
 5435SOL    HW117204   4.670   1.983   1.773
 5435SOL    HW217205   4.530   2.035   1.706
 5436SOL     OW17206   4.856   4.312   3.337
 5436SOL    HW117207   4.946   4.272   3.321
 5436SOL    HW217208   4.801   4.250   3.392
 5437SOL     OW17209   3.161   5.738   5.344
 5437SOL    HW117210   3.208   5.825   5.356
 5437SOL    HW217211   3.191   5.696   5.258
 5438SOL     OW17212   6.399   1.145   6.896
 5438SOL    HW117213   6.422   1.220   6.834
 5438SOL    HW217214   6.478   1.125   6.954
 5439SOL     OW17215   1.618   1.997   0.628
 5439SOL    HW117216   1.641   2.036   0.717
 5439SOL    HW217217   1.598   2.071   0.564
 5440SOL     OW17218   1.757   0.435   1.057
 5440SOL    HW117219   1.713   0.455   0.969
 5440SOL    HW217220   1.721   0.349   1.093
 5441SOL     OW17221   3.928   1.765   5.498
 5441SOL    HW117222   3.918   1.668   5.474
 5441SOL    HW217223   3.846   1.796   5.546
 5442SOL     OW17224   4.088   1.152   1.917
 5442SOL    HW117225   4.106   1.210   1.996
 5442SOL    HW217226   4.124   1.196   1.835
 5443SOL     OW17227   0.838   5.815   5.491
 5443SOL    HW117228   0.874   5.722   5.483
 5443SOL    HW217229   0.872   5.870   5.415
 5444SOL     OW17230   0.184   0.839   3.129
 5444SOL    HW117231   0.160   0.758   3.075
 5444SOL    HW217232   0.143   0.831   3.220
 5445SOL     OW17233   5.719   3.158   2.502
 5445SOL    HW117234   5.693   3.109   2.419
 5445SOL    HW217235   5.652   3.228   2.523
 5446SOL     OW17236   6.740   7.021   5.716
 5446SOL    HW117237   6.753   6.925   5.693
 5446SOL    HW217238   6.674   0.039   5.653
 5447SOL     OW17239   3.472   2.766   1.339
 5447SOL    HW117240   3.378   2.736   1.321
 5447SOL    HW217241   3.473   2.827   1.418
 5448SOL     OW17242   4.893   1.342   6.565
 5448SOL    HW117243   4.913   1.254   6.609
 5448SOL    HW217244   4.964   1.408   6.590
 5449SOL     OW17245   6.940   2.850   6.685
 5449SOL    HW117246   6.924   2.759   6.646
 5449SOL    HW217247   0.016   2.865   6.695
 5450SOL     OW17248   2.360   5.822   0.943
 5450SOL    HW117249   2.353   5.779   1.033
 5450SOL    HW217250   2.283   5.793   0.886
 5451SOL     OW17251   2.520   6.488   2.014
 5451SOL    HW117252   2.519   6.514   2.110
 5451SOL    HW217253   2.468   6.403   2.002
 5452SOL     OW17254   2.923   3.850   6.170
 5452SOL    HW117255   2.994   3.801   6.221
 5452SOL    HW217256   2.955   3.942   6.148
 5453SOL     OW17257   6.974   5.721   5.498
 5453SOL    HW117258   6.972   5.747   5.402
 5453SOL    HW217259   6.884   5.739   5.539
 5454SOL     OW17260   1.326   4.124   5.758
 5454SOL    HW117261   1.321   4.032   5.721
 5454SOL    HW217262   1.379   4.123   5.843
 5455SOL     OW17263   6.565   1.840   1.266
 5455SOL    HW117264   6.469   1.817   1.255
 5455SOL    HW217265   6.575   1.908   1.338
 5456SOL     OW17266   4.345   0.536   1.513
 5456SOL    HW117267   4.395   0.623   1.504
 5456SOL    HW217268   4.248   0.552   1.494
 5457SOL     OW17269   6.054   3.039   1.697
 5457SOL    HW117270   6.139   3.090   1.683
 5457SOL    HW217271   6.033   3.035   1.795
 5458SOL     OW17272   1.640   4.476   5.494
 5458SOL    HW117273   1.643   4.574   5.474
 5458SOL    HW217274   1.587   4.461   5.577
 5459SOL     OW17275   2.038   5.081   5.774
 5459SOL    HW117276   1.947   5.088   5.732
 5459SOL    HW217277   2.028   5.058   5.871
 5460SOL     OW17278   4.376   0.753   4.586
 5460SOL    HW117279   4.443   0.704   4.641
 5460SOL    HW217280   4.329   0.821   4.642
 5461SOL     OW17281   3.911   6.708   4.920
 5461SOL    HW117282   3.958   6.665   4.996
 5461SOL    HW217283   3.946   6.671   4.834
 5462SOL     OW17284   0.350   1.256   2.346
 5462SOL    HW117285   0.355   1.209   2.258
 5462SOL    HW217286   0.254   1.277   2.367
 5463SOL     OW17287   6.387   3.109   1.808
 5463SOL    HW117288   6.477   3.067   1.823
 5463SOL    HW217289   6.380   3.139   1.713
 5464SOL     OW17290   1.419   0.068   4.405
 5464SOL    HW117291   1.395   7.015   4.467
 5464SOL    HW217292   1.517   0.088   4.414
 5465SOL     OW17293   2.464   5.940   5.818
 5465SOL    HW117294   2.564   5.934   5.817
 5465SOL    HW217295   2.430   5.916   5.909
 5466SOL     OW17296   4.551   6.454   3.780
 5466SOL    HW117297   4.559   6.448   3.880
 5466SOL    HW217298   4.461   6.492   3.757
 5467SOL     OW17299   6.126   1.680   1.733
 5467SOL    HW117300   6.088   1.764   1.772
 5467SOL    HW217301   6.180   1.703   1.652
 5468SOL     OW17302   4.385   2.086   6.427
 5468SOL    HW117303   4.451   2.044   6.366
 5468SOL    HW217304   4.295   2.046   6.412
 5469SOL     OW17305   5.060   4.882   1.712
 5469SOL    HW117306   5.075   4.820   1.789
 5469SOL    HW217307   5.147   4.925   1.687
 5470SOL     OW17308   0.863   4.121   3.130
 5470SOL    HW117309   0.764   4.117   3.136
 5470SOL    HW217310   0.901   4.029   3.139
 5471SOL     OW17311   6.494   3.419   3.030
 5471SOL    HW117312   6.411   3.449   3.078
 5471SOL    HW217313   6.488   3.443   2.933
 5472SOL     OW17314   3.455   5.296   4.963
 5472SOL    HW117315   3.463   5.209   4.915
 5472SOL    HW217316   3.542   5.318   5.008
 5473SOL     OW17317   2.566   4.585   3.641
 5473SOL    HW117318   2.611   4.509   3.688
 5473SOL    HW217319   2.601   4.671   3.677
 5474SOL     OW17320   1.520   5.913   3.329
 5474SOL    HW117321   1.510   6.011   3.312
 5474SOL    HW217322   1.605   5.896   3.379
 5475SOL     OW17323   3.109   1.669   2.163
 5475SOL    HW117324   3.016   1.676   2.127
 5475SOL    HW217325   3.160   1.752   2.139
 5476SOL     OW17326   2.306   3.101   6.591
 5476SOL    HW117327   2.219   3.121   6.547
 5476SOL    HW217328   2.381   3.138   6.536
 5477SOL     OW17329   2.324   2.435   2.679
 5477SOL    HW117330   2.365   2.416   2.768
 5477SOL    HW217331   2.381   2.500   2.628
 5478SOL     OW17332   0.283   5.491   5.074
 5478SOL    HW117333   0.348   5.431   5.027
 5478SOL    HW217334   0.199   5.497   5.019
 5479SOL     OW17335   4.356   6.726   4.750
 5479SOL    HW117336   4.337   6.823   4.766
 5479SOL    HW217337   4.455   6.713   4.740
 5480SOL     OW17338   0.513   1.920   5.939
 5480SOL    HW117339   0.485   1.948   6.031
 5480SOL    HW217340   0.435   1.882   5.890
 5481SOL     OW17341   4.213   0.082   2.433
 5481SOL    HW117342   4.298   0.081   2.380
 5481SOL    HW217343   4.137   0.053   2.375
 5482SOL     OW17344   1.279   6.442   1.778
 5482SOL    HW117345   1.288   6.465   1.875
 5482SOL    HW217346   1.354   6.380   1.752
 5483SOL     OW17347   0.899   2.834   6.534
 5483SOL    HW117348   0.866   2.918   6.490
 5483SOL    HW217349   0.837   2.759   6.513
 5484SOL     OW17350   4.832   5.724   5.575
 5484SOL    HW117351   4.818   5.780   5.494
 5484SOL    HW217352   4.779   5.761   5.651
 5485SOL     OW17353   4.479   0.311   4.914
 5485SOL    HW117354   4.459   0.408   4.931
 5485SOL    HW217355   4.408   0.271   4.857
 5486SOL     OW17356   2.774   5.478   3.627
 5486SOL    HW117357   2.855   5.420   3.640
 5486SOL    HW217358   2.792   5.569   3.664
 5487SOL     OW17359   4.071   6.240   5.673
 5487SOL    HW117360   4.119   6.188   5.601
 5487SOL    HW217361   4.135   6.262   5.746
 5488SOL     OW17362   4.741   2.101   5.953
 5488SOL    HW117363   4.689   2.060   5.878
 5488SOL    HW217364   4.798   2.031   5.996
 5489SOL     OW17365   7.003   2.660   4.036
 5489SOL    HW117366   6.999   2.613   4.124
 5489SOL    HW217367   0.037   2.607   3.972
 5490SOL     OW17368   0.887   4.655   1.183
 5490SOL    HW117369   0.796   4.613   1.178
 5490SOL    HW217370   0.911   4.694   1.095
 5491SOL     OW17371   0.177   3.910   1.220
 5491SOL    HW117372   0.230   3.974   1.275
 5491SOL    HW217373   0.099   3.957   1.179
 5492SOL     OW17374   0.946   1.798   0.341
 5492SOL    HW117375   1.012   1.873   0.349
 5492SOL    HW217376   0.992   1.710   0.355
 5493SOL     OW17377   4.476   3.735   5.328
 5493SOL    HW117378   4.507   3.814   5.380
 5493SOL    HW217379   4.555   3.691   5.284
 5494SOL     OW17380   5.991   1.769   5.001
 5494SOL    HW117381   5.972   1.671   5.008
 5494SOL    HW217382   5.942   1.807   4.922
 5495SOL     OW17383   5.594   1.726   0.248
 5495SOL    HW117384   5.543   1.807   0.277
 5495SOL    HW217385   5.652   1.694   0.323
 5496SOL     OW17386   4.355   0.197   6.004
 5496SOL    HW117387   4.434   0.248   6.036
 5496SOL    HW217388   4.353   0.196   5.904
 5497SOL     OW17389   1.122   1.052   5.747
 5497SOL    HW117390   1.195   1.117   5.730
 5497SOL    HW217391   1.039   1.081   5.699
 5498SOL     OW17392   0.166   5.635   1.903
 5498SOL    HW117393   0.129   5.547   1.933
 5498SOL    HW217394   0.100   5.680   1.842
 5499SOL     OW17395   2.063   6.824   2.979
 5499SOL    HW117396   2.150   6.777   2.969
 5499SOL    HW217397   2.024   6.842   2.888
 5500SOL     OW17398   0.684   6.605   1.744
 5500SOL    HW117399   0.771   6.653   1.734
 5500SOL    HW217400   0.632   6.646   1.818
 5501SOL     OW17401   5.136   3.521   1.200
 5501SOL    HW117402   5.177   3.510   1.290
 5501SOL    HW217403   5.113   3.431   1.163
 5502SOL     OW17404   4.347   3.654   0.559
 5502SOL    HW117405   4.296   3.568   0.566
 5502SOL    HW217406   4.302   3.723   0.615
 5503SOL     OW17407   6.218   2.705   1.493
 5503SOL    HW117408   6.220   2.687   1.592
 5503SOL    HW217409   6.155   2.781   1.475
 5504SOL     OW17410   3.758   2.374   0.249
 5504SOL    HW117411   3.658   2.370   0.246
 5504SOL    HW217412   3.787   2.438   0.320
 5505SOL     OW17413   2.832   5.493   3.011
 5505SOL    HW117414   2.895   5.517   3.084
 5505SOL    HW217415   2.845   5.397   2.985
 5506SOL     OW17416   6.817   2.927   6.921
 5506SOL    HW117417   6.737   2.986   6.910
 5506SOL    HW217418   6.863   2.918   6.833
 5507SOL     OW17419   3.903   6.539   6.999
 5507SOL    HW117420   3.914   6.534   6.900
 5507SOL    HW217421   3.811   6.571   7.020
 5508SOL     OW17422   6.806   3.133   5.877
 5508SOL    HW117423   6.729   3.101   5.932
 5508SOL    HW217424   6.840   3.058   5.820
 5509SOL     OW17425   6.101   4.133   0.561
 5509SOL    HW117426   6.090   4.058   0.495
 5509SOL    HW217427   6.024   4.133   0.624
 5510SOL     OW17428   4.854   6.388   6.892
 5510SOL    HW117429   4.869   6.486   6.908
 5510SOL    HW217430   4.881   6.336   6.973
 5511SOL     OW17431   0.404   2.969   5.742
 5511SOL    HW117432   0.316   3.010   5.766
 5511SOL    HW217433   0.401   2.939   5.646
 5512SOL     OW17434   2.707   6.711   1.959
 5512SOL    HW117435   2.711   6.720   1.859
 5512SOL    HW217436   2.659   6.627   1.982
 5513SOL     OW17437   2.985   5.213   5.977
 5513SOL    HW117438   2.946   5.293   6.024
 5513SOL    HW217439   2.912   5.150   5.953
 5514SOL     OW17440   4.115   1.407   0.313
 5514SOL    HW117441   4.072   1.320   0.291
 5514SOL    HW217442   4.112   1.423   0.412
 5515SOL     OW17443   3.770   5.105   2.521
 5515SOL    HW117444   3.859   5.137   2.488
 5515SOL    HW217445   3.703   5.109   2.448
 5516SOL     OW17446   1.314   2.452   5.470
 5516SOL    HW117447   1.296   2.501   5.556
 5516SOL    HW217448   1.259   2.368   5.467
 5517SOL     OW17449   1.390   2.096   4.543
 5517SOL    HW117450   1.446   2.047   4.477
 5517SOL    HW217451   1.372   2.037   4.622
 5518SOL     OW17452   3.955   3.978   5.299
 5518SOL    HW117453   3.877   4.035   5.322
 5518SOL    HW217454   3.947   3.945   5.205
 5519SOL     OW17455   5.138   2.419   5.366
 5519SOL    HW117456   5.078   2.471   5.305
 5519SOL    HW217457   5.223   2.399   5.319
 5520SOL     OW17458   4.830   5.990   1.245
 5520SOL    HW117459   4.853   5.908   1.194
 5520SOL    HW217460   4.830   6.069   1.184
 5521SOL     OW17461   4.395   6.652   1.679
 5521SOL    HW117462   4.348   6.613   1.600
 5521SOL    HW217463   4.477   6.598   1.699
 5522SOL     OW17464   5.029   6.362   6.632
 5522SOL    HW117465   5.011   6.458   6.653
 5522SOL    HW217466   5.019   6.306   6.714
 5523SOL     OW17467   6.050   1.334   0.565
 5523SOL    HW117468   6.121   1.402   0.586
 5523SOL    HW217469   6.005   1.306   0.649
 5524SOL     OW17470   2.876   1.812   2.759
 5524SOL    HW117471   2.945   1.831   2.689
 5524SOL    HW217472   2.788   1.850   2.730
 5525SOL     OW17473   6.514   1.178   0.654
 5525SOL    HW117474   6.519   1.085   0.618
 5525SOL    HW217475   6.447   1.181   0.728
 5526SOL     OW17476   4.995   4.321   4.043
 5526SOL    HW117477   5.064   4.282   4.104
 5526SOL    HW217478   4.911   4.268   4.049
 5527SOL     OW17479   6.591   6.883   2.150
 5527SOL    HW117480   6.528   6.869   2.073
 5527SOL    HW217481   6.656   6.807   2.153
 5528SOL     OW17482   2.309   1.962   6.879
 5528SOL    HW117483   2.377   2.021   6.836
 5528SOL    HW217484   2.347   1.924   6.963
 5529SOL     OW17485   3.072   0.970   1.767
 5529SOL    HW117486   3.142   0.966   1.839
 5529SOL    HW217487   2.981   0.967   1.808
 5530SOL     OW17488   0.967   1.558   1.422
 5530SOL    HW117489   0.873   1.591   1.435
 5530SOL    HW217490   1.004   1.594   1.336
 5531SOL     OW17491   1.097   4.531   6.368
 5531SOL    HW117492   1.167   4.559   6.302
 5531SOL    HW217493   1.015   4.501   6.319
 5532SOL     OW17494   6.673   5.333   5.775
 5532SOL    HW117495   6.771   5.322   5.758
 5532SOL    HW217496   6.625   5.248   5.755
 5533SOL     OW17497   4.209   1.282   4.121
 5533SOL    HW117498   4.297   1.285   4.168
 5533SOL    HW217499   4.215   1.336   4.036
 5534SOL     OW17500   1.279   0.064   4.152
 5534SOL    HW117501   1.338   0.079   4.231
 5534SOL    HW217502   1.275   0.147   4.097
 5535SOL     OW17503   1.234   2.113   3.128
 5535SOL    HW117504   1.273   2.205   3.127
 5535SOL    HW217505   1.307   2.046   3.110
 5536SOL     OW17506   5.015   0.078   5.503
 5536SOL    HW117507   4.922   0.053   5.529
 5536SOL    HW217508   5.048   0.151   5.563
 5537SOL     OW17509   2.740   2.359   2.706
 5537SOL    HW117510   2.682   2.336   2.784
 5537SOL    HW217511   2.686   2.411   2.639
 5538SOL     OW17512   3.564   5.897   3.954
 5538SOL    HW117513   3.613   5.902   3.867
 5538SOL    HW217514   3.622   5.853   4.022
 5539SOL     OW17515   1.683   3.970   0.631
 5539SOL    HW117516   1.722   3.884   0.599
 5539SOL    HW217517   1.714   4.045   0.572
 5540SOL     OW17518   3.127   5.408   1.013
 5540SOL    HW117519   3.130   5.508   1.009
 5540SOL    HW217520   3.109   5.379   1.107
 5541SOL     OW17521   4.522   0.114   6.666
 5541SOL    HW117522   4.533   0.197   6.721
 5541SOL    HW217523   4.425   0.093   6.656
 5542SOL     OW17524   6.044   4.133   6.352
 5542SOL    HW117525   5.997   4.050   6.383
 5542SOL    HW217526   6.046   4.135   6.252
 5543SOL     OW17527   0.479   2.924   5.168
 5543SOL    HW117528   0.465   2.995   5.237
 5543SOL    HW217529   0.482   2.966   5.078
 5544SOL     OW17530   5.249   6.665   0.307
 5544SOL    HW117531   5.180   6.715   0.359
 5544SOL    HW217532   5.322   6.727   0.279
 5545SOL     OW17533   3.027   2.448   1.262
 5545SOL    HW117534   2.976   2.430   1.346
 5545SOL    HW217535   2.975   2.416   1.183
 5546SOL     OW17536   3.506   6.005   4.400
 5546SOL    HW117537   3.506   6.059   4.316
 5546SOL    HW217538   3.518   6.067   4.478
 5547SOL     OW17539   3.443   5.555   3.868
 5547SOL    HW117540   3.358   5.601   3.840
 5547SOL    HW217541   3.434   5.523   3.962
 5548SOL     OW17542   6.078   1.117   4.281
 5548SOL    HW117543   6.144   1.050   4.247
 5548SOL    HW217544   6.034   1.081   4.364
 5549SOL     OW17545   3.936   5.231   4.970
 5549SOL    HW117546   3.964   5.147   5.016
 5549SOL    HW217547   3.900   5.209   4.879
 5550SOL     OW17548   2.407   5.771   1.920
 5550SOL    HW117549   2.481   5.755   1.985
 5550SOL    HW217550   2.425   5.855   1.868
 5551SOL     OW17551   0.862   1.113   2.360
 5551SOL    HW117552   0.844   1.104   2.262
 5551SOL    HW217553   0.877   1.209   2.382
 5552SOL     OW17554   2.305   2.686   2.234
 5552SOL    HW117555   2.310   2.681   2.334
 5552SOL    HW217556   2.221   2.642   2.203
 5553SOL     OW17557   4.729   6.210   5.911
 5553SOL    HW117558   4.667   6.278   5.874
 5553SOL    HW217559   4.754   6.145   5.839
 5554SOL     OW17560   3.103   0.731   5.987
 5554SOL    HW117561   3.056   0.740   6.075
 5554SOL    HW217562   3.196   0.696   6.003
 5555SOL     OW17563   1.048   5.986   1.876
 5555SOL    HW117564   1.115   6.036   1.930
 5555SOL    HW217565   1.036   6.031   1.787
 5556SOL     OW17566   0.315   1.486   5.050
 5556SOL    HW117567   0.318   1.565   5.111
 5556SOL    HW217568   0.256   1.506   4.972
 5557SOL     OW17569   3.507   0.752   2.920
 5557SOL    HW117570   3.574   0.761   2.993
 5557SOL    HW217571   3.551   0.716   2.838
 5558SOL     OW17572   5.515   2.325   6.392
 5558SOL    HW117573   5.506   2.297   6.296
 5558SOL    HW217574   5.443   2.391   6.414
 5559SOL     OW17575   3.627   1.681   1.179
 5559SOL    HW117576   3.578   1.595   1.195
 5559SOL    HW217577   3.585   1.753   1.235
 5560SOL     OW17578   0.459   2.070   4.799
 5560SOL    HW117579   0.390   1.999   4.785
 5560SOL    HW217580   0.445   2.144   4.732
 5561SOL     OW17581   1.853   4.469   2.566
 5561SOL    HW117582   1.935   4.453   2.620
 5561SOL    HW217583   1.779   4.500   2.626
 5562SOL     OW17584   5.292   3.285   0.362
 5562SOL    HW117585   5.221   3.216   0.350
 5562SOL    HW217586   5.359   3.252   0.428
 5563SOL     OW17587   4.434   3.956   0.699
 5563SOL    HW117588   4.405   3.937   0.793
 5563SOL    HW217589   4.523   3.914   0.683
 5564SOL     OW17590   6.098   0.545   3.090
 5564SOL    HW117591   6.106   0.446   3.087
 5564SOL    HW217592   6.189   0.587   3.084
 5565SOL     OW17593   1.896   2.601   5.704
 5565SOL    HW117594   1.810   2.597   5.654
 5565SOL    HW217595   1.970   2.623   5.640
 5566SOL     OW17596   1.970   4.176   0.367
 5566SOL    HW117597   1.992   4.103   0.303
 5566SOL    HW217598   2.021   4.258   0.343
 5567SOL     OW17599   1.350   5.958   2.717
 5567SOL    HW117600   1.408   6.039   2.725
 5567SOL    HW217601   1.407   5.878   2.702
 5568SOL     OW17602   5.011   2.992   0.119
 5568SOL    HW117603   5.030   2.895   0.105
 5568SOL    HW217604   4.918   3.013   0.089
 5569SOL     OW17605   3.997   0.874   6.285
 5569SOL    HW117606   3.971   0.963   6.247
 5569SOL    HW217607   4.059   0.827   6.222
 5570SOL     OW17608   1.823   1.381   5.783
 5570SOL    HW117609   1.822   1.462   5.725
 5570SOL    HW217610   1.872   1.307   5.737
 5571SOL     OW17611   1.772   5.052   6.735
 5571SOL    HW117612   1.736   5.124   6.794
 5571SOL    HW217613   1.699   5.018   6.676
 5572SOL     OW17614   0.855   3.445   5.264
 5572SOL    HW117615   0.949   3.411   5.260
 5572SOL    HW217616   0.820   3.456   5.170
 5573SOL     OW17617   0.735   3.894   6.863
 5573SOL    HW117618   0.740   3.837   6.781
 5573SOL    HW217619   0.814   3.956   6.866
 5574SOL     OW17620   1.338   5.640   4.565
 5574SOL    HW117621   1.245   5.664   4.592
 5574SOL    HW217622   1.399   5.716   4.587
 5575SOL     OW17623   1.628   1.741   2.771
 5575SOL    HW117624   1.612   1.678   2.695
 5575SOL    HW217625   1.549   1.800   2.783
 5576SOL     OW17626   5.550   6.244   6.670
 5576SOL    HW117627   5.581   6.338   6.656
 5576SOL    HW217628   5.568   6.190   6.587
 5577SOL     OW17629   2.020   5.680   5.582
 5577SOL    HW117630   2.060   5.663   5.672
 5577SOL    HW217631   2.071   5.630   5.513
 5578SOL     OW17632   4.333   1.609   5.753
 5578SOL    HW117633   4.303   1.612   5.657
 5578SOL    HW217634   4.282   1.538   5.801
 5579SOL     OW17635   5.273   4.596   2.234
 5579SOL    HW117636   5.208   4.655   2.187
 5579SOL    HW217637   5.231   4.507   2.252
 5580SOL     OW17638   6.249   0.754   2.448
 5580SOL    HW117639   6.215   0.772   2.540
 5580SOL    HW217640   6.288   0.838   2.410
 5581SOL     OW17641   3.452   3.368   0.523
 5581SOL    HW117642   3.464   3.350   0.426
 5581SOL    HW217643   3.470   3.285   0.576
 5582SOL     OW17644   3.025   3.643   5.277
 5582SOL    HW117645   3.112   3.613   5.238
 5582SOL    HW217646   2.959   3.567   5.275
 5583SOL     OW17647   4.069   0.983   6.783
 5583SOL    HW117648   4.152   1.033   6.757
 5583SOL    HW217649   4.011   0.971   6.702
 5584SOL     OW17650   5.518   3.770   4.719
 5584SOL    HW117651   5.437   3.749   4.663
 5584SOL    HW217652   5.493   3.769   4.815
 5585SOL     OW17653   0.620   1.459   3.766
 5585SOL    HW117654   0.577   1.509   3.841
 5585SOL    HW217655   0.649   1.369   3.799
 5586SOL     OW17656   1.836   0.740   0.679
 5586SOL    HW117657   1.793   0.651   0.664
 5586SOL    HW217658   1.777   0.795   0.739
 5587SOL     OW17659   3.057   0.465   2.965
 5587SOL    HW117660   3.050   0.371   2.932
 5587SOL    HW217661   3.055   0.528   2.887
 5588SOL     OW17662   4.316   5.467   0.287
 5588SOL    HW117663   4.363   5.517   0.359
 5588SOL    HW217664   4.380   5.404   0.242
 5589SOL     OW17665   1.696   2.383   6.646
 5589SOL    HW117666   1.680   2.477   6.615
 5589SOL    HW217667   1.779   2.348   6.603
 5590SOL     OW17668   6.099   6.715   3.487
 5590SOL    HW117669   6.057   6.800   3.521
 5590SOL    HW217670   6.174   6.689   3.548
 5591SOL     OW17671   4.919   0.672   5.422
 5591SOL    HW117672   4.911   0.573   5.407
 5591SOL    HW217673   4.909   0.692   5.520
 5592SOL     OW17674   1.024   3.897   3.196
 5592SOL    HW117675   0.972   3.872   3.278
 5592SOL    HW217676   1.003   3.834   3.122
 5593SOL     OW17677   2.488   3.761   5.657
 5593SOL    HW117678   2.391   3.746   5.642
 5593SOL    HW217679   2.517   3.845   5.610
 5594SOL     OW17680   3.033   1.142   5.551
 5594SOL    HW117681   2.964   1.074   5.578
 5594SOL    HW217682   3.082   1.174   5.632
 5595SOL     OW17683   6.176   3.963   1.271
 5595SOL    HW117684   6.217   3.872   1.264
 5595SOL    HW217685   6.200   4.017   1.190
 5596SOL     OW17686   5.250   4.149   4.728
 5596SOL    HW117687   5.311   4.226   4.707
 5596SOL    HW217688   5.181   4.178   4.795
 5597SOL     OW17689   1.162   2.331   6.720
 5597SOL    HW117690   1.122   2.395   6.655
 5597SOL    HW217691   1.205   2.382   6.795
 5598SOL     OW17692   6.953   0.361   3.222
 5598SOL    HW117693   6.860   0.348   3.256
 5598SOL    HW217694   6.959   0.449   3.175
 5599SOL     OW17695   4.838   3.033   2.440
 5599SOL    HW117696   4.846   3.117   2.386
 5599SOL    HW217697   4.779   3.051   2.519
 5600SOL     OW17698   2.064   3.371   2.223
 5600SOL    HW117699   2.137   3.369   2.155
 5600SOL    HW217700   2.018   3.460   2.220
 5601SOL     OW17701   5.015   2.743   6.808
 5601SOL    HW117702   5.080   2.736   6.884
 5601SOL    HW217703   4.924   2.718   6.839
 5602SOL     OW17704   5.347   0.439   2.573
 5602SOL    HW117705   5.404   0.492   2.636
 5602SOL    HW217706   5.254   0.476   2.574
 5603SOL     OW17707   3.465   1.945   6.877
 5603SOL    HW117708   3.391   1.901   6.826
 5603SOL    HW217709   3.457   1.920   6.974
 5604SOL     OW17710   1.823   4.751   4.306
 5604SOL    HW117711   1.746   4.705   4.351
 5604SOL    HW217712   1.909   4.708   4.334
 5605SOL     OW17713   3.713   0.021   4.101
 5605SOL    HW117714   3.691   7.012   4.008
 5605SOL    HW217715   3.812   0.018   4.114
 5606SOL     OW17716   4.031   4.726   0.617
 5606SOL    HW117717   3.958   4.690   0.675
 5606SOL    HW217718   4.111   4.746   0.674
 5607SOL     OW17719   1.757   1.977   1.763
 5607SOL    HW117720   1.751   2.070   1.724
 5607SOL    HW217721   1.818   1.922   1.706
 5608SOL     OW17722   6.128   6.089   3.145
 5608SOL    HW117723   6.183   6.159   3.191
 5608SOL    HW217724   6.155   6.084   3.049
 5609SOL     OW17725   0.239   0.813   0.657
 5609SOL    HW117726   0.209   0.720   0.678
 5609SOL    HW217727   0.254   0.822   0.558
 5610SOL     OW17728   5.791   6.549   5.954
 5610SOL    HW117729   5.721   6.490   5.993
 5610SOL    HW217730   5.840   6.596   6.027
 5611SOL     OW17731   6.934   3.652   1.703
 5611SOL    HW117732   6.855   3.645   1.642
 5611SOL    HW217733   7.013   3.681   1.650
 5612SOL     OW17734   4.827   2.394   0.649
 5612SOL    HW117735   4.844   2.444   0.564
 5612SOL    HW217736   4.732   2.408   0.678
 5613SOL     OW17737   6.577   5.092   4.907
 5613SOL    HW117738   6.579   5.024   4.834
 5613SOL    HW217739   6.489   5.087   4.955
 5614SOL     OW17740   6.368   2.155   4.748
 5614SOL    HW117741   6.308   2.084   4.785
 5614SOL    HW217742   6.384   2.138   4.650
 5615SOL     OW17743   0.861   3.852   3.400
 5615SOL    HW117744   0.867   3.922   3.471
 5615SOL    HW217745   0.871   3.761   3.442
 5616SOL     OW17746   1.512   3.120   1.879
 5616SOL    HW117747   1.418   3.101   1.906
 5616SOL    HW217748   1.567   3.140   1.960
 5617SOL     OW17749   0.960   5.585   5.505
 5617SOL    HW117750   1.001   5.540   5.425
 5617SOL    HW217751   0.902   5.521   5.554
 5618SOL     OW17752   5.328   1.019   3.328
 5618SOL    HW117753   5.421   0.982   3.327
 5618SOL    HW217754   5.331   1.116   3.306
 5619SOL     OW17755   3.759   4.151   4.512
 5619SOL    HW117756   3.660   4.157   4.503
 5619SOL    HW217757   3.783   4.116   4.603
 5620SOL     OW17758   4.574   4.181   5.302
 5620SOL    HW117759   4.572   4.272   5.260
 5620SOL    HW217760   4.639   4.124   5.252
 5621SOL     OW17761   0.450   4.150   0.453
 5621SOL    HW117762   0.399   4.065   0.446
 5621SOL    HW217763   0.532   4.144   0.397
 5622SOL     OW17764   5.814   5.103   4.034
 5622SOL    HW117765   5.879   5.027   4.038
 5622SOL    HW217766   5.846   5.170   3.967
 5623SOL     OW17767   4.725   4.777   4.020
 5623SOL    HW117768   4.777   4.692   4.028
 5623SOL    HW217769   4.776   4.851   4.063
 5624SOL     OW17770   4.860   3.685   4.304
 5624SOL    HW117771   4.874   3.625   4.383
 5624SOL    HW217772   4.845   3.630   4.223
 5625SOL     OW17773   3.879   0.084   0.217
 5625SOL    HW117774   3.786   0.088   0.178
 5625SOL    HW217775   3.874   0.089   0.316
 5626SOL     OW17776   2.010   4.591   5.884
 5626SOL    HW117777   2.103   4.628   5.877
 5626SOL    HW217778   1.958   4.615   5.802
 5627SOL     OW17779   0.968   5.229   1.487
 5627SOL    HW117780   1.030   5.287   1.539
 5627SOL    HW217781   1.019   5.155   1.444
 5628SOL     OW17782   1.618   2.428   0.299
 5628SOL    HW117783   1.694   2.489   0.280
 5628SOL    HW217784   1.564   2.464   0.375
 5629SOL     OW17785   1.188   3.484   4.677
 5629SOL    HW117786   1.285   3.498   4.698
 5629SOL    HW217787   1.176   3.396   4.631
 5630SOL     OW17788   0.898   4.127   6.954
 5630SOL    HW117789   0.976   4.120   7.016
 5630SOL    HW217790   0.928   4.168   6.868
 5631SOL     OW17791   2.803   0.962   3.774
 5631SOL    HW117792   2.802   1.059   3.750
 5631SOL    HW217793   2.719   0.939   3.823
 5632SOL     OW17794   2.989   6.567   5.482
 5632SOL    HW117795   2.950   6.588   5.392
 5632SOL    HW217796   3.027   6.474   5.481
 5633SOL     OW17797   1.468   5.137   5.215
 5633SOL    HW117798   1.504   5.229   5.226
 5633SOL    HW217799   1.494   5.101   5.125
 5634SOL     OW17800   1.195   0.233   1.593
 5634SOL    HW117801   1.182   0.314   1.536
 5634SOL    HW217802   1.280   0.188   1.567
 5635SOL     OW17803   3.712   0.804   3.139
 5635SOL    HW117804   3.787   0.808   3.074
 5635SOL    HW217805   3.717   0.882   3.201
 5636SOL     OW17806   4.661   0.456   5.307
 5636SOL    HW117807   4.707   0.430   5.392
 5636SOL    HW217808   4.588   0.391   5.288
 5637SOL     OW17809   5.214   6.471   5.190
 5637SOL    HW117810   5.116   6.488   5.196
 5637SOL    HW217811   5.231   6.389   5.136
 5638SOL     OW17812   1.912   5.975   0.027
 5638SOL    HW117813   1.881   6.059   7.005
 5638SOL    HW217814   1.937   5.995   0.122
 5639SOL     OW17815   3.195   0.134   1.678
 5639SOL    HW117816   3.122   0.144   1.610
 5639SOL    HW217817   3.272   0.193   1.653
 5640SOL     OW17818   4.393   6.531   4.513
 5640SOL    HW117819   4.466   6.537   4.581
 5640SOL    HW217820   4.433   6.503   4.425
 5641SOL     OW17821   6.353   5.379   4.074
 5641SOL    HW117822   6.341   5.477   4.085
 5641SOL    HW217823   6.264   5.333   4.082
 5642SOL     OW17824   1.551   1.530   6.497
 5642SOL    HW117825   1.565   1.456   6.563
 5642SOL    HW217826   1.457   1.562   6.503
 5643SOL     OW17827   4.633   1.905   3.778
 5643SOL    HW117828   4.698   1.871   3.711
 5643SOL    HW217829   4.677   1.976   3.834
 5644SOL     OW17830   2.525   0.956   4.978
 5644SOL    HW117831   2.605   1.013   4.956
 5644SOL    HW217832   2.498   0.904   4.898
 5645SOL     OW17833   6.883   6.449   4.360
 5645SOL    HW117834   6.895   6.367   4.417
 5645SOL    HW217835   6.856   6.421   4.268
 5646SOL     OW17836   6.260   1.233   2.926
 5646SOL    HW117837   6.162   1.250   2.916
 5646SOL    HW217838   6.281   1.140   2.895
 5647SOL     OW17839   5.811   3.699   6.523
 5647SOL    HW117840   5.893   3.754   6.511
 5647SOL    HW217841   5.837   3.606   6.550
 5648SOL     OW17842   1.625   2.310   4.806
 5648SOL    HW117843   1.609   2.382   4.738
 5648SOL    HW217844   1.724   2.301   4.821
 5649SOL     OW17845   6.697   0.685   4.382
 5649SOL    HW117846   6.668   0.617   4.449
 5649SOL    HW217847   6.630   0.690   4.308
 5650SOL     OW17848   5.724   4.489   5.745
 5650SOL    HW117849   5.700   4.454   5.835
 5650SOL    HW217850   5.671   4.571   5.725
 5651SOL     OW17851   5.633   0.534   3.063
 5651SOL    HW117852   5.703   0.487   3.117
 5651SOL    HW217853   5.602   0.615   3.112
 5652SOL     OW17854   3.140   4.628   6.605
 5652SOL    HW117855   3.045   4.622   6.576
 5652SOL    HW217856   3.177   4.718   6.580
 5653SOL     OW17857   1.425   6.932   5.507
 5653SOL    HW117858   1.448   0.002   5.477
 5653SOL    HW217859   1.499   6.897   5.565
 5654SOL     OW17860   2.903   6.961   6.835
 5654SOL    HW117861   2.805   6.979   6.834
 5654SOL    HW217862   2.928   6.904   6.757
 5655SOL     OW17863   5.826   4.930   2.264
 5655SOL    HW117864   5.828   4.884   2.175
 5655SOL    HW217865   5.736   4.916   2.306
 5656SOL     OW17866   2.527   4.204   6.678
 5656SOL    HW117867   2.547   4.273   6.747
 5656SOL    HW217868   2.612   4.176   6.634
 5657SOL     OW17869   5.015   5.714   1.672
 5657SOL    HW117870   5.109   5.686   1.653
 5657SOL    HW217871   4.956   5.688   1.595
 5658SOL     OW17872   4.464   6.846   6.393
 5658SOL    HW117873   4.399   6.806   6.329
 5658SOL    HW217874   4.473   6.944   6.375
 5659SOL     OW17875   3.207   3.370   2.549
 5659SOL    HW117876   3.277   3.350   2.479
 5659SOL    HW217877   3.191   3.469   2.552
 5660SOL     OW17878   0.660   4.375   1.986
 5660SOL    HW117879   0.754   4.410   1.993
 5660SOL    HW217880   0.658   4.299   1.921
 5661SOL     OW17881   5.811   5.402   5.347
 5661SOL    HW117882   5.785   5.450   5.264
 5661SOL    HW217883   5.762   5.315   5.353
 5662SOL     OW17884   1.946   5.147   5.316
 5662SOL    HW117885   2.039   5.120   5.341
 5662SOL    HW217886   1.924   5.108   5.226
 5663SOL     OW17887   2.256   3.513   0.128
 5663SOL    HW117888   2.280   3.584   0.195
 5663SOL    HW217889   2.267   3.423   0.170
 5664SOL     OW17890   5.930   6.958   1.496
 5664SOL    HW117891   5.836   6.966   1.529
 5664SOL    HW217892   5.991   7.007   1.558
 5665SOL     OW17893   1.075   0.449   6.080
 5665SOL    HW117894   1.107   0.543   6.084
 5665SOL    HW217895   1.052   0.424   5.986
 5666SOL     OW17896   4.529   6.171   6.528
 5666SOL    HW117897   4.437   6.163   6.567
 5666SOL    HW217898   4.523   6.217   6.439
 5667SOL     OW17899   5.768   5.286   3.031
 5667SOL    HW117900   5.851   5.265   3.081
 5667SOL    HW217901   5.779   5.374   2.984
 5668SOL     OW17902   6.583   3.055   5.996
 5668SOL    HW117903   6.595   3.083   6.091
 5668SOL    HW217904   6.505   2.992   5.989
 5669SOL     OW17905   1.588   1.863   5.273
 5669SOL    HW117906   1.615   1.945   5.323
 5669SOL    HW217907   1.641   1.785   5.307
 5670SOL     OW17908   1.659   2.918   2.840
 5670SOL    HW117909   1.576   2.901   2.892
 5670SOL    HW217910   1.652   2.875   2.750
 5671SOL     OW17911   0.960   1.161   6.368
 5671SOL    HW117912   0.979   1.115   6.455
 5671SOL    HW217913   1.038   1.219   6.344
 5672SOL     OW17914   3.530   4.809   6.199
 5672SOL    HW117915   3.604   4.859   6.154
 5672SOL    HW217916   3.532   4.714   6.171
 5673SOL     OW17917   1.831   5.748   1.162
 5673SOL    HW117918   1.861   5.822   1.222
 5673SOL    HW217919   1.852   5.660   1.204
 5674SOL     OW17920   0.391   3.141   7.008
 5674SOL    HW117921   0.379   3.047   0.018
 5674SOL    HW217922   0.360   3.148   6.914
 5675SOL     OW17923   4.679   1.395   5.978
 5675SOL    HW117924   4.641   1.444   5.899
 5675SOL    HW217925   4.608   1.337   6.017
 5676SOL     OW17926   1.946   5.455   1.465
 5676SOL    HW117927   2.000   5.408   1.395
 5676SOL    HW217928   1.951   5.554   1.451
 5677SOL     OW17929   5.760   0.963   3.953
 5677SOL    HW117930   5.802   1.054   3.951
 5677SOL    HW217931   5.773   0.918   3.864
 5678SOL     OW17932   1.201   5.245   2.535
 5678SOL    HW117933   1.245   5.216   2.621
 5678SOL    HW217934   1.259   5.312   2.489
 5679SOL     OW17935   3.630   6.510   5.694
 5679SOL    HW117936   3.703   6.466   5.641
 5679SOL    HW217937   3.643   6.609   5.693
 5680SOL     OW17938   0.560   0.151   6.385
 5680SOL    HW117939   0.537   0.080   6.319
 5680SOL    HW217940   0.480   0.208   6.401
 5681SOL     OW17941   2.856   3.306   0.532
 5681SOL    HW117942   2.881   3.234   0.597
 5681SOL    HW217943   2.937   3.361   0.510
 5682SOL     OW17944   1.874   5.026   4.707
 5682SOL    HW117945   1.946   5.024   4.777
 5682SOL    HW217946   1.809   5.098   4.729
 5683SOL     OW17947   3.299   3.277   4.607
 5683SOL    HW117948   3.376   3.232   4.561
 5683SOL    HW217949   3.330   3.313   4.695
 5684SOL     OW17950   3.544   4.121   2.548
 5684SOL    HW117951   3.630   4.083   2.583
 5684SOL    HW217952   3.525   4.083   2.458
 5685SOL     OW17953   6.391   1.065   2.141
 5685SOL    HW117954   6.301   1.103   2.120
 5685SOL    HW217955   6.444   1.056   2.057
 5686SOL     OW17956   3.557   4.474   6.107
 5686SOL    HW117957   3.586   4.379   6.107
 5686SOL    HW217958   3.459   4.480   6.130
 5687SOL     OW17959   5.104   0.318   6.156
 5687SOL    HW117960   5.087   0.238   6.213
 5687SOL    HW217961   5.184   0.367   6.191
 5688SOL     OW17962   5.738   1.288   2.149
 5688SOL    HW117963   5.806   1.320   2.216
 5688SOL    HW217964   5.648   1.285   2.192
 5689SOL     OW17965   3.596   3.561   5.305
 5689SOL    HW117966   3.608   3.481   5.246
 5689SOL    HW217967   3.607   3.645   5.250
 5690SOL     OW17968   2.597   0.348   2.371
 5690SOL    HW117969   2.617   0.306   2.460
 5690SOL    HW217970   2.670   0.325   2.307
 5691SOL     OW17971   3.310   0.272   4.571
 5691SOL    HW117972   3.293   0.328   4.653
 5691SOL    HW217973   3.347   0.330   4.498
 5692SOL     OW17974   6.227   3.328   1.179
 5692SOL    HW117975   6.173   3.356   1.100
 5692SOL    HW217976   6.290   3.255   1.152
 5693SOL     OW17977   5.609   3.408   2.347
 5693SOL    HW117978   5.563   3.479   2.400
 5693SOL    HW217979   5.708   3.411   2.366
 5694SOL     OW17980   2.057   2.419   4.944
 5694SOL    HW117981   2.007   2.475   5.010
 5694SOL    HW217982   2.155   2.422   4.964
 5695SOL     OW17983   1.084   3.689   2.743
 5695SOL    HW117984   1.147   3.742   2.685
 5695SOL    HW217985   1.103   3.592   2.732
 5696SOL     OW17986   2.926   1.532   6.100
 5696SOL    HW117987   2.854   1.527   6.169
 5696SOL    HW217988   3.016   1.523   6.144
 5697SOL     OW17989   6.094   3.852   0.869
 5697SOL    HW117990   6.090   3.950   0.890
 5697SOL    HW217991   6.166   3.835   0.802
 5698SOL     OW17992   1.566   5.153   4.367
 5698SOL    HW117993   1.565   5.085   4.293
 5698SOL    HW217994   1.633   5.224   4.347
 5699SOL     OW17995   0.846   2.216   5.267
 5699SOL    HW117996   0.843   2.198   5.168
 5699SOL    HW217997   0.835   2.314   5.283
 5700SOL     OW17998   1.693   5.238   4.758
 5700SOL    HW117999   1.728   5.280   4.841
 5700SOL    HW218000   1.648   5.308   4.702
 5701SOL     OW18001   5.073   2.439   2.209
 5701SOL    HW118002   5.054   2.418   2.113
 5701SOL    HW218003   5.171   2.430   2.227
 5702SOL     OW18004   4.032   0.873   7.019
 5702SOL    HW118005   4.061   0.918   6.934
 5702SOL    HW218006   4.111   0.829   0.040
 5703SOL     OW18007   4.767   3.977   2.882
 5703SOL    HW118008   4.723   4.066   2.888
 5703SOL    HW218009   4.769   3.947   2.786
 5704SOL     OW18010   5.340   3.376   4.090
 5704SOL    HW118011   5.317   3.390   3.994
 5704SOL    HW218012   5.285   3.439   4.146
 5705SOL     OW18013   6.216   0.787   4.959
 5705SOL    HW118014   6.175   0.877   4.944
 5705SOL    HW218015   6.162   0.717   4.912
 5706SOL     OW18016   1.988   1.165   5.670
 5706SOL    HW118017   2.077   1.205   5.689
 5706SOL    HW218018   2.000   1.075   5.628
 5707SOL     OW18019   5.152   0.416   0.922
 5707SOL    HW118020   5.191   0.419   0.830
 5707SOL    HW218021   5.067   0.469   0.923
 5708SOL     OW18022   0.646   6.799   0.433
 5708SOL    HW118023   0.663   6.801   0.532
 5708SOL    HW218024   0.733   6.786   0.385
 5709SOL     OW18025   6.822   2.591   0.477
 5709SOL    HW118026   6.860   2.587   0.569
 5709SOL    HW218027   6.726   2.561   0.479
 5710SOL     OW18028   2.944   5.471   6.097
 5710SOL    HW118029   3.030   5.469   6.149
 5710SOL    HW218030   2.944   5.549   6.035
 5711SOL     OW18031   5.367   0.611   5.574
 5711SOL    HW118032   5.450   0.662   5.552
 5711SOL    HW218033   5.359   0.532   5.512
 5712SOL     OW18034   5.041   0.027   6.169
 5712SOL    HW118035   5.104   7.013   6.238
 5712SOL    HW218036   5.089   0.036   6.082
 5713SOL     OW18037   0.376   2.719   3.046
 5713SOL    HW118038   0.431   2.753   2.969
 5713SOL    HW218039   0.357   2.794   3.109
 5714SOL     OW18040   2.467   0.384   1.124
 5714SOL    HW118041   2.535   0.435   1.177
 5714SOL    HW218042   2.481   0.400   1.027
 5715SOL     OW18043   0.863   5.531   3.561
 5715SOL    HW118044   0.853   5.613   3.505
 5715SOL    HW218045   0.811   5.541   3.645
 5716SOL     OW18046   1.564   2.725   4.580
 5716SOL    HW118047   1.619   2.781   4.519
 5716SOL    HW218048   1.584   2.628   4.564
 5717SOL     OW18049   0.504   5.006   5.620
 5717SOL    HW118050   0.581   4.991   5.681
 5717SOL    HW218051   0.456   4.920   5.605
 5718SOL     OW18052   2.384   6.202   5.760
 5718SOL    HW118053   2.296   6.206   5.807
 5718SOL    HW218054   2.435   6.121   5.789
 5719SOL     OW18055   1.563   0.640   0.209
 5719SOL    HW118056   1.592   0.735   0.218
 5719SOL    HW218057   1.643   0.581   0.207
 5720SOL     OW18058   1.995   5.709   4.113
 5720SOL    HW118059   1.952   5.672   4.031
 5720SOL    HW218060   2.069   5.649   4.142
 5721SOL     OW18061   6.127   5.300   6.896
 5721SOL    HW118062   6.112   5.392   6.932
 5721SOL    HW218063   6.041   5.264   6.859
 5722SOL     OW18064   5.111   0.523   4.281
 5722SOL    HW118065   5.101   0.432   4.321
 5722SOL    HW218066   5.023   0.554   4.246
 5723SOL     OW18067   6.065   5.742   1.357
 5723SOL    HW118068   6.052   5.833   1.318
 5723SOL    HW218069   6.004   5.677   1.310
 5724SOL     OW18070   4.553   2.989   5.677
 5724SOL    HW118071   4.593   2.897   5.682
 5724SOL    HW218072   4.620   3.052   5.640
 5725SOL     OW18073   6.440   6.904   5.379
 5725SOL    HW118074   6.441   6.939   5.285
 5725SOL    HW218075   6.355   6.854   5.395
 5726SOL     OW18076   4.552   5.669   5.297
 5726SOL    HW118077   4.646   5.680   5.266
 5726SOL    HW218078   4.492   5.653   5.219
 5727SOL     OW18079   5.362   3.441   3.835
 5727SOL    HW118080   5.372   3.347   3.802
 5727SOL    HW218081   5.375   3.505   3.759
 5728SOL     OW18082   3.620   0.649   5.070
 5728SOL    HW118083   3.599   0.612   4.980
 5728SOL    HW218084   3.547   0.710   5.099
 5729SOL     OW18085   3.070   1.163   3.525
 5729SOL    HW118086   3.038   1.209   3.608
 5729SOL    HW218087   3.030   1.072   3.520
 5730SOL     OW18088   3.787   5.211   6.991
 5730SOL    HW118089   3.728   5.246   0.042
 5730SOL    HW218090   3.730   5.168   6.921
 5731SOL     OW18091   3.779   0.940   5.210
 5731SOL    HW118092   3.695   0.900   5.245
 5731SOL    HW218093   3.856   0.913   5.268
 5732SOL     OW18094   6.302   3.980   4.807
 5732SOL    HW118095   6.283   3.882   4.796
 5732SOL    HW218096   6.396   3.999   4.778
 5733SOL     OW18097   2.021   5.991   0.649
 5733SOL    HW118098   1.932   6.013   0.690
 5733SOL    HW218099   2.011   5.915   0.585
 5734SOL     OW18100   1.555   0.458   6.529
 5734SOL    HW118101   1.513   0.533   6.479
 5734SOL    HW218102   1.631   0.493   6.584
 5735SOL     OW18103   6.342   1.224   0.861
 5735SOL    HW118104   6.347   1.321   0.837
 5735SOL    HW218105   6.327   1.215   0.959
 5736SOL     OW18106   3.684   2.897   6.710
 5736SOL    HW118107   3.763   2.900   6.649
 5736SOL    HW218108   3.704   2.951   6.792
 5737SOL     OW18109   4.996   5.324   2.352
 5737SOL    HW118110   5.016   5.330   2.449
 5737SOL    HW218111   5.073   5.283   2.304
 5738SOL     OW18112   3.097   1.569   1.305
 5738SOL    HW118113   3.122   1.618   1.389
 5738SOL    HW218114   2.998   1.555   1.303
 5739SOL     OW18115   2.061   1.145   6.237
 5739SOL    HW118116   2.121   1.128   6.160
 5739SOL    HW218117   2.030   1.240   6.236
 5740SOL     OW18118   5.775   2.226   2.471
 5740SOL    HW118119   5.764   2.208   2.373
 5740SOL    HW218120   5.688   2.213   2.518
 5741SOL     OW18121   1.179   3.591   3.622
 5741SOL    HW118122   1.177   3.506   3.674
 5741SOL    HW218123   1.272   3.607   3.589
 5742SOL     OW18124   6.669   4.194   2.336
 5742SOL    HW118125   6.688   4.139   2.254
 5742SOL    HW218126   6.705   4.147   2.417
 5743SOL     OW18127   3.133   0.434   5.839
 5743SOL    HW118128   3.074   0.514   5.834
 5743SOL    HW218129   3.227   0.461   5.814
 5744SOL     OW18130   5.489   5.713   4.516
 5744SOL    HW118131   5.563   5.719   4.450
 5744SOL    HW218132   5.430   5.635   4.494
 5745SOL     OW18133   2.107   3.968   3.035
 5745SOL    HW118134   2.014   4.004   3.029
 5745SOL    HW218135   2.172   4.035   2.998
 5746SOL     OW18136   4.985   0.671   3.874
 5746SOL    HW118137   4.932   0.738   3.822
 5746SOL    HW218138   4.980   0.693   3.972
 5747SOL     OW18139   0.678   0.282   1.863
 5747SOL    HW118140   0.648   0.311   1.772
 5747SOL    HW218141   0.775   0.305   1.875
 5748SOL     OW18142   6.015   0.010   6.547
 5748SOL    HW118143   6.036   0.101   6.583
 5748SOL    HW218144   5.944   6.990   6.602
 5749SOL     OW18145   1.813   6.226   6.007
 5749SOL    HW118146   1.782   6.246   6.100
 5749SOL    HW218147   1.778   6.296   5.945
 5750SOL     OW18148   6.354   2.520   4.155
 5750SOL    HW118149   6.318   2.542   4.064
 5750SOL    HW218150   6.292   2.455   4.201
 5751SOL     OW18151   0.227   4.434   4.705
 5751SOL    HW118152   0.219   4.339   4.673
 5751SOL    HW218153   0.176   4.445   4.790
 5752SOL     OW18154   5.343   1.825   6.301
 5752SOL    HW118155   5.402   1.873   6.235
 5752SOL    HW218156   5.249   1.858   6.292
 5753SOL     OW18157   3.600   3.542   4.092
 5753SOL    HW118158   3.590   3.623   4.149
 5753SOL    HW218159   3.516   3.527   4.040
 5754SOL     OW18160   6.080   0.363   0.597
 5754SOL    HW118161   6.108   0.282   0.546
 5754SOL    HW218162   6.026   0.335   0.677
 5755SOL     OW18163   1.319   3.901   6.414
 5755SOL    HW118164   1.281   3.810   6.428
 5755SOL    HW218165   1.302   3.957   6.495
 5756SOL     OW18166   4.830   6.606   1.702
 5756SOL    HW118167   4.757   6.541   1.722
 5756SOL    HW218168   4.834   6.623   1.603
 5757SOL     OW18169   1.838   1.975   4.142
 5757SOL    HW118170   1.868   1.880   4.131
 5757SOL    HW218171   1.740   1.981   4.127
 5758SOL     OW18172   6.107   6.815   2.932
 5758SOL    HW118173   6.096   6.760   3.015
 5758SOL    HW218174   6.156   6.762   2.863
 5759SOL     OW18175   3.593   6.069   2.669
 5759SOL    HW118176   3.564   6.000   2.603
 5759SOL    HW218177   3.530   6.147   2.667
 5760SOL     OW18178   0.434   2.374   0.388
 5760SOL    HW118179   0.522   2.419   0.372
 5760SOL    HW218180   0.394   2.348   0.300
 5761SOL     OW18181   0.453   6.984   5.104
 5761SOL    HW118182   0.376   6.931   5.068
 5761SOL    HW218183   0.512   6.924   5.159
 5762SOL     OW18184   0.586   6.498   6.040
 5762SOL    HW118185   0.556   6.560   5.967
 5762SOL    HW218186   0.632   6.419   6.000
 5763SOL     OW18187   4.202   0.253   0.240
 5763SOL    HW118188   4.240   0.189   0.306
 5763SOL    HW218189   4.163   0.202   0.163
 5764SOL     OW18190   3.484   6.138   4.152
 5764SOL    HW118191   3.394   6.164   4.116
 5764SOL    HW218192   3.531   6.081   4.084
 5765SOL     OW18193   5.816   6.609   3.209
 5765SOL    HW118194   5.800   6.672   3.133
 5765SOL    HW218195   5.781   6.650   3.293
 5766SOL     OW18196   1.086   0.999   4.395
 5766SOL    HW118197   1.015   0.928   4.395
 5766SOL    HW218198   1.085   1.047   4.484
 5767SOL     OW18199   6.064   0.155   0.351
 5767SOL    HW118200   6.056   0.254   0.338
 5767SOL    HW218201   6.143   0.121   0.301
 5768SOL     OW18202   1.469   0.421   5.114
 5768SOL    HW118203   1.546   0.474   5.149
 5768SOL    HW218204   1.410   0.480   5.059
 5769SOL     OW18205   1.227   2.419   6.382
 5769SOL    HW118206   1.133   2.418   6.346
 5769SOL    HW218207   1.261   2.326   6.388
 5770SOL     OW18208   0.845   2.678   1.875
 5770SOL    HW118209   0.848   2.658   1.973
 5770SOL    HW218210   0.902   2.758   1.856
 5771SOL     OW18211   3.316   5.913   3.234
 5771SOL    HW118212   3.275   5.892   3.145
 5771SOL    HW218213   3.335   5.827   3.283
 5772SOL     OW18214   2.963   1.100   3.253
 5772SOL    HW118215   2.874   1.055   3.242
 5772SOL    HW218216   2.977   1.123   3.349
 5773SOL     OW18217   5.406   0.283   4.356
 5773SOL    HW118218   5.308   0.304   4.353
 5773SOL    HW218219   5.421   0.190   4.321
 5774SOL     OW18220   1.177   6.831   4.148
 5774SOL    HW118221   1.086   6.867   4.130
 5774SOL    HW218222   1.243   6.906   4.152
 5775SOL     OW18223   6.129   4.971   2.472
 5775SOL    HW118224   6.152   5.035   2.545
 5775SOL    HW218225   6.036   4.938   2.485
 5776SOL     OW18226   4.071   1.120   4.452
 5776SOL    HW118227   4.098   1.214   4.431
 5776SOL    HW218228   4.002   1.120   4.524
 5777SOL     OW18229   6.988   1.220   1.527
 5777SOL    HW118230   7.001   1.287   1.454
 5777SOL    HW218231   6.957   1.133   1.488
 5778SOL     OW18232   6.810   0.573   5.831
 5778SOL    HW118233   6.866   0.518   5.769
 5778SOL    HW218234   6.847   0.569   5.923
 5779SOL     OW18235   5.406   1.760   6.998
 5779SOL    HW118236   5.501   1.778   6.972
 5779SOL    HW218237   5.402   1.733   0.072
 5780SOL     OW18238   5.431   4.832   4.053
 5780SOL    HW118239   5.491   4.766   4.006
 5780SOL    HW218240   5.395   4.897   3.986
 5781SOL     OW18241   1.063   6.094   5.564
 5781SOL    HW118242   1.111   6.177   5.536
 5781SOL    HW218243   1.119   6.014   5.541
 5782SOL     OW18244   5.766   0.896   1.067
 5782SOL    HW118245   5.722   0.809   1.045
 5782SOL    HW218246   5.771   0.953   0.986
 5783SOL     OW18247   2.170   2.290   6.576
 5783SOL    HW118248   2.254   2.339   6.599
 5783SOL    HW218249   2.187   2.192   6.575
 5784SOL     OW18250   6.310   6.054   0.596
 5784SOL    HW118251   6.379   6.017   0.659
 5784SOL    HW218252   6.331   6.023   0.503
 5785SOL     OW18253   1.255   1.544   2.313
 5785SOL    HW118254   1.328   1.538   2.245
 5785SOL    HW218255   1.183   1.480   2.290
 5786SOL     OW18256   5.916   4.569   1.849
 5786SOL    HW118257   5.905   4.540   1.944
 5786SOL    HW218258   6.009   4.551   1.819
 5787SOL     OW18259   2.061   2.252   6.266
 5787SOL    HW118260   2.100   2.197   6.193
 5787SOL    HW218261   2.032   2.192   6.341
 5788SOL     OW18262   3.424   1.025   4.138
 5788SOL    HW118263   3.519   1.013   4.168
 5788SOL    HW218264   3.414   0.990   4.045
 5789SOL     OW18265   3.022   4.772   5.877
 5789SOL    HW118266   3.014   4.859   5.828
 5789SOL    HW218267   3.071   4.706   5.820
 5790SOL     OW18268   2.109   3.482   3.947
 5790SOL    HW118269   2.149   3.529   4.026
 5790SOL    HW218270   2.011   3.470   3.960
 5791SOL     OW18271   1.718   0.998   3.320
 5791SOL    HW118272   1.662   0.925   3.360
 5791SOL    HW218273   1.662   1.053   3.258
 5792SOL     OW18274   1.183   1.761   3.196
 5792SOL    HW118275   1.120   1.834   3.167
 5792SOL    HW218276   1.131   1.688   3.241
 5793SOL     OW18277   6.417   1.467   5.703
 5793SOL    HW118278   6.419   1.440   5.607
 5793SOL    HW218279   6.411   1.385   5.760
 5794SOL     OW18280   6.966   3.561   6.594
 5794SOL    HW118281   0.002   3.495   6.546
 5794SOL    HW218282   0.000   3.621   6.650
 5795SOL     OW18283   6.727   4.880   0.208
 5795SOL    HW118284   6.727   4.881   0.108
 5795SOL    HW218285   6.752   4.788   0.240
 5796SOL     OW18286   3.183   1.869   0.612
 5796SOL    HW118287   3.101   1.851   0.558
 5796SOL    HW218288   3.170   1.838   0.706
 5797SOL     OW18289   3.105   2.994   5.859
 5797SOL    HW118290   3.047   2.992   5.778
 5797SOL    HW218291   3.078   2.919   5.920
 5798SOL     OW18292   6.262   4.909   4.207
 5798SOL    HW118293   6.344   4.967   4.203
 5798SOL    HW218294   6.251   4.875   4.300
 5799SOL     OW18295   5.129   0.240   4.278
 5799SOL    HW118296   5.033   0.224   4.301
 5799SOL    HW218297   5.169   0.155   4.243
 5800SOL     OW18298   5.360   6.244   6.329
 5800SOL    HW118299   5.319   6.334   6.346
 5800SOL    HW218300   5.409   6.214   6.411
 5801SOL     OW18301   1.959   0.537   1.950
 5801SOL    HW118302   1.957   0.629   1.909
 5801SOL    HW218303   1.999   0.473   1.885
 5802SOL     OW18304   0.320   2.698   4.115
 5802SOL    HW118305   0.319   2.797   4.129
 5802SOL    HW218306   0.275   2.653   4.193
 5803SOL     OW18307   1.426   4.838   0.505
 5803SOL    HW118308   1.480   4.764   0.546
 5803SOL    HW218309   1.330   4.809   0.500
 5804SOL     OW18310   0.416   3.159   6.740
 5804SOL    HW118311   0.434   3.246   6.694
 5804SOL    HW218312   0.498   3.102   6.737
 5805SOL     OW18313   4.792   3.501   6.947
 5805SOL    HW118314   4.739   3.586   6.950
 5805SOL    HW218315   4.856   3.505   6.871
 5806SOL     OW18316   6.067   6.210   6.105
 5806SOL    HW118317   5.993   6.229   6.041
 5806SOL    HW218318   6.041   6.244   6.196
 5807SOL     OW18319   2.032   4.278   0.825
 5807SOL    HW118320   2.016   4.374   0.803
 5807SOL    HW218321   2.055   4.228   0.741
 5808SOL     OW18322   6.861   1.374   4.164
 5808SOL    HW118323   6.781   1.432   4.180
 5808SOL    HW218324   6.938   1.408   4.218
 5809SOL     OW18325   0.497   3.744   3.486
 5809SOL    HW118326   0.511   3.835   3.525
 5809SOL    HW218327   0.491   3.677   3.559
 5810SOL     OW18328   3.377   1.616   2.785
 5810SOL    HW118329   3.311   1.553   2.743
 5810SOL    HW218330   3.368   1.612   2.885
 5811SOL     OW18331   3.380   6.844   1.353
 5811SOL    HW118332   3.355   6.851   1.257
 5811SOL    HW218333   3.434   6.923   1.381
 5812SOL     OW18334   5.118   0.566   5.084
 5812SOL    HW118335   5.070   0.478   5.080
 5812SOL    HW218336   5.090   0.615   5.166
 5813SOL     OW18337   1.345   2.816   4.440
 5813SOL    HW118338   1.393   2.900   4.417
 5813SOL    HW218339   1.405   2.758   4.496
 5814SOL     OW18340   0.548   4.673   1.145
 5814SOL    HW118341   0.458   4.712   1.162
 5814SOL    HW218342   0.591   4.720   1.069
 5815SOL     OW18343   4.308   6.287   5.201
 5815SOL    HW118344   4.279   6.380   5.179
 5815SOL    HW218345   4.276   6.225   5.129
 5816SOL     OW18346   5.696   6.435   6.524
 5816SOL    HW118347   5.639   6.496   6.579
 5816SOL    HW218348   5.676   6.450   6.427
 5817SOL     OW18349   6.818   2.247   6.369
 5817SOL    HW118350   6.799   2.339   6.335
 5817SOL    HW218351   6.815   2.247   6.469
 5818SOL     OW18352   5.587   6.676   4.980
 5818SOL    HW118353   5.539   6.686   5.067
 5818SOL    HW218354   5.667   6.736   4.980
 5819SOL     OW18355   6.265   0.817   1.920
 5819SOL    HW118356   6.228   0.813   1.827
 5819SOL    HW218357   6.303   0.907   1.938
 5820SOL     OW18358   5.444   4.711   1.854
 5820SOL    HW118359   5.517   4.702   1.922
 5820SOL    HW218360   5.388   4.791   1.876
 5821SOL     OW18361   2.807   6.278   2.429
 5821SOL    HW118362   2.850   6.239   2.511
 5821SOL    HW218363   2.808   6.211   2.356
 5822SOL     OW18364   0.175   0.340   2.895
 5822SOL    HW118365   0.120   0.282   2.956
 5822SOL    HW218366   0.175   0.302   2.803
 5823SOL     OW18367   1.357   2.139   4.248
 5823SOL    HW118368   1.320   2.090   4.327
 5823SOL    HW218369   1.314   2.229   4.240
 5824SOL     OW18370   4.976   0.407   3.907
 5824SOL    HW118371   4.902   0.395   3.973
 5824SOL    HW218372   4.986   0.504   3.886
 5825SOL     OW18373   3.218   0.710   1.661
 5825SOL    HW118374   3.200   0.622   1.706
 5825SOL    HW218375   3.156   0.779   1.698
 5826SOL     OW18376   0.452   6.578   3.324
 5826SOL    HW118377   0.465   6.665   3.277
 5826SOL    HW218378   0.492   6.505   3.270
 5827SOL     OW18379   1.810   4.953   6.218
 5827SOL    HW118380   1.744   4.928   6.148
 5827SOL    HW218381   1.790   5.046   6.251
 5828SOL     OW18382   6.460   1.453   0.748
 5828SOL    HW118383   6.453   1.551   0.732
 5828SOL    HW218384   6.507   1.410   0.672
 5829SOL     OW18385   2.043   0.579   1.047
 5829SOL    HW118386   1.966   0.515   1.054
 5829SOL    HW218387   2.034   0.633   0.964
 5830SOL     OW18388   1.123   1.439   5.972
 5830SOL    HW118389   1.217   1.470   5.981
 5830SOL    HW218390   1.121   1.339   5.974
 5831SOL     OW18391   5.460   5.239   2.799
 5831SOL    HW118392   5.545   5.188   2.787
 5831SOL    HW218393   5.384   5.184   2.765
 5832SOL     OW18394   4.087   3.800   4.361
 5832SOL    HW118395   4.078   3.758   4.271
 5832SOL    HW218396   4.041   3.889   4.361
 5833SOL     OW18397   3.090   3.097   4.567
 5833SOL    HW118398   3.165   3.156   4.598
 5833SOL    HW218399   3.041   3.062   4.647
 5834SOL     OW18400   5.619   1.675   6.435
 5834SOL    HW118401   5.611   1.605   6.506
 5834SOL    HW218402   5.621   1.633   6.345
 5835SOL     OW18403   5.721   2.525   4.420
 5835SOL    HW118404   5.787   2.499   4.490
 5835SOL    HW218405   5.747   2.612   4.379
 5836SOL     OW18406   4.056   6.646   3.497
 5836SOL    HW118407   4.072   6.740   3.465
 5836SOL    HW218408   3.982   6.605   3.444
 5837SOL     OW18409   4.220   4.201   0.088
 5837SOL    HW118410   4.282   4.256   0.033
 5837SOL    HW218411   4.152   4.260   0.132
 5838SOL     OW18412   1.290   1.878   5.939
 5838SOL    HW118413   1.201   1.842   5.966
 5838SOL    HW218414   1.333   1.924   6.017
 5839SOL     OW18415   0.395   2.679   2.414
 5839SOL    HW118416   0.367   2.665   2.318
 5839SOL    HW218417   0.329   2.739   2.459
 5840SOL     OW18418   3.256   5.679   0.191
 5840SOL    HW118419   3.200   5.602   0.161
 5840SOL    HW218420   3.342   5.679   0.140
 5841SOL     OW18421   6.645   2.633   3.758
 5841SOL    HW118422   6.666   2.630   3.661
 5841SOL    HW218423   6.575   2.564   3.779
 5842SOL     OW18424   3.470   2.689   1.055
 5842SOL    HW118425   3.465   2.590   1.062
 5842SOL    HW218426   3.474   2.729   1.146
 5843SOL     OW18427   0.305   1.627   1.893
 5843SOL    HW118428   0.222   1.580   1.925
 5843SOL    HW218429   0.324   1.600   1.798
 5844SOL     OW18430   1.855   6.488   6.399
 5844SOL    HW118431   1.821   6.462   6.490
 5844SOL    HW218432   1.777   6.511   6.340
 5845SOL     OW18433   2.168   2.361   4.141
 5845SOL    HW118434   2.084   2.322   4.104
 5845SOL    HW218435   2.151   2.455   4.171
 5846SOL     OW18436   0.389   3.499   6.322
 5846SOL    HW118437   0.321   3.445   6.274
 5846SOL    HW218438   0.478   3.454   6.317
 5847SOL     OW18439   1.530   2.676   4.269
 5847SOL    HW118440   1.480   2.663   4.183
 5847SOL    HW218441   1.478   2.736   4.330
 5848SOL     OW18442   1.016   4.521   3.448
 5848SOL    HW118443   0.980   4.579   3.521
 5848SOL    HW218444   1.113   4.503   3.465
 5849SOL     OW18445   2.187   0.634   5.589
 5849SOL    HW118446   2.160   0.582   5.508
 5849SOL    HW218447   2.287   0.637   5.595
 5850SOL     OW18448   0.293   4.947   3.206
 5850SOL    HW118449   0.242   4.973   3.288
 5850SOL    HW218450   0.381   4.994   3.205
 5851SOL     OW18451   6.767   3.517   2.189
 5851SOL    HW118452   6.733   3.523   2.095
 5851SOL    HW218453   6.729   3.436   2.234
 5852SOL     OW18454   3.771   6.803   2.486
 5852SOL    HW118455   3.776   6.745   2.567
 5852SOL    HW218456   3.852   6.788   2.428
 5853SOL     OW18457   5.101   4.094   5.336
 5853SOL    HW118458   5.107   4.057   5.428
 5853SOL    HW218459   5.174   4.054   5.280
 5854SOL     OW18460   1.129   0.913   6.987
 5854SOL    HW118461   1.039   0.936   6.950
 5854SOL    HW218462   1.127   0.821   0.004
 5855SOL     OW18463   2.086   1.696   5.380
 5855SOL    HW118464   2.045   1.628   5.318
 5855SOL    HW218465   2.153   1.751   5.329
 5856SOL     OW18466   0.332   6.550   3.976
 5856SOL    HW118467   0.389   6.624   3.940
 5856SOL    HW218468   0.321   6.561   4.075
 5857SOL     OW18469   1.047   2.558   5.377
 5857SOL    HW118470   0.965   2.511   5.345
 5857SOL    HW218471   1.128   2.504   5.353
 5858SOL     OW18472   3.268   0.411   3.981
 5858SOL    HW118473   3.313   0.498   4.002
 5858SOL    HW218474   3.175   0.412   4.017
 5859SOL     OW18475   5.813   4.654   1.614
 5859SOL    HW118476   5.870   4.736   1.603
 5859SOL    HW218477   5.824   4.618   1.707
 5860SOL     OW18478   6.454   4.536   0.449
 5860SOL    HW118479   6.439   4.609   0.382
 5860SOL    HW218480   6.370   4.482   0.460
 5861SOL     OW18481   6.460   1.794   4.932
 5861SOL    HW118482   6.368   1.799   4.893
 5861SOL    HW218483   6.522   1.753   4.867
 5862SOL     OW18484   6.554   5.316   4.217
 5862SOL    HW118485   6.530   5.304   4.314
 5862SOL    HW218486   6.474   5.348   4.167
 5863SOL     OW18487   1.872   1.544   1.390
 5863SOL    HW118488   1.809   1.610   1.431
 5863SOL    HW218489   1.857   1.454   1.429
 5864SOL     OW18490   4.718   4.925   6.921
 5864SOL    HW118491   4.806   4.888   6.951
 5864SOL    HW218492   4.646   4.895   6.983
 5865SOL     OW18493   4.645   0.298   3.080
 5865SOL    HW118494   4.661   0.391   3.111
 5865SOL    HW218495   4.552   0.270   3.104
 5866SOL     OW18496   3.824   1.456   6.892
 5866SOL    HW118497   3.881   1.524   6.937
 5866SOL    HW218498   3.781   1.496   6.810
 5867SOL     OW18499   6.707   3.164   1.844
 5867SOL    HW118500   6.703   3.067   1.822
 5867SOL    HW218501   6.707   3.176   1.943
 5868SOL     OW18502   0.645   5.853   5.276
 5868SOL    HW118503   0.547   5.838   5.285
 5868SOL    HW218504   0.692   5.825   5.359
 5869SOL     OW18505   2.421   5.413   4.854
 5869SOL    HW118506   2.488   5.476   4.895
 5869SOL    HW218507   2.333   5.460   4.845
 5870SOL     OW18508   5.752   5.965   4.507
 5870SOL    HW118509   5.837   5.960   4.559
 5870SOL    HW218510   5.700   6.045   4.537
 5871SOL     OW18511   3.620   4.792   0.805
 5871SOL    HW118512   3.631   4.720   0.737
 5871SOL    HW218513   3.551   4.764   0.872
 5872SOL     OW18514   4.320   5.750   3.772
 5872SOL    HW118515   4.226   5.779   3.791
 5872SOL    HW218516   4.324   5.650   3.772
 5873SOL     OW18517   1.798   3.428   1.092
 5873SOL    HW118518   1.857   3.393   1.164
 5873SOL    HW218519   1.820   3.524   1.074
 5874SOL     OW18520   0.796   4.799   6.494
 5874SOL    HW118521   0.787   4.824   6.590
 5874SOL    HW218522   0.773   4.703   6.481
 5875SOL     OW18523   4.400   2.573   1.402
 5875SOL    HW118524   4.363   2.498   1.348
 5875SOL    HW218525   4.329   2.608   1.463
 5876SOL     OW18526   3.865   4.729   6.125
 5876SOL    HW118527   3.843   4.687   6.213
 5876SOL    HW218528   3.805   4.807   6.110
 5877SOL     OW18529   6.037   5.950   2.483
 5877SOL    HW118530   6.042   5.857   2.447
 5877SOL    HW218531   6.118   6.001   2.456
 5878SOL     OW18532   4.924   4.383   2.993
 5878SOL    HW118533   4.832   4.348   2.979
 5878SOL    HW218534   4.938   4.404   3.090
 5879SOL     OW18535   3.233   4.637   5.760
 5879SOL    HW118536   3.301   4.566   5.777
 5879SOL    HW218537   3.243   4.670   5.666
 5880SOL     OW18538   5.578   2.269   0.969
 5880SOL    HW118539   5.571   2.242   1.065
 5880SOL    HW218540   5.514   2.213   0.915
 5881SOL     OW18541   1.084   5.786   3.656
 5881SOL    HW118542   1.029   5.720   3.707
 5881SOL    HW218543   1.167   5.807   3.707
 5882SOL     OW18544   1.317   5.449   4.293
 5882SOL    HW118545   1.297   5.377   4.360
 5882SOL    HW218546   1.408   5.486   4.312
 5883SOL     OW18547   0.325   5.704   0.295
 5883SOL    HW118548   0.350   5.646   0.373
 5883SOL    HW218549   0.226   5.705   0.285
 5884SOL     OW18550   0.872   1.322   1.146
 5884SOL    HW118551   0.961   1.345   1.184
 5884SOL    HW218552   0.874   1.328   1.046
 5885SOL     OW18553   0.053   5.924   2.183
 5885SOL    HW118554   0.094   5.997   2.128
 5885SOL    HW218555   0.015   5.963   2.266
 5886SOL     OW18556   1.917   4.100   3.447
 5886SOL    HW118557   1.845   4.151   3.494
 5886SOL    HW218558   1.999   4.156   3.441
 5887SOL     OW18559   2.012   3.614   1.575
 5887SOL    HW118560   2.001   3.514   1.573
 5887SOL    HW218561   2.102   3.637   1.611
 5888SOL     OW18562   2.922   6.277   1.549
 5888SOL    HW118563   2.915   6.287   1.649
 5888SOL    HW218564   2.837   6.309   1.506
 5889SOL     OW18565   4.452   1.323   1.563
 5889SOL    HW118566   4.544   1.357   1.544
 5889SOL    HW218567   4.412   1.288   1.478
 5890SOL     OW18568   2.908   5.082   2.473
 5890SOL    HW118569   2.847   5.004   2.491
 5890SOL    HW218570   2.885   5.157   2.535
 5891SOL     OW18571   2.262   2.838   6.653
 5891SOL    HW118572   2.344   2.821   6.708
 5891SOL    HW218573   2.269   2.926   6.608
 5892SOL     OW18574   0.418   2.095   1.709
 5892SOL    HW118575   0.514   2.121   1.698
 5892SOL    HW218576   0.411   2.016   1.770
 5893SOL     OW18577   0.132   6.257   1.211
 5893SOL    HW118578   0.196   6.330   1.233
 5893SOL    HW218579   0.182   6.179   1.174
 5894SOL     OW18580   2.975   5.567   6.520
 5894SOL    HW118581   3.026   5.498   6.570
 5894SOL    HW218582   3.001   5.564   6.423
 5895SOL     OW18583   6.131   2.215   4.522
 5895SOL    HW118584   6.171   2.182   4.608
 5895SOL    HW218585   6.132   2.141   4.454
 5896SOL     OW18586   5.365   1.930   0.612
 5896SOL    HW118587   5.416   1.940   0.697
 5896SOL    HW218588   5.329   2.019   0.584
 5897SOL     OW18589   2.881   3.675   0.376
 5897SOL    HW118590   2.915   3.671   0.470
 5897SOL    HW218591   2.855   3.769   0.353
 5898SOL     OW18592   4.039   0.670   6.776
 5898SOL    HW118593   4.000   0.761   6.794
 5898SOL    HW218594   4.100   0.645   6.850
 5899SOL     OW18595   6.858   0.238   1.039
 5899SOL    HW118596   6.864   0.307   1.111
 5899SOL    HW218597   6.820   0.154   1.076
 5900SOL     OW18598   4.904   5.583   2.268
 5900SOL    HW118599   4.977   5.651   2.263
 5900SOL    HW218600   4.941   5.497   2.304
 5901SOL     OW18601   1.268   0.729   5.368
 5901SOL    HW118602   1.224   0.810   5.408
 5901SOL    HW218603   1.280   0.743   5.270
 5902SOL     OW18604   4.556   3.960   5.471
 5902SOL    HW118605   4.521   4.045   5.433
 5902SOL    HW218606   4.648   3.975   5.507
 5903SOL     OW18607   4.802   1.085   5.752
 5903SOL    HW118608   4.744   1.110   5.674
 5903SOL    HW218609   4.818   1.166   5.808
 5904SOL     OW18610   0.047   5.403   1.315
 5904SOL    HW118611   0.056   5.456   1.400
 5904SOL    HW218612   6.977   5.364   1.310
 5905SOL     OW18613   6.530   1.579   5.114
 5905SOL    HW118614   6.495   1.529   5.035
 5905SOL    HW218615   6.500   1.675   5.108
 5906SOL     OW18616   4.228   0.475   4.885
 5906SOL    HW118617   4.239   0.415   4.806
 5906SOL    HW218618   4.180   0.558   4.856
 5907SOL     OW18619   1.125   3.561   5.825
 5907SOL    HW118620   1.051   3.527   5.767
 5907SOL    HW218621   1.108   3.657   5.849
 5908SOL     OW18622   4.724   2.932   6.785
 5908SOL    HW118623   4.787   2.982   6.724
 5908SOL    HW218624   4.759   2.936   6.879
 5909SOL     OW18625   6.674   4.833   2.950
 5909SOL    HW118626   6.657   4.899   3.023
 5909SOL    HW218627   6.708   4.881   2.869
 5910SOL     OW18628   1.466   4.140   3.044
 5910SOL    HW118629   1.527   4.091   2.981
 5910SOL    HW218630   1.400   4.194   2.991
 5911SOL     OW18631   0.463   1.272   5.211
 5911SOL    HW118632   0.439   1.271   5.308
 5911SOL    HW218633   0.386   1.307   5.158
 5912SOL     OW18634   0.957   3.755   6.303
 5912SOL    HW118635   0.984   3.851   6.298
 5912SOL    HW218636   0.918   3.726   6.216
 5913SOL     OW18637   1.951   3.005   5.477
 5913SOL    HW118638   2.023   3.054   5.428
 5913SOL    HW218639   1.865   3.012   5.426
 5914SOL     OW18640   0.992   5.414   0.118
 5914SOL    HW118641   1.056   5.384   0.047
 5914SOL    HW218642   0.932   5.339   0.144
 5915SOL     OW18643   5.612   3.984   5.030
 5915SOL    HW118644   5.604   4.028   5.119
 5915SOL    HW218645   5.535   3.922   5.016
 5916SOL     OW18646   2.925   0.756   6.686
 5916SOL    HW118647   2.919   0.802   6.597
 5916SOL    HW218648   2.931   0.825   6.759
 5917SOL     OW18649   3.429   3.202   2.314
 5917SOL    HW118650   3.520   3.163   2.329
 5917SOL    HW218651   3.362   3.151   2.368
 5918SOL     OW18652   3.211   2.127   3.724
 5918SOL    HW118653   3.302   2.128   3.765
 5918SOL    HW218654   3.220   2.119   3.624
 5919SOL     OW18655   1.569   1.416   5.818
 5919SOL    HW118656   1.666   1.392   5.833
 5919SOL    HW218657   1.512   1.339   5.847
 5920SOL     OW18658   2.375   3.367   6.209
 5920SOL    HW118659   2.288   3.414   6.194
 5920SOL    HW218660   2.392   3.360   6.308
 5921SOL     OW18661   3.682   6.316   4.204
 5921SOL    HW118662   3.756   6.292   4.140
 5921SOL    HW218663   3.598   6.269   4.177
 5922SOL     OW18664   6.448   5.014   2.325
 5922SOL    HW118665   6.461   5.112   2.339
 5922SOL    HW218666   6.371   4.982   2.380
 5923SOL     OW18667   1.241   6.864   3.123
 5923SOL    HW118668   1.251   6.765   3.113
 5923SOL    HW218669   1.197   6.884   3.210
 5924SOL     OW18670   6.202   1.927   4.819
 5924SOL    HW118671   6.156   1.843   4.848
 5924SOL    HW218672   6.139   1.981   4.763
 5925SOL     OW18673   6.490   6.980   1.533
 5925SOL    HW118674   6.512   0.043   1.580
 5925SOL    HW218675   6.474   6.908   1.601
 5926SOL     OW18676   2.262   6.790   1.544
 5926SOL    HW118677   2.203   6.863   1.578
 5926SOL    HW218678   2.230   6.761   1.454
 5927SOL     OW18679   1.971   5.592   0.732
 5927SOL    HW118680   1.988   5.675   0.784
 5927SOL    HW218681   1.873   5.570   0.735
 5928SOL     OW18682   6.745   6.700   0.948
 5928SOL    HW118683   6.790   6.781   0.987
 5928SOL    HW218684   6.648   6.718   0.937
 5929SOL     OW18685   0.217   0.543   6.395
 5929SOL    HW118686   0.219   0.643   6.396
 5929SOL    HW218687   0.201   0.511   6.301
 5930SOL     OW18688   6.793   1.703   5.273
 5930SOL    HW118689   6.809   1.655   5.187
 5930SOL    HW218690   6.695   1.720   5.284
 5931SOL     OW18691   6.441   4.285   0.263
 5931SOL    HW118692   6.522   4.231   0.288
 5931SOL    HW218693   6.467   4.382   0.259
 5932SOL     OW18694   2.331   0.566   0.575
 5932SOL    HW118695   2.249   0.577   0.520
 5932SOL    HW218696   2.370   0.656   0.596
 5933SOL     OW18697   5.581   2.284   3.136
 5933SOL    HW118698   5.681   2.285   3.143
 5933SOL    HW218699   5.542   2.234   3.213
 5934SOL     OW18700   4.471   3.504   1.718
 5934SOL    HW118701   4.433   3.471   1.631
 5934SOL    HW218702   4.444   3.599   1.732
 5935SOL     OW18703   3.838   3.313   2.781
 5935SOL    HW118704   3.938   3.315   2.770
 5935SOL    HW218705   3.803   3.407   2.785
 5936SOL     OW18706   6.567   5.796   6.858
 5936SOL    HW118707   6.543   5.719   6.799
 5936SOL    HW218708   6.665   5.814   6.849
 5937SOL     OW18709   0.781   3.296   1.249
 5937SOL    HW118710   0.735   3.376   1.211
 5937SOL    HW218711   0.835   3.251   1.178
 5938SOL     OW18712   3.363   5.084   1.335
 5938SOL    HW118713   3.435   5.133   1.285
 5938SOL    HW218714   3.401   5.044   1.418
 5939SOL     OW18715   0.083   6.770   2.445
 5939SOL    HW118716   0.139   6.790   2.365
 5939SOL    HW218717   0.100   6.840   2.515
 5940SOL     OW18718   4.433   5.147   2.340
 5940SOL    HW118719   4.449   5.071   2.403
 5940SOL    HW218720   4.424   5.232   2.393
 5941SOL     OW18721   6.269   3.133   3.953
 5941SOL    HW118722   6.239   3.188   4.031
 5941SOL    HW218723   6.331   3.188   3.896
 5942SOL     OW18724   6.656   1.954   5.005
 5942SOL    HW118725   6.633   2.047   5.035
 5942SOL    HW218726   6.573   1.907   4.978
 5943SOL     OW18727   1.204   5.971   0.879
 5943SOL    HW118728   1.284   5.960   0.938
 5943SOL    HW218729   1.234   5.980   0.784
 5944SOL     OW18730   5.411   2.707   3.088
 5944SOL    HW118731   5.325   2.747   3.118
 5944SOL    HW218732   5.395   2.615   3.051
 5945SOL     OW18733   6.822   6.125   6.521
 5945SOL    HW118734   6.878   6.166   6.592
 5945SOL    HW218735   6.768   6.197   6.476
 5946SOL     OW18736   3.971   2.185   5.195
 5946SOL    HW118737   3.900   2.236   5.244
 5946SOL    HW218738   3.968   2.089   5.223
 5947SOL     OW18739   5.543   4.579   3.482
 5947SOL    HW118740   5.446   4.573   3.463
 5947SOL    HW218741   5.595   4.568   3.397
 5948SOL     OW18742   2.814   5.021   3.050
 5948SOL    HW118743   2.804   4.931   3.091
 5948SOL    HW218744   2.862   5.082   3.113
 5949SOL     OW18745   5.341   4.519   2.968
 5949SOL    HW118746   5.306   4.449   2.905
 5949SOL    HW218747   5.435   4.543   2.942
 5950SOL     OW18748   0.791   2.468   5.316
 5950SOL    HW118749   0.749   2.510   5.397
 5950SOL    HW218750   0.734   2.487   5.236
 5951SOL     OW18751   1.999   0.669   2.801
 5951SOL    HW118752   2.070   0.685   2.731
 5951SOL    HW218753   1.974   0.756   2.843
 5952SOL     OW18754   6.987   6.614   4.580
 5952SOL    HW118755   6.935   6.694   4.610
 5952SOL    HW218756   6.954   6.583   4.491
 5953SOL     OW18757   1.580   4.207   5.665
 5953SOL    HW118758   1.599   4.290   5.718
 5953SOL    HW218759   1.491   4.170   5.692
 5954SOL     OW18760   1.283   4.660   5.783
 5954SOL    HW118761   1.320   4.724   5.851
 5954SOL    HW218762   1.183   4.667   5.781
 5955SOL     OW18763   3.724   5.140   2.223
 5955SOL    HW118764   3.657   5.068   2.210
 5955SOL    HW218765   3.696   5.221   2.171
 5956SOL     OW18766   0.303   1.479   1.089
 5956SOL    HW118767   0.401   1.458   1.083
 5956SOL    HW218768   0.292   1.576   1.113
 5957SOL     OW18769   4.114   6.859   6.601
 5957SOL    HW118770   4.164   6.832   6.519
 5957SOL    HW218771   4.153   6.812   6.680
 5958SOL     OW18772   0.914   5.717   2.475
 5958SOL    HW118773   0.825   5.761   2.489
 5958SOL    HW218774   0.983   5.763   2.532
 5959SOL     OW18775   1.397   0.922   5.189
 5959SOL    HW118776   1.323   0.920   5.121
 5959SOL    HW218777   1.396   1.010   5.236
 5960SOL     OW18778   3.087   6.059   4.686
 5960SOL    HW118779   3.028   5.988   4.646
 5960SOL    HW218780   3.168   6.015   4.726
 5961SOL     OW18781   3.849   0.433   5.006
 5961SOL    HW118782   3.863   0.397   5.098
 5961SOL    HW218783   3.756   0.469   4.998
 5962SOL     OW18784   5.191   4.236   3.491
 5962SOL    HW118785   5.240   4.309   3.444
 5962SOL    HW218786   5.118   4.201   3.432
 5963SOL     OW18787   4.358   3.756   1.743
 5963SOL    HW118788   4.290   3.690   1.775
 5963SOL    HW218789   4.329   3.849   1.769
 5964SOL     OW18790   1.427   3.532   5.194
 5964SOL    HW118791   1.433   3.507   5.291
 5964SOL    HW218792   1.454   3.628   5.183
 5965SOL     OW18793   1.960   2.072   4.357
 5965SOL    HW118794   1.955   1.998   4.424
 5965SOL    HW218795   1.914   2.044   4.273
 5966SOL     OW18796   0.755   5.672   3.795
 5966SOL    HW118797   0.668   5.684   3.843
 5966SOL    HW218798   0.828   5.661   3.861
 5967SOL     OW18799   5.158   5.291   0.948
 5967SOL    HW118800   5.131   5.377   0.905
 5967SOL    HW218801   5.077   5.242   0.979
 5968SOL     OW18802   2.348   2.244   4.339
 5968SOL    HW118803   2.269   2.259   4.279
 5968SOL    HW218804   2.330   2.284   4.429
 5969SOL     OW18805   0.528   2.465   3.437
 5969SOL    HW118806   0.465   2.476   3.360
 5969SOL    HW218807   0.574   2.552   3.455
 5970SOL     OW18808   1.744   4.615   4.054
 5970SOL    HW118809   1.805   4.632   4.132
 5970SOL    HW218810   1.699   4.527   4.067
 5971SOL     OW18811   3.307   5.685   3.366
 5971SOL    HW118812   3.388   5.628   3.356
 5971SOL    HW218813   3.226   5.633   3.339
 5972SOL     OW18814   4.950   7.003   1.508
 5972SOL    HW118815   5.047   6.982   1.519
 5972SOL    HW218816   4.896   6.944   1.568
 5973SOL     OW18817   3.000   4.876   3.375
 5973SOL    HW118818   2.984   4.865   3.473
 5973SOL    HW218819   2.915   4.856   3.325
 5974SOL     OW18820   0.536   3.785   0.333
 5974SOL    HW118821   0.635   3.796   0.325
 5974SOL    HW218822   0.491   3.850   0.273
 5975SOL     OW18823   2.020   3.366   6.730
 5975SOL    HW118824   1.992   3.273   6.753
 5975SOL    HW218825   1.939   3.424   6.725
 5976SOL     OW18826   3.113   4.072   4.393
 5976SOL    HW118827   3.027   4.026   4.412
 5976SOL    HW218828   3.140   4.126   4.473
 5977SOL     OW18829   0.437   3.427   2.955
 5977SOL    HW118830   0.481   3.339   2.970
 5977SOL    HW218831   0.394   3.429   2.865
 5978SOL     OW18832   5.531   5.105   1.261
 5978SOL    HW118833   5.605   5.055   1.217
 5978SOL    HW218834   5.445   5.089   1.212
 5979SOL     OW18835   1.882   0.949   1.537
 5979SOL    HW118836   1.925   0.859   1.532
 5979SOL    HW218837   1.925   1.010   1.471
 5980SOL     OW18838   5.752   2.660   5.389
 5980SOL    HW118839   5.797   2.716   5.318
 5980SOL    HW218840   5.778   2.693   5.479
 5981SOL     OW18841   3.605   2.282   0.613
 5981SOL    HW118842   3.539   2.323   0.676
 5981SOL    HW218843   3.563   2.206   0.564
 5982SOL     OW18844   6.470   3.060   6.605
 5982SOL    HW118845   6.454   3.143   6.657
 5982SOL    HW218846   6.563   3.061   6.568
 5983SOL     OW18847   0.168   0.640   3.492
 5983SOL    HW118848   0.208   0.610   3.406
 5983SOL    HW218849   0.074   0.607   3.498
 5984SOL     OW18850   0.208   0.430   6.158
 5984SOL    HW118851   0.228   0.478   6.072
 5984SOL    HW218852   0.283   0.366   6.178
 5985SOL     OW18853   5.812   3.667   3.963
 5985SOL    HW118854   5.842   3.751   4.009
 5985SOL    HW218855   5.713   3.659   3.970
 5986SOL     OW18856   3.296   3.894   2.320
 5986SOL    HW118857   3.363   3.963   2.292
 5986SOL    HW218858   3.338   3.834   2.389
 5987SOL     OW18859   4.309   6.969   4.847
 5987SOL    HW118860   4.338   0.037   4.816
 5987SOL    HW218861   4.211   6.970   4.867
 5988SOL     OW18862   3.294   6.813   5.709
 5988SOL    HW118863   3.328   6.795   5.801
 5988SOL    HW218864   3.197   6.791   5.705
 5989SOL     OW18865   3.396   2.596   6.380
 5989SOL    HW118866   3.370   2.661   6.451
 5989SOL    HW218867   3.430   2.645   6.300
 5990SOL     OW18868   2.295   5.311   3.266
 5990SOL    HW118869   2.332   5.398   3.297
 5990SOL    HW218870   2.200   5.323   3.237
 5991SOL     OW18871   3.987   4.803   2.512
 5991SOL    HW118872   3.922   4.819   2.586
 5991SOL    HW218873   3.959   4.855   2.431
 5992SOL     OW18874   3.854   2.146   4.177
 5992SOL    HW118875   3.782   2.192   4.228
 5992SOL    HW218876   3.839   2.157   4.079
 5993SOL     OW18877   2.646   5.999   3.722
 5993SOL    HW118878   2.611   6.088   3.751
 5993SOL    HW218879   2.615   5.980   3.629
 5994SOL     OW18880   6.119   2.438   0.367
 5994SOL    HW118881   6.197   2.443   0.304
 5994SOL    HW218882   6.117   2.521   0.423
 5995SOL     OW18883   0.483   4.098   1.663
 5995SOL    HW118884   0.398   4.146   1.681
 5995SOL    HW218885   0.468   4.000   1.670
 5996SOL     OW18886   1.131   6.546   5.639
 5996SOL    HW118887   1.174   6.472   5.587
 5996SOL    HW218888   1.076   6.603   5.577
 5997SOL     OW18889   6.744   0.292   1.831
 5997SOL    HW118890   6.768   0.371   1.774
 5997SOL    HW218891   6.683   0.322   1.904
 5998SOL     OW18892   4.896   3.410   2.991
 5998SOL    HW118893   4.890   3.385   3.088
 5998SOL    HW218894   4.855   3.500   2.977
 5999SOL     OW18895   2.111   3.156   2.932
 5999SOL    HW118896   2.165   3.104   2.866
 5999SOL    HW218897   2.147   3.249   2.939
 6000SOL     OW18898   4.867   0.847   3.696
 6000SOL    HW118899   4.873   0.947   3.689
 6000SOL    HW218900   4.835   0.809   3.609
 6001SOL     OW18901   4.705   1.095   0.040
 6001SOL    HW118902   4.674   1.077   6.969
 6001SOL    HW218903   4.805   1.091   0.043
 6002SOL     OW18904   1.897   0.422   2.195
 6002SOL    HW118905   1.935   0.472   2.117
 6002SOL    HW218906   1.841   0.347   2.161
 6003SOL     OW18907   4.865   5.267   3.544
 6003SOL    HW118908   4.919   5.212   3.607
 6003SOL    HW218909   4.776   5.287   3.586
 6004SOL     OW18910   0.891   3.152   1.895
 6004SOL    HW118911   0.803   3.198   1.906
 6004SOL    HW218912   0.944   3.198   1.823
 6005SOL     OW18913   2.362   6.792   2.446
 6005SOL    HW118914   2.385   6.889   2.436
 6005SOL    HW218915   2.276   6.773   2.399
 6006SOL     OW18916   2.235   6.456   6.332
 6006SOL    HW118917   2.257   6.363   6.305
 6006SOL    HW218918   2.158   6.489   6.277
 6007SOL     OW18919   5.505   3.511   4.305
 6007SOL    HW118920   5.566   3.531   4.383
 6007SOL    HW218921   5.561   3.486   4.226
 6008SOL     OW18922   5.379   3.789   2.331
 6008SOL    HW118923   5.416   3.860   2.391
 6008SOL    HW218924   5.306   3.827   2.274
 6009SOL     OW18925   3.447   1.406   4.951
 6009SOL    HW118926   3.357   1.396   4.909
 6009SOL    HW218927   3.485   1.495   4.926
 6010SOL     OW18928   1.782   5.082   3.081
 6010SOL    HW118929   1.784   5.128   2.992
 6010SOL    HW218930   1.791   5.151   3.154
 6011SOL     OW18931   5.879   2.393   1.534
 6011SOL    HW118932   5.827   2.378   1.449
 6011SOL    HW218933   5.889   2.491   1.550
 6012SOL     OW18934   0.977   2.021   0.981
 6012SOL    HW118935   0.949   2.113   0.952
 6012SOL    HW218936   0.897   1.970   1.012
 6013SOL     OW18937   5.320   1.036   2.349
 6013SOL    HW118938   5.310   0.964   2.280
 6013SOL    HW218939   5.247   1.103   2.338
 6014SOL     OW18940   6.174   1.797   0.001
 6014SOL    HW118941   6.082   1.829   0.023
 6014SOL    HW218942   6.234   1.809   0.080
 6015SOL     OW18943   6.451   6.759   3.807
 6015SOL    HW118944   6.397   6.842   3.792
 6015SOL    HW218945   6.547   6.784   3.818
 6016SOL     OW18946   0.890   0.370   5.335
 6016SOL    HW118947   0.864   0.330   5.422
 6016SOL    HW218948   0.984   0.403   5.340
 6017SOL     OW18949   0.467   3.500   2.360
 6017SOL    HW118950   0.471   3.566   2.284
 6017SOL    HW218951   0.557   3.495   2.403
 6018SOL     OW18952   3.253   4.859   2.027
 6018SOL    HW118953   3.347   4.839   2.001
 6018SOL    HW218954   3.247   4.866   2.127
 6019SOL     OW18955   0.629   0.007   3.592
 6019SOL    HW118956   0.629   0.004   3.692
 6019SOL    HW218957   0.536   0.001   3.558
 6020SOL     OW18958   2.583   6.171   2.876
 6020SOL    HW118959   2.621   6.102   2.816
 6020SOL    HW218960   2.492   6.197   2.844
 6021SOL     OW18961   2.281   1.027   3.546
 6021SOL    HW118962   2.362   0.969   3.548
 6021SOL    HW218963   2.248   1.043   3.639
 6022SOL     OW18964   3.389   2.955   5.310
 6022SOL    HW118965   3.476   3.001   5.329
 6022SOL    HW218966   3.321   2.983   5.379
 6023SOL     OW18967   0.914   2.203   1.971
 6023SOL    HW118968   0.886   2.251   1.888
 6023SOL    HW218969   0.894   2.106   1.962
 6024SOL     OW18970   6.152   4.491   1.729
 6024SOL    HW118971   6.150   4.552   1.649
 6024SOL    HW218972   6.196   4.405   1.703
 6025SOL     OW18973   4.105   2.240   2.269
 6025SOL    HW118974   4.183   2.256   2.330
 6025SOL    HW218975   4.122   2.284   2.181
 6026SOL     OW18976   1.490   4.284   4.969
 6026SOL    HW118977   1.545   4.226   4.909
 6026SOL    HW218978   1.551   4.334   5.031
 6027SOL     OW18979   3.631   4.389   0.360
 6027SOL    HW118980   3.538   4.425   0.354
 6027SOL    HW218981   3.629   4.299   0.406
 6028SOL     OW18982   0.827   4.256   5.635
 6028SOL    HW118983   0.922   4.227   5.630
 6028SOL    HW218984   0.819   4.331   5.701
 6029SOL     OW18985   1.828   5.425   1.177
 6029SOL    HW118986   1.913   5.376   1.158
 6029SOL    HW218987   1.767   5.366   1.229
 6030SOL     OW18988   1.755   6.047   1.274
 6030SOL    HW118989   1.691   6.023   1.347
 6030SOL    HW218990   1.704   6.078   1.194
 6031SOL     OW18991   4.660   0.930   4.792
 6031SOL    HW118992   4.631   0.839   4.762
 6031SOL    HW218993   4.728   0.966   4.729
 6032SOL     OW18994   1.487   2.389   2.249
 6032SOL    HW118995   1.476   2.378   2.348
 6032SOL    HW218996   1.413   2.342   2.202
 6033SOL     OW18997   0.601   0.052   4.402
 6033SOL    HW118998   0.649   6.988   4.416
 6033SOL    HW218999   0.506   0.034   4.378
 6034SOL     OW19000   3.116   4.945   4.608
 6034SOL    HW119001   3.065   4.862   4.586
 6034SOL    HW219002   3.141   4.945   4.705
 6035SOL     OW19003   4.404   0.583   4.277
 6035SOL    HW119004   4.418   0.682   4.276
 6035SOL    HW219005   4.434   0.545   4.364
 6036SOL     OW19006   4.897   0.671   5.720
 6036SOL    HW119007   4.917   0.746   5.783
 6036SOL    HW219008   4.911   0.584   5.766
 6037SOL     OW19009   6.858   4.843   4.194
 6037SOL    HW119010   6.858   4.911   4.121
 6037SOL    HW219011   6.856   4.890   4.283
 6038SOL     OW19012   0.228   3.079   6.323
 6038SOL    HW119013   0.162   3.011   6.290
 6038SOL    HW219014   0.212   3.096   6.420
 6039SOL     OW19015   3.191   4.085   3.554
 6039SOL    HW119016   3.184   4.073   3.653
 6039SOL    HW219017   3.108   4.129   3.519
 6040SOL     OW19018   1.161   1.325   1.191
 6040SOL    HW119019   1.151   1.408   1.136
 6040SOL    HW219020   1.199   1.348   1.280
 6041SOL     OW19021   0.917   3.208   6.227
 6041SOL    HW119022   0.891   3.303   6.248
 6041SOL    HW219023   1.012   3.192   6.254
 6042SOL     OW19024   5.879   5.726   4.971
 6042SOL    HW119025   5.967   5.763   4.942
 6042SOL    HW219026   5.805   5.774   4.924
 6043SOL     OW19027   6.569   4.380   3.321
 6043SOL    HW119028   6.474   4.399   3.346
 6043SOL    HW219029   6.572   4.328   3.236
 6044SOL     OW19030   1.391   1.436   0.969
 6044SOL    HW119031   1.478   1.465   0.928
 6044SOL    HW219032   1.339   1.384   0.902
 6045SOL     OW19033   6.024   3.850   6.420
 6045SOL    HW119034   6.095   3.878   6.484
 6045SOL    HW219035   6.065   3.794   6.348
 6046SOL     OW19036   0.094   3.594   0.072
 6046SOL    HW119037   0.107   3.683   0.116
 6046SOL    HW219038   0.059   3.529   0.139
 6047SOL     OW19039   1.184   6.548   5.028
 6047SOL    HW119040   1.221   6.630   4.984
 6047SOL    HW219041   1.092   6.530   4.993
 6048SOL     OW19042   4.816   6.591   3.937
 6048SOL    HW119043   4.831   6.510   3.880
 6048SOL    HW219044   4.719   6.597   3.962
 6049SOL     OW19045   0.148   5.371   0.835
 6049SOL    HW119046   0.049   5.382   0.837
 6049SOL    HW219047   0.174   5.308   0.762
 6050SOL     OW19048   5.306   4.423   5.554
 6050SOL    HW119049   5.301   4.491   5.480
 6050SOL    HW219050   5.400   4.389   5.561
 6051SOL     OW19051   2.536   1.849   3.196
 6051SOL    HW119052   2.487   1.770   3.158
 6051SOL    HW219053   2.588   1.894   3.123
 6052SOL     OW19054   0.673   1.856   6.751
 6052SOL    HW119055   0.753   1.878   6.808
 6052SOL    HW219056   0.647   1.761   6.765
 6053SOL     OW19057   0.875   0.910   6.127
 6053SOL    HW119058   0.880   0.819   6.087
 6053SOL    HW219059   0.966   0.937   6.160
 6054SOL     OW19060   0.399   4.059   6.054
 6054SOL    HW119061   0.302   4.040   6.066
 6054SOL    HW219062   0.452   3.977   6.075
 6055SOL     OW19063   5.608   5.809   2.953
 6055SOL    HW119064   5.630   5.904   2.973
 6055SOL    HW219065   5.509   5.797   2.946
 6056SOL     OW19066   5.333   2.742   6.526
 6056SOL    HW119067   5.314   2.664   6.466
 6056SOL    HW219068   5.248   2.788   6.549
 6057SOL     OW19069   4.704   0.561   6.146
 6057SOL    HW119070   4.786   0.563   6.088
 6057SOL    HW219071   4.728   0.520   6.235
 6058SOL     OW19072   5.432   2.047   5.439
 6058SOL    HW119073   5.340   2.087   5.438
 6058SOL    HW219074   5.484   2.080   5.361
 6059SOL     OW19075   6.863   6.576   6.833
 6059SOL    HW119076   6.793   6.528   6.885
 6059SOL    HW219077   6.943   6.592   6.891
 6060SOL     OW19078   3.460   5.864   6.486
 6060SOL    HW119079   3.372   5.861   6.439
 6060SOL    HW219080   3.489   5.960   6.496
 6061SOL     OW19081   1.851   1.605   6.657
 6061SOL    HW119082   1.893   1.589   6.746
 6061SOL    HW219083   1.769   1.548   6.649
 6062SOL     OW19084   1.808   6.412   3.304
 6062SOL    HW119085   1.907   6.429   3.303
 6062SOL    HW219086   1.768   6.455   3.385
 6063SOL     OW19087   6.330   6.190   0.264
 6063SOL    HW119088   6.381   6.134   0.329
 6063SOL    HW219089   6.330   6.146   0.174
 6064SOL     OW19090   0.477   5.062   1.860
 6064SOL    HW119091   0.461   5.129   1.932
 6064SOL    HW219092   0.568   5.021   1.873
 6065SOL     OW19093   4.607   6.974   1.079
 6065SOL    HW119094   4.544   6.911   1.124
 6065SOL    HW219095   4.671   7.011   1.147
 6066SOL     OW19096   5.348   2.323   5.197
 6066SOL    HW119097   5.442   2.300   5.221
 6066SOL    HW219098   5.337   2.322   5.098
 6067SOL     OW19099   4.772   1.361   0.326
 6067SOL    HW119100   4.821   1.274   0.336
 6067SOL    HW219101   4.754   1.399   0.417
 6068SOL     OW19102   5.368   0.405   5.397
 6068SOL    HW119103   5.276   0.379   5.367
 6068SOL    HW219104   5.436   0.367   5.334
 6069SOL     OW19105   6.665   4.953   3.211
 6069SOL    HW119106   6.752   4.981   3.252
 6069SOL    HW219107   6.591   5.005   3.253
 6070SOL     OW19108   4.517   3.275   1.477
 6070SOL    HW119109   4.562   3.229   1.554
 6070SOL    HW219110   4.424   3.300   1.503
 6071SOL     OW19111   6.067   0.507   5.669
 6071SOL    HW119112   6.094   0.441   5.600
 6071SOL    HW219113   6.144   0.569   5.687
 6072SOL     OW19114   6.395   1.492   1.357
 6072SOL    HW119115   6.340   1.434   1.417
 6072SOL    HW219116   6.428   1.438   1.279
 6073SOL     OW19117   5.434   0.760   0.577
 6073SOL    HW119118   5.522   0.712   0.567
 6073SOL    HW219119   5.400   0.785   0.487
 6074SOL     OW19120   0.721   1.583   5.927
 6074SOL    HW119121   0.748   1.510   5.989
 6074SOL    HW219122   0.754   1.671   5.963
 6075SOL     OW19123   5.176   3.396   5.956
 6075SOL    HW119124   5.211   3.418   6.047
 6075SOL    HW219125   5.152   3.299   5.952
 6076SOL     OW19126   3.183   0.452   3.712
 6076SOL    HW119127   3.133   0.531   3.745
 6076SOL    HW219128   3.240   0.415   3.785
 6077SOL     OW19129   5.447   5.253   3.123
 6077SOL    HW119130   5.542   5.277   3.107
 6077SOL    HW219131   5.393   5.273   3.041
 6078SOL     OW19132   2.439   4.354   4.252
 6078SOL    HW119133   2.398   4.263   4.254
 6078SOL    HW219134   2.432   4.396   4.342
 6079SOL     OW19135   3.185   2.559   0.643
 6079SOL    HW119136   3.134   2.499   0.581
 6079SOL    HW219137   3.121   2.603   0.706
 6080SOL     OW19138   5.901   3.332   3.899
 6080SOL    HW119139   5.946   3.265   3.959
 6080SOL    HW219140   5.809   3.300   3.877
 6081SOL     OW19141   0.954   4.010   1.609
 6081SOL    HW119142   1.018   3.985   1.682
 6081SOL    HW219143   1.003   4.014   1.522
 6082SOL     OW19144   5.002   1.914   5.448
 6082SOL    HW119145   4.995   1.821   5.411
 6082SOL    HW219146   5.074   1.964   5.399
 6083SOL     OW19147   1.665   5.900   0.269
 6083SOL    HW119148   1.676   5.899   0.170
 6083SOL    HW219149   1.624   5.814   0.299
 6084SOL     OW19150   0.574   6.201   6.315
 6084SOL    HW119151   0.546   6.197   6.411
 6084SOL    HW219152   0.605   6.111   6.286
 6085SOL     OW19153   5.613   5.015   2.088
 6085SOL    HW119154   5.684   4.953   2.054
 6085SOL    HW219155   5.656   5.094   2.131
 6086SOL     OW19156   2.832   2.091   1.864
 6086SOL    HW119157   2.879   2.159   1.920
 6086SOL    HW219158   2.748   2.062   1.911
 6087SOL     OW19159   3.655   1.363   0.056
 6087SOL    HW119160   3.726   1.372   7.009
 6087SOL    HW219161   3.625   1.268   0.062
 6088SOL     OW19162   0.696   0.977   4.247
 6088SOL    HW119163   0.793   0.954   4.255
 6088SOL    HW219164   0.685   1.076   4.247
 6089SOL     OW19165   0.268   3.368   1.134
 6089SOL    HW119166   0.264   3.453   1.082
 6089SOL    HW219167   0.212   3.377   1.216
 6090SOL     OW19168   6.752   0.140   3.907
 6090SOL    HW119169   6.727   0.206   3.978
 6090SOL    HW219170   6.819   0.075   3.944
 6091SOL     OW19171   6.612   2.248   2.613
 6091SOL    HW119172   6.663   2.226   2.696
 6091SOL    HW219173   6.637   2.339   2.581
 6092SOL     OW19174   0.260   2.825   1.270
 6092SOL    HW119175   0.217   2.892   1.210
 6092SOL    HW219176   0.359   2.834   1.264
 6093SOL     OW19177   0.862   4.123   0.797
 6093SOL    HW119178   0.943   4.153   0.747
 6093SOL    HW219179   0.798   4.199   0.807
 6094SOL     OW19180   0.194   1.439   1.393
 6094SOL    HW119181   0.116   1.499   1.413
 6094SOL    HW219182   0.233   1.463   1.304
 6095SOL     OW19183   0.356   4.006   4.686
 6095SOL    HW119184   0.294   4.079   4.656
 6095SOL    HW219185   0.307   3.919   4.686
 6096SOL     OW19186   6.132   1.732   2.902
 6096SOL    HW119187   6.225   1.728   2.939
 6096SOL    HW219188   6.136   1.730   2.802
 6097SOL     OW19189   4.050   1.090   3.176
 6097SOL    HW119190   3.956   1.057   3.170
 6097SOL    HW219191   4.111   1.013   3.195
 6098SOL     OW19192   0.033   1.033   6.667
 6098SOL    HW119193   0.011   1.103   6.735
 6098SOL    HW219194   0.132   1.030   6.653
 6099SOL     OW19195   5.846   4.217   4.494
 6099SOL    HW119196   5.847   4.315   4.512
 6099SOL    HW219197   5.820   4.201   4.399
 6100SOL     OW19198   0.176   3.018   1.039
 6100SOL    HW119199   0.246   3.054   0.978
 6100SOL    HW219200   0.158   3.083   1.112
 6101SOL     OW19201   5.878   6.203   3.182
 6101SOL    HW119202   5.818   6.151   3.244
 6101SOL    HW219203   5.961   6.149   3.164
 6102SOL     OW19204   3.810   6.241   5.339
 6102SOL    HW119205   3.796   6.305   5.414
 6102SOL    HW219206   3.780   6.149   5.367
 6103SOL     OW19207   5.776   1.993   4.502
 6103SOL    HW119208   5.767   2.034   4.411
 6103SOL    HW219209   5.729   2.050   4.569
 6104SOL     OW19210   2.683   2.603   1.318
 6104SOL    HW119211   2.667   2.618   1.415
 6104SOL    HW219212   2.745   2.674   1.283
 6105SOL     OW19213   3.419   5.028   4.647
 6105SOL    HW119214   3.325   5.002   4.668
 6105SOL    HW219215   3.479   4.998   4.722
 6106SOL     OW19216   1.790   5.323   4.346
 6106SOL    HW119217   1.857   5.326   4.272
 6106SOL    HW219218   1.838   5.329   4.434
 6107SOL     OW19219   2.166   4.892   5.583
 6107SOL    HW119220   2.126   4.947   5.657
 6107SOL    HW219221   2.246   4.843   5.618
 6108SOL     OW19222   5.371   1.539   4.788
 6108SOL    HW119223   5.456   1.512   4.832
 6108SOL    HW219224   5.362   1.492   4.700
 6109SOL     OW19225   0.461   4.577   1.829
 6109SOL    HW119226   0.402   4.656   1.843
 6109SOL    HW219227   0.556   4.604   1.844
 6110SOL     OW19228   3.469   1.849   3.191
 6110SOL    HW119229   3.428   1.775   3.137
 6110SOL    HW219230   3.428   1.936   3.165
 6111SOL     OW19231   0.620   4.590   3.562
 6111SOL    HW119232   0.583   4.605   3.470
 6111SOL    HW219233   0.590   4.501   3.596
 6112SOL     OW19234   2.280   0.781   1.300
 6112SOL    HW119235   2.316   0.748   1.212
 6112SOL    HW219236   2.185   0.809   1.287
 6113SOL     OW19237   0.530   5.185   6.265
 6113SOL    HW119238   0.557   5.281   6.277
 6113SOL    HW219239   0.443   5.181   6.217
 6114SOL     OW19240   3.779   4.232   1.432
 6114SOL    HW119241   3.739   4.141   1.415
 6114SOL    HW219242   3.863   4.222   1.485
 6115SOL     OW19243   0.415   3.772   2.658
 6115SOL    HW119244   0.476   3.693   2.665
 6115SOL    HW219245   0.416   3.823   2.744
 6116SOL     OW19246   4.122   2.815   0.937
 6116SOL    HW119247   4.037   2.863   0.962
 6116SOL    HW219248   4.103   2.752   0.861
 6117SOL     OW19249   5.310   6.386   4.421
 6117SOL    HW119250   5.267   6.306   4.381
 6117SOL    HW219251   5.406   6.367   4.440
 6118SOL     OW19252   6.431   0.418   3.455
 6118SOL    HW119253   6.374   0.340   3.429
 6118SOL    HW219254   6.390   0.466   3.532
 6119SOL     OW19255   6.194   4.648   5.333
 6119SOL    HW119256   6.229   4.713   5.266
 6119SOL    HW219257   6.220   4.555   5.307
 6120SOL     OW19258   2.852   1.732   2.049
 6120SOL    HW119259   2.830   1.800   1.978
 6120SOL    HW219260   2.805   1.756   2.134
 6121SOL     OW19261   0.169   1.788   2.893
 6121SOL    HW119262   0.246   1.830   2.941
 6121SOL    HW219263   0.092   1.852   2.892
 6122SOL     OW19264   3.691   5.884   4.207
 6122SOL    HW119265   3.638   5.899   4.290
 6122SOL    HW219266   3.772   5.942   4.207
 6123SOL     OW19267   6.892   1.782   3.006
 6123SOL    HW119268   6.920   1.686   3.005
 6123SOL    HW219269   6.917   1.825   2.920
 6124SOL     OW19270   2.727   0.457   4.434
 6124SOL    HW119271   2.819   0.475   4.470
 6124SOL    HW219272   2.676   0.402   4.499
 6125SOL     OW19273   0.852   3.717   2.553
 6125SOL    HW119274   0.926   3.711   2.621
 6125SOL    HW219275   0.835   3.813   2.531
 6126SOL     OW19276   3.348   6.988   2.533
 6126SOL    HW119277   3.434   7.005   2.581
 6126SOL    HW219278   3.303   6.908   2.573
 6127SOL     OW19279   1.767   5.836   0.888
 6127SOL    HW119280   1.745   5.739   0.877
 6127SOL    HW219281   1.779   5.857   0.985
 6128SOL     OW19282   5.517   3.491   1.923
 6128SOL    HW119283   5.608   3.521   1.895
 6128SOL    HW219284   5.452   3.507   1.849
 6129SOL     OW19285   6.109   3.699   3.680
 6129SOL    HW119286   6.095   3.710   3.582
 6129SOL    HW219287   6.186   3.755   3.710
 6130SOL     OW19288   6.248   3.247   2.714
 6130SOL    HW119289   6.188   3.324   2.736
 6130SOL    HW219290   6.196   3.161   2.721
 6131SOL     OW19291   0.070   2.179   5.798
 6131SOL    HW119292   0.125   2.199   5.717
 6131SOL    HW219293   0.088   2.086   5.829
 6132SOL     OW19294   0.181   3.051   0.227
 6132SOL    HW119295   0.116   3.002   0.168
 6132SOL    HW219296   0.165   3.026   0.322
 6133SOL     OW19297   1.617   4.636   0.264
 6133SOL    HW119298   1.676   4.639   0.344
 6133SOL    HW219299   1.557   4.556   0.270
 6134SOL     OW19300   3.955   4.475   6.031
 6134SOL    HW119301   3.920   4.548   6.090
 6134SOL    HW219302   4.040   4.503   5.989
 6135SOL     OW19303   5.579   6.612   1.653
 6135SOL    HW119304   5.515   6.687   1.674
 6135SOL    HW219305   5.615   6.575   1.738
 6136SOL     OW19306   1.850   2.066   2.388
 6136SOL    HW119307   1.806   1.984   2.353
 6136SOL    HW219308   1.945   2.068   2.357
 6137SOL     OW19309   2.788   6.837   5.708
 6137SOL    HW119310   2.777   6.935   5.694
 6137SOL    HW219311   2.880   6.809   5.680
 6138SOL     OW19312   4.650   0.638   3.313
 6138SOL    HW119313   4.676   0.601   3.224
 6138SOL    HW219314   4.564   0.597   3.343
 6139SOL     OW19315   2.954   6.385   3.506
 6139SOL    HW119316   2.901   6.422   3.429
 6139SOL    HW219317   2.901   6.393   3.590
 6140SOL     OW19318   2.034   5.265   1.297
 6140SOL    HW119319   2.015   5.196   1.366
 6140SOL    HW219320   2.132   5.265   1.276
 6141SOL     OW19321   0.810   6.530   4.427
 6141SOL    HW119322   0.806   6.596   4.502
 6141SOL    HW219323   0.891   6.549   4.371
 6142SOL     OW19324   0.088   2.915   4.008
 6142SOL    HW119325   0.021   2.964   4.065
 6142SOL    HW219326   0.047   2.830   3.975
 6143SOL     OW19327   6.453   6.302   6.635
 6143SOL    HW119328   6.395   6.372   6.677
 6143SOL    HW219329   6.481   6.236   6.705
 6144SOL     OW19330   0.454   5.896   4.984
 6144SOL    HW119331   0.507   5.914   4.901
 6144SOL    HW219332   0.358   5.881   4.959
 6145SOL     OW19333   5.613   5.225   3.402
 6145SOL    HW119334   5.579   5.177   3.321
 6145SOL    HW219335   5.645   5.316   3.377
 6146SOL     OW19336   6.011   1.298   4.069
 6146SOL    HW119337   6.022   1.233   4.145
 6146SOL    HW219338   6.100   1.320   4.032
 6147SOL     OW19339   0.883   4.193   4.099
 6147SOL    HW119340   0.829   4.238   4.170
 6147SOL    HW219341   0.923   4.262   4.039
 6148SOL     OW19342   5.468   6.583   4.127
 6148SOL    HW119343   5.432   6.490   4.123
 6148SOL    HW219344   5.505   6.601   4.219
 6149SOL     OW19345   0.340   5.389   4.775
 6149SOL    HW119346   0.290   5.438   4.703
 6149SOL    HW219347   0.438   5.397   4.759
 6150SOL     OW19348   4.949   0.095   6.884
 6150SOL    HW119349   4.852   0.072   6.889
 6150SOL    HW219350   4.968   0.139   6.796
 6151SOL     OW19351   4.504   0.695   5.252
 6151SOL    HW119352   4.533   0.774   5.306
 6151SOL    HW219353   4.572   0.622   5.264
 6152SOL     OW19354   6.199   3.308   6.644
 6152SOL    HW119355   6.164   3.343   6.731
 6152SOL    HW219356   6.299   3.306   6.647
 6153SOL     OW19357   3.738   5.979   5.306
 6153SOL    HW119358   3.734   5.918   5.227
 6153SOL    HW219359   3.687   5.938   5.382
 6154SOL     OW19360   5.045   2.545   3.377
 6154SOL    HW119361   5.094   2.594   3.305
 6154SOL    HW219362   4.954   2.583   3.387
 6155SOL     OW19363   3.200   4.975   4.865
 6155SOL    HW119364   3.118   4.932   4.903
 6155SOL    HW219365   3.273   4.975   4.933
 6156SOL     OW19366   5.542   0.511   4.244
 6156SOL    HW119367   5.503   0.432   4.291
 6156SOL    HW219368   5.469   0.566   4.203
 6157SOL     OW19369   1.296   0.736   4.543
 6157SOL    HW119370   1.235   0.720   4.620
 6157SOL    HW219371   1.310   0.650   4.494
 6158SOL     OW19372   4.808   6.119   0.200
 6158SOL    HW119373   4.801   6.041   0.139
 6158SOL    HW219374   4.716   6.150   0.225
 6159SOL     OW19375   4.541   3.614   6.709
 6159SOL    HW119376   4.605   3.649   6.642
 6159SOL    HW219377   4.538   3.676   6.788
 6160SOL     OW19378   6.099   4.871   0.708
 6160SOL    HW119379   6.077   4.965   0.683
 6160SOL    HW219380   6.024   4.810   0.683
 6161SOL     OW19381   4.512   0.727   6.660
 6161SOL    HW119382   4.493   0.770   6.748
 6161SOL    HW219383   4.457   0.770   6.589
 6162SOL     OW19384   5.389   5.735   3.961
 6162SOL    HW119385   5.410   5.831   3.943
 6162SOL    HW219386   5.345   5.694   3.882
 6163SOL     OW19387   0.047   3.974   3.331
 6163SOL    HW119388   0.082   3.880   3.336
 6163SOL    HW219389   0.102   4.027   3.267
 6164SOL     OW19390   4.880   3.054   0.787
 6164SOL    HW119391   4.793   3.051   0.738
 6164SOL    HW219392   4.950   3.007   0.733
 6165SOL     OW19393   3.680   6.744   1.261
 6165SOL    HW119394   3.703   6.673   1.194
 6165SOL    HW219395   3.615   6.808   1.222
 6166SOL     OW19396   3.643   0.593   0.872
 6166SOL    HW119397   3.701   0.617   0.950
 6166SOL    HW219398   3.557   0.555   0.905
 6167SOL     OW19399   0.238   5.320   3.364
 6167SOL    HW119400   0.182   5.389   3.319
 6167SOL    HW219401   0.204   5.229   3.342
 6168SOL     OW19402   6.976   2.199   1.691
 6168SOL    HW119403   6.922   2.232   1.768
 6168SOL    HW219404   6.917   2.150   1.627
 6169SOL     OW19405   2.012   4.101   1.327
 6169SOL    HW119406   2.006   4.002   1.341
 6169SOL    HW219407   1.957   4.127   1.248
 6170SOL     OW19408   5.998   2.101   3.929
 6170SOL    HW119409   6.089   2.142   3.921
 6170SOL    HW219410   5.982   2.042   3.850
 6171SOL     OW19411   6.491   2.577   6.349
 6171SOL    HW119412   6.494   2.666   6.395
 6171SOL    HW219413   6.427   2.517   6.397
 6172SOL     OW19414   0.396   4.284   3.314
 6172SOL    HW119415   0.493   4.295   3.334
 6172SOL    HW219416   0.346   4.365   3.345
 6173SOL     OW19417   5.722   5.719   2.416
 6173SOL    HW119418   5.703   5.632   2.462
 6173SOL    HW219419   5.738   5.790   2.485
 6174SOL     OW19420   0.747   1.681   3.594
 6174SOL    HW119421   0.758   1.734   3.678
 6174SOL    HW219422   0.659   1.635   3.595
 6175SOL     OW19423   4.731   1.858   6.565
 6175SOL    HW119424   4.746   1.951   6.531
 6175SOL    HW219425   4.808   1.800   6.538
 6176SOL     OW19426   2.430   5.387   6.011
 6176SOL    HW119427   2.528   5.369   6.000
 6176SOL    HW219428   2.399   5.353   6.100
 6177SOL     OW19429   6.265   5.195   1.444
 6177SOL    HW119430   6.272   5.096   1.452
 6177SOL    HW219431   6.178   5.225   1.482
 6178SOL     OW19432   4.323   4.480   1.760
 6178SOL    HW119433   4.365   4.548   1.820
 6178SOL    HW219434   4.367   4.391   1.776
 6179SOL     OW19435   4.883   5.490   4.679
 6179SOL    HW119436   4.805   5.516   4.621
 6179SOL    HW219437   4.880   5.544   4.763
 6180SOL     OW19438   1.376   3.399   6.024
 6180SOL    HW119439   1.474   3.405   6.006
 6180SOL    HW219440   1.338   3.322   5.972
 6181SOL     OW19441   0.069   6.818   6.535
 6181SOL    HW119442   0.165   6.844   6.531
 6181SOL    HW219443   0.026   6.864   6.613
 6182SOL     OW19444   2.563   2.574   5.981
 6182SOL    HW119445   2.601   2.666   5.995
 6182SOL    HW219446   2.609   2.531   5.903
 6183SOL     OW19447   0.195   0.415   1.169
 6183SOL    HW119448   0.232   0.442   1.080
 6183SOL    HW219449   0.175   0.497   1.223
 6184SOL     OW19450   3.609   6.770   5.236
 6184SOL    HW119451   3.523   6.733   5.272
 6184SOL    HW219452   3.686   6.715   5.269
 6185SOL     OW19453   3.406   2.943   3.106
 6185SOL    HW119454   3.391   2.951   3.008
 6185SOL    HW219455   3.499   2.912   3.124
 6186SOL     OW19456   0.818   1.393   2.442
 6186SOL    HW119457   0.860   1.424   2.528
 6186SOL    HW219458   0.722   1.420   2.441
 6187SOL     OW19459   3.576   2.459   6.045
 6187SOL    HW119460   3.518   2.379   6.031
 6187SOL    HW219461   3.651   2.458   5.979
 6188SOL     OW19462   0.750   1.831   5.541
 6188SOL    HW119463   0.826   1.837   5.605
 6188SOL    HW219464   0.780   1.786   5.457
 6189SOL     OW19465   6.891   5.138   0.607
 6189SOL    HW119466   6.799   5.107   0.632
 6189SOL    HW219467   6.884   5.206   0.534
 6190SOL     OW19468   1.384   2.802   3.397
 6190SOL    HW119469   1.410   2.822   3.492
 6190SOL    HW219470   1.457   2.831   3.335
 6191SOL     OW19471   2.025   5.036   6.962
 6191SOL    HW119472   2.119   5.053   6.932
 6191SOL    HW219473   1.983   4.966   6.904
 6192SOL     OW19474   2.827   1.761   0.901
 6192SOL    HW119475   2.826   1.791   0.997
 6192SOL    HW219476   2.829   1.661   0.898
 6193SOL     OW19477   4.650   5.252   0.136
 6193SOL    HW119478   4.704   5.230   0.054
 6193SOL    HW219479   4.690   5.208   0.216
 6194SOL     OW19480   5.039   6.686   6.258
 6194SOL    HW119481   5.018   6.663   6.163
 6194SOL    HW219482   5.048   6.601   6.311
 6195SOL     OW19483   5.737   5.264   5.705
 6195SOL    HW119484   5.714   5.338   5.642
 6195SOL    HW219485   5.713   5.176   5.663
 6196SOL     OW19486   6.908   3.695   3.740
 6196SOL    HW119487   6.964   3.771   3.706
 6196SOL    HW219488   6.955   3.608   3.722
 6197SOL     OW19489   0.045   5.564   1.549
 6197SOL    HW119490   0.003   5.635   1.606
 6197SOL    HW219491   0.144   5.572   1.553
 6198SOL     OW19492   6.301   2.010   5.930
 6198SOL    HW119493   6.401   2.016   5.928
 6198SOL    HW219494   6.273   1.916   5.915
 6199SOL     OW19495   2.131   0.264   6.173
 6199SOL    HW119496   2.051   0.208   6.154
 6199SOL    HW219497   2.106   0.361   6.171
 6200SOL     OW19498   1.672   6.164   6.718
 6200SOL    HW119499   1.613   6.093   6.679
 6200SOL    HW219500   1.642   6.254   6.687
 6201SOL     OW19501   1.029   4.835   3.487
 6201SOL    HW119502   1.044   4.820   3.585
 6201SOL    HW219503   1.116   4.835   3.439
 6202SOL     OW19504   5.188   1.743   1.698
 6202SOL    HW119505   5.176   1.697   1.786
 6202SOL    HW219506   5.099   1.752   1.652
 6203SOL     OW19507   0.299   0.888   2.582
 6203SOL    HW119508   0.368   0.961   2.577
 6203SOL    HW219509   0.278   0.869   2.678
 6204SOL     OW19510   1.380   5.634   4.044
 6204SOL    HW119511   1.354   5.541   4.072
 6204SOL    HW219512   1.390   5.691   4.126
 6205SOL     OW19513   0.313   4.657   3.209
 6205SOL    HW119514   0.314   4.744   3.160
 6205SOL    HW219515   0.322   4.581   3.144
 6206SOL     OW19516   5.069   2.338   3.873
 6206SOL    HW119517   5.097   2.289   3.790
 6206SOL    HW219518   5.129   2.312   3.948
 6207SOL     OW19519   1.743   6.223   3.131
 6207SOL    HW119520   1.823   6.200   3.076
 6207SOL    HW219521   1.764   6.303   3.188
 6208SOL     OW19522   3.912   4.171   6.263
 6208SOL    HW119523   3.822   4.196   6.229
 6208SOL    HW219524   3.928   4.073   6.249
 6209SOL     OW19525   3.089   0.672   2.412
 6209SOL    HW119526   3.076   0.580   2.448
 6209SOL    HW219527   3.004   0.724   2.424
 6210SOL     OW19528   5.022   6.988   4.679
 6210SOL    HW119529   5.078   6.917   4.721
 6210SOL    HW219530   4.980   6.953   4.595
 6211SOL     OW19531   4.959   2.987   5.375
 6211SOL    HW119532   4.905   2.917   5.421
 6211SOL    HW219533   4.901   3.036   5.310
 6212SOL     OW19534   4.837   3.850   4.656
 6212SOL    HW119535   4.771   3.810   4.592
 6212SOL    HW219536   4.877   3.932   4.616
 6213SOL     OW19537   4.960   6.029   0.817
 6213SOL    HW119538   5.041   5.998   0.768
 6213SOL    HW219539   4.970   6.126   0.840
 6214SOL     OW19540   7.021   6.790   5.871
 6214SOL    HW119541   0.036   6.759   5.959
 6214SOL    HW219542   6.922   6.773   5.870
 6215SOL     OW19543   5.334   3.119   5.677
 6215SOL    HW119544   5.257   3.175   5.647
 6215SOL    HW219545   5.351   3.046   5.611
 6216SOL     OW19546   5.959   2.655   6.272
 6216SOL    HW119547   6.009   2.741   6.289
 6216SOL    HW219548   5.861   2.674   6.265
 6217SOL     OW19549   0.160   3.978   2.220
 6217SOL    HW119550   0.200   4.000   2.131
 6217SOL    HW219551   0.202   4.036   2.291
 6218SOL     OW19552   4.602   6.470   1.746
 6218SOL    HW119553   4.551   6.459   1.831
 6218SOL    HW219554   4.597   6.385   1.693
 6219SOL     OW19555   2.072   0.451   0.242
 6219SOL    HW119556   2.076   0.484   0.336
 6219SOL    HW219557   2.132   0.505   0.185
 6220SOL     OW19558   2.149   0.730   2.534
 6220SOL    HW119559   2.177   0.656   2.473
 6220SOL    HW219560   2.221   0.799   2.539
 6221SOL     OW19561   4.138   5.179   5.731
 6221SOL    HW119562   4.050   5.207   5.770
 6221SOL    HW219563   4.121   5.123   5.649
 6222SOL     OW19564   0.892   1.168   1.542
 6222SOL    HW119565   0.906   1.144   1.446
 6222SOL    HW219566   0.794   1.164   1.563
 6223SOL     OW19567   6.648   5.077   3.561
 6223SOL    HW119568   6.572   5.028   3.604
 6223SOL    HW219569   6.612   5.150   3.503
 6224SOL     OW19570   4.022   0.092   0.743
 6224SOL    HW119571   4.068   0.163   0.797
 6224SOL    HW219572   3.997   0.015   0.803
 6225SOL     OW19573   5.906   4.534   6.226
 6225SOL    HW119574   5.829   4.469   6.223
 6225SOL    HW219575   5.890   4.606   6.158
 6226SOL     OW19576   1.583   1.242   3.137
 6226SOL    HW119577   1.528   1.275   3.213
 6226SOL    HW219578   1.527   1.234   3.055
 6227SOL     OW19579   1.311   4.541   6.180
 6227SOL    HW119580   1.371   4.465   6.205
 6227SOL    HW219581   1.356   4.599   6.112
 6228SOL     OW19582   1.078   3.801   3.840
 6228SOL    HW119583   1.171   3.822   3.869
 6228SOL    HW219584   1.078   3.718   3.785
 6229SOL     OW19585   0.505   5.093   4.115
 6229SOL    HW119586   0.499   5.172   4.054
 6229SOL    HW219587   0.425   5.035   4.103
 6230SOL     OW19588   1.536   1.016   0.505
 6230SOL    HW119589   1.471   1.073   0.455
 6230SOL    HW219590   1.558   1.059   0.593
 6231SOL     OW19591   1.576   5.376   5.927
 6231SOL    HW119592   1.521   5.321   5.864
 6231SOL    HW219593   1.567   5.339   6.020
 6232SOL     OW19594   3.625   0.695   6.132
 6232SOL    HW119595   3.722   0.698   6.157
 6232SOL    HW219596   3.575   0.639   6.197
 6233SOL     OW19597   6.794   4.272   1.342
 6233SOL    HW119598   6.731   4.203   1.305
 6233SOL    HW219599   6.781   4.358   1.293
 6234SOL     OW19600   4.822   4.821   2.847
 6234SOL    HW119601   4.915   4.786   2.859
 6234SOL    HW219602   4.799   4.882   2.923
 6235SOL     OW19603   0.788   1.366   0.886
 6235SOL    HW119604   0.879   1.382   0.850
 6235SOL    HW219605   0.757   1.274   0.859
 6236SOL     OW19606   5.986   6.259   1.586
 6236SOL    HW119607   6.065   6.217   1.543
 6236SOL    HW219608   6.017   6.329   1.651
 6237SOL     OW19609   4.008   0.773   3.661
 6237SOL    HW119610   4.062   0.773   3.577
 6237SOL    HW219611   4.068   0.790   3.739
 6238SOL     OW19612   2.422   6.059   3.097
 6238SOL    HW119613   2.487   6.106   3.037
 6238SOL    HW219614   2.367   6.126   3.146
 6239SOL     OW19615   4.672   1.201   4.137
 6239SOL    HW119616   4.671   1.102   4.128
 6239SOL    HW219617   4.647   1.227   4.230
 6240SOL     OW19618   3.966   3.938   4.027
 6240SOL    HW119619   3.990   3.843   4.043
 6240SOL    HW219620   4.047   3.996   4.042
 6241SOL     OW19621   3.892   0.885   2.954
 6241SOL    HW119622   3.946   0.879   2.870
 6241SOL    HW219623   3.848   0.975   2.958
 6242SOL     OW19624   3.285   1.811   4.226
 6242SOL    HW119625   3.304   1.899   4.182
 6242SOL    HW219626   3.370   1.761   4.238
 6243SOL     OW19627   3.466   0.850   0.183
 6243SOL    HW119628   3.557   0.812   0.196
 6243SOL    HW219629   3.458   0.936   0.232
 6244SOL     OW19630   5.310   2.463   1.667
 6244SOL    HW119631   5.384   2.507   1.617
 6244SOL    HW219632   5.223   2.504   1.640
 6245SOL     OW19633   6.979   5.027   1.524
 6245SOL    HW119634   6.939   5.008   1.614
 6245SOL    HW219635   0.011   4.949   1.494
 6246SOL     OW19636   1.120   6.211   5.006
 6246SOL    HW119637   1.109   6.277   5.080
 6246SOL    HW219638   1.162   6.256   4.927
 6247SOL     OW19639   5.522   4.537   2.163
 6247SOL    HW119640   5.424   4.557   2.167
 6247SOL    HW219641   5.547   4.478   2.239
 6248SOL     OW19642   4.976   2.429   5.582
 6248SOL    HW119643   5.051   2.456   5.521
 6248SOL    HW219644   4.980   2.331   5.599
 6249SOL     OW19645   5.701   2.219   3.440
 6249SOL    HW119646   5.648   2.158   3.499
 6249SOL    HW219647   5.696   2.312   3.475
 6250SOL     OW19648   4.896   6.765   5.614
 6250SOL    HW119649   4.888   6.670   5.582
 6250SOL    HW219650   4.980   6.805   5.579
 6251SOL     OW19651   3.057   1.126   4.112
 6251SOL    HW119652   3.127   1.136   4.041
 6251SOL    HW219653   2.994   1.053   4.087
 6252SOL     OW19654   1.962   4.573   0.070
 6252SOL    HW119655   1.893   4.502   0.080
 6252SOL    HW219656   2.002   4.568   7.001
 6253SOL     OW19657   4.836   5.989   4.139
 6253SOL    HW119658   4.854   5.978   4.237
 6253SOL    HW219659   4.748   5.948   4.116
 6254SOL     OW19660   6.446   6.906   1.908
 6254SOL    HW119661   6.422   6.857   1.824
 6254SOL    HW219662   6.374   6.972   1.929
 6255SOL     OW19663   3.135   6.760   0.993
 6255SOL    HW119664   3.049   6.719   0.962
 6255SOL    HW219665   3.195   6.775   0.914
 6256SOL     OW19666   6.975   3.959   2.026
 6256SOL    HW119667   6.979   4.031   1.956
 6256SOL    HW219668   7.002   3.996   2.114
 6257SOL     OW19669   4.007   4.112   0.420
 6257SOL    HW119670   3.940   4.127   0.348
 6257SOL    HW219671   4.019   4.196   0.472
 6258SOL     OW19672   4.276   5.305   4.545
 6258SOL    HW119673   4.193   5.263   4.582
 6258SOL    HW219674   4.321   5.358   4.618
 6259SOL     OW19675   5.124   6.567   4.452
 6259SOL    HW119676   5.200   6.505   4.432
 6259SOL    HW219677   5.063   6.573   4.372
 6260SOL     OW19678   3.451   2.388   0.322
 6260SOL    HW119679   3.417   2.459   0.384
 6260SOL    HW219680   3.412   2.401   0.231
 6261SOL     OW19681   4.418   6.099   1.219
 6261SOL    HW119682   4.408   6.087   1.318
 6261SOL    HW219683   4.371   6.182   1.190
 6262SOL     OW19684   5.734   1.549   3.677
 6262SOL    HW119685   5.801   1.590   3.615
 6262SOL    HW219686   5.780   1.485   3.739
 6263SOL     OW19687   7.015   6.433   5.986
 6263SOL    HW119688   6.991   6.477   6.072
 6263SOL    HW219689   0.074   6.477   5.947
 6264SOL     OW19690   1.021   6.583   0.503
 6264SOL    HW119691   0.973   6.646   0.441
 6264SOL    HW219692   1.107   6.626   0.533
 6265SOL     OW19693   3.969   6.482   6.743
 6265SOL    HW119694   4.062   6.482   6.708
 6265SOL    HW219695   3.905   6.481   6.665
 6266SOL     OW19696   2.530   5.033   3.854
 6266SOL    HW119697   2.445   5.029   3.906
 6266SOL    HW219698   2.608   5.033   3.917
 6267SOL     OW19699   6.855   6.744   4.776
 6267SOL    HW119700   6.759   6.730   4.755
 6267SOL    HW219701   6.865   6.773   4.871
 6268SOL     OW19702   2.831   2.623   0.906
 6268SOL    HW119703   2.758   2.677   0.948
 6268SOL    HW219704   2.840   2.536   0.953
 6269SOL     OW19705   0.817   5.446   0.777
 6269SOL    HW119706   0.750   5.492   0.835
 6269SOL    HW219707   0.875   5.514   0.732
 6270SOL     OW19708   2.079   5.806   0.898
 6270SOL    HW119709   1.990   5.821   0.942
 6270SOL    HW219710   2.099   5.883   0.837
 6271SOL     OW19711   6.781   3.031   4.977
 6271SOL    HW119712   6.733   3.002   5.061
 6271SOL    HW219713   6.717   3.029   4.900
 6272SOL     OW19714   6.600   0.850   0.559
 6272SOL    HW119715   6.587   0.796   0.476
 6272SOL    HW219716   6.563   0.799   0.637
 6273SOL     OW19717   0.891   6.486   3.117
 6273SOL    HW119718   0.974   6.472   3.063
 6273SOL    HW219719   0.916   6.529   3.204
 6274SOL     OW19720   3.291   5.888   4.300
 6274SOL    HW119721   3.370   5.936   4.338
 6274SOL    HW219722   3.207   5.937   4.325
 6275SOL     OW19723   3.059   5.423   1.309
 6275SOL    HW119724   3.060   5.349   1.376
 6275SOL    HW219725   3.071   5.510   1.357
 6276SOL     OW19726   2.076   4.417   2.739
 6276SOL    HW119727   2.148   4.354   2.709
 6276SOL    HW219728   2.117   4.492   2.791
 6277SOL     OW19729   5.796   1.712   1.366
 6277SOL    HW119730   5.730   1.674   1.300
 6277SOL    HW219731   5.755   1.712   1.457
 6278SOL     OW19732   4.096   2.870   0.182
 6278SOL    HW119733   4.054   2.926   0.110
 6278SOL    HW219734   4.184   2.836   0.151
 6279SOL     OW19735   1.035   5.956   1.601
 6279SOL    HW119736   0.959   5.892   1.610
 6279SOL    HW219737   1.020   6.013   1.520
 6280SOL     OW19738   4.867   0.925   6.682
 6280SOL    HW119739   4.926   0.998   6.717
 6280SOL    HW219740   4.772   0.945   6.704
 6281SOL     OW19741   5.838   3.867   6.027
 6281SOL    HW119742   5.857   3.775   6.062
 6281SOL    HW219743   5.873   3.874   5.933
 6282SOL     OW19744   6.605   4.834   6.200
 6282SOL    HW119745   6.629   4.894   6.124
 6282SOL    HW219746   6.506   4.830   6.210
 6283SOL     OW19747   3.230   6.523   4.512
 6283SOL    HW119748   3.204   6.445   4.569
 6283SOL    HW219749   3.314   6.501   4.462
 6284SOL     OW19750   2.279   4.654   5.872
 6284SOL    HW119751   2.319   4.739   5.838
 6284SOL    HW219752   2.309   4.578   5.816
 6285SOL     OW19753   1.597   4.912   4.205
 6285SOL    HW119754   1.606   4.940   4.109
 6285SOL    HW219755   1.685   4.879   4.238
 6286SOL     OW19756   0.680   3.679   6.695
 6286SOL    HW119757   0.762   3.651   6.647
 6286SOL    HW219758   0.615   3.718   6.630
 6287SOL     OW19759   3.744   5.436   4.733
 6287SOL    HW119760   3.657   5.478   4.759
 6287SOL    HW219761   3.817   5.503   4.739
 6288SOL     OW19762   2.770   4.110   5.751
 6288SOL    HW119763   2.724   4.162   5.823
 6288SOL    HW219764   2.813   4.029   5.792
 6289SOL     OW19765   2.714   5.391   5.627
 6289SOL    HW119766   2.802   5.348   5.607
 6289SOL    HW219767   2.649   5.368   5.555
 6290SOL     OW19768   6.356   0.642   3.199
 6290SOL    HW119769   6.380   0.549   3.225
 6290SOL    HW219770   6.409   0.707   3.253
 6291SOL     OW19771   2.806   3.352   1.961
 6291SOL    HW119772   2.799   3.322   2.056
 6291SOL    HW219773   2.895   3.394   1.946
 6292SOL     OW19774   0.612   4.007   4.667
 6292SOL    HW119775   0.657   3.979   4.752
 6292SOL    HW219776   0.513   3.997   4.677
 6293SOL     OW19777   3.292   2.106   0.719
 6293SOL    HW119778   3.237   2.030   0.683
 6293SOL    HW219779   3.238   2.190   0.716
 6294SOL     OW19780   0.532   0.818   2.040
 6294SOL    HW119781   0.489   0.856   2.121
 6294SOL    HW219782   0.581   0.734   2.064
 6295SOL     OW19783   4.748   3.152   5.585
 6295SOL    HW119784   4.744   3.174   5.487
 6295SOL    HW219785   4.831   3.191   5.625
 6296SOL     OW19786   6.658   2.008   0.419
 6296SOL    HW119787   6.752   2.040   0.411
 6296SOL    HW219788   6.596   2.087   0.417
 6297SOL     OW19789   0.814   1.586   5.006
 6297SOL    HW119790   0.744   1.595   4.935
 6297SOL    HW219791   0.852   1.676   5.027
 6298SOL     OW19792   0.284   1.408   5.796
 6298SOL    HW119793   0.347   1.343   5.755
 6298SOL    HW219794   0.335   1.475   5.850
 6299SOL     OW19795   3.636   1.589   3.564
 6299SOL    HW119796   3.547   1.553   3.589
 6299SOL    HW219797   3.645   1.588   3.464
 6300SOL     OW19798   2.695   1.860   0.701
 6300SOL    HW119799   2.609   1.880   0.747
 6300SOL    HW219800   2.761   1.824   0.768
 6301SOL     OW19801   4.482   5.592   1.053
 6301SOL    HW119802   4.449   5.683   1.077
 6301SOL    HW219803   4.444   5.525   1.117
 6302SOL     OW19804   1.793   3.537   0.693
 6302SOL    HW119805   1.758   3.586   0.772
 6302SOL    HW219806   1.828   3.602   0.626
 6303SOL     OW19807   6.466   4.590   5.586
 6303SOL    HW119808   6.516   4.611   5.501
 6303SOL    HW219809   6.391   4.655   5.597
 6304SOL     OW19810   2.060   2.664   4.805
 6304SOL    HW119811   2.034   2.573   4.837
 6304SOL    HW219812   2.148   2.689   4.847
 6305SOL     OW19813   1.530   6.335   4.877
 6305SOL    HW119814   1.532   6.344   4.976
 6305SOL    HW219815   1.593   6.401   4.836
 6306SOL     OW19816   2.210   4.683   4.260
 6306SOL    HW119817   2.141   4.684   4.332
 6306SOL    HW219818   2.197   4.602   4.202
 6307SOL     OW19819   3.920   3.184   2.439
 6307SOL    HW119820   3.959   3.141   2.358
 6307SOL    HW219821   3.908   3.282   2.422
 6308SOL     OW19822   1.401   0.844   1.314
 6308SOL    HW119823   1.378   0.841   1.411
 6308SOL    HW219824   1.427   0.753   1.283
 6309SOL     OW19825   1.955   5.949   4.687
 6309SOL    HW119826   1.872   5.899   4.662
 6309SOL    HW219827   1.942   6.046   4.668
 6310SOL     OW19828   0.908   6.647   2.638
 6310SOL    HW119829   1.006   6.657   2.654
 6310SOL    HW219830   0.892   6.618   2.544
 6311SOL     OW19831   5.137   0.758   6.037
 6311SOL    HW119832   5.215   0.713   5.993
 6311SOL    HW219833   5.082   0.805   5.968
 6312SOL     OW19834   4.045   5.203   1.279
 6312SOL    HW119835   3.954   5.231   1.248
 6312SOL    HW219836   4.050   5.212   1.378
 6313SOL     OW19837   5.857   5.779   2.927
 6313SOL    HW119838   5.877   5.807   2.833
 6313SOL    HW219839   5.758   5.781   2.942
 6314SOL     OW19840   2.237   5.150   2.658
 6314SOL    HW119841   2.292   5.084   2.709
 6314SOL    HW219842   2.297   5.223   2.625
 6315SOL     OW19843   1.969   2.907   4.164
 6315SOL    HW119844   1.886   2.884   4.114
 6315SOL    HW219845   2.002   2.826   4.212
 6316SOL     OW19846   4.437   0.526   5.636
 6316SOL    HW119847   4.412   0.573   5.720
 6316SOL    HW219848   4.420   0.586   5.558
 6317SOL     OW19849   4.847   4.541   3.498
 6317SOL    HW119850   4.822   4.475   3.427
 6317SOL    HW219851   4.935   4.515   3.538
 6318SOL     OW19852   5.985   5.930   0.325
 6318SOL    HW119853   5.988   6.025   0.295
 6318SOL    HW219854   5.960   5.926   0.422
 6319SOL     OW19855   5.451   1.815   3.851
 6319SOL    HW119856   5.406   1.800   3.763
 6319SOL    HW219857   5.475   1.727   3.892
 6320SOL     OW19858   6.054   2.916   6.309
 6320SOL    HW119859   6.084   2.893   6.401
 6320SOL    HW219860   6.022   3.011   6.307
 6321SOL     OW19861   0.198   2.846   6.645
 6321SOL    HW119862   0.208   2.768   6.707
 6321SOL    HW219863   0.188   2.813   6.551
 6322SOL     OW19864   2.353   0.714   2.300
 6322SOL    HW119865   2.277   0.649   2.311
 6322SOL    HW219866   2.371   0.760   2.386
 6323SOL     OW19867   1.449   5.899   0.972
 6323SOL    HW119868   1.511   5.890   0.894
 6323SOL    HW219869   1.456   5.817   1.030
 6324SOL     OW19870   5.627   4.393   2.410
 6324SOL    HW119871   5.602   4.323   2.477
 6324SOL    HW219872   5.726   4.391   2.395
 6325SOL     OW19873   0.634   3.240   3.905
 6325SOL    HW119874   0.640   3.217   4.002
 6325SOL    HW219875   0.557   3.192   3.864
 6326SOL     OW19876   5.686   5.542   4.658
 6326SOL    HW119877   5.626   5.607   4.611
 6326SOL    HW219878   5.720   5.475   4.593
 6327SOL     OW19879   0.749   0.796   2.239
 6327SOL    HW119880   0.812   0.827   2.168
 6327SOL    HW219881   0.682   0.867   2.258
 6328SOL     OW19882   4.084   3.756   4.721
 6328SOL    HW119883   4.145   3.817   4.671
 6328SOL    HW219884   3.993   3.756   4.679
 6329SOL     OW19885   0.082   3.006   4.380
 6329SOL    HW119886   0.012   2.985   4.313
 6329SOL    HW219887   0.157   2.940   4.373
 6330SOL     OW19888   4.437   1.404   3.033
 6330SOL    HW119889   4.436   1.304   3.039
 6330SOL    HW219890   4.471   1.432   2.943
 6331SOL     OW19891   1.521   2.681   3.913
 6331SOL    HW119892   1.529   2.582   3.904
 6331SOL    HW219893   1.448   2.703   3.978
 6332SOL     OW19894   4.641   1.466   0.544
 6332SOL    HW119895   4.625   1.511   0.632
 6332SOL    HW219896   4.603   1.521   0.471
 6333SOL     OW19897   6.467   2.023   6.939
 6333SOL    HW119898   6.447   1.992   6.846
 6333SOL    HW219899   6.393   1.995   6.999
 6334SOL     OW19900   2.691   1.237   2.538
 6334SOL    HW119901   2.771   1.232   2.599
 6334SOL    HW219902   2.692   1.324   2.490
 6335SOL     OW19903   6.022   2.023   5.439
 6335SOL    HW119904   6.075   1.940   5.457
 6335SOL    HW219905   5.927   2.008   5.466
 6336SOL     OW19906   0.673   5.619   5.873
 6336SOL    HW119907   0.581   5.654   5.889
 6336SOL    HW219908   0.668   5.540   5.812
 6337SOL     OW19909   6.251   0.505   6.091
 6337SOL    HW119910   6.335   0.474   6.046
 6337SOL    HW219911   6.273   0.579   6.155
 6338SOL     OW19912   1.293   1.076   2.061
 6338SOL    HW119913   1.369   1.011   2.055
 6338SOL    HW219914   1.318   1.151   2.123
 6339SOL     OW19915   6.922   4.751   3.328
 6339SOL    HW119916   6.921   4.739   3.229
 6339SOL    HW219917   7.016   4.745   3.362
 6340SOL     OW19918   2.685   5.373   6.609
 6340SOL    HW119919   2.760   5.323   6.567
 6340SOL    HW219920   2.678   5.464   6.569
 6341SOL     OW19921   1.103   4.249   3.174
 6341SOL    HW119922   1.018   4.197   3.174
 6341SOL    HW219923   1.141   4.252   3.267
 6342SOL     OW19924   2.815   6.695   1.008
 6342SOL    HW119925   2.839   6.791   0.992
 6342SOL    HW219926   2.794   6.652   0.920
 6343SOL     OW19927   1.782   3.630   0.005
 6343SOL    HW119928   1.861   3.584   0.045
 6343SOL    HW219929   1.809   3.721   6.995
 6344SOL     OW19930   2.387   0.541   3.927
 6344SOL    HW119931   2.302   0.494   3.901
 6344SOL    HW219932   2.383   0.565   4.024
 6345SOL     OW19933   6.837   3.590   4.360
 6345SOL    HW119934   6.852   3.651   4.438
 6345SOL    HW219935   6.821   3.645   4.278
 6346SOL     OW19936   0.696   4.310   4.292
 6346SOL    HW119937   0.629   4.359   4.348
 6346SOL    HW219938   0.740   4.239   4.347
 6347SOL     OW19939   1.554   1.513   2.241
 6347SOL    HW119940   1.645   1.519   2.201
 6347SOL    HW219941   1.561   1.498   2.339
 6348SOL     OW19942   1.011   2.468   0.101
 6348SOL    HW119943   0.948   2.494   0.027
 6348SOL    HW219944   1.100   2.509   0.085
 6349SOL     OW19945   6.177   0.929   0.525
 6349SOL    HW119946   6.121   0.872   0.465
 6349SOL    HW219947   6.151   0.913   0.620
 6350SOL     OW19948   6.415   0.461   1.773
 6350SOL    HW119949   6.454   0.552   1.766
 6350SOL    HW219950   6.339   0.452   1.709
 6351SOL     OW19951   6.656   1.915   2.463
 6351SOL    HW119952   6.750   1.890   2.485
 6351SOL    HW219953   6.648   2.015   2.460
 6352SOL     OW19954   3.537   0.459   4.877
 6352SOL    HW119955   3.590   0.377   4.898
 6352SOL    HW219956   3.440   0.435   4.867
 6353SOL     OW19957   3.870   6.414   5.588
 6353SOL    HW119958   3.929   6.345   5.629
 6353SOL    HW219959   3.914   6.503   5.593
 6354SOL     OW19960   6.444   5.069   3.334
 6354SOL    HW119961   6.452   5.154   3.386
 6354SOL    HW219962   6.388   5.004   3.385
 6355SOL     OW19963   4.384   6.308   0.453
 6355SOL    HW119964   4.310   6.253   0.414
 6355SOL    HW219965   4.418   6.265   0.536
 6356SOL     OW19966   0.003   0.017   6.333
 6356SOL    HW119967   0.007   6.972   6.407
 6356SOL    HW219968   0.024   6.996   6.246
 6357SOL     OW19969   4.874   1.846   3.567
 6357SOL    HW119970   4.946   1.808   3.510
 6357SOL    HW219971   4.814   1.904   3.511
 6358SOL     OW19972   1.701   0.808   4.481
 6358SOL    HW119973   1.671   0.817   4.386
 6358SOL    HW219974   1.697   0.712   4.507
 6359SOL     OW19975   6.753   4.527   1.147
 6359SOL    HW119976   6.658   4.537   1.118
 6359SOL    HW219977   6.814   4.540   1.068
 6360SOL     OW19978   3.027   2.910   0.520
 6360SOL    HW119979   2.981   2.976   0.579
 6360SOL    HW219980   2.992   2.919   0.427
 6361SOL     OW19981   0.601   1.878   2.964
 6361SOL    HW119982   0.669   1.819   3.008
 6361SOL    HW219983   0.521   1.888   3.024
 6362SOL     OW19984   2.121   4.777   0.187
 6362SOL    HW119985   2.111   4.702   0.122
 6362SOL    HW219986   2.053   4.848   0.167
 6363SOL     OW19987   0.744   1.735   1.552
 6363SOL    HW119988   0.736   1.806   1.482
 6363SOL    HW219989   0.758   1.777   1.641
 6364SOL     OW19990   2.931   1.916   3.413
 6364SOL    HW119991   2.886   1.838   3.371
 6364SOL    HW219992   2.868   1.962   3.476
 6365SOL     OW19993   5.895   6.811   2.009
 6365SOL    HW119994   5.993   6.814   2.029
 6365SOL    HW219995   5.881   6.782   1.915
 6366SOL     OW19996   6.566   1.654   5.500
 6366SOL    HW119997   6.523   1.576   5.456
 6366SOL    HW219998   6.638   1.622   5.562
 6367SOL     OW19999   1.801   3.410   4.495
 6367SOL    HW120000   1.891   3.373   4.516
 6367SOL    HW220001   1.781   3.398   4.398
 6368SOL     OW20002   5.574   3.324   5.175
 6368SOL    HW120003   5.526   3.274   5.248
 6368SOL    HW220004   5.672   3.309   5.184
 6369SOL     OW20005   3.112   4.260   0.746
 6369SOL    HW120006   3.170   4.216   0.814
 6369SOL    HW220007   3.160   4.264   0.658
 6370SOL     OW20008   6.159   3.312   4.798
 6370SOL    HW120009   6.132   3.243   4.731
 6370SOL    HW220010   6.253   3.294   4.828
 6371SOL     OW20011   6.291   4.300   1.553
 6371SOL    HW120012   6.317   4.207   1.581
 6371SOL    HW220013   6.361   4.365   1.584
 6372SOL     OW20014   5.730   1.561   1.959
 6372SOL    HW120015   5.756   1.544   1.864
 6372SOL    HW220016   5.736   1.476   2.011
 6373SOL     OW20017   5.722   1.729   1.633
 6373SOL    HW120018   5.720   1.787   1.715
 6373SOL    HW220019   5.779   1.649   1.650
 6374SOL     OW20020   3.742   3.402   6.204
 6374SOL    HW120021   3.770   3.376   6.111
 6374SOL    HW220022   3.785   3.340   6.270
 6375SOL     OW20023   5.161   1.513   2.344
 6375SOL    HW120024   5.146   1.591   2.283
 6375SOL    HW220025   5.080   1.453   2.342
 6376SOL     OW20026   3.635   6.580   0.055
 6376SOL    HW120027   3.638   6.642   0.133
 6376SOL    HW220028   3.595   6.493   0.082
 6377SOL     OW20029   0.186   2.191   0.316
 6377SOL    HW120030   0.223   2.106   0.354
 6377SOL    HW220031   0.204   2.194   0.218
 6378SOL     OW20032   6.238   4.001   2.297
 6378SOL    HW120033   6.213   4.098   2.294
 6378SOL    HW220034   6.263   3.976   2.391
 6379SOL     OW20035   2.337   4.609   6.701
 6379SOL    HW120036   2.343   4.537   6.631
 6379SOL    HW220037   2.260   4.590   6.761
 6380SOL     OW20038   2.396   2.669   4.085
 6380SOL    HW120039   2.463   2.598   4.065
 6380SOL    HW220040   2.341   2.687   4.003
 6381SOL     OW20041   3.656   4.744   0.356
 6381SOL    HW120042   3.657   4.820   0.420
 6381SOL    HW220043   3.682   4.776   0.265
 6382SOL     OW20044   2.142   0.916   0.798
 6382SOL    HW120045   2.165   0.911   0.701
 6382SOL    HW220046   2.219   0.956   0.849
 6383SOL     OW20047   3.148   1.469   1.975
 6383SOL    HW120048   3.174   1.544   2.037
 6383SOL    HW220049   3.058   1.488   1.937
 6384SOL     OW20050   0.729   1.340   2.036
 6384SOL    HW120051   0.648   1.394   2.058
 6384SOL    HW220052   0.730   1.320   1.938
 6385SOL     OW20053   0.201   3.578   1.809
 6385SOL    HW120054   0.157   3.489   1.797
 6385SOL    HW220055   0.157   3.627   1.884
 6386SOL     OW20056   2.887   5.062   1.372
 6386SOL    HW120057   2.867   4.965   1.362
 6386SOL    HW220058   2.940   5.094   1.292
 6387SOL     OW20059   6.285   1.586   6.085
 6387SOL    HW120060   6.338   1.519   6.032
 6387SOL    HW220061   6.348   1.650   6.129
 6388SOL     OW20062   6.762   4.790   1.876
 6388SOL    HW120063   6.781   4.873   1.824
 6388SOL    HW220064   6.665   4.789   1.903
 6389SOL     OW20065   0.048   0.618   0.728
 6389SOL    HW120066   0.001   0.678   0.663
 6389SOL    HW220067   0.012   0.633   0.820
 6390SOL     OW20068   4.250   5.741   0.756
 6390SOL    HW120069   4.212   5.711   0.843
 6390SOL    HW220070   4.341   5.781   0.771
 6391SOL     OW20071   1.089   1.779   4.762
 6391SOL    HW120072   1.116   1.688   4.730
 6391SOL    HW220073   1.011   1.812   4.708
 6392SOL     OW20074   4.271   6.682   2.981
 6392SOL    HW120075   4.173   6.689   2.962
 6392SOL    HW220076   4.285   6.669   3.079
 6393SOL     OW20077   1.986   3.927   0.229
 6393SOL    HW120078   1.958   3.960   0.139
 6393SOL    HW220079   2.086   3.917   0.231
 6394SOL     OW20080   1.613   4.942   1.886
 6394SOL    HW120081   1.568   4.985   1.808
 6394SOL    HW220082   1.685   5.002   1.920
 6395SOL     OW20083   0.787   3.300   4.989
 6395SOL    HW120084   0.846   3.255   4.921
 6395SOL    HW220085   0.742   3.378   4.945
 6396SOL     OW20086   1.079   3.479   3.892
 6396SOL    HW120087   0.986   3.474   3.929
 6396SOL    HW220088   1.141   3.515   3.962
 6397SOL     OW20089   1.143   3.776   4.823
 6397SOL    HW120090   1.240   3.787   4.841
 6397SOL    HW220091   1.121   3.811   4.732
 6398SOL     OW20092   6.898   0.390   2.128
 6398SOL    HW120093   6.929   0.327   2.056
 6398SOL    HW220094   6.949   0.476   2.121
 6399SOL     OW20095   2.236   6.763   6.181
 6399SOL    HW120096   2.156   6.707   6.158
 6399SOL    HW220097   2.276   6.800   6.097
 6400SOL     OW20098   2.096   0.170   2.279
 6400SOL    HW120099   2.172   0.148   2.340
 6400SOL    HW220100   2.018   0.201   2.333
 6401SOL     OW20101   4.088   4.502   0.874
 6401SOL    HW120102   4.093   4.546   0.963
 6401SOL    HW220103   4.142   4.418   0.875
 6402SOL     OW20104   3.486   3.374   6.913
 6402SOL    HW120105   3.536   3.460   6.924
 6402SOL    HW220106   3.391   3.387   6.943
 6403SOL     OW20107   3.173   5.462   6.232
 6403SOL    HW120108   3.260   5.512   6.234
 6403SOL    HW220109   3.180   5.382   6.291
 6404SOL     OW20110   5.334   6.596   6.794
 6404SOL    HW120111   5.338   6.680   6.741
 6404SOL    HW220112   5.267   6.605   6.867
 6405SOL     OW20113   4.124   1.086   3.543
 6405SOL    HW120114   4.158   1.159   3.484
 6405SOL    HW220115   4.111   1.121   3.635
 6406SOL     OW20116   0.116   3.319   1.702
 6406SOL    HW120117   0.194   3.270   1.664
 6406SOL    HW220118   0.048   3.334   1.630
 6407SOL     OW20119   1.205   0.013   2.914
 6407SOL    HW120120   1.254   6.993   2.837
 6407SOL    HW220121   1.206   6.973   2.992
 6408SOL     OW20122   0.998   0.195   2.859
 6408SOL    HW120123   1.087   0.150   2.849
 6408SOL    HW220124   0.926   0.133   2.828
 6409SOL     OW20125   6.502   4.590   3.615
 6409SOL    HW120126   6.582   4.530   3.627
 6409SOL    HW220127   6.506   4.631   3.524
 6410SOL     OW20128   2.517   0.496   6.988
 6410SOL    HW120129   2.574   0.578   6.982
 6410SOL    HW220130   2.431   0.518   0.011
 6411SOL     OW20131   1.811   1.576   4.290
 6411SOL    HW120132   1.834   1.611   4.199
 6411SOL    HW220133   1.712   1.574   4.302
 6412SOL     OW20134   5.071   0.801   0.112
 6412SOL    HW120135   5.015   0.794   0.194
 6412SOL    HW220136   5.147   0.736   0.117
 6413SOL     OW20137   4.695   6.370   3.359
 6413SOL    HW120138   4.697   6.468   3.374
 6413SOL    HW220139   4.789   6.335   3.358
 6414SOL     OW20140   3.367   6.981   0.018
 6414SOL    HW120141   3.378   6.885   0.044
 6414SOL    HW220142   3.275   7.011   0.040
 6415SOL     OW20143   0.565   2.033   3.773
 6415SOL    HW120144   0.560   2.064   3.868
 6415SOL    HW220145   0.488   1.973   3.753
 6416SOL     OW20146   2.549   4.015   0.388
 6416SOL    HW120147   2.503   3.939   0.434
 6416SOL    HW220148   2.607   4.063   0.453
 6417SOL     OW20149   4.460   3.078   5.312
 6417SOL    HW120150   4.418   3.110   5.397
 6417SOL    HW220151   4.551   3.117   5.303
 6418SOL     OW20152   4.468   5.670   0.007
 6418SOL    HW120153   4.389   5.719   0.043
 6418SOL    HW220154   4.512   5.725   6.958
 6419SOL     OW20155   1.402   6.780   6.760
 6419SOL    HW120156   1.408   6.812   6.666
 6419SOL    HW220157   1.479   6.816   6.813
 6420SOL     OW20158   3.055   5.109   3.465
 6420SOL    HW120159   3.145   5.089   3.505
 6420SOL    HW220160   3.021   5.029   3.417
 6421SOL     OW20161   4.434   6.671   2.055
 6421SOL    HW120162   4.504   6.733   2.089
 6421SOL    HW220163   4.380   6.716   1.985
 6422SOL     OW20164   1.484   1.156   5.358
 6422SOL    HW120165   1.462   1.252   5.380
 6422SOL    HW220166   1.568   1.153   5.305
 6423SOL     OW20167   0.625   3.380   3.669
 6423SOL    HW120168   0.601   3.475   3.689
 6423SOL    HW220169   0.618   3.326   3.753
 6424SOL     OW20170   5.945   4.259   5.860
 6424SOL    HW120171   5.986   4.201   5.930
 6424SOL    HW220172   5.853   4.226   5.839
 6425SOL     OW20173   0.920   6.941   4.203
 6425SOL    HW120174   0.865   7.012   4.159
 6425SOL    HW220175   0.878   6.852   4.186
 6426SOL     OW20176   3.791   5.391   4.047
 6426SOL    HW120177   3.819   5.305   4.089
 6426SOL    HW220178   3.799   5.465   4.114
 6427SOL     OW20179   2.928   3.583   2.794
 6427SOL    HW120180   2.930   3.584   2.694
 6427SOL    HW220181   3.008   3.534   2.828
 6428SOL     OW20182   6.986   4.170   6.246
 6428SOL    HW120183   6.939   4.083   6.266
 6428SOL    HW220184   6.953   4.206   6.160
 6429SOL     OW20185   2.963   1.572   4.302
 6429SOL    HW120186   2.900   1.514   4.251
 6429SOL    HW220187   2.913   1.649   4.341
 6430SOL     OW20188   6.406   1.089   4.257
 6430SOL    HW120189   6.473   1.107   4.185
 6430SOL    HW220190   6.384   1.175   4.303
 6431SOL     OW20191   3.665   4.962   2.945
 6431SOL    HW120192   3.705   4.921   3.027
 6431SOL    HW220193   3.568   4.977   2.959
 6432SOL     OW20194   3.457   3.831   0.173
 6432SOL    HW120195   3.538   3.780   0.200
 6432SOL    HW220196   3.485   3.917   0.129
 6433SOL     OW20197   3.680   5.686   6.434
 6433SOL    HW120198   3.595   5.738   6.433
 6433SOL    HW220199   3.669   5.604   6.489
 6434SOL     OW20200   6.631   5.169   6.708
 6434SOL    HW120201   6.631   5.128   6.799
 6434SOL    HW220202   6.719   5.211   6.690
 6435SOL     OW20203   4.249   0.636   0.892
 6435SOL    HW120204   4.255   0.628   0.792
 6435SOL    HW220205   4.176   0.700   0.916
 6436SOL     OW20206   1.341   1.641   3.636
 6436SOL    HW120207   1.252   1.652   3.593
 6436SOL    HW220208   1.358   1.544   3.653
 6437SOL     OW20209   1.121   3.044   0.134
 6437SOL    HW120210   1.080   3.128   0.168
 6437SOL    HW220211   1.050   2.985   0.095
 6438SOL     OW20212   1.420   5.435   1.892
 6438SOL    HW120213   1.341   5.416   1.950
 6438SOL    HW220214   1.410   5.388   1.805
 6439SOL     OW20215   4.184   6.002   3.062
 6439SOL    HW120216   4.259   6.061   3.094
 6439SOL    HW220217   4.101   6.025   3.113
 6440SOL     OW20218   2.531   1.685   5.157
 6440SOL    HW120219   2.554   1.782   5.150
 6440SOL    HW220220   2.440   1.671   5.118
 6441SOL     OW20221   1.229   1.135   2.452
 6441SOL    HW120222   1.298   1.065   2.434
 6441SOL    HW220223   1.194   1.171   2.366
 6442SOL     OW20224   3.345   1.814   3.745
 6442SOL    HW120225   3.354   1.848   3.651
 6442SOL    HW220226   3.399   1.872   3.806
 6443SOL     OW20227   2.274   1.162   6.434
 6443SOL    HW120228   2.221   1.157   6.350
 6443SOL    HW220229   2.304   1.070   6.461
 6444SOL     OW20230   6.744   3.962   5.702
 6444SOL    HW120231   6.758   3.940   5.798
 6444SOL    HW220232   6.816   3.920   5.647
 6445SOL     OW20233   3.158   2.984   3.227
 6445SOL    HW120234   3.246   2.987   3.181
 6445SOL    HW220235   3.110   2.899   3.203
 6446SOL     OW20236   0.319   0.381   1.898
 6446SOL    HW120237   0.327   0.322   1.979
 6446SOL    HW220238   0.330   0.476   1.925
 6447SOL     OW20239   0.928   4.034   2.025
 6447SOL    HW120240   0.975   4.089   2.095
 6447SOL    HW220241   0.851   4.087   1.988
 6448SOL     OW20242   3.995   4.112   1.600
 6448SOL    HW120243   3.926   4.127   1.671
 6448SOL    HW220244   4.085   4.099   1.642
 6449SOL     OW20245   4.495   6.556   0.060
 6449SOL    HW120246   4.561   6.581   7.012
 6449SOL    HW220247   4.422   6.502   0.019
 6450SOL     OW20248   4.671   3.616   0.855
 6450SOL    HW120249   4.673   3.708   0.817
 6450SOL    HW220250   4.576   3.587   0.869
 6451SOL     OW20251   4.545   3.507   1.239
 6451SOL    HW120252   4.522   3.427   1.293
 6451SOL    HW220253   4.645   3.516   1.234
 6452SOL     OW20254   4.606   1.415   3.991
 6452SOL    HW120255   4.625   1.348   4.063
 6452SOL    HW220256   4.573   1.500   4.033
 6453SOL     OW20257   2.784   0.587   2.597
 6453SOL    HW120258   2.806   0.506   2.541
 6453SOL    HW220259   2.687   0.586   2.620
 6454SOL     OW20260   4.270   3.512   5.554
 6454SOL    HW120261   4.310   3.421   5.540
 6454SOL    HW220262   4.341   3.576   5.582
 6455SOL     OW20263   0.045   3.260   5.625
 6455SOL    HW120264   0.047   3.355   5.654
 6455SOL    HW220265   0.125   3.241   5.568
 6456SOL     OW20266   5.892   2.069   3.285
 6456SOL    HW120267   5.971   2.124   3.257
 6456SOL    HW220268   5.819   2.129   3.317
 6457SOL     OW20269   1.767   6.395   2.734
 6457SOL    HW120270   1.826   6.316   2.721
 6457SOL    HW220271   1.796   6.446   2.815
 6458SOL     OW20272   1.493   0.462   4.701
 6458SOL    HW120273   1.425   0.411   4.648
 6458SOL    HW220274   1.452   0.491   4.787
 6459SOL     OW20275   6.968   3.226   3.444
 6459SOL    HW120276   6.882   3.209   3.396
 6459SOL    HW220277   7.008   3.138   3.471
 6460SOL     OW20278   1.766   5.604   5.688
 6460SOL    HW120279   1.713   5.689   5.685
 6460SOL    HW220280   1.847   5.613   5.630
 6461SOL     OW20281   5.876   0.657   2.295
 6461SOL    HW120282   5.799   0.656   2.232
 6461SOL    HW220283   5.937   0.581   2.274
 6462SOL     OW20284   2.894   4.299   5.298
 6462SOL    HW120285   2.873   4.376   5.238
 6462SOL    HW220286   2.908   4.216   5.243
 6463SOL     OW20287   4.775   3.435   1.725
 6463SOL    HW120288   4.790   3.346   1.768
 6463SOL    HW220289   4.677   3.452   1.715
 6464SOL     OW20290   0.576   3.496   3.216
 6464SOL    HW120291   0.555   3.445   3.133
 6464SOL    HW220292   0.501   3.485   3.281
 6465SOL     OW20293   2.590   0.933   2.289
 6465SOL    HW120294   2.643   0.918   2.205
 6465SOL    HW220295   2.493   0.930   2.268
 6466SOL     OW20296   6.414   5.006   6.668
 6466SOL    HW120297   6.500   5.056   6.657
 6466SOL    HW220298   6.391   4.961   6.582
 6467SOL     OW20299   3.212   3.027   6.397
 6467SOL    HW120300   3.141   2.980   6.346
 6467SOL    HW220301   3.252   3.099   6.340
 6468SOL     OW20302   0.711   1.101   6.349
 6468SOL    HW120303   0.693   1.100   6.251
 6468SOL    HW220304   0.808   1.121   6.366
 6469SOL     OW20305   3.354   0.958   0.831
 6469SOL    HW120306   3.369   0.894   0.907
 6469SOL    HW220307   3.443   0.990   0.798
 6470SOL     OW20308   5.870   1.108   6.807
 6470SOL    HW120309   5.941   1.086   6.741
 6470SOL    HW220310   5.817   1.025   6.829
 6471SOL     OW20311   0.277   0.198   4.666
 6471SOL    HW120312   0.320   0.196   4.756
 6471SOL    HW220313   0.241   0.107   4.645
 6472SOL     OW20314   0.962   6.463   0.978
 6472SOL    HW120315   0.945   6.378   1.028
 6472SOL    HW220316   0.955   6.445   0.880
 6473SOL     OW20317   3.331   1.605   3.068
 6473SOL    HW120318   3.244   1.613   3.117
 6473SOL    HW220319   3.389   1.537   3.114
 6474SOL     OW20320   4.723   0.193   4.930
 6474SOL    HW120321   4.627   0.219   4.940
 6474SOL    HW220322   4.743   0.179   4.833
 6475SOL     OW20323   5.546   5.226   4.437
 6475SOL    HW120324   5.556   5.325   4.430
 6475SOL    HW220325   5.564   5.185   4.347
 6476SOL     OW20326   5.438   4.303   4.418
 6476SOL    HW120327   5.432   4.313   4.517
 6476SOL    HW220328   5.437   4.394   4.375
 6477SOL     OW20329   0.797   0.311   0.784
 6477SOL    HW120330   0.896   0.301   0.784
 6477SOL    HW220331   0.764   0.314   0.689
 6478SOL     OW20332   2.047   6.864   0.282
 6478SOL    HW120333   2.145   6.877   0.274
 6478SOL    HW220334   2.001   6.906   0.203
 6479SOL     OW20335   4.968   5.117   4.943
 6479SOL    HW120336   5.062   5.148   4.954
 6479SOL    HW220337   4.905   5.186   4.979
 6480SOL     OW20338   2.304   0.006   4.955
 6480SOL    HW120339   2.321   0.028   4.859
 6480SOL    HW220340   2.234   0.068   4.991
 6481SOL     OW20341   4.167   3.774   1.286
 6481SOL    HW120342   4.241   3.709   1.303
 6481SOL    HW220343   4.098   3.767   1.358
 6482SOL     OW20344   5.350   3.301   4.402
 6482SOL    HW120345   5.366   3.209   4.367
 6482SOL    HW220346   5.390   3.368   4.339
 6483SOL     OW20347   2.121   6.875   5.616
 6483SOL    HW120348   2.087   6.789   5.578
 6483SOL    HW220349   2.146   6.937   5.541
 6484SOL     OW20350   3.403   0.897   3.899
 6484SOL    HW120351   3.472   0.843   3.852
 6484SOL    HW220352   3.344   0.941   3.832
 6485SOL     OW20353   2.546   5.609   5.029
 6485SOL    HW120354   2.496   5.613   5.115
 6485SOL    HW220355   2.609   5.531   5.031
 6486SOL     OW20356   6.794   3.360   2.621
 6486SOL    HW120357   6.857   3.370   2.697
 6486SOL    HW220358   6.826   3.287   2.560
 6487SOL     OW20359   5.913   6.174   4.744
 6487SOL    HW120360   6.003   6.194   4.783
 6487SOL    HW220361   5.919   6.092   4.686
 6488SOL     OW20362   3.812   5.716   2.821
 6488SOL    HW120363   3.788   5.629   2.778
 6488SOL    HW220364   3.891   5.702   2.882
 6489SOL     OW20365   0.381   4.525   5.343
 6489SOL    HW120366   0.331   4.477   5.415
 6489SOL    HW220367   0.418   4.459   5.278
 6490SOL     OW20368   2.099   3.435   6.194
 6490SOL    HW120369   2.066   3.424   6.288
 6490SOL    HW220370   2.031   3.486   6.141
 6491SOL     OW20371   0.589   6.809   1.900
 6491SOL    HW120372   0.602   6.903   1.868
 6491SOL    HW220373   0.674   6.775   1.939
 6492SOL     OW20374   4.040   3.295   3.106
 6492SOL    HW120375   4.091   3.255   3.183
 6492SOL    HW220376   4.003   3.222   3.050
 6493SOL     OW20377   2.652   5.099   4.283
 6493SOL    HW120378   2.624   5.017   4.233
 6493SOL    HW220379   2.715   5.074   4.357
 6494SOL     OW20380   6.208   1.748   2.276
 6494SOL    HW120381   6.265   1.690   2.334
 6494SOL    HW220382   6.156   1.691   2.213
 6495SOL     OW20383   6.857   5.821   2.705
 6495SOL    HW120384   6.825   5.903   2.752
 6495SOL    HW220385   6.830   5.740   2.757
 6496SOL     OW20386   2.813   2.825   1.250
 6496SOL    HW120387   2.899   2.827   1.199
 6496SOL    HW220388   2.814   2.895   1.321
 6497SOL     OW20389   6.867   3.292   0.834
 6497SOL    HW120390   6.879   3.194   0.818
 6497SOL    HW220391   6.864   3.310   0.933
 6498SOL     OW20392   2.878   4.804   4.539
 6498SOL    HW120393   2.840   4.727   4.487
 6498SOL    HW220394   2.810   4.837   4.604
 6499SOL     OW20395   5.194   1.632   3.014
 6499SOL    HW120396   5.250   1.598   2.938
 6499SOL    HW220397   5.213   1.578   3.096
 6500SOL     OW20398   1.727   3.559   2.979
 6500SOL    HW120399   1.726   3.658   2.984
 6500SOL    HW220400   1.721   3.530   2.883
 6501SOL     OW20401   5.894   0.278   2.869
 6501SOL    HW120402   5.977   0.298   2.817
 6501SOL    HW220403   5.815   0.319   2.824
 6502SOL     OW20404   0.817   3.177   3.256
 6502SOL    HW120405   0.794   3.261   3.305
 6502SOL    HW220406   0.914   3.179   3.231
 6503SOL     OW20407   0.911   3.311   5.635
 6503SOL    HW120408   0.878   3.309   5.730
 6503SOL    HW220409   0.934   3.218   5.606
 6504SOL     OW20410   4.059   6.659   6.127
 6504SOL    HW120411   4.106   6.688   6.044
 6504SOL    HW220412   3.961   6.676   6.117
 6505SOL     OW20413   0.584   0.047   6.739
 6505SOL    HW120414   0.527   0.100   6.676
 6505SOL    HW220415   0.669   0.022   6.693
 6506SOL     OW20416   1.380   5.210   2.217
 6506SOL    HW120417   1.319   5.140   2.253
 6506SOL    HW220418   1.337   5.253   2.137
 6507SOL     OW20419   5.385   5.449   0.684
 6507SOL    HW120420   5.328   5.379   0.643
 6507SOL    HW220421   5.394   5.433   0.782
 6508SOL     OW20422   6.718   1.537   4.586
 6508SOL    HW120423   6.706   1.608   4.516
 6508SOL    HW220424   6.809   1.545   4.627
 6509SOL     OW20425   3.036   1.923   6.187
 6509SOL    HW120426   3.026   2.007   6.240
 6509SOL    HW220427   3.032   1.945   6.089
 6510SOL     OW20428   4.203   4.723   4.442
 6510SOL    HW120429   4.263   4.802   4.455
 6510SOL    HW220430   4.139   4.741   4.367
 6511SOL     OW20431   3.738   3.361   0.212
 6511SOL    HW120432   3.648   3.395   0.182
 6511SOL    HW220433   3.732   3.262   0.229
 6512SOL     OW20434   4.908   0.989   2.773
 6512SOL    HW120435   4.890   1.087   2.768
 6512SOL    HW220436   4.828   0.943   2.811
 6513SOL     OW20437   3.254   4.062   1.461
 6513SOL    HW120438   3.185   4.022   1.520
 6513SOL    HW220439   3.309   4.127   1.513
 6514SOL     OW20440   5.767   5.602   5.837
 6514SOL    HW120441   5.685   5.591   5.893
 6514SOL    HW220442   5.841   5.547   5.876
 6515SOL     OW20443   0.539   4.739   2.482
 6515SOL    HW120444   0.552   4.837   2.472
 6515SOL    HW220445   0.443   4.716   2.461
 6516SOL     OW20446   5.993   1.042   3.786
 6516SOL    HW120447   6.019   0.969   3.723
 6516SOL    HW220448   5.928   1.103   3.742
 6517SOL     OW20449   6.782   3.913   1.720
 6517SOL    HW120450   6.758   3.893   1.625
 6517SOL    HW220451   6.786   3.829   1.773
 6518SOL     OW20452   1.361   1.768   2.973
 6518SOL    HW120453   1.306   1.770   3.057
 6518SOL    HW220454   1.350   1.679   2.929
 6519SOL     OW20455   2.426   1.612   3.133
 6519SOL    HW120456   2.377   1.663   3.063
 6519SOL    HW220457   2.451   1.522   3.096
 6520SOL     OW20458   5.563   6.847   6.592
 6520SOL    HW120459   5.635   6.883   6.533
 6520SOL    HW220460   5.516   6.772   6.546
 6521SOL     OW20461   1.552   5.016   4.618
 6521SOL    HW120462   1.548   5.052   4.525
 6521SOL    HW220463   1.589   5.087   4.679
 6522SOL     OW20464   2.607   3.230   5.388
 6522SOL    HW120465   2.524   3.274   5.352
 6522SOL    HW220466   2.616   3.139   5.349
 6523SOL     OW20467   4.777   6.813   0.644
 6523SOL    HW120468   4.711   6.795   0.571
 6523SOL    HW220469   4.809   6.726   0.683
 6524SOL     OW20470   3.790   2.247   1.231
 6524SOL    HW120471   3.736   2.331   1.231
 6524SOL    HW220472   3.743   2.177   1.176
 6525SOL     OW20473   3.369   5.208   3.464
 6525SOL    HW120474   3.390   5.118   3.502
 6525SOL    HW220475   3.387   5.278   3.533
 6526SOL     OW20476   6.455   6.852   0.589
 6526SOL    HW120477   6.536   6.911   0.584
 6526SOL    HW220478   6.400   6.864   0.507
 6527SOL     OW20479   5.217   2.566   0.573
 6527SOL    HW120480   5.165   2.554   0.658
 6527SOL    HW220481   5.213   2.483   0.519
 6528SOL     OW20482   4.160   0.328   0.858
 6528SOL    HW120483   4.190   0.353   0.765
 6528SOL    HW220484   4.094   0.395   0.890
 6529SOL     OW20485   3.336   5.854   1.365
 6529SOL    HW120486   3.276   5.777   1.343
 6529SOL    HW220487   3.419   5.820   1.409
 6530SOL     OW20488   1.135   3.060   4.412
 6530SOL    HW120489   1.099   2.981   4.362
 6530SOL    HW220490   1.234   3.065   4.399
 6531SOL     OW20491   3.082   3.176   4.298
 6531SOL    HW120492   3.050   3.110   4.230
 6531SOL    HW220493   3.075   3.136   4.390
 6532SOL     OW20494   1.048   5.986   0.206
 6532SOL    HW120495   1.134   6.032   0.184
 6532SOL    HW220496   0.991   6.047   0.260
 6533SOL     OW20497   5.933   5.033   1.246
 6533SOL    HW120498   5.890   5.106   1.193
 6533SOL    HW220499   6.031   5.052   1.256
 6534SOL     OW20500   6.414   2.564   4.539
 6534SOL    HW120501   6.329   2.536   4.495
 6534SOL    HW220502   6.394   2.627   4.614
 6535SOL     OW20503   5.354   3.457   6.756
 6535SOL    HW120504   5.333   3.428   6.849
 6535SOL    HW220505   5.282   3.518   6.724
 6536SOL     OW20506   6.860   5.634   6.036
 6536SOL    HW120507   6.888   5.546   5.998
 6536SOL    HW220508   6.766   5.627   6.071
 6537SOL     OW20509   6.686   5.225   3.993
 6537SOL    HW120510   6.749   5.149   4.008
 6537SOL    HW220511   6.648   5.255   4.081
 6538SOL     OW20512   1.024   4.404   3.865
 6538SOL    HW120513   1.117   4.400   3.828
 6538SOL    HW220514   1.025   4.454   3.951
 6539SOL     OW20515   5.985   6.805   5.922
 6539SOL    HW120516   6.066   6.748   5.933
 6539SOL    HW220517   5.926   6.795   6.003
 6540SOL     OW20518   0.675   3.015   5.421
 6540SOL    HW120519   0.605   2.974   5.481
 6540SOL    HW220520   0.709   2.946   5.358
 6541SOL     OW20521   3.594   1.737   6.293
 6541SOL    HW120522   3.529   1.812   6.301
 6541SOL    HW220523   3.640   1.743   6.204
 6542SOL     OW20524   1.658   4.912   1.242
 6542SOL    HW120525   1.703   4.840   1.189
 6542SOL    HW220526   1.559   4.900   1.236
 6543SOL     OW20527   4.254   1.786   3.695
 6543SOL    HW120528   4.273   1.713   3.630
 6543SOL    HW220529   4.192   1.853   3.653
 6544SOL     OW20530   1.043   1.402   0.830
 6544SOL    HW120531   1.127   1.349   0.846
 6544SOL    HW220532   1.065   1.499   0.824
 6545SOL     OW20533   6.395   4.004   0.138
 6545SOL    HW120534   6.401   4.093   0.182
 6545SOL    HW220535   6.303   3.990   0.102
 6546SOL     OW20536   4.072   5.836   4.457
 6546SOL    HW120537   3.985   5.822   4.506
 6546SOL    HW220538   4.106   5.747   4.424
 6547SOL     OW20539   6.652   6.118   4.534
 6547SOL    HW120540   6.568   6.154   4.493
 6547SOL    HW220541   6.637   6.022   4.561
 6548SOL     OW20542   1.869   0.868   4.922
 6548SOL    HW120543   1.852   0.872   4.824
 6548SOL    HW220544   1.783   0.847   4.969
 6549SOL     OW20545   2.256   1.575   1.933
 6549SOL    HW120546   2.182   1.599   1.996
 6549SOL    HW220547   2.218   1.559   1.842
 6550SOL     OW20548   5.751   0.560   1.837
 6550SOL    HW120549   5.659   0.586   1.867
 6550SOL    HW220550   5.819   0.604   1.896
 6551SOL     OW20551   2.255   5.441   1.080
 6551SOL    HW120552   2.216   5.423   0.990
 6551SOL    HW220553   2.231   5.534   1.109
 6552SOL     OW20554   2.502   3.155   6.418
 6552SOL    HW120555   2.509   3.255   6.422
 6552SOL    HW220556   2.591   3.117   6.392
 6553SOL     OW20557   0.781   2.071   3.625
 6553SOL    HW120558   0.790   2.166   3.595
 6553SOL    HW220559   0.704   2.063   3.689
 6554SOL     OW20560   2.541   1.441   3.847
 6554SOL    HW120561   2.511   1.533   3.870
 6554SOL    HW220562   2.556   1.434   3.749
 6555SOL     OW20563   1.997   3.507   1.866
 6555SOL    HW120564   2.030   3.468   1.779
 6555SOL    HW220565   2.062   3.486   1.939
 6556SOL     OW20566   4.789   2.929   3.451
 6556SOL    HW120567   4.777   2.921   3.352
 6556SOL    HW220568   4.750   2.849   3.496
 6557SOL     OW20569   1.929   6.995   2.475
 6557SOL    HW120570   2.005   6.940   2.440
 6557SOL    HW220571   1.965   0.054   2.522
 6558SOL     OW20572   5.176   5.994   0.646
 6558SOL    HW120573   5.202   5.915   0.590
 6558SOL    HW220574   5.111   6.050   0.595
 6559SOL     OW20575   0.549   1.957   6.247
 6559SOL    HW120576   0.560   2.052   6.216
 6559SOL    HW220577   0.515   1.957   6.341
 6560SOL     OW20578   6.888   3.914   6.293
 6560SOL    HW120579   6.826   3.848   6.249
 6560SOL    HW220580   6.876   3.909   6.393
 6561SOL     OW20581   2.383   5.697   6.633
 6561SOL    HW120582   2.324   5.625   6.668
 6561SOL    HW220583   2.409   5.758   6.708
 6562SOL     OW20584   5.006   2.542   0.801
 6562SOL    HW120585   4.976   2.453   0.836
 6562SOL    HW220586   4.928   2.590   0.761
 6563SOL     OW20587   6.124   4.440   5.765
 6563SOL    HW120588   6.045   4.389   5.800
 6563SOL    HW220589   6.171   4.485   5.841
 6564SOL     OW20590   6.325   3.893   2.538
 6564SOL    HW120591   6.424   3.895   2.525
 6564SOL    HW220592   6.302   3.823   2.606
 6565SOL     OW20593   5.646   5.460   2.093
 6565SOL    HW120594   5.595   5.422   2.016
 6565SOL    HW220595   5.711   5.529   2.059
 6566SOL     OW20596   5.677   5.876   4.854
 6566SOL    HW120597   5.590   5.842   4.819
 6566SOL    HW220598   5.669   5.974   4.875
 6567SOL     OW20599   2.465   0.058   2.599
 6567SOL    HW120600   2.513   0.144   2.618
 6567SOL    HW220601   2.505   0.015   2.518
 6568SOL     OW20602   5.338   1.427   1.299
 6568SOL    HW120603   5.294   1.462   1.216
 6568SOL    HW220604   5.321   1.329   1.307
 6569SOL     OW20605   1.148   4.060   3.621
 6569SOL    HW120606   1.147   3.981   3.559
 6569SOL    HW220607   1.131   4.028   3.715
 6570SOL     OW20608   4.296   0.419   2.485
 6570SOL    HW120609   4.214   0.368   2.457
 6570SOL    HW220610   4.291   0.512   2.450
 6571SOL     OW20611   2.259   6.310   3.617
 6571SOL    HW120612   2.168   6.283   3.585
 6571SOL    HW220613   2.272   6.280   3.711
 6572SOL     OW20614   0.794   0.093   4.015
 6572SOL    HW120615   0.797   0.192   4.029
 6572SOL    HW220616   0.721   0.071   3.952
 6573SOL     OW20617   1.069   2.172   3.497
 6573SOL    HW120618   1.028   2.184   3.406
 6573SOL    HW220619   1.065   2.259   3.546
 6574SOL     OW20620   1.699   5.198   1.246
 6574SOL    HW120621   1.696   5.099   1.259
 6574SOL    HW220622   1.606   5.233   1.235
 6575SOL     OW20623   6.886   1.140   4.338
 6575SOL    HW120624   6.874   1.194   4.255
 6575SOL    HW220625   6.800   1.095   4.363
 6576SOL     OW20626   4.087   0.775   3.118
 6576SOL    HW120627   4.131   0.707   3.058
 6576SOL    HW220628   4.020   0.827   3.065
 6577SOL     OW20629   2.682   0.673   5.239
 6577SOL    HW120630   2.776   0.683   5.272
 6577SOL    HW220631   2.647   0.583   5.266
 6578SOL     OW20632   0.895   5.765   0.291
 6578SOL    HW120633   0.939   5.851   0.263
 6578SOL    HW220634   0.965   5.697   0.311
 6579SOL     OW20635   2.319   1.711   2.414
 6579SOL    HW120636   2.225   1.680   2.404
 6579SOL    HW220637   2.372   1.643   2.464
 6580SOL     OW20638   2.954   2.387   6.895
 6580SOL    HW120639   2.987   2.307   6.946
 6580SOL    HW220640   2.951   2.466   6.956
 6581SOL     OW20641   0.889   2.433   2.342
 6581SOL    HW120642   0.929   2.458   2.430
 6581SOL    HW220643   0.954   2.377   2.290
 6582SOL     OW20644   3.654   6.880   2.949
 6582SOL    HW120645   3.634   6.810   2.880
 6582SOL    HW220646   3.660   6.970   2.905
 6583SOL     OW20647   2.071   4.431   0.318
 6583SOL    HW120648   2.008   4.445   0.242
 6583SOL    HW220649   2.061   4.504   0.385
 6584SOL     OW20650   4.684   3.462   5.387
 6584SOL    HW120651   4.640   3.498   5.470
 6584SOL    HW220652   4.682   3.531   5.315
 6585SOL     OW20653   4.686   6.148   1.924
 6585SOL    HW120654   4.587   6.150   1.916
 6585SOL    HW220655   4.711   6.143   2.021
 6586SOL     OW20656   6.757   2.119   6.945
 6586SOL    HW120657   6.815   2.043   6.972
 6586SOL    HW220658   6.663   2.086   6.930
 6587SOL     OW20659   2.690   5.188   5.182
 6587SOL    HW120660   2.768   5.154   5.128
 6587SOL    HW220661   2.634   5.111   5.211
 6588SOL     OW20662   1.901   2.438   0.620
 6588SOL    HW120663   1.992   2.475   0.605
 6588SOL    HW220664   1.868   2.395   0.535
 6589SOL     OW20665   6.225   0.748   0.190
 6589SOL    HW120666   6.205   0.820   0.124
 6589SOL    HW220667   6.151   0.742   0.257
 6590SOL     OW20668   0.428   5.974   4.373
 6590SOL    HW120669   0.366   5.955   4.449
 6590SOL    HW220670   0.507   5.913   4.378
 6591SOL     OW20671   5.801   3.605   3.661
 6591SOL    HW120672   5.758   3.530   3.611
 6591SOL    HW220673   5.740   3.684   3.661
 6592SOL     OW20674   0.404   0.678   4.067
 6592SOL    HW120675   0.419   0.711   4.160
 6592SOL    HW220676   0.349   0.745   4.017
 6593SOL     OW20677   0.649   6.870   3.884
 6593SOL    HW120678   0.688   6.798   3.826
 6593SOL    HW220679   0.685   6.860   3.977
 6594SOL     OW20680   5.770   6.487   6.257
 6594SOL    HW120681   5.726   6.447   6.177
 6594SOL    HW220682   5.802   6.580   6.235
 6595SOL     OW20683   0.790   6.844   4.783
 6595SOL    HW120684   0.809   6.939   4.809
 6595SOL    HW220685   0.691   6.829   4.780
 6596SOL     OW20686   5.176   0.649   3.246
 6596SOL    HW120687   5.231   0.580   3.199
 6596SOL    HW220688   5.166   0.730   3.188
 6597SOL     OW20689   0.748   5.247   1.760
 6597SOL    HW120690   0.653   5.277   1.772
 6597SOL    HW220691   0.751   5.148   1.751
 6598SOL     OW20692   1.844   5.092   1.634
 6598SOL    HW120693   1.770   5.037   1.596
 6598SOL    HW220694   1.930   5.065   1.592
 6599SOL     OW20695   0.388   5.476   0.918
 6599SOL    HW120696   0.365   5.495   1.014
 6599SOL    HW220697   0.309   5.435   0.872
 6600SOL     OW20698   5.272   0.276   4.771
 6600SOL    HW120699   5.272   0.367   4.815
 6600SOL    HW220700   5.209   0.276   4.694
 6601SOL     OW20701   1.145   1.965   4.086
 6601SOL    HW120702   1.229   1.926   4.124
 6601SOL    HW220703   1.165   2.009   3.998
 6602SOL     OW20704   6.485   6.907   1.253
 6602SOL    HW120705   6.556   6.892   1.322
 6602SOL    HW220706   6.397   6.925   1.298
 6603SOL     OW20707   0.009   4.816   2.717
 6603SOL    HW120708   0.069   4.748   2.758
 6603SOL    HW220709   0.038   4.834   2.623
 6604SOL     OW20710   2.404   4.902   3.071
 6604SOL    HW120711   2.304   4.897   3.075
 6604SOL    HW220712   2.437   4.967   3.139
 6605SOL     OW20713   0.032   5.988   0.903
 6605SOL    HW120714   0.061   5.894   0.884
 6605SOL    HW220715   0.084   6.024   0.981
 6606SOL     OW20716   0.538   5.068   3.212
 6606SOL    HW120717   0.500   5.160   3.203
 6606SOL    HW220718   0.616   5.059   3.150
 6607SOL     OW20719   0.905   2.692   4.185
 6607SOL    HW120720   0.855   2.735   4.260
 6607SOL    HW220721   0.841   2.645   4.125
 6608SOL     OW20722   0.939   6.737   5.227
 6608SOL    HW120723   0.963   6.640   5.223
 6608SOL    HW220724   0.861   6.755   5.167
 6609SOL     OW20725   2.047   2.011   6.803
 6609SOL    HW120726   2.143   2.023   6.828
 6609SOL    HW220727   1.997   2.096   6.818
 6610SOL     OW20728   2.871   5.536   6.994
 6610SOL    HW120729   2.942   5.602   6.970
 6610SOL    HW220730   2.889   5.500   0.063
 6611SOL     OW20731   2.625   0.832   4.728
 6611SOL    HW120732   2.710   0.796   4.690
 6611SOL    HW220733   2.573   0.880   4.657
 6612SOL     OW20734   5.635   0.342   6.983
 6612SOL    HW120735   5.722   0.384   7.010
 6612SOL    HW220736   5.621   0.258   0.013
 6613SOL     OW20737   5.648   5.664   0.908
 6613SOL    HW120738   5.551   5.678   0.888
 6613SOL    HW220739   5.693   5.752   0.920
 6614SOL     OW20740   4.019   5.895   1.138
 6614SOL    HW120741   3.990   5.882   1.233
 6614SOL    HW220742   4.003   5.810   1.087
 6615SOL     OW20743   3.411   5.904   5.698
 6615SOL    HW120744   3.323   5.940   5.667
 6615SOL    HW220745   3.434   5.945   5.786
 6616SOL     OW20746   4.175   2.076   6.853
 6616SOL    HW120747   4.154   2.110   6.945
 6616SOL    HW220748   4.093   2.035   6.814
 6617SOL     OW20749   4.307   2.024   4.066
 6617SOL    HW120750   4.351   1.945   4.023
 6617SOL    HW220751   4.371   2.101   4.068
 6618SOL     OW20752   5.590   2.302   4.243
 6618SOL    HW120753   5.650   2.375   4.275
 6618SOL    HW220754   5.496   2.336   4.240
 6619SOL     OW20755   4.623   5.289   3.693
 6619SOL    HW120756   4.582   5.342   3.768
 6619SOL    HW220757   4.635   5.194   3.722
 6620SOL     OW20758   1.321   3.044   4.036
 6620SOL    HW120759   1.342   3.068   4.131
 6620SOL    HW220760   1.223   3.052   4.020
 6621SOL     OW20761   3.620   3.766   3.360
 6621SOL    HW120762   3.621   3.861   3.331
 6621SOL    HW220763   3.539   3.720   3.325
 6622SOL     OW20764   0.028   4.869   0.979
 6622SOL    HW120765   7.006   4.868   1.068
 6622SOL    HW220766   6.999   4.813   0.915
 6623SOL     OW20767   3.469   4.081   3.979
 6623SOL    HW120768   3.558   4.089   4.025
 6623SOL    HW220769   3.397   4.073   4.048
 6624SOL     OW20770   2.557   2.468   2.495
 6624SOL    HW120771   2.560   2.411   2.413
 6624SOL    HW220772   2.558   2.564   2.468
 6625SOL     OW20773   0.987   5.273   6.090
 6625SOL    HW120774   1.002   5.245   6.184
 6625SOL    HW220775   0.904   5.228   6.055
 6626SOL     OW20776   3.335   6.200   5.833
 6626SOL    HW120777   3.369   6.282   5.785
 6626SOL    HW220778   3.411   6.137   5.849
 6627SOL     OW20779   2.254   6.985   4.667
 6627SOL    HW120780   2.241   6.933   4.583
 6627SOL    HW220781   2.173   0.020   4.683
 6628SOL     OW20782   4.539   6.581   4.033
 6628SOL    HW120783   4.576   6.631   4.112
 6628SOL    HW220784   4.446   6.614   4.014
 6629SOL     OW20785   5.617   5.980   5.368
 6629SOL    HW120786   5.552   5.990   5.293
 6629SOL    HW220787   5.569   5.949   5.450
 6630SOL     OW20788   1.744   6.712   0.325
 6630SOL    HW120789   1.802   6.631   0.320
 6630SOL    HW220790   1.769   6.775   0.251
 6631SOL     OW20791   2.675   1.619   5.385
 6631SOL    HW120792   2.722   1.707   5.394
 6631SOL    HW220793   2.606   1.626   5.313
 6632SOL     OW20794   1.261   1.259   5.632
 6632SOL    HW120795   1.247   1.317   5.551
 6632SOL    HW220796   1.357   1.261   5.658
 6633SOL     OW20797   5.287   0.492   6.232
 6633SOL    HW120798   5.349   0.479   6.310
 6633SOL    HW220799   5.272   0.590   6.219
 6634SOL     OW20800   2.870   2.240   4.055
 6634SOL    HW120801   2.945   2.184   4.020
 6634SOL    HW220802   2.896   2.281   4.142
 6635SOL     OW20803   4.480   5.503   6.205
 6635SOL    HW120804   4.454   5.536   6.115
 6635SOL    HW220805   4.411   5.531   6.272
 6636SOL     OW20806   5.056   1.880   1.215
 6636SOL    HW120807   4.958   1.888   1.199
 6636SOL    HW220808   5.105   1.942   1.154
 6637SOL     OW20809   0.423   3.930   0.148
 6637SOL    HW120810   0.436   4.002   0.080
 6637SOL    HW220811   0.352   3.866   0.117
 6638SOL     OW20812   3.565   3.861   4.623
 6638SOL    HW120813   3.526   3.943   4.580
 6638SOL    HW220814   3.497   3.787   4.620
 6639SOL     OW20815   6.467   2.313   3.052
 6639SOL    HW120816   6.398   2.323   3.125
 6639SOL    HW220817   6.437   2.363   2.971
 6640SOL     OW20818   6.971   3.430   4.171
 6640SOL    HW120819   6.923   3.489   4.236
 6640SOL    HW220820   0.043   3.418   4.201
 6641SOL     OW20821   5.785   2.097   0.467
 6641SOL    HW120822   5.752   2.078   0.374
 6641SOL    HW220823   5.757   2.189   0.494
 6642SOL     OW20824   0.658   5.063   7.017
 6642SOL    HW120825   0.663   4.970   0.032
 6642SOL    HW220826   0.607   5.062   6.931
 6643SOL     OW20827   6.356   5.460   6.047
 6643SOL    HW120828   6.307   5.457   6.134
 6643SOL    HW220829   6.304   5.514   5.981
 6644SOL     OW20830   2.036   6.553   2.846
 6644SOL    HW120831   2.128   6.585   2.869
 6644SOL    HW220832   1.976   6.567   2.924
 6645SOL     OW20833   5.063   2.895   5.750
 6645SOL    HW120834   5.003   2.816   5.765
 6645SOL    HW220835   5.057   2.924   5.654
 6646SOL     OW20836   4.484   6.883   5.969
 6646SOL    HW120837   4.579   6.903   5.991
 6646SOL    HW220838   4.441   6.964   5.929
 6647SOL     OW20839   3.328   5.175   0.601
 6647SOL    HW120840   3.426   5.192   0.616
 6647SOL    HW220841   3.303   5.088   0.643
 6648SOL     OW20842   3.213   6.312   4.695
 6648SOL    HW120843   3.189   6.347   4.786
 6648SOL    HW220844   3.167   6.225   4.679
 6649SOL     OW20845   5.280   1.638   5.415
 6649SOL    HW120846   5.322   1.600   5.332
 6649SOL    HW220847   5.181   1.636   5.406
 6650SOL     OW20848   2.893   0.707   4.617
 6650SOL    HW120849   2.899   0.766   4.537
 6650SOL    HW220850   2.917   0.614   4.592
 6651SOL     OW20851   6.454   1.401   3.786
 6651SOL    HW120852   6.528   1.333   3.783
 6651SOL    HW220853   6.432   1.430   3.692
 6652SOL     OW20854   0.044   5.204   6.868
 6652SOL    HW120855   0.025   5.252   6.954
 6652SOL    HW220856   0.142   5.205   6.850
 6653SOL     OW20857   5.427   3.736   0.005
 6653SOL    HW120858   5.425   3.682   0.089
 6653SOL    HW220859   5.518   3.730   6.986
 6654SOL     OW20860   6.656   1.945   3.160
 6654SOL    HW120861   6.588   1.890   3.210
 6654SOL    HW220862   6.717   1.884   3.109
 6655SOL     OW20863   6.401   5.542   1.613
 6655SOL    HW120864   6.436   5.559   1.705
 6655SOL    HW220865   6.301   5.536   1.616
 6656SOL     OW20866   5.873   1.862   2.655
 6656SOL    HW120867   5.863   1.959   2.680
 6656SOL    HW220868   5.925   1.855   2.571
 6657SOL     OW20869   5.063   1.651   3.435
 6657SOL    HW120870   5.037   1.629   3.529
 6657SOL    HW220871   5.078   1.567   3.384
 6658SOL     OW20872   6.476   4.869   3.691
 6658SOL    HW120873   6.384   4.859   3.728
 6658SOL    HW220874   6.515   4.779   3.673
 6659SOL     OW20875   0.663   6.733   0.729
 6659SOL    HW120876   0.601   6.721   0.807
 6659SOL    HW220877   0.745   6.782   0.759
 6660SOL     OW20878   1.798   0.957   3.591
 6660SOL    HW120879   1.748   1.009   3.521
 6660SOL    HW220880   1.882   1.005   3.615
 6661SOL     OW20881   3.745   6.556   3.643
 6661SOL    HW120882   3.739   6.590   3.549
 6661SOL    HW220883   3.766   6.459   3.642
 6662SOL     OW20884   3.976   5.801   1.376
 6662SOL    HW120885   3.941   5.710   1.395
 6662SOL    HW220886   3.924   5.869   1.429
 6663SOL     OW20887   1.648   5.106   5.670
 6663SOL    HW120888   1.630   5.202   5.648
 6663SOL    HW220889   1.719   5.070   5.609
 6664SOL     OW20890   2.554   6.450   1.666
 6664SOL    HW120891   2.522   6.545   1.672
 6664SOL    HW220892   2.645   6.444   1.706
 6665SOL     OW20893   2.976   6.935   0.329
 6665SOL    HW120894   2.955   0.010   0.328
 6665SOL    HW220895   3.001   6.907   0.422
 6666SOL     OW20896   2.425   0.130   0.065
 6666SOL    HW120897   2.354   0.179   0.117
 6666SOL    HW220898   2.433   0.170   6.996
 6667SOL     OW20899   1.401   5.356   0.235
 6667SOL    HW120900   1.481   5.310   0.198
 6667SOL    HW220901   1.368   5.424   0.170
 6668SOL     OW20902   6.756   3.236   5.613
 6668SOL    HW120903   6.745   3.220   5.711
 6668SOL    HW220904   6.850   3.216   5.586
 6669SOL     OW20905   0.814   3.607   3.537
 6669SOL    HW120906   0.849   3.529   3.588
 6669SOL    HW220907   0.731   3.642   3.580
 6670SOL     OW20908   1.693   4.009   1.078
 6670SOL    HW120909   1.722   3.922   1.119
 6670SOL    HW220910   1.652   4.067   1.148
 6671SOL     OW20911   5.698   5.000   0.552
 6671SOL    HW120912   5.741   5.036   0.470
 6671SOL    HW220913   5.610   5.046   0.567
 6672SOL     OW20914   1.826   2.463   1.127
 6672SOL    HW120915   1.883   2.430   1.052
 6672SOL    HW220916   1.814   2.562   1.118
 6673SOL     OW20917   5.678   3.753   4.236
 6673SOL    HW120918   5.725   3.668   4.261
 6673SOL    HW220919   5.580   3.735   4.226
 6674SOL     OW20920   6.013   1.506   7.005
 6674SOL    HW120921   6.083   1.471   6.943
 6674SOL    HW220922   6.045   1.499   0.077
 6675SOL     OW20923   5.782   1.029   0.825
 6675SOL    HW120924   5.821   0.941   0.797
 6675SOL    HW220925   5.738   1.073   0.747
 6676SOL     OW20926   0.681   3.815   5.344
 6676SOL    HW120927   0.773   3.816   5.383
 6676SOL    HW220928   0.630   3.894   5.377
 6677SOL     OW20929   0.400   2.238   0.626
 6677SOL    HW120930   0.408   2.299   0.547
 6677SOL    HW220931   0.386   2.145   0.594
 6678SOL     OW20932   3.274   4.000   6.908
 6678SOL    HW120933   3.283   3.914   6.858
 6678SOL    HW220934   3.215   3.987   6.987
 6679SOL     OW20935   1.445   6.466   3.388
 6679SOL    HW120936   1.360   6.499   3.429
 6679SOL    HW220937   1.495   6.543   3.347
 6680SOL     OW20938   6.257   5.327   1.796
 6680SOL    HW120939   6.194   5.259   1.758
 6680SOL    HW220940   6.348   5.312   1.759
 6681SOL     OW20941   2.981   6.406   0.818
 6681SOL    HW120942   2.966   6.352   0.901
 6681SOL    HW220943   3.000   6.345   0.742
 6682SOL     OW20944   2.036   4.631   6.196
 6682SOL    HW120945   2.072   4.721   6.222
 6682SOL    HW220946   2.022   4.628   6.097
 6683SOL     OW20947   6.663   6.476   5.971
 6683SOL    HW120948   6.712   6.391   5.955
 6683SOL    HW220949   6.655   6.492   6.069
 6684SOL     OW20950   3.094   0.185   5.756
 6684SOL    HW120951   3.154   0.133   5.817
 6684SOL    HW220952   3.100   0.282   5.777
 6685SOL     OW20953   4.094   3.477   0.724
 6685SOL    HW120954   4.038   3.417   0.781
 6685SOL    HW220955   4.175   3.428   0.692
 6686SOL     OW20956   3.853   4.705   5.357
 6686SOL    HW120957   3.933   4.653   5.328
 6686SOL    HW220958   3.856   4.718   5.456
 6687SOL     OW20959   6.955   2.309   1.023
 6687SOL    HW120960   0.025   2.334   0.993
 6687SOL    HW220961   6.944   2.210   1.015
 6688SOL     OW20962   5.535   5.727   0.556
 6688SOL    HW120963   5.574   5.819   0.554
 6688SOL    HW220964   5.593   5.665   0.503
 6689SOL     OW20965   3.868   5.167   6.147
 6689SOL    HW120966   3.837   5.253   6.190
 6689SOL    HW220967   3.929   5.188   6.071
 6690SOL     OW20968   0.438   0.614   0.091
 6690SOL    HW120969   0.524   0.665   0.089
 6690SOL    HW220970   0.362   0.674   0.063
 6691SOL     OW20971   2.466   2.179   2.507
 6691SOL    HW120972   2.427   2.151   2.419
 6691SOL    HW220973   2.479   2.278   2.508
 6692SOL     OW20974   3.976   6.811   1.916
 6692SOL    HW120975   3.979   6.901   1.960
 6692SOL    HW220976   3.931   6.745   1.977
 6693SOL     OW20977   2.882   1.293   5.902
 6693SOL    HW120978   2.926   1.343   5.977
 6693SOL    HW220979   2.943   1.221   5.870
 6694SOL     OW20980   4.671   4.456   1.891
 6694SOL    HW120981   4.578   4.443   1.925
 6694SOL    HW220982   4.681   4.411   1.802
 6695SOL     OW20983   3.170   2.034   0.196
 6695SOL    HW120984   3.095   1.992   0.246
 6695SOL    HW220985   3.256   1.988   0.220
 6696SOL     OW20986   3.895   2.918   5.477
 6696SOL    HW120987   3.918   2.850   5.408
 6696SOL    HW220988   3.963   2.992   5.474
 6697SOL     OW20989   4.512   1.127   2.666
 6697SOL    HW120990   4.460   1.087   2.591
 6697SOL    HW220991   4.489   1.080   2.752
 6698SOL     OW20992   2.463   3.344   1.307
 6698SOL    HW120993   2.519   3.275   1.353
 6698SOL    HW220994   2.366   3.321   1.319
 6699SOL     OW20995   1.337   4.017   4.663
 6699SOL    HW120996   1.280   4.048   4.587
 6699SOL    HW220997   1.368   4.096   4.716
 6700SOL     OW20998   4.646   6.399   1.358
 6700SOL    HW120999   4.736   6.408   1.315
 6700SOL    HW221000   4.587   6.474   1.329
 6701SOL     OW21001   6.397   0.314   1.384
 6701SOL    HW121002   6.427   0.260   1.305
 6701SOL    HW221003   6.474   0.331   1.445
 6702SOL     OW21004   5.063   2.742   1.363
 6702SOL    HW121005   5.068   2.776   1.457
 6702SOL    HW221006   4.976   2.769   1.322
 6703SOL     OW21007   6.819   0.511   1.685
 6703SOL    HW121008   6.803   0.609   1.681
 6703SOL    HW221009   6.881   0.484   1.612
 6704SOL     OW21010   1.855   5.606   6.246
 6704SOL    HW121011   1.930   5.574   6.303
 6704SOL    HW221012   1.859   5.562   6.157
 6705SOL     OW21013   2.041   4.305   3.114
 6705SOL    HW121014   2.070   4.293   3.209
 6705SOL    HW221015   1.982   4.386   3.107
 6706SOL     OW21016   0.650   5.562   1.731
 6706SOL    HW121017   0.659   5.655   1.696
 6706SOL    HW221018   0.740   5.520   1.738
 6707SOL     OW21019   5.524   0.566   2.740
 6707SOL    HW121020   5.458   0.593   2.810
 6707SOL    HW221021   5.610   0.615   2.753
 6708SOL     OW21022   0.416   3.166   1.011
 6708SOL    HW121023   0.396   3.207   1.100
 6708SOL    HW221024   0.441   3.237   0.945
 6709SOL     OW21025   2.223   4.182   2.686
 6709SOL    HW121026   2.184   4.090   2.688
 6709SOL    HW221027   2.294   4.190   2.757
 6710SOL     OW21028   5.237   2.267   1.837
 6710SOL    HW121029   5.269   2.342   1.780
 6710SOL    HW221030   5.181   2.205   1.783
 6711SOL     OW21031   3.697   5.443   6.614
 6711SOL    HW121032   3.779   5.478   6.660
 6711SOL    HW221033   3.694   5.343   6.624
 6712SOL     OW21034   5.840   3.746   0.913
 6712SOL    HW121035   5.930   3.788   0.899
 6712SOL    HW221036   5.849   3.666   0.972
 6713SOL     OW21037   2.235   4.875   4.605
 6713SOL    HW121038   2.150   4.913   4.567
 6713SOL    HW221039   2.282   4.947   4.657
 6714SOL     OW21040   6.145   0.274   3.116
 6714SOL    HW121041   6.180   0.200   3.059
 6714SOL    HW221042   6.194   0.274   3.204
 6715SOL     OW21043   0.552   0.499   4.670
 6715SOL    HW121044   0.478   0.551   4.711
 6715SOL    HW221045   0.522   0.461   4.583
 6716SOL     OW21046   2.010   4.251   1.548
 6716SOL    HW121047   1.984   4.193   1.471
 6716SOL    HW221048   2.099   4.222   1.583
 6717SOL     OW21049   5.826   3.552   5.915
 6717SOL    HW121050   5.885   3.576   5.838
 6717SOL    HW221051   5.731   3.543   5.884
 6718SOL     OW21052   5.257   2.169   0.565
 6718SOL    HW121053   5.268   2.224   0.483
 6718SOL    HW221054   5.163   2.174   0.597
 6719SOL     OW21055   1.116   6.933   0.631
 6719SOL    HW121056   1.151   6.841   0.609
 6719SOL    HW221057   1.177   7.002   0.591
 6720SOL     OW21058   1.949   1.916   4.629
 6720SOL    HW121059   1.924   1.867   4.713
 6720SOL    HW221060   2.036   1.964   4.643
 6721SOL     OW21061   6.796   6.434   0.912
 6721SOL    HW121062   6.756   6.519   0.948
 6721SOL    HW221063   6.769   6.423   0.816
 6722SOL     OW21064   6.754   3.391   1.448
 6722SOL    HW121065   6.750   3.477   1.396
 6722SOL    HW221066   6.675   3.386   1.509
 6723SOL     OW21067   2.353   4.353   3.592
 6723SOL    HW121068   2.402   4.390   3.671
 6723SOL    HW221069   2.311   4.266   3.617
 6724SOL     OW21070   2.015   3.556   5.767
 6724SOL    HW121071   2.057   3.509   5.689
 6724SOL    HW221072   1.916   3.543   5.764
 6725SOL     OW21073   4.369   2.315   3.065
 6725SOL    HW121074   4.348   2.393   3.005
 6725SOL    HW221075   4.284   2.269   3.090
 6726SOL     OW21076   0.160   1.154   0.658
 6726SOL    HW121077   0.244   1.195   0.621
 6726SOL    HW221078   0.101   1.226   0.695
 6727SOL     OW21079   0.995   5.909   5.268
 6727SOL    HW121080   0.933   5.962   5.210
 6727SOL    HW221081   0.997   5.814   5.236
 6728SOL     OW21082   3.952   2.229   5.925
 6728SOL    HW121083   4.044   2.192   5.932
 6728SOL    HW221084   3.945   2.285   5.843
 6729SOL     OW21085   4.119   1.680   2.253
 6729SOL    HW121086   4.061   1.673   2.172
 6729SOL    HW221087   4.163   1.769   2.255
 6730SOL     OW21088   6.382   2.612   1.278
 6730SOL    HW121089   6.323   2.659   1.344
 6730SOL    HW221090   6.413   2.525   1.317
 6731SOL     OW21091   3.956   0.561   5.629
 6731SOL    HW121092   3.935   0.580   5.533
 6731SOL    HW221093   4.047   0.597   5.651
 6732SOL     OW21094   6.619   4.337   6.479
 6732SOL    HW121095   6.544   4.397   6.508
 6732SOL    HW221096   6.696   4.393   6.447
 6733SOL     OW21097   5.901   4.772   6.029
 6733SOL    HW121098   5.936   4.828   6.104
 6733SOL    HW221099   5.974   4.712   5.996
 6734SOL     OW21100   5.632   2.229   4.527
 6734SOL    HW121101   5.616   2.243   4.429
 6734SOL    HW221102   5.711   2.283   4.556
 6735SOL     OW21103   5.200   2.240   4.460
 6735SOL    HW121104   5.126   2.275   4.403
 6735SOL    HW221105   5.233   2.314   4.520
 6736SOL     OW21106   4.293   3.058   1.004
 6736SOL    HW121107   4.241   2.973   0.993
 6736SOL    HW221108   4.382   3.038   1.044
 6737SOL     OW21109   5.926   2.614   1.768
 6737SOL    HW121110   5.951   2.523   1.802
 6737SOL    HW221111   5.890   2.669   1.842
 6738SOL     OW21112   1.578   6.868   2.883
 6738SOL    HW121113   1.654   6.853   2.819
 6738SOL    HW221114   1.567   6.966   2.899
 6739SOL     OW21115   0.608   0.897   6.150
 6739SOL    HW121116   0.705   0.910   6.127
 6739SOL    HW221117   0.599   0.870   6.246
 6740SOL     OW21118   1.140   0.429   1.365
 6740SOL    HW121119   1.216   0.371   1.337
 6740SOL    HW221120   1.100   0.472   1.284
 6741SOL     OW21121   2.658   2.161   0.365
 6741SOL    HW121122   2.635   2.077   0.317
 6741SOL    HW221123   2.590   2.231   0.342
 6742SOL     OW21124   6.212   4.471   2.647
 6742SOL    HW121125   6.218   4.373   2.665
 6742SOL    HW221126   6.304   4.507   2.629
 6743SOL     OW21127   3.778   4.539   6.796
 6743SOL    HW121128   3.842   4.610   6.767
 6743SOL    HW221129   3.698   4.582   6.838
 6744SOL     OW21130   6.706   6.433   5.312
 6744SOL    HW121131   6.739   6.413   5.405
 6744SOL    HW221132   6.740   6.522   5.283
 6745SOL     OW21133   5.650   3.432   4.695
 6745SOL    HW121134   5.676   3.397   4.785
 6745SOL    HW221135   5.705   3.512   4.672
 6746SOL     OW21136   0.891   3.015   2.918
 6746SOL    HW121137   0.969   3.069   2.886
 6746SOL    HW221138   0.924   2.931   2.962
 6747SOL     OW21139   0.862   6.136   5.175
 6747SOL    HW121140   0.883   6.219   5.123
 6747SOL    HW221141   0.874   6.154   5.273
 6748SOL     OW21142   1.766   2.518   4.213
 6748SOL    HW121143   1.670   2.544   4.224
 6748SOL    HW221144   1.784   2.435   4.267
 6749SOL     OW21145   3.197   5.203   2.181
 6749SOL    HW121146   3.203   5.271   2.108
 6749SOL    HW221147   3.112   5.151   2.172
 6750SOL     OW21148   3.908   0.465   5.972
 6750SOL    HW121149   3.971   0.416   5.913
 6750SOL    HW221150   3.957   0.537   6.022
 6751SOL     OW21151   4.365   1.759   4.484
 6751SOL    HW121152   4.355   1.708   4.399
 6751SOL    HW221153   4.436   1.718   4.540
 6752SOL     OW21154   2.081   5.210   2.278
 6752SOL    HW121155   2.039   5.144   2.217
 6752SOL    HW221156   2.173   5.178   2.304
 6753SOL     OW21157   3.225   4.445   6.396
 6753SOL    HW121158   3.200   4.487   6.309
 6753SOL    HW221159   3.176   4.491   6.470
 6754SOL     OW21160   5.587   0.679   0.141
 6754SOL    HW121161   5.669   0.733   0.158
 6754SOL    HW221162   5.600   0.586   0.174
 6755SOL     OW21163   4.020   6.032   5.263
 6755SOL    HW121164   4.082   6.041   5.341
 6755SOL    HW221165   3.930   6.070   5.289
 6756SOL     OW21166   4.397   3.246   5.532
 6756SOL    HW121167   4.477   3.253   5.591
 6756SOL    HW221168   4.316   3.228   5.587
 6757SOL     OW21169   3.529   0.030   1.453
 6757SOL    HW121170   3.501   0.110   1.505
 6757SOL    HW221171   3.628   0.022   1.455
 6758SOL     OW21172   4.660   2.658   3.567
 6758SOL    HW121173   4.575   2.630   3.522
 6758SOL    HW221174   4.690   2.585   3.628
 6759SOL     OW21175   1.766   2.316   2.265
 6759SOL    HW121176   1.759   2.240   2.330
 6759SOL    HW221177   1.677   2.362   2.258
 6760SOL     OW21178   5.183   2.154   5.445
 6760SOL    HW121179   5.211   2.249   5.432
 6760SOL    HW221180   5.158   2.139   5.541
 6761SOL     OW21181   2.934   0.144   4.811
 6761SOL    HW121182   3.019   0.099   4.783
 6761SOL    HW221183   2.881   0.082   4.869
 6762SOL     OW21184   5.771   5.081   4.832
 6762SOL    HW121185   5.741   5.174   4.852
 6762SOL    HW221186   5.832   5.049   4.904
 6763SOL     OW21187   5.365   5.616   4.210
 6763SOL    HW121188   5.452   5.580   4.245
 6763SOL    HW221189   5.380   5.659   4.121
 6764SOL     OW21190   1.403   4.353   2.231
 6764SOL    HW121191   1.442   4.305   2.153
 6764SOL    HW221192   1.352   4.433   2.200
 6765SOL     OW21193   0.198   4.264   2.320
 6765SOL    HW121194   0.231   4.355   2.295
 6765SOL    HW221195   0.098   4.264   2.323
 6766SOL     OW21196   5.742   0.198   1.365
 6766SOL    HW121197   5.760   0.249   1.450
 6766SOL    HW221198   5.697   0.259   1.300
 6767SOL     OW21199   2.792   6.938   1.293
 6767SOL    HW121200   2.868   6.971   1.238
 6767SOL    HW221201   2.817   6.851   1.336
 6768SOL     OW21202   2.333   0.834   6.120
 6768SOL    HW121203   2.352   0.772   6.197
 6768SOL    HW221204   2.289   0.783   6.046
 6769SOL     OW21205   5.514   2.586   1.567
 6769SOL    HW121206   5.480   2.680   1.574
 6769SOL    HW221207   5.614   2.587   1.563
 6770SOL     OW21208   6.816   1.496   1.987
 6770SOL    HW121209   6.757   1.463   2.061
 6770SOL    HW221210   6.839   1.592   2.003
 6771SOL     OW21211   4.184   0.648   4.444
 6771SOL    HW121212   4.213   0.587   4.370
 6771SOL    HW221213   4.254   0.648   4.515
 6772SOL     OW21214   2.867   0.911   5.582
 6772SOL    HW121215   2.869   0.813   5.603
 6772SOL    HW221216   2.813   0.959   5.651
 6773SOL     OW21217   6.873   3.121   2.479
 6773SOL    HW121218   6.850   3.039   2.427
 6773SOL    HW221219   6.961   3.157   2.446
 6774SOL     OW21220   1.513   1.609   5.651
 6774SOL    HW121221   1.454   1.682   5.685
 6774SOL    HW221222   1.528   1.542   5.724
 6775SOL     OW21223   0.032   3.293   0.501
 6775SOL    HW121224   6.975   3.333   0.546
 6775SOL    HW221225   0.031   3.194   0.512
 6776SOL     OW21226   6.398   6.566   5.886
 6776SOL    HW121227   6.393   6.485   5.827
 6776SOL    HW221228   6.483   6.565   5.938
 6777SOL     OW21229   4.594   4.507   0.434
 6777SOL    HW121230   4.666   4.485   0.500
 6777SOL    HW221231   4.517   4.549   0.482
 6778SOL     OW21232   6.562   5.306   3.428
 6778SOL    HW121233   6.564   5.363   3.510
 6778SOL    HW221234   6.634   5.335   3.365
 6779SOL     OW21235   5.308   3.654   6.362
 6779SOL    HW121236   5.251   3.724   6.404
 6779SOL    HW221237   5.402   3.687   6.354
 6780SOL     OW21238   1.250   2.160   1.560
 6780SOL    HW121239   1.341   2.152   1.600
 6780SOL    HW221240   1.231   2.256   1.539
 6781SOL     OW21241   6.277   4.378   5.296
 6781SOL    HW121242   6.199   4.334   5.251
 6781SOL    HW221243   6.307   4.322   5.373
 6782SOL     OW21244   6.265   1.322   3.970
 6782SOL    HW121245   6.328   1.328   3.892
 6782SOL    HW221246   6.257   1.226   3.999
 6783SOL     OW21247   1.133   5.347   6.889
 6783SOL    HW121248   1.090   5.367   6.801
 6783SOL    HW221249   1.137   5.248   6.903
 6784SOL     OW21250   4.231   3.708   0.251
 6784SOL    HW121251   4.152   3.735   0.306
 6784SOL    HW221252   4.203   3.638   0.184
 6785SOL     OW21253   5.138   6.285   1.307
 6785SOL    HW121254   5.163   6.381   1.319
 6785SOL    HW221255   5.161   6.255   1.214
 6786SOL     OW21256   2.010   3.378   5.458
 6786SOL    HW121257   2.084   3.407   5.397
 6786SOL    HW221258   1.929   3.435   5.441
 6787SOL     OW21259   0.890   4.269   2.872
 6787SOL    HW121260   0.826   4.217   2.815
 6787SOL    HW221261   0.856   4.269   2.967
 6788SOL     OW21262   2.739   3.768   1.151
 6788SOL    HW121263   2.675   3.694   1.174
 6788SOL    HW221264   2.754   3.825   1.232
 6789SOL     OW21265   2.030   4.777   3.377
 6789SOL    HW121266   1.947   4.812   3.333
 6789SOL    HW221267   2.005   4.703   3.441
 6790SOL     OW21268   0.833   2.642   1.560
 6790SOL    HW121269   0.883   2.713   1.609
 6790SOL    HW221270   0.736   2.647   1.583
 6791SOL     OW21271   3.363   3.675   5.438
 6791SOL    HW121272   3.294   3.685   5.511
 6791SOL    HW221273   3.454   3.682   5.478
 6792SOL     OW21274   1.166   4.887   1.079
 6792SOL    HW121275   1.129   4.809   1.128
 6792SOL    HW221276   1.097   4.924   1.018
 6793SOL     OW21277   5.626   1.296   0.250
 6793SOL    HW121278   5.669   1.330   0.166
 6793SOL    HW221279   5.541   1.249   0.228
 6794SOL     OW21280   3.361   1.924   5.674
 6794SOL    HW121281   3.368   1.999   5.608
 6794SOL    HW221282   3.420   1.944   5.753
 6795SOL     OW21283   4.141   6.150   0.347
 6795SOL    HW121284   4.085   6.093   0.287
 6795SOL    HW221285   4.177   6.095   0.422
 6796SOL     OW21286   3.883   2.101   2.616
 6796SOL    HW121287   3.808   2.053   2.662
 6796SOL    HW221288   3.959   2.037   2.600
 6797SOL     OW21289   7.007   2.629   3.313
 6797SOL    HW121290   7.017   2.702   3.380
 6797SOL    HW221291   6.957   2.662   3.234
 6798SOL     OW21292   6.287   0.109   2.010
 6798SOL    HW121293   6.364   0.145   2.062
 6798SOL    HW221294   6.240   0.184   1.964
 6799SOL     OW21295   4.400   5.866   2.373
 6799SOL    HW121296   4.431   5.948   2.421
 6799SOL    HW221297   4.477   5.823   2.327
 6800SOL     OW21298   3.497   3.533   6.133
 6800SOL    HW121299   3.593   3.513   6.156
 6800SOL    HW221300   3.440   3.520   6.214
 6801SOL     OW21301   7.020   2.954   3.705
 6801SOL    HW121302   6.946   2.914   3.759
 6801SOL    HW221303   0.028   3.039   3.747
 6802SOL     OW21304   3.419   5.253   2.329
 6802SOL    HW121305   3.321   5.243   2.312
 6802SOL    HW221306   3.466   5.272   2.243
 6803SOL     OW21307   4.826   2.590   6.968
 6803SOL    HW121308   4.901   2.641   7.010
 6803SOL    HW221309   4.858   2.499   6.942
 6804SOL     OW21310   1.255   5.953   3.022
 6804SOL    HW121311   1.248   6.048   2.992
 6804SOL    HW221312   1.352   5.927   3.028
 6805SOL     OW21313   6.425   1.373   5.976
 6805SOL    HW121314   6.501   1.333   6.027
 6805SOL    HW221315   6.369   1.301   5.936
 6806SOL     OW21316   4.679   5.323   5.389
 6806SOL    HW121317   4.761   5.378   5.371
 6806SOL    HW221318   4.657   5.327   5.486
 6807SOL     OW21319   4.409   3.230   0.137
 6807SOL    HW121320   4.368   3.320   0.152
 6807SOL    HW221321   4.492   3.239   0.083
 6808SOL     OW21322   3.041   5.150   3.916
 6808SOL    HW121323   3.017   5.158   4.013
 6808SOL    HW221324   3.080   5.060   3.898
 6809SOL     OW21325   1.296   3.083   6.634
 6809SOL    HW121326   1.221   3.117   6.692
 6809SOL    HW221327   1.268   2.999   6.589
 6810SOL     OW21328   6.440   1.803   3.276
 6810SOL    HW121329   6.385   1.758   3.205
 6810SOL    HW221330   6.492   1.735   3.327
 6811SOL     OW21331   4.799   6.509   2.128
 6811SOL    HW121332   4.720   6.529   2.187
 6811SOL    HW221333   4.781   6.425   2.076
 6812SOL     OW21334   3.861   3.567   3.672
 6812SOL    HW121335   3.893   3.647   3.723
 6812SOL    HW221336   3.906   3.565   3.583
 6813SOL     OW21337   5.270   3.525   0.952
 6813SOL    HW121338   5.254   3.535   0.854
 6813SOL    HW221339   5.195   3.568   1.003
 6814SOL     OW21340   2.169   2.736   0.738
 6814SOL    HW121341   2.094   2.802   0.747
 6814SOL    HW221342   2.249   2.783   0.702
 6815SOL     OW21343   1.452   6.535   6.607
 6815SOL    HW121344   1.382   6.468   6.631
 6815SOL    HW221345   1.419   6.627   6.631
 6816SOL     OW21346   5.089   4.398   1.489
 6816SOL    HW121347   5.035   4.464   1.542
 6816SOL    HW221348   5.070   4.306   1.522
 6817SOL     OW21349   1.768   2.117   5.771
 6817SOL    HW121350   1.690   2.062   5.802
 6817SOL    HW221351   1.830   2.060   5.718
 6818SOL     OW21352   4.242   5.033   0.655
 6818SOL    HW121353   4.330   4.986   0.653
 6818SOL    HW221354   4.212   5.052   0.562
 6819SOL     OW21355   2.703   1.198   3.673
 6819SOL    HW121356   2.761   1.263   3.723
 6819SOL    HW221357   2.679   1.237   3.584
 6820SOL     OW21358   1.303   5.161   4.871
 6820SOL    HW121359   1.221   5.110   4.847
 6820SOL    HW221360   1.369   5.101   4.915
 6821SOL     OW21361   2.245   1.842   4.128
 6821SOL    HW121362   2.228   1.916   4.063
 6821SOL    HW221363   2.343   1.823   4.132
 6822SOL     OW21364   5.535   1.093   5.464
 6822SOL    HW121365   5.544   1.026   5.538
 6822SOL    HW221366   5.562   1.052   5.378
 6823SOL     OW21367   4.162   3.450   2.443
 6823SOL    HW121368   4.179   3.534   2.495
 6823SOL    HW221369   4.190   3.371   2.498
 6824SOL     OW21370   0.617   5.571   4.952
 6824SOL    HW121371   0.666   5.484   4.959
 6824SOL    HW221372   0.558   5.569   4.872
 6825SOL     OW21373   6.148   0.241   4.150
 6825SOL    HW121374   6.125   0.336   4.128
 6825SOL    HW221375   6.101   0.215   4.235
 6826SOL     OW21376   1.316   2.442   3.501
 6826SOL    HW121377   1.416   2.443   3.499
 6826SOL    HW221378   1.281   2.494   3.424
 6827SOL     OW21379   4.220   5.765   5.540
 6827SOL    HW121380   4.294   5.710   5.499
 6827SOL    HW221381   4.133   5.719   5.525
 6828SOL     OW21382   2.318   2.310   1.214
 6828SOL    HW121383   2.238   2.359   1.179
 6828SOL    HW221384   2.401   2.356   1.183
 6829SOL     OW21385   5.761   4.787   4.196
 6829SOL    HW121386   5.801   4.707   4.152
 6829SOL    HW221387   5.669   4.802   4.160
 6830SOL     OW21388   4.689   0.797   3.895
 6830SOL    HW121389   4.749   0.831   3.822
 6830SOL    HW221390   4.678   0.699   3.885
 6831SOL     OW21391   1.333   1.720   6.225
 6831SOL    HW121392   1.321   1.626   6.193
 6831SOL    HW221393   1.413   1.761   6.181
 6832SOL     OW21394   3.023   4.804   1.598
 6832SOL    HW121395   3.093   4.772   1.661
 6832SOL    HW221396   2.953   4.733   1.586
 6833SOL     OW21397   4.263   6.443   7.000
 6833SOL    HW121398   4.212   6.419   0.060
 6833SOL    HW221399   4.210   6.419   6.919
 6834SOL     OW21400   2.501   4.585   2.560
 6834SOL    HW121401   2.596   4.604   2.586
 6834SOL    HW221402   2.439   4.639   2.617
 6835SOL     OW21403   4.031   6.783   3.972
 6835SOL    HW121404   3.962   6.774   3.900
 6835SOL    HW221405   4.007   6.725   4.049
 6836SOL     OW21406   3.285   4.963   0.750
 6836SOL    HW121407   3.209   4.902   0.769
 6836SOL    HW221408   3.303   5.021   0.830
 6837SOL     OW21409   0.838   3.525   3.290
 6837SOL    HW121410   0.742   3.528   3.259
 6837SOL    HW221411   0.843   3.549   3.387
 6838SOL     OW21412   2.446   2.494   0.483
 6838SOL    HW121413   2.511   2.568   0.499
 6838SOL    HW221414   2.469   2.447   0.398
 6839SOL     OW21415   3.745   1.084   2.211
 6839SOL    HW121416   3.774   1.059   2.303
 6839SOL    HW221417   3.658   1.040   2.190
 6840SOL     OW21418   0.766   1.461   5.690
 6840SOL    HW121419   0.730   1.534   5.747
 6840SOL    HW221420   0.866   1.459   5.698
 6841SOL     OW21421   6.545   2.936   5.470
 6841SOL    HW121422   6.479   3.002   5.508
 6841SOL    HW221423   6.608   2.984   5.410
 6842SOL     OW21424   2.596   4.569   2.882
 6842SOL    HW121425   2.578   4.606   2.973
 6842SOL    HW221426   2.644   4.638   2.827
 6843SOL     OW21427   3.157   6.154   1.470
 6843SOL    HW121428   3.138   6.076   1.410
 6843SOL    HW221429   3.071   6.189   1.506
 6844SOL     OW21430   5.658   6.994   5.223
 6844SOL    HW121431   5.745   6.963   5.184
 6844SOL    HW221432   5.587   6.990   5.153
 6845SOL     OW21433   5.978   2.440   3.434
 6845SOL    HW121434   5.929   2.467   3.351
 6845SOL    HW221435   6.043   2.367   3.411
 6846SOL     OW21436   1.494   3.650   0.985
 6846SOL    HW121437   1.543   3.689   1.063
 6846SOL    HW221438   1.396   3.646   1.006
 6847SOL     OW21439   6.662   2.004   3.582
 6847SOL    HW121440   6.639   2.030   3.488
 6847SOL    HW221441   6.761   1.998   3.592
 6848SOL     OW21442   6.777   4.145   4.059
 6848SOL    HW121443   6.819   4.123   4.147
 6848SOL    HW221444   6.754   4.060   4.011
 6849SOL     OW21445   2.776   3.952   5.401
 6849SOL    HW121446   2.820   3.997   5.323
 6849SOL    HW221447   2.685   3.990   5.416
 6850SOL     OW21448   5.941   0.649   4.389
 6850SOL    HW121449   5.923   0.704   4.308
 6850SOL    HW221450   6.013   0.693   4.444
 6851SOL     OW21451   2.367   4.353   3.875
 6851SOL    HW121452   2.284   4.402   3.848
 6851SOL    HW221453   2.342   4.268   3.922
 6852SOL     OW21454   4.606   3.055   0.672
 6852SOL    HW121455   4.553   2.974   0.697
 6852SOL    HW221456   4.613   3.060   0.572
 6853SOL     OW21457   5.612   5.293   5.975
 6853SOL    HW121458   5.607   5.386   6.012
 6853SOL    HW221459   5.703   5.277   5.936
 6854SOL     OW21460   5.827   6.179   5.563
 6854SOL    HW121461   5.872   6.242   5.626
 6854SOL    HW221462   5.818   6.089   5.605
 6855SOL     OW21463   4.856   6.285   3.070
 6855SOL    HW121464   4.809   6.197   3.076
 6855SOL    HW221465   4.799   6.349   3.018
 6856SOL     OW21466   6.561   2.509   0.997
 6856SOL    HW121467   6.531   2.559   1.078
 6856SOL    HW221468   6.649   2.545   0.967
 6857SOL     OW21469   1.039   4.589   5.323
 6857SOL    HW121470   0.984   4.506   5.331
 6857SOL    HW221471   1.042   4.619   5.228
 6858SOL     OW21472   1.314   3.224   1.684
 6858SOL    HW121473   1.314   3.141   1.740
 6858SOL    HW221474   1.403   3.269   1.692
 6859SOL     OW21475   2.329   1.961   0.649
 6859SOL    HW121476   2.250   1.966   0.709
 6859SOL    HW221477   2.326   2.037   0.584
 6860SOL     OW21478   0.221   0.154   6.622
 6860SOL    HW121479   0.242   0.222   6.552
 6860SOL    HW221480   0.278   0.073   6.608
 6861SOL     OW21481   5.917   3.525   0.123
 6861SOL    HW121482   6.010   3.557   0.141
 6861SOL    HW221483   5.921   3.432   0.086
 6862SOL     OW21484   0.342   5.486   2.743
 6862SOL    HW121485   0.382   5.394   2.740
 6862SOL    HW221486   0.308   5.504   2.836
 6863SOL     OW21487   5.105   1.147   5.218
 6863SOL    HW121488   5.170   1.224   5.215
 6863SOL    HW221489   5.052   1.152   5.303
 6864SOL     OW21490   2.450   3.425   6.498
 6864SOL    HW121491   2.508   3.446   6.577
 6864SOL    HW221492   2.360   3.465   6.512
 6865SOL     OW21493   1.783   1.113   2.887
 6865SOL    HW121494   1.763   1.204   2.924
 6865SOL    HW221495   1.784   1.118   2.787
 6866SOL     OW21496   1.482   4.842   6.254
 6866SOL    HW121497   1.480   4.795   6.166
 6866SOL    HW221498   1.423   4.795   6.319
 6867SOL     OW21499   1.627   1.936   6.605
 6867SOL    HW121500   1.604   2.001   6.677
 6867SOL    HW221501   1.724   1.912   6.612
 6868SOL     OW21502   4.130   5.128   3.742
 6868SOL    HW121503   4.197   5.131   3.667
 6868SOL    HW221504   4.170   5.083   3.821
 6869SOL     OW21505   0.994   0.633   5.532
 6869SOL    HW121506   1.023   0.544   5.568
 6869SOL    HW221507   1.040   0.650   5.444
 6870SOL     OW21508   6.388   3.231   5.842
 6870SOL    HW121509   6.302   3.233   5.892
 6870SOL    HW221510   6.453   3.171   5.889
 6871SOL     OW21511   6.073   2.866   3.745
 6871SOL    HW121512   6.162   2.888   3.705
 6871SOL    HW221513   6.004   2.863   3.673
 6872SOL     OW21514   2.352   4.651   1.581
 6872SOL    HW121515   2.310   4.741   1.574
 6872SOL    HW221516   2.293   4.591   1.635
 6873SOL     OW21517   0.081   3.239   2.982
 6873SOL    HW121518   0.133   3.178   3.042
 6873SOL    HW221519   0.143   3.291   2.924
 6874SOL     OW21520   3.521   6.168   1.812
 6874SOL    HW121521   3.525   6.069   1.827
 6874SOL    HW221522   3.478   6.186   1.723
 6875SOL     OW21523   2.625   0.275   6.328
 6875SOL    HW121524   2.592   0.320   6.246
 6875SOL    HW221525   2.560   0.290   6.403
 6876SOL     OW21526   5.802   5.800   3.238
 6876SOL    HW121527   5.834   5.706   3.225
 6876SOL    HW221528   5.807   5.849   3.152
 6877SOL     OW21529   1.460   3.858   1.692
 6877SOL    HW121530   1.518   3.923   1.644
 6877SOL    HW221531   1.496   3.841   1.784
 6878SOL     OW21532   1.338   0.180   3.366
 6878SOL    HW121533   1.300   0.192   3.458
 6878SOL    HW221534   1.283   0.232   3.300
 6879SOL     OW21535   1.594   1.390   1.173
 6879SOL    HW121536   1.661   1.321   1.147
 6879SOL    HW221537   1.517   1.387   1.110
 6880SOL     OW21538   0.932   6.789   0.320
 6880SOL    HW121539   0.950   6.886   0.308
 6880SOL    HW221540   0.913   6.747   0.231
 6881SOL     OW21541   6.611   3.390   1.706
 6881SOL    HW121542   6.622   3.293   1.729
 6881SOL    HW221543   6.658   3.446   1.774
 6882SOL     OW21544   2.786   6.699   6.384
 6882SOL    HW121545   2.722   6.769   6.352
 6882SOL    HW221546   2.735   6.623   6.423
 6883SOL     OW21547   4.545   6.976   0.808
 6883SOL    HW121548   4.540   6.967   0.908
 6883SOL    HW221549   4.455   6.959   0.769
 6884SOL     OW21550   1.618   5.634   3.026
 6884SOL    HW121551   1.550   5.612   3.096
 6884SOL    HW221552   1.595   5.720   2.982
 6885SOL     OW21553   5.446   4.356   4.674
 6885SOL    HW121554   5.473   4.450   4.690
 6885SOL    HW221555   5.506   4.294   4.725
 6886SOL     OW21556   5.903   3.436   0.711
 6886SOL    HW121557   5.865   3.422   0.803
 6886SOL    HW221558   5.892   3.352   0.658
 6887SOL     OW21559   5.371   6.221   5.776
 6887SOL    HW121560   5.430   6.297   5.805
 6887SOL    HW221561   5.418   6.166   5.707
 6888SOL     OW21562   7.020   4.294   1.532
 6888SOL    HW121563   6.983   4.274   1.442
 6888SOL    HW221564   6.972   4.372   1.572
 6889SOL     OW21565   0.515   2.807   5.546
 6889SOL    HW121566   0.582   2.765   5.606
 6889SOL    HW221567   0.449   2.739   5.515
 6890SOL     OW21568   4.971   4.580   4.161
 6890SOL    HW121569   5.045   4.644   4.142
 6890SOL    HW221570   4.991   4.492   4.118
 6891SOL     OW21571   1.567   1.583   0.577
 6891SOL    HW121572   1.525   1.673   0.593
 6891SOL    HW221573   1.602   1.578   0.483
 6892SOL     OW21574   1.130   0.971   5.424
 6892SOL    HW121575   1.143   1.033   5.347
 6892SOL    HW221576   1.055   1.004   5.481
 6893SOL     OW21577   5.887   3.603   1.153
 6893SOL    HW121578   5.920   3.590   1.246
 6893SOL    HW221579   5.837   3.521   1.124
 6894SOL     OW21580   5.511   5.194   0.110
 6894SOL    HW121581   5.475   5.125   0.173
 6894SOL    HW221582   5.506   5.284   0.153
 6895SOL     OW21583   1.232   5.347   3.016
 6895SOL    HW121584   1.183   5.387   3.094
 6895SOL    HW221585   1.317   5.396   3.001
 6896SOL     OW21586   4.723   1.083   6.088
 6896SOL    HW121587   4.776   1.162   6.119
 6896SOL    HW221588   4.786   1.011   6.059
 6897SOL     OW21589   4.394   2.475   4.821
 6897SOL    HW121590   4.307   2.467   4.870
 6897SOL    HW221591   4.453   2.540   4.868
 6898SOL     OW21592   1.985   6.074   1.108
 6898SOL    HW121593   2.020   6.163   1.080
 6898SOL    HW221594   1.910   6.086   1.172
 6899SOL     OW21595   6.148   5.051   3.110
 6899SOL    HW121596   6.091   5.028   3.188
 6899SOL    HW221597   6.120   5.140   3.073
 6900SOL     OW21598   0.479   4.518   4.808
 6900SOL    HW121599   0.521   4.466   4.733
 6900SOL    HW221600   0.389   4.552   4.778
 6901SOL     OW21601   4.673   4.295   6.004
 6901SOL    HW121602   4.616   4.259   5.930
 6901SOL    HW221603   4.766   4.260   5.995
 6902SOL     OW21604   0.220   5.691   5.238
 6902SOL    HW121605   0.250   5.628   5.166
 6902SOL    HW221606   0.300   5.738   5.276
 6903SOL     OW21607   0.751   6.836   5.053
 6903SOL    HW121608   0.812   6.907   5.020
 6903SOL    HW221609   0.725   6.777   4.976
 6904SOL     OW21610   7.018   0.285   6.448
 6904SOL    HW121611   0.035   0.193   6.435
 6904SOL    HW221612   0.048   0.333   6.518
 6905SOL     OW21613   4.367   5.547   5.454
 6905SOL    HW121614   4.437   5.587   5.394
 6905SOL    HW221615   4.284   5.528   5.401
 6906SOL     OW21616   2.339   2.116   3.726
 6906SOL    HW121617   2.369   2.149   3.636
 6906SOL    HW221618   2.341   2.193   3.791
 6907SOL     OW21619   5.585   3.485   0.318
 6907SOL    HW121620   5.489   3.502   0.296
 6907SOL    HW221621   5.593   3.460   0.415
 6908SOL     OW21622   2.741   5.661   1.022
 6908SOL    HW121623   2.733   5.577   0.969
 6908SOL    HW221624   2.653   5.683   1.064
 6909SOL     OW21625   6.107   5.206   2.319
 6909SOL    HW121626   6.124   5.118   2.363
 6909SOL    HW221627   6.075   5.191   2.226
 6910SOL     OW21628   1.964   2.617   2.667
 6910SOL    HW121629   1.964   2.670   2.751
 6910SOL    HW221630   2.053   2.574   2.655
 6911SOL     OW21631   1.887   6.916   5.439
 6911SOL    HW121632   1.893   6.825   5.479
 6911SOL    HW221633   1.880   6.909   5.340
 6912SOL     OW21634   2.273   4.000   6.080
 6912SOL    HW121635   2.342   4.051   6.030
 6912SOL    HW221636   2.202   3.968   6.017
 6913SOL     OW21637   3.792   5.428   6.229
 6913SOL    HW121638   3.774   5.511   6.282
 6913SOL    HW221639   3.714   5.407   6.171
 6914SOL     OW21640   0.991   1.998   2.338
 6914SOL    HW121641   0.975   2.022   2.433
 6914SOL    HW221642   0.986   2.080   2.281
 6915SOL     OW21643   5.780   2.780   4.032
 6915SOL    HW121644   5.717   2.705   4.014
 6915SOL    HW221645   5.856   2.775   3.967
 6916SOL     OW21646   4.386   6.003   5.854
 6916SOL    HW121647   4.427   6.004   5.763
 6916SOL    HW221648   4.398   5.912   5.894
 6917SOL     OW21649   3.310   5.590   2.373
 6917SOL    HW121650   3.402   5.587   2.334
 6917SOL    HW221651   3.313   5.561   2.469
 6918SOL     OW21652   1.301   3.678   6.121
 6918SOL    HW121653   1.330   3.611   6.053
 6918SOL    HW221654   1.203   3.668   6.137
 6919SOL     OW21655   6.268   5.941   3.534
 6919SOL    HW121656   6.330   5.969   3.607
 6919SOL    HW221657   6.174   5.964   3.558
 6920SOL     OW21658   0.094   3.531   5.117
 6920SOL    HW121659   0.140   3.442   5.118
 6920SOL    HW221660   0.159   3.602   5.088
 6921SOL     OW21661   3.550   0.369   5.548
 6921SOL    HW121662   3.469   0.426   5.552
 6921SOL    HW221663   3.613   0.395   5.621
 6922SOL     OW21664   2.773   3.892   6.684
 6922SOL    HW121665   2.754   3.925   6.592
 6922SOL    HW221666   2.811   3.966   6.739
 6923SOL     OW21667   5.046   6.691   2.488
 6923SOL    HW121668   4.949   6.667   2.485
 6923SOL    HW221669   5.060   6.761   2.558
 6924SOL     OW21670   3.205   4.847   1.375
 6924SOL    HW121671   3.247   4.923   1.327
 6924SOL    HW221672   3.186   4.874   1.470
 6925SOL     OW21673   5.987   0.107   4.340
 6925SOL    HW121674   5.972   0.032   4.275
 6925SOL    HW221675   5.924   0.097   4.417
 6926SOL     OW21676   2.372   3.017   0.213
 6926SOL    HW121677   2.422   3.086   0.266
 6926SOL    HW221678   2.430   2.938   0.197
 6927SOL     OW21679   3.706   6.761   5.622
 6927SOL    HW121680   3.618   6.768   5.575
 6927SOL    HW221681   3.717   6.838   5.684
 6928SOL     OW21682   4.135   5.482   0.721
 6928SOL    HW121683   4.117   5.456   0.816
 6928SOL    HW221684   4.155   5.580   0.717
 6929SOL     OW21685   4.480   6.142   3.756
 6929SOL    HW121686   4.529   6.221   3.720
 6929SOL    HW221687   4.468   6.074   3.683
 6930SOL     OW21688   0.655   6.232   2.420
 6930SOL    HW121689   0.708   6.150   2.397
 6930SOL    HW221690   0.701   6.283   2.492
 6931SOL     OW21691   4.301   2.758   0.051
 6931SOL    HW121692   4.322   2.694   0.125
 6931SOL    HW221693   4.273   2.708   6.992
 6932SOL     OW21694   3.935   0.991   6.524
 6932SOL    HW121695   3.871   1.067   6.528
 6932SOL    HW221696   3.932   0.949   6.433
 6933SOL     OW21697   3.541   6.048   5.900
 6933SOL    HW121698   3.550   5.957   5.941
 6933SOL    HW221699   3.626   6.099   5.915
 6934SOL     OW21700   4.313   5.454   6.938
 6934SOL    HW121701   4.380   5.524   6.963
 6934SOL    HW221702   4.265   5.482   6.854
 6935SOL     OW21703   4.279   5.789   2.033
 6935SOL    HW121704   4.209   5.858   2.016
 6935SOL    HW221705   4.300   5.741   1.948
 6936SOL     OW21706   1.360   1.160   0.378
 6936SOL    HW121707   1.275   1.108   0.378
 6936SOL    HW221708   1.350   1.242   0.434
 6937SOL     OW21709   6.676   4.163   0.322
 6937SOL    HW121710   6.677   4.090   0.390
 6937SOL    HW221711   6.751   4.149   0.257
 6938SOL     OW21712   2.715   0.204   5.532
 6938SOL    HW121713   2.735   0.267   5.607
 6938SOL    HW221714   2.791   0.140   5.521
 6939SOL     OW21715   6.300   3.132   3.548
 6939SOL    HW121716   6.336   3.183   3.626
 6939SOL    HW221717   6.248   3.194   3.489
 6940SOL     OW21718   0.535   0.051   1.057
 6940SOL    HW121719   0.591   7.005   1.104
 6940SOL    HW221720   0.441   0.045   1.090
 6941SOL     OW21721   4.099   3.269   2.657
 6941SOL    HW121722   4.089   3.195   2.724
 6941SOL    HW221723   4.043   3.249   2.576
 6942SOL     OW21724   0.608   5.812   2.698
 6942SOL    HW121725   0.634   5.722   2.734
 6942SOL    HW221726   0.609   5.879   2.771
 6943SOL     OW21727   3.477   5.740   5.320
 6943SOL    HW121728   3.418   5.681   5.374
 6943SOL    HW221729   3.442   5.834   5.324
 6944SOL     OW21730   1.165   4.946   6.274
 6944SOL    HW121731   1.260   4.976   6.283
 6944SOL    HW221732   1.140   4.890   6.353
 6945SOL     OW21733   3.808   1.926   1.109
 6945SOL    HW121734   3.908   1.927   1.113
 6945SOL    HW221735   3.771   1.898   1.197
 6946SOL     OW21736   5.885   5.297   3.865
 6946SOL    HW121737   5.967   5.351   3.847
 6946SOL    HW221738   5.823   5.302   3.787
 6947SOL     OW21739   6.243   3.082   5.318
 6947SOL    HW121740   6.269   3.080   5.414
 6947SOL    HW221741   6.203   2.994   5.292
 6948SOL     OW21742   0.700   5.639   0.126
 6948SOL    HW121743   0.633   5.706   0.092
 6948SOL    HW221744   0.750   5.678   0.203
 6949SOL     OW21745   1.724   1.471   3.378
 6949SOL    HW121746   1.633   1.435   3.399
 6949SOL    HW221747   1.722   1.571   3.386
 6950SOL     OW21748   2.063   1.390   4.191
 6950SOL    HW121749   2.053   1.398   4.290
 6950SOL    HW221750   2.134   1.452   4.159
 6951SOL     OW21751   0.992   3.266   0.239
 6951SOL    HW121752   0.900   3.244   0.271
 6951SOL    HW221753   1.006   3.365   0.242
 6952SOL     OW21754   4.890   5.035   3.954
 6952SOL    HW121755   4.890   4.993   4.045
 6952SOL    HW221756   4.959   5.107   3.951
 6953SOL     OW21757   0.547   0.682   1.743
 6953SOL    HW121758   0.562   0.661   1.840
 6953SOL    HW221759   0.634   0.680   1.695
 6954SOL     OW21760   6.838   5.487   6.673
 6954SOL    HW121761   6.858   5.524   6.764
 6954SOL    HW221762   6.917   5.503   6.613
 6955SOL     OW21763   3.739   5.591   3.151
 6955SOL    HW121764   3.669   5.663   3.152
 6955SOL    HW221765   3.705   5.511   3.201
 6956SOL     OW21766   6.259   4.650   3.148
 6956SOL    HW121767   6.165   4.668   3.118
 6956SOL    HW221768   6.311   4.610   3.073
 6957SOL     OW21769   5.268   4.171   5.708
 6957SOL    HW121770   5.338   4.120   5.659
 6957SOL    HW221771   5.278   4.269   5.689
 6958SOL     OW21772   3.513   3.665   2.121
 6958SOL    HW121773   3.449   3.629   2.190
 6958SOL    HW221774   3.606   3.637   2.145
 6959SOL     OW21775   7.008   3.444   3.291
 6959SOL    HW121776   6.940   3.443   3.218
 6959SOL    HW221777   7.004   3.358   3.342
 6960SOL     OW21778   4.948   4.839   0.034
 6960SOL    HW121779   4.969   4.914   0.097
 6960SOL    HW221780   4.959   4.751   0.081
 6961SOL     OW21781   4.759   2.827   4.290
 6961SOL    HW121782   4.806   2.874   4.216
 6961SOL    HW221783   4.759   2.884   4.372
 6962SOL     OW21784   2.669   6.727   0.343
 6962SOL    HW121785   2.640   6.632   0.332
 6962SOL    HW221786   2.698   6.763   0.254
 6963SOL     OW21787   0.554   0.109   7.007
 6963SOL    HW121788   0.515   0.200   7.018
 6963SOL    HW221789   0.574   0.092   6.910
 6964SOL     OW21790   2.928   1.815   5.439
 6964SOL    HW121791   2.993   1.805   5.364
 6964SOL    HW221792   2.934   1.736   5.499
 6965SOL     OW21793   1.778   1.195   0.496
 6965SOL    HW121794   1.686   1.156   0.505
 6965SOL    HW221795   1.791   1.229   0.403
 6966SOL     OW21796   0.951   6.174   0.598
 6966SOL    HW121797   0.864   6.153   0.641
 6966SOL    HW221798   0.951   6.139   0.504
 6967SOL     OW21799   4.126   6.886   0.249
 6967SOL    HW121800   4.045   6.917   0.201
 6967SOL    HW221801   4.157   6.799   0.211
 6968SOL     OW21802   4.695   0.515   1.818
 6968SOL    HW121803   4.714   0.611   1.838
 6968SOL    HW221804   4.748   0.487   1.738
 6969SOL     OW21805   1.448   3.524   2.697
 6969SOL    HW121806   1.420   3.477   2.613
 6969SOL    HW221807   1.544   3.502   2.717
 6970SOL     OW21808   2.850   5.800   5.695
 6970SOL    HW121809   2.898   5.712   5.695
 6970SOL    HW221810   2.878   5.853   5.615
 6971SOL     OW21811   6.898   3.767   0.337
 6971SOL    HW121812   6.984   3.794   0.294
 6971SOL    HW221813   6.825   3.764   0.268
 6972SOL     OW21814   5.851   3.130   1.233
 6972SOL    HW121815   5.915   3.174   1.170
 6972SOL    HW221816   5.829   3.038   1.200
 6973SOL     OW21817   1.031   1.027   2.705
 6973SOL    HW121818   1.083   0.993   2.784
 6973SOL    HW221819   1.061   1.119   2.682
 6974SOL     OW21820   3.980   3.763   2.876
 6974SOL    HW121821   3.925   3.846   2.885
 6974SOL    HW221822   4.035   3.751   2.959
 6975SOL     OW21823   2.928   5.976   5.466
 6975SOL    HW121824   2.881   5.906   5.412
 6975SOL    HW221825   2.867   6.053   5.483
 6976SOL     OW21826   5.119   5.141   5.483
 6976SOL    HW121827   5.042   5.104   5.431
 6976SOL    HW221828   5.084   5.192   5.562
 6977SOL     OW21829   4.318   5.345   2.494
 6977SOL    HW121830   4.264   5.405   2.553
 6977SOL    HW221831   4.259   5.308   2.422
 6978SOL     OW21832   0.308   3.580   0.939
 6978SOL    HW121833   0.221   3.569   0.890
 6978SOL    HW221834   0.377   3.522   0.897
 6979SOL     OW21835   1.097   4.073   2.885
 6979SOL    HW121836   1.014   4.115   2.849
 6979SOL    HW221837   1.082   4.045   2.980
 6980SOL     OW21838   3.066   5.034   2.881
 6980SOL    HW121839   3.059   4.955   2.821
 6980SOL    HW221840   3.001   5.024   2.957
 6981SOL     OW21841   4.022   2.932   6.939
 6981SOL    HW121842   4.030   2.953   6.841
 6981SOL    HW221843   4.020   2.833   6.952
 6982SOL     OW21844   6.911   6.321   2.376
 6982SOL    HW121845   6.967   6.248   2.415
 6982SOL    HW221846   6.966   6.373   2.310
 6983SOL     OW21847   6.686   0.350   4.052
 6983SOL    HW121848   6.758   0.418   4.064
 6983SOL    HW221849   6.682   0.291   4.133
 6984SOL     OW21850   1.618   4.196   3.266
 6984SOL    HW121851   1.553   4.184   3.341
 6984SOL    HW221852   1.567   4.203   3.179
 6985SOL     OW21853   5.016   3.303   0.757
 6985SOL    HW121854   4.960   3.221   0.772
 6985SOL    HW221855   5.105   3.276   0.721
 6986SOL     OW21856   4.587   5.899   5.074
 6986SOL    HW121857   4.676   5.865   5.102
 6986SOL    HW221858   4.563   5.980   5.129
 6987SOL     OW21859   0.241   1.276   6.865
 6987SOL    HW121860   0.143   1.257   6.858
 6987SOL    HW221861   0.257   1.374   6.849
 6988SOL     OW21862   1.009   0.819   6.426
 6988SOL    HW121863   0.983   0.807   6.330
 6988SOL    HW221864   1.077   0.750   6.450
 6989SOL     OW21865   0.486   3.025   2.237
 6989SOL    HW121866   0.410   3.025   2.171
 6989SOL    HW221867   0.455   3.065   2.323
 6990SOL     OW21868   3.001   4.954   6.306
 6990SOL    HW121869   3.097   4.978   6.294
 6990SOL    HW221870   2.975   4.964   6.402
 6991SOL     OW21871   5.595   4.064   4.321
 6991SOL    HW121872   5.559   3.980   4.280
 6991SOL    HW221873   5.520   4.128   4.339
 6992SOL     OW21874   1.823   5.358   5.811
 6992SOL    HW121875   1.743   5.348   5.871
 6992SOL    HW221876   1.818   5.446   5.764
 6993SOL     OW21877   4.569   2.305   1.787
 6993SOL    HW121878   4.487   2.262   1.826
 6993SOL    HW221879   4.568   2.403   1.807
 6994SOL     OW21880   2.364   0.974   2.952
 6994SOL    HW121881   2.333   0.999   3.043
 6994SOL    HW221882   2.410   1.052   2.910
 6995SOL     OW21883   6.725   5.615   0.315
 6995SOL    HW121884   6.702   5.662   0.229
 6995SOL    HW221885   6.676   5.528   0.319
 6996SOL     OW21886   1.469   0.629   6.926
 6996SOL    HW121887   1.436   0.718   6.896
 6996SOL    HW221888   1.467   0.624   0.004
 6997SOL     OW21889   5.912   5.756   6.623
 6997SOL    HW121890   5.886   5.660   6.631
 6997SOL    HW221891   6.003   5.762   6.582
 6998SOL     OW21892   0.311   0.989   5.648
 6998SOL    HW121893   0.380   0.917   5.649
 6998SOL    HW221894   0.282   1.008   5.742
 6999SOL     OW21895   0.871   2.646   6.930
 6999SOL    HW121896   0.921   2.648   6.843
 6999SOL    HW221897   0.773   2.647   6.912
 7000SOL     OW21898   0.821   5.435   2.508
 7000SOL    HW121899   0.864   5.525   2.510
 7000SOL    HW221900   0.843   5.386   2.592
 7001SOL     OW21901   0.844   1.285   3.628
 7001SOL    HW121902   0.789   1.263   3.709
 7001SOL    HW221903   0.879   1.378   3.636
 7002SOL     OW21904   1.443   4.441   3.135
 7002SOL    HW121905   1.471   4.388   3.216
 7002SOL    HW221906   1.506   4.424   3.060
 7003SOL     OW21907   6.965   5.606   6.443
 7003SOL    HW121908   7.012   5.674   6.387
 7003SOL    HW221909   6.991   5.514   6.414
 7004SOL     OW21910   0.796   0.441   7.001
 7004SOL    HW121911   0.746   0.519   6.963
 7004SOL    HW221912   0.853   0.401   6.930
 7005SOL     OW21913   2.100   4.955   0.561
 7005SOL    HW121914   2.112   4.895   0.640
 7005SOL    HW221915   2.189   4.991   0.533
 7006SOL     OW21916   0.858   0.752   3.806
 7006SOL    HW121917   0.849   0.839   3.854
 7006SOL    HW221918   0.954   0.735   3.784
 7007SOL     OW21919   2.023   6.400   6.195
 7007SOL    HW121920   1.956   6.450   6.250
 7007SOL    HW221921   2.021   6.303   6.219
 7008SOL     OW21922   6.133   3.127   3.039
 7008SOL    HW121923   6.224   3.168   3.047
 7008SOL    HW221924   6.064   3.199   3.033
 7009SOL     OW21925   5.349   5.450   2.529
 7009SOL    HW121926   5.363   5.491   2.619
 7009SOL    HW221927   5.332   5.521   2.462
 7010SOL     OW21928   4.957   2.269   2.909
 7010SOL    HW121929   4.864   2.238   2.924
 7010SOL    HW221930   5.021   2.201   2.944
 7011SOL     OW21931   1.911   5.691   6.598
 7011SOL    HW121932   1.988   5.675   6.536
 7011SOL    HW221933   1.942   5.749   6.674
 7012SOL     OW21934   0.787   3.450   0.396
 7012SOL    HW121935   0.770   3.351   0.396
 7012SOL    HW221936   0.781   3.485   0.302
 7013SOL     OW21937   2.650   2.445   0.028
 7013SOL    HW121938   2.735   2.427   0.078
 7013SOL    HW221939   2.670   2.484   6.961
 7014SOL     OW21940   6.943   4.020   1.170
 7014SOL    HW121941   6.868   4.023   1.235
 7014SOL    HW221942   6.927   4.086   1.097
 7015SOL     OW21943   6.086   6.619   0.838
 7015SOL    HW121944   6.084   6.640   0.936
 7015SOL    HW221945   6.042   6.530   0.823
 7016SOL     OW21946   2.656   5.409   0.923
 7016SOL    HW121947   2.616   5.377   1.009
 7016SOL    HW221948   2.683   5.331   0.867
 7017SOL     OW21949   5.927   3.810   6.769
 7017SOL    HW121950   6.024   3.810   6.791
 7017SOL    HW221951   5.893   3.716   6.767
 7018SOL     OW21952   6.652   2.053   4.095
 7018SOL    HW121953   6.580   2.051   4.164
 7018SOL    HW221954   6.665   2.147   4.063
 7019SOL     OW21955   3.205   5.897   2.604
 7019SOL    HW121956   3.189   5.993   2.580
 7019SOL    HW221957   3.157   5.875   2.689
 7020SOL     OW21958   6.591   1.871   0.635
 7020SOL    HW121959   6.615   1.936   0.563
 7020SOL    HW221960   6.657   1.796   0.636
 7021SOL     OW21961   0.870   2.448   4.612
 7021SOL    HW121962   0.787   2.503   4.604
 7021SOL    HW221963   0.923   2.479   4.691
 7022SOL     OW21964   1.886   3.690   1.082
 7022SOL    HW121965   1.923   3.733   1.000
 7022SOL    HW221966   1.949   3.704   1.159
 7023SOL     OW21967   6.791   1.839   1.131
 7023SOL    HW121968   6.699   1.834   1.172
 7023SOL    HW221969   6.816   1.748   1.097
 7024SOL     OW21970   3.584   4.321   5.191
 7024SOL    HW121971   3.508   4.257   5.205
 7024SOL    HW221972   3.654   4.277   5.135
 7025SOL     OW21973   3.795   0.673   1.087
 7025SOL    HW121974   3.885   0.634   1.068
 7025SOL    HW221975   3.789   0.764   1.046
 7026SOL     OW21976   3.210   2.355   1.047
 7026SOL    HW121977   3.306   2.365   1.074
 7026SOL    HW221978   3.152   2.368   1.128
 7027SOL     OW21979   2.748   4.473   0.600
 7027SOL    HW121980   2.826   4.490   0.659
 7027SOL    HW221981   2.758   4.384   0.556
 7028SOL     OW21982   2.822   0.519   2.145
 7028SOL    HW121983   2.734   0.540   2.186
 7028SOL    HW221984   2.876   0.603   2.134
 7029SOL     OW21985   3.349   4.142   2.867
 7029SOL    HW121986   3.431   4.198   2.879
 7029SOL    HW221987   3.333   4.127   2.770
 7030SOL     OW21988   5.424   6.762   4.587
 7030SOL    HW121989   5.427   6.689   4.655
 7030SOL    HW221990   5.506   6.818   4.594
 7031SOL     OW21991   5.223   4.795   1.427
 7031SOL    HW121992   5.304   4.756   1.383
 7031SOL    HW221993   5.251   4.849   1.507
 7032SOL     OW21994   3.516   5.125   3.802
 7032SOL    HW121995   3.518   5.216   3.760
 7032SOL    HW221996   3.492   5.133   3.899
 7033SOL     OW21997   2.704   2.097   5.686
 7033SOL    HW121998   2.716   2.156   5.606
 7033SOL    HW221999   2.783   2.038   5.696
 7034SOL     OW22000   6.701   2.547   3.118
 7034SOL    HW122001   6.698   2.451   3.147
 7034SOL    HW222002   6.743   2.553   3.027
 7035SOL     OW22003   3.633   2.582   0.790
 7035SOL    HW122004   3.600   2.648   0.858
 7035SOL    HW222005   3.556   2.532   0.752
 7036SOL     OW22006   6.869   1.994   2.191
 7036SOL    HW122007   6.868   1.952   2.282
 7036SOL    HW222008   6.797   2.063   2.185
 7037SOL     OW22009   0.536   1.453   5.463
 7037SOL    HW122010   0.496   1.362   5.456
 7037SOL    HW222011   0.601   1.455   5.539
 7038SOL     OW22012   1.538   3.858   6.742
 7038SOL    HW122013   1.598   3.817   6.673
 7038SOL    HW222014   1.522   3.791   6.815
 7039SOL     OW22015   5.946   0.576   1.330
 7039SOL    HW122016   5.849   0.568   1.352
 7039SOL    HW222017   5.986   0.485   1.319
 7040SOL     OW22018   5.209   2.955   4.835
 7040SOL    HW122019   5.261   2.881   4.792
 7040SOL    HW222020   5.208   3.035   4.776
 7041SOL     OW22021   0.969   6.135   3.111
 7041SOL    HW122022   1.043   6.202   3.100
 7041SOL    HW222023   1.003   6.057   3.163
 7042SOL     OW22024   4.571   5.019   5.574
 7042SOL    HW122025   4.556   5.104   5.624
 7042SOL    HW222026   4.495   5.004   5.510
 7043SOL     OW22027   2.658   5.695   0.385
 7043SOL    HW122028   2.722   5.642   0.439
 7043SOL    HW222029   2.566   5.657   0.396
 7044SOL     OW22030   4.912   5.983   5.465
 7044SOL    HW122031   4.996   5.928   5.464
 7044SOL    HW222032   4.898   6.020   5.557
 7045SOL     OW22033   5.226   0.600   1.544
 7045SOL    HW122034   5.195   0.650   1.463
 7045SOL    HW222035   5.258   0.509   1.516
 7046SOL     OW22036   3.182   0.522   1.894
 7046SOL    HW122037   3.097   0.537   1.844
 7046SOL    HW222038   3.174   0.562   1.985
 7047SOL     OW22039   1.130   0.004   1.345
 7047SOL    HW122040   1.053   0.068   1.336
 7047SOL    HW222041   1.154   6.990   1.255
 7048SOL     OW22042   0.647   5.226   4.694
 7048SOL    HW122043   0.742   5.228   4.663
 7048SOL    HW222044   0.643   5.190   4.787
 7049SOL     OW22045   2.785   1.781   4.869
 7049SOL    HW122046   2.816   1.761   4.776
 7049SOL    HW222047   2.688   1.804   4.867
 7050SOL     OW22048   4.248   4.130   0.601
 7050SOL    HW122049   4.193   4.095   0.525
 7050SOL    HW222050   4.318   4.063   0.625
 7051SOL     OW22051   2.097   1.048   2.499
 7051SOL    HW122052   2.077   0.951   2.483
 7051SOL    HW222053   2.135   1.059   2.591
 7052SOL     OW22054   5.847   2.243   3.018
 7052SOL    HW122055   5.785   2.262   2.942
 7052SOL    HW222056   5.869   2.145   3.019
 7053SOL     OW22057   0.658   4.392   3.197
 7053SOL    HW122058   0.697   4.345   3.277
 7053SOL    HW222059   0.658   4.330   3.119
 7054SOL     OW22060   5.141   6.616   0.808
 7054SOL    HW122061   5.164   6.600   0.712
 7054SOL    HW222062   5.178   6.705   0.837
 7055SOL     OW22063   1.963   0.132   6.939
 7055SOL    HW122064   1.972   0.199   6.865
 7055SOL    HW222065   2.038   0.066   6.934
 7056SOL     OW22066   0.688   5.559   1.348
 7056SOL    HW122067   0.682   5.607   1.261
 7056SOL    HW222068   0.643   5.471   1.341
 7057SOL     OW22069   2.872   6.476   4.812
 7057SOL    HW122070   2.825   6.519   4.735
 7057SOL    HW222071   2.936   6.541   4.853
 7058SOL     OW22072   5.849   2.762   5.646
 7058SOL    HW122073   5.906   2.747   5.727
 7058SOL    HW222074   5.788   2.839   5.663
 7059SOL     OW22075   2.073   0.870   3.925
 7059SOL    HW122076   2.143   0.812   3.967
 7059SOL    HW222077   2.064   0.954   3.978
 7060SOL     OW22078   2.664   2.861   1.024
 7060SOL    HW122079   2.578   2.858   1.074
 7060SOL    HW222080   2.737   2.892   1.085
 7061SOL     OW22081   1.096   6.746   0.924
 7061SOL    HW122082   1.017   6.761   0.865
 7061SOL    HW222083   1.124   6.650   0.917
 7062SOL     OW22084   3.400   0.658   5.286
 7062SOL    HW122085   3.456   0.588   5.243
 7062SOL    HW222086   3.332   0.615   5.346
 7063SOL     OW22087   0.232   1.172   1.370
 7063SOL    HW122088   0.253   1.159   1.273
 7063SOL    HW222089   0.215   1.268   1.388
 7064SOL     OW22090   2.653   1.764   5.796
 7064SOL    HW122091   2.647   1.842   5.735
 7064SOL    HW222092   2.567   1.753   5.846
 7065SOL     OW22093   3.016   6.955   2.682
 7065SOL    HW122094   2.929   6.959   2.732
 7065SOL    HW222095   2.998   6.931   2.586
 7066SOL     OW22096   4.213   1.321   1.288
 7066SOL    HW122097   4.116   1.303   1.298
 7066SOL    HW222098   4.229   1.419   1.275
 7067SOL     OW22099   2.990   4.192   5.988
 7067SOL    HW122100   2.919   4.259   5.965
 7067SOL    HW222101   3.023   4.208   6.081
 7068SOL     OW22102   4.761   5.005   3.053
 7068SOL    HW122103   4.820   5.085   3.048
 7068SOL    HW222104   4.674   5.024   3.007
 7069SOL     OW22105   3.647   1.642   6.039
 7069SOL    HW122106   3.732   1.592   6.021
 7069SOL    HW222107   3.572   1.599   5.989
 7070SOL     OW22108   0.488   1.835   5.470
 7070SOL    HW122109   0.453   1.753   5.425
 7070SOL    HW222110   0.584   1.822   5.493
 7071SOL     OW22111   4.175   5.167   6.739
 7071SOL    HW122112   4.123   5.244   6.702
 7071SOL    HW222113   4.128   5.130   6.819
 7072SOL     OW22114   1.541   3.782   5.233
 7072SOL    HW122115   1.636   3.766   5.204
 7072SOL    HW222116   1.524   3.881   5.234
 7073SOL     OW22117   4.215   1.287   4.856
 7073SOL    HW122118   4.198   1.347   4.934
 7073SOL    HW222119   4.241   1.196   4.888
 7074SOL     OW22120   5.814   2.852   2.969
 7074SOL    HW122121   5.831   2.825   3.064
 7074SOL    HW222122   5.900   2.884   2.928
 7075SOL     OW22123   1.844   4.347   2.841
 7075SOL    HW122124   1.834   4.249   2.825
 7075SOL    HW222125   1.928   4.379   2.797
 7076SOL     OW22126   6.777   1.855   1.543
 7076SOL    HW122127   6.842   1.857   1.619
 7076SOL    HW222128   6.726   1.769   1.545
 7077SOL     OW22129   3.567   6.288   2.345
 7077SOL    HW122130   3.509   6.285   2.264
 7077SOL    HW222131   3.604   6.197   2.363
 7078SOL     OW22132   6.714   1.417   7.007
 7078SOL    HW122133   6.652   1.427   0.062
 7078SOL    HW222134   6.768   1.333   7.017
 7079SOL     OW22135   2.701   6.027   5.061
 7079SOL    HW122136   2.651   6.035   5.148
 7079SOL    HW222137   2.783   5.971   5.075
 7080SOL     OW22138   3.688   1.959   6.735
 7080SOL    HW122139   3.774   1.941   6.783
 7080SOL    HW222140   3.612   1.951   6.800
 7081SOL     OW22141   3.071   6.577   6.061
 7081SOL    HW122142   3.001   6.563   6.132
 7081SOL    HW222143   3.140   6.505   6.067
 7082SOL     OW22144   1.518   4.969   2.352
 7082SOL    HW122145   1.514   5.011   2.261
 7082SOL    HW222146   1.540   4.872   2.343
 7083SOL     OW22147   5.847   2.805   3.579
 7083SOL    HW122148   5.760   2.773   3.541
 7083SOL    HW222149   5.922   2.774   3.519
 7084SOL     OW22150   1.213   5.097   0.657
 7084SOL    HW122151   1.125   5.126   0.696
 7084SOL    HW222152   1.228   5.142   0.569
 7085SOL     OW22153   0.311   2.947   1.782
 7085SOL    HW122154   0.409   2.936   1.801
 7085SOL    HW222155   0.297   2.963   1.685
 7086SOL     OW22156   3.724   0.620   3.477
 7086SOL    HW122157   3.731   0.555   3.401
 7086SOL    HW222158   3.655   0.689   3.455
 7087SOL     OW22159   5.954   2.163   4.176
 7087SOL    HW122160   5.863   2.138   4.211
 7087SOL    HW222161   5.960   2.136   4.080
 7088SOL     OW22162   6.140   1.510   5.776
 7088SOL    HW122163   6.118   1.426   5.825
 7088SOL    HW222164   6.239   1.516   5.762
 7089SOL     OW22165   3.459   6.295   2.084
 7089SOL    HW122166   3.416   6.377   2.044
 7089SOL    HW222167   3.495   6.238   2.011
 7090SOL     OW22168   5.695   3.000   1.587
 7090SOL    HW122169   5.740   3.013   1.676
 7090SOL    HW222170   5.674   3.088   1.547
 7091SOL     OW22171   5.629   6.371   6.044
 7091SOL    HW122172   5.592   6.291   6.091
 7091SOL    HW222173   5.555   6.421   5.999
 7092SOL     OW22174   3.620   0.198   6.046
 7092SOL    HW122175   3.573   0.236   5.966
 7092SOL    HW222176   3.643   0.102   6.028
 7093SOL     OW22177   4.389   2.740   0.396
 7093SOL    HW122178   4.376   2.695   0.484
 7093SOL    HW222179   4.399   2.671   0.324
 7094SOL     OW22180   4.305   1.110   5.324
 7094SOL    HW122181   4.284   1.028   5.272
 7094SOL    HW222182   4.363   1.087   5.402
 7095SOL     OW22183   2.631   5.190   3.475
 7095SOL    HW122184   2.680   5.253   3.535
 7095SOL    HW222185   2.535   5.217   3.470
 7096SOL     OW22186   6.999   4.873   0.137
 7096SOL    HW122187   6.900   4.876   0.147
 7096SOL    HW222188   0.018   4.945   0.192
 7097SOL     OW22189   4.701   1.995   3.098
 7097SOL    HW122190   4.652   2.068   3.052
 7097SOL    HW222191   4.786   1.975   3.049
 7098SOL     OW22192   1.386   1.253   2.257
 7098SOL    HW122193   1.409   1.226   2.350
 7098SOL    HW222194   1.439   1.333   2.231
 7099SOL     OW22195   3.209   1.213   5.080
 7099SOL    HW122196   3.287   1.160   5.047
 7099SOL    HW222197   3.204   1.300   5.031
 7100SOL     OW22198   0.500   4.163   1.141
 7100SOL    HW122199   0.597   4.185   1.142
 7100SOL    HW222200   0.458   4.202   1.059
 7101SOL     OW22201   2.822   6.691   4.036
 7101SOL    HW122202   2.897   6.751   4.064
 7101SOL    HW222203   2.786   6.721   3.948
 7102SOL     OW22204   5.232   1.927   2.363
 7102SOL    HW122205   5.194   1.839   2.392
 7102SOL    HW222206   5.160   1.997   2.367
 7103SOL     OW22207   6.518   3.666   4.639
 7103SOL    HW122208   6.579   3.716   4.700
 7103SOL    HW222209   6.552   3.573   4.626
 7104SOL     OW22210   4.503   2.230   4.052
 7104SOL    HW122211   4.452   2.279   4.123
 7104SOL    HW222212   4.486   2.272   3.963
 7105SOL     OW22213   3.067   3.501   1.943
 7105SOL    HW122214   3.100   3.566   1.874
 7105SOL    HW222215   3.101   3.527   2.033
 7106SOL     OW22216   2.542   2.336   2.889
 7106SOL    HW122217   2.497   2.250   2.910
 7106SOL    HW222218   2.576   2.377   2.973
 7107SOL     OW22219   3.805   0.685   0.636
 7107SOL    HW122220   3.785   0.619   0.564
 7107SOL    HW222221   3.786   0.644   0.725
 7108SOL     OW22222   2.375   6.198   2.013
 7108SOL    HW122223   2.466   6.158   2.004
 7108SOL    HW222224   2.348   6.199   2.109
 7109SOL     OW22225   2.210   5.313   5.782
 7109SOL    HW122226   2.152   5.234   5.767
 7109SOL    HW222227   2.282   5.290   5.848
 7110SOL     OW22228   2.613   5.658   5.662
 7110SOL    HW122229   2.638   5.564   5.639
 7110SOL    HW222230   2.691   5.719   5.647
 7111SOL     OW22231   5.926   1.926   3.727
 7111SOL    HW122232   5.895   1.846   3.779
 7111SOL    HW222233   5.847   1.984   3.705
 7112SOL     OW22234   6.537   4.624   4.401
 7112SOL    HW122235   6.478   4.610   4.321
 7112SOL    HW222236   6.630   4.597   4.379
 7113SOL     OW22237   3.479   0.403   5.250
 7113SOL    HW122238   3.514   0.398   5.344
 7113SOL    HW222239   3.414   0.329   5.235
 7114SOL     OW22240   5.842   3.797   0.498
 7114SOL    HW122241   5.803   3.737   0.428
 7114SOL    HW222242   5.904   3.744   0.556
 7115SOL     OW22243   4.934   2.987   6.037
 7115SOL    HW122244   4.938   2.888   6.021
 7115SOL    HW222245   4.841   3.019   6.023
 7116SOL     OW22246   6.925   5.569   4.349
 7116SOL    HW122247   6.929   5.542   4.445
 7116SOL    HW222248   6.915   5.669   4.343
 7117SOL     OW22249   2.841   0.809   2.395
 7117SOL    HW122250   2.828   0.761   2.482
 7117SOL    HW222251   2.763   0.868   2.377
 7118SOL     OW22252   5.420   5.165   5.853
 7118SOL    HW122253   5.499   5.208   5.896
 7118SOL    HW222254   5.414   5.194   5.757
 7119SOL     OW22255   3.234   6.158   3.982
 7119SOL    HW122256   3.158   6.153   3.917
 7119SOL    HW222257   3.268   6.066   4.000
 7120SOL     OW22258   4.765   2.092   2.302
 7120SOL    HW122259   4.697   2.129   2.365
 7120SOL    HW222260   4.801   2.165   2.245
 7121SOL     OW22261   0.984   6.136   1.415
 7121SOL    HW122262   1.053   6.208   1.402
 7121SOL    HW222263   0.895   6.178   1.431
 7122SOL     OW22264   2.462   2.348   6.524
 7122SOL    HW122265   2.447   2.446   6.541
 7122SOL    HW222266   2.406   2.319   6.446
 7123SOL     OW22267   5.496   3.163   5.882
 7123SOL    HW122268   5.441   3.148   5.800
 7123SOL    HW222269   5.527   3.075   5.918
 7124SOL     OW22270   3.713   2.839   5.887
 7124SOL    HW122271   3.654   2.908   5.846
 7124SOL    HW222272   3.757   2.877   5.968
 7125SOL     OW22273   1.447   5.320   1.650
 7125SOL    HW122274   1.533   5.342   1.604
 7125SOL    HW222275   1.420   5.226   1.628
 7126SOL     OW22276   3.948   4.590   0.394
 7126SOL    HW122277   3.991   4.655   0.456
 7126SOL    HW222278   3.870   4.635   0.348
 7127SOL     OW22279   2.130   0.229   5.016
 7127SOL    HW122280   2.033   0.243   4.999
 7127SOL    HW222281   2.177   0.317   5.019
 7128SOL     OW22282   4.528   3.908   0.276
 7128SOL    HW122283   4.622   3.875   0.274
 7128SOL    HW222284   4.471   3.843   0.327
 7129SOL     OW22285   6.771   1.665   0.642
 7129SOL    HW122286   6.863   1.672   0.681
 7129SOL    HW222287   6.748   1.569   0.627
 7130SOL     OW22288   3.260   6.777   3.273
 7130SOL    HW122289   3.271   6.778   3.372
 7130SOL    HW222290   3.218   6.691   3.245
 7131SOL     OW22291   2.392   1.165   2.475
 7131SOL    HW122292   2.491   1.178   2.477
 7131SOL    HW222293   2.348   1.234   2.532
 7132SOL     OW22294   5.496   4.999   2.542
 7132SOL    HW122295   5.555   5.080   2.545
 7132SOL    HW222296   5.463   4.986   2.448
 7133SOL     OW22297   3.369   6.682   2.209
 7133SOL    HW122298   3.368   6.780   2.191
 7133SOL    HW222299   3.439   6.662   2.278
 7134SOL     OW22300   6.345   4.828   6.007
 7134SOL    HW122301   6.343   4.928   6.005
 7134SOL    HW222302   6.421   4.795   5.951
 7135SOL     OW22303   2.534   5.860   6.807
 7135SOL    HW122304   2.616   5.913   6.829
 7135SOL    HW222305   2.509   5.805   6.887
 7136SOL     OW22306   1.079   3.185   2.639
 7136SOL    HW122307   1.111   3.164   2.731
 7136SOL    HW222308   1.102   3.108   2.578
 7137SOL     OW22309   1.366   6.946   2.042
 7137SOL    HW122310   1.328   6.868   2.091
 7137SOL    HW222311   1.409   7.009   2.107
 7138SOL     OW22312   6.620   3.935   0.909
 7138SOL    HW122313   6.526   3.941   0.875
 7138SOL    HW222314   6.629   3.854   0.967
 7139SOL     OW22315   5.878   5.877   1.101
 7139SOL    HW122316   5.890   5.929   1.186
 7139SOL    HW222317   5.795   5.908   1.054
 7140SOL     OW22318   5.670   3.976   0.584
 7140SOL    HW122319   5.689   3.981   0.682
 7140SOL    HW222320   5.744   3.927   0.538
 7141SOL     OW22321   2.036   2.587   0.187
 7141SOL    HW122322   2.031   2.648   0.265
 7141SOL    HW222323   2.068   2.637   0.107
 7142SOL     OW22324   4.028   6.100   6.160
 7142SOL    HW122325   3.958   6.168   6.139
 7142SOL    HW222326   4.042   6.041   6.080
 7143SOL     OW22327   3.021   3.454   5.834
 7143SOL    HW122328   3.075   3.447   5.750
 7143SOL    HW222329   2.923   3.448   5.811
 7144SOL     OW22330   5.865   1.857   6.046
 7144SOL    HW122331   5.769   1.837   6.065
 7144SOL    HW222332   5.916   1.771   6.039
 7145SOL     OW22333   0.443   3.415   6.636
 7145SOL    HW122334   0.381   3.490   6.657
 7145SOL    HW222335   0.506   3.443   6.563
 7146SOL     OW22336   0.024   1.794   4.571
 7146SOL    HW122337   7.010   1.804   4.478
 7146SOL    HW222338   0.122   1.810   4.571
 7147SOL     OW22339   0.120   0.534   6.864
 7147SOL    HW122340   0.071   0.474   6.800
 7147SOL    HW222341   0.057   0.603   6.900
 7148SOL     OW22342   5.724   6.530   0.303
 7148SOL    HW122343   5.671   6.596   0.250
 7148SOL    HW222344   5.793   6.579   0.357
 7149SOL     OW22345   6.695   3.707   0.167
 7149SOL    HW122346   6.670   3.666   0.079
 7149SOL    HW222347   6.638   3.787   0.184
 7150SOL     OW22348   2.424   2.123   0.131
 7150SOL    HW122349   2.456   2.156   0.042
 7150SOL    HW222350   2.365   2.043   0.117
 7151SOL     OW22351   6.374   2.308   6.858
 7151SOL    HW122352   6.356   2.402   6.827
 7151SOL    HW222353   6.438   2.264   6.795
 7152SOL     OW22354   5.863   0.111   4.610
 7152SOL    HW122355   5.861   0.046   4.685
 7152SOL    HW222356   5.786   0.174   4.618
 7153SOL     OW22357   4.781   5.882   0.044
 7153SOL    HW122358   4.808   5.923   6.979
 7153SOL    HW222359   4.721   5.804   0.026
 7154SOL     OW22360   5.037   6.154   2.054
 7154SOL    HW122361   4.943   6.138   2.082
 7154SOL    HW222362   5.065   6.246   2.083
 7155SOL     OW22363   1.385   6.686   1.216
 7155SOL    HW122364   1.455   6.664   1.284
 7155SOL    HW222365   1.328   6.606   1.199
 7156SOL     OW22366   0.089   3.725   5.356
 7156SOL    HW122367   0.026   3.803   5.359
 7156SOL    HW222368   0.079   3.678   5.268
 7157SOL     OW22369   6.830   4.704   5.888
 7157SOL    HW122370   6.927   4.726   5.890
 7157SOL    HW222371   6.779   4.782   5.851
 7158SOL     OW22372   5.158   0.080   3.820
 7158SOL    HW122373   5.235   0.123   3.867
 7158SOL    HW222374   5.118   0.145   3.756
 7159SOL     OW22375   0.911   6.358   3.783
 7159SOL    HW122376   0.994   6.317   3.822
 7159SOL    HW222377   0.894   6.320   3.692
 7160SOL     OW22378   5.847   6.155   2.268
 7160SOL    HW122379   5.862   6.072   2.321
 7160SOL    HW222380   5.750   6.166   2.249
 7161SOL     OW22381   3.885   2.677   1.392
 7161SOL    HW122382   3.922   2.611   1.327
 7161SOL    HW222383   3.912   2.652   1.484
 7162SOL     OW22384   0.439   6.564   0.023
 7162SOL    HW122385   0.480   6.540   0.112
 7162SOL    HW222386   0.418   6.481   6.995
 7163SOL     OW22387   6.872   5.535   0.731
 7163SOL    HW122388   6.960   5.572   0.703
 7163SOL    HW222389   6.885   5.444   0.771
 7164SOL     OW22390   1.276   6.352   6.685
 7164SOL    HW122391   1.183   6.338   6.650
 7164SOL    HW222392   1.290   6.296   6.767
 7165SOL     OW22393   4.379   3.387   6.093
 7165SOL    HW122394   4.294   3.336   6.104
 7165SOL    HW222395   4.441   3.338   6.032
 7166SOL     OW22396   7.009   6.857   5.283
 7166SOL    HW122397   0.011   6.832   5.377
 7166SOL    HW222398   6.966   6.947   5.283
 7167SOL     OW22399   0.791   4.030   5.788
 7167SOL    HW122400   0.801   4.116   5.738
 7167SOL    HW222401   0.857   4.027   5.864
 7168SOL     OW22402   6.518   0.638   2.181
 7168SOL    HW122403   6.446   0.574   2.154
 7168SOL    HW222404   6.565   0.602   2.261
 7169SOL     OW22405   2.163   5.262   4.970
 7169SOL    HW122406   2.145   5.358   4.946
 7169SOL    HW222407   2.235   5.257   5.039
 7170SOL     OW22408   4.272   2.427   1.749
 7170SOL    HW122409   4.251   2.514   1.703
 7170SOL    HW222410   4.353   2.439   1.807
 7171SOL     OW22411   0.256   6.359   1.750
 7171SOL    HW122412   0.236   6.456   1.765
 7171SOL    HW222413   0.236   6.335   1.655
 7172SOL     OW22414   1.393   2.336   3.117
 7172SOL    HW122415   1.402   2.425   3.072
 7172SOL    HW222416   1.475   2.281   3.099
 7173SOL     OW22417   3.648   5.309   4.418
 7173SOL    HW122418   3.666   5.251   4.338
 7173SOL    HW222419   3.574   5.269   4.472
 7174SOL     OW22420   6.559   3.820   2.660
 7174SOL    HW122421   6.645   3.857   2.694
 7174SOL    HW222422   6.577   3.741   2.601
 7175SOL     OW22423   6.152   2.888   6.058
 7175SOL    HW122424   6.159   2.861   6.154
 7175SOL    HW222425   6.078   2.837   6.014
 7176SOL     OW22426   6.045   1.887   6.247
 7176SOL    HW122427   6.011   1.816   6.308
 7176SOL    HW222428   5.972   1.919   6.187
 7177SOL     OW22429   0.797   4.960   3.120
 7177SOL    HW122430   0.783   4.937   3.216
 7177SOL    HW222431   0.888   5.000   3.108
 7178SOL     OW22432   0.387   5.821   5.427
 7178SOL    HW122433   0.480   5.822   5.465
 7178SOL    HW222434   0.321   5.809   5.500
 7179SOL     OW22435   5.288   4.603   5.345
 7179SOL    HW122436   5.237   4.687   5.365
 7179SOL    HW222437   5.317   4.604   5.249
 7180SOL     OW22438   6.524   1.804   2.687
 7180SOL    HW122439   6.580   1.828   2.766
 7180SOL    HW222440   6.543   1.867   2.612
 7181SOL     OW22441   3.710   0.515   0.419
 7181SOL    HW122442   3.750   0.525   0.329
 7181SOL    HW222443   3.613   0.539   0.415
 7182SOL     OW22444   2.016   0.166   2.715
 7182SOL    HW122445   1.942   0.233   2.708
 7182SOL    HW222446   2.076   0.191   2.791
 7183SOL     OW22447   1.682   6.926   0.505
 7183SOL    HW122448   1.685   6.839   0.456
 7183SOL    HW222449   1.693   6.910   0.603
 7184SOL     OW22450   0.160   1.772   3.991
 7184SOL    HW122451   0.123   1.712   3.920
 7184SOL    HW222452   0.157   1.726   4.079
 7185SOL     OW22453   3.507   0.299   3.855
 7185SOL    HW122454   3.455   0.233   3.909
 7185SOL    HW222455   3.520   0.264   3.762
 7186SOL     OW22456   6.314   3.086   1.059
 7186SOL    HW122457   6.315   3.011   0.994
 7186SOL    HW222458   6.274   3.055   1.146
 7187SOL     OW22459   3.083   3.749   3.736
 7187SOL    HW122460   3.026   3.739   3.818
 7187SOL    HW222461   3.145   3.826   3.748
 7188SOL     OW22462   4.615   5.325   6.654
 7188SOL    HW122463   4.673   5.248   6.626
 7188SOL    HW222464   4.547   5.293   6.720
 7189SOL     OW22465   6.935   1.881   6.121
 7189SOL    HW122466   6.922   1.842   6.030
 7189SOL    HW222467   6.912   1.811   6.190
 7190SOL     OW22468   5.381   5.728   0.787
 7190SOL    HW122469   5.313   5.655   0.790
 7190SOL    HW222470   5.441   5.716   0.708
 7191SOL     OW22471   0.163   4.986   2.522
 7191SOL    HW122472   0.215   5.007   2.605
 7191SOL    HW222473   0.106   5.064   2.498
 7192SOL     OW22474   3.011   5.010   5.716
 7192SOL    HW122475   2.987   4.989   5.622
 7192SOL    HW222476   3.100   5.056   5.719
 7193SOL     OW22477   4.379   1.340   4.363
 7193SOL    HW122478   4.441   1.264   4.350
 7193SOL    HW222479   4.350   1.344   4.459
 7194SOL     OW22480   3.733   2.619   5.313
 7194SOL    HW122481   3.683   2.677   5.249
 7194SOL    HW222482   3.675   2.541   5.339
 7195SOL     OW22483   6.744   3.890   5.201
 7195SOL    HW122484   6.691   3.974   5.199
 7195SOL    HW222485   6.684   3.814   5.226
 7196SOL     OW22486   2.990   3.627   1.347
 7196SOL    HW122487   3.001   3.692   1.271
 7196SOL    HW222488   2.894   3.602   1.355
 7197SOL     OW22489   3.219   4.864   6.512
 7197SOL    HW122490   3.262   4.893   6.427
 7197SOL    HW222491   3.228   4.937   6.580
 7198SOL     OW22492   1.777   6.013   1.984
 7198SOL    HW122493   1.843   6.087   1.983
 7198SOL    HW222494   1.684   6.050   1.973
 7199SOL     OW22495   6.211   1.058   3.963
 7199SOL    HW122496   6.198   0.964   3.995
 7199SOL    HW222497   6.140   1.081   3.897
 7200SOL     OW22498   0.463   4.564   6.312
 7200SOL    HW122499   0.402   4.495   6.351
 7200SOL    HW222500   0.537   4.583   6.376
 7201SOL     OW22501   5.762   5.773   5.257
 7201SOL    HW122502   5.782   5.800   5.163
 7201SOL    HW222503   5.730   5.853   5.309
 7202SOL     OW22504   3.945   6.433   5.898
 7202SOL    HW122505   3.958   6.434   5.799
 7202SOL    HW222506   3.966   6.524   5.935
 7203SOL     OW22507   0.979   1.701   1.146
 7203SOL    HW122508   1.073   1.670   1.130
 7203SOL    HW222509   0.920   1.666   1.073
 7204SOL     OW22510   5.109   0.543   2.546
 7204SOL    HW122511   5.145   0.603   2.475
 7204SOL    HW222512   5.011   0.528   2.531
 7205SOL     OW22513   3.577   1.413   3.958
 7205SOL    HW122514   3.597   1.473   4.035
 7205SOL    HW222515   3.482   1.381   3.965
 7206SOL     OW22516   1.698   2.642   6.514
 7206SOL    HW122517   1.747   2.636   6.427
 7206SOL    HW222518   1.761   2.670   6.586
 7207SOL     OW22519   1.570   2.386   3.801
 7207SOL    HW122520   1.662   2.345   3.798
 7207SOL    HW222521   1.508   2.333   3.743
 7208SOL     OW22522   3.333   0.607   3.506
 7208SOL    HW122523   3.325   0.592   3.604
 7208SOL    HW222524   3.341   0.519   3.459
 7209SOL     OW22525   4.324   1.596   3.243
 7209SOL    HW122526   4.279   1.682   3.220
 7209SOL    HW222527   4.368   1.558   3.162
 7210SOL     OW22528   3.417   1.017   4.997
 7210SOL    HW122529   3.482   0.970   4.937
 7210SOL    HW222530   3.452   1.016   5.091
 7211SOL     OW22531   5.277   6.001   6.238
 7211SOL    HW122532   5.202   5.962   6.291
 7211SOL    HW222533   5.275   6.101   6.246
 7212SOL     OW22534   0.037   6.149   4.236
 7212SOL    HW122535   6.982   6.209   4.214
 7212SOL    HW222536   0.003   6.056   4.252
 7213SOL     OW22537   5.967   2.810   0.312
 7213SOL    HW122538   5.872   2.796   0.339
 7213SOL    HW222539   6.027   2.766   0.379
 7214SOL     OW22540   5.742   1.272   5.900
 7214SOL    HW122541   5.757   1.371   5.894
 7214SOL    HW222542   5.753   1.230   5.810
 7215SOL     OW22543   6.658   1.416   3.145
 7215SOL    HW122544   6.687   1.320   3.142
 7215SOL    HW222545   6.560   1.421   3.125
 7216SOL     OW22546   5.883   6.458   4.188
 7216SOL    HW122547   5.932   6.476   4.102
 7216SOL    HW222548   5.808   6.394   4.170
 7217SOL     OW22549   1.388   3.348   2.967
 7217SOL    HW122550   1.471   3.293   2.959
 7217SOL    HW222551   1.378   3.405   2.886
 7218SOL     OW22552   6.757   2.707   5.885
 7218SOL    HW122553   6.669   2.724   5.841
 7218SOL    HW222554   6.768   2.609   5.900
 7219SOL     OW22555   2.670   5.623   1.411
 7219SOL    HW122556   2.744   5.558   1.429
 7219SOL    HW222557   2.671   5.694   1.482
 7220SOL     OW22558   0.573   3.935   4.386
 7220SOL    HW122559   0.556   4.008   4.320
 7220SOL    HW222560   0.644   3.963   4.449
 7221SOL     OW22561   5.279   4.961   3.874
 7221SOL    HW122562   5.281   4.988   3.777
 7221SOL    HW222563   5.205   5.010   3.920
 7222SOL     OW22564   6.058   5.111   3.680
 7222SOL    HW122565   6.040   5.202   3.718
 7222SOL    HW222566   5.990   5.090   3.610
 7223SOL     OW22567   6.001   5.280   1.527
 7223SOL    HW122568   5.941   5.354   1.497
 7223SOL    HW222569   5.948   5.213   1.579
 7224SOL     OW22570   6.254   2.700   3.287
 7224SOL    HW122571   6.193   2.774   3.258
 7224SOL    HW222572   6.345   2.716   3.250
 7225SOL     OW22573   1.514   5.047   0.660
 7225SOL    HW122574   1.489   4.979   0.591
 7225SOL    HW222575   1.435   5.105   0.680
 7226SOL     OW22576   6.730   6.660   0.376
 7226SOL    HW122577   6.805   6.605   0.342
 7226SOL    HW222578   6.749   6.688   0.470
 7227SOL     OW22579   1.962   0.219   1.545
 7227SOL    HW122580   1.933   0.154   1.476
 7227SOL    HW222581   1.907   0.303   1.538
 7228SOL     OW22582   6.237   4.125   3.571
 7228SOL    HW122583   6.233   4.104   3.473
 7228SOL    HW222584   6.166   4.193   3.593
 7229SOL     OW22585   5.533   6.260   5.469
 7229SOL    HW122586   5.576   6.171   5.486
 7229SOL    HW222587   5.546   6.320   5.548
 7230SOL     OW22588   3.093   4.988   6.964
 7230SOL    HW122589   3.126   4.894   6.961
 7230SOL    HW222590   3.111   5.027   0.032
 7231SOL     OW22591   3.783   2.619   0.060
 7231SOL    HW122592   3.840   2.622   0.142
 7231SOL    HW222593   3.840   2.634   7.002
 7232SOL     OW22594   4.226   5.479   3.501
 7232SOL    HW122595   4.195   5.434   3.417
 7232SOL    HW222596   4.326   5.475   3.505
 7233SOL     OW22597   0.264   1.535   6.893
 7233SOL    HW122598   0.297   1.589   6.815
 7233SOL    HW222599   0.229   1.597   6.963
 7234SOL     OW22600   5.412   6.011   3.854
 7234SOL    HW122601   5.347   6.026   3.929
 7234SOL    HW222602   5.461   6.096   3.834
 7235SOL     OW22603   0.064   6.937   1.358
 7235SOL    HW122604   0.085   7.022   1.310
 7235SOL    HW222605   0.001   6.956   1.434
 7236SOL     OW22606   0.718   3.864   2.934
 7236SOL    HW122607   0.811   3.847   2.967
 7236SOL    HW222608   0.655   3.863   3.012
 7237SOL     OW22609   4.628   1.419   6.473
 7237SOL    HW122610   4.618   1.519   6.477
 7237SOL    HW222611   4.707   1.392   6.528
 7238SOL     OW22612   4.772   3.062   0.037
 7238SOL    HW122613   4.701   3.021   0.094
 7238SOL    HW222614   4.745   3.154   0.010
 7239SOL     OW22615   6.519   2.644   2.768
 7239SOL    HW122616   6.463   2.562   2.777
 7239SOL    HW222617   6.470   2.723   2.805
 7240SOL     OW22618   0.262   1.919   0.749
 7240SOL    HW122619   0.327   1.844   0.765
 7240SOL    HW222620   0.177   1.882   0.711
 7241SOL     OW22621   2.446   0.311   3.259
 7241SOL    HW122622   2.387   0.384   3.224
 7241SOL    HW222623   2.541   0.331   3.235
 7242SOL     OW22624   6.498   3.421   5.541
 7242SOL    HW122625   6.589   3.427   5.500
 7242SOL    HW222626   6.494   3.479   5.622
 7243SOL     OW22627   6.910   4.388   6.407
 7243SOL    HW122628   6.975   4.388   6.483
 7243SOL    HW222629   6.935   4.316   6.342
 7244SOL     OW22630   0.050   5.866   0.461
 7244SOL    HW122631   6.985   5.822   0.484
 7244SOL    HW222632   0.111   5.861   0.540
 7245SOL     OW22633   1.906   2.297   6.493
 7245SOL    HW122634   1.999   2.291   6.528
 7245SOL    HW222635   1.907   2.337   6.401
 7246SOL     OW22636   4.738   0.061   4.660
 7246SOL    HW122637   4.678   7.010   4.692
 7246SOL    HW222638   4.833   0.032   4.670
 7247SOL     OW22639   3.360   4.160   5.185
 7247SOL    HW122640   3.279   4.210   5.214
 7247SOL    HW222641   3.375   4.081   5.245
 7248SOL     OW22642   2.508   2.632   5.089
 7248SOL    HW122643   2.578   2.561   5.087
 7248SOL    HW222644   2.483   2.652   5.184
 7249SOL     OW22645   3.567   5.844   3.501
 7249SOL    HW122646   3.580   5.907   3.424
 7249SOL    HW222647   3.497   5.881   3.562
 7250SOL     OW22648   4.891   4.938   5.161
 7250SOL    HW122649   4.920   4.991   5.081
 7250SOL    HW222650   4.899   4.995   5.243
 7251SOL     OW22651   6.905   5.884   3.841
 7251SOL    HW122652   6.874   5.979   3.836
 7251SOL    HW222653   6.989   5.874   3.786
 7252SOL     OW22654   3.915   3.786   1.766
 7252SOL    HW122655   3.821   3.753   1.778
 7252SOL    HW222656   3.918   3.884   1.785
 7253SOL     OW22657   1.403   5.104   6.322
 7253SOL    HW122658   1.438   5.019   6.282
 7253SOL    HW222659   1.475   5.174   6.319
 7254SOL     OW22660   0.506   4.070   4.180
 7254SOL    HW122661   0.544   4.159   4.156
 7254SOL    HW222662   0.407   4.070   4.163
 7255SOL     OW22663   4.872   4.094   0.688
 7255SOL    HW122664   4.842   4.171   0.746
 7255SOL    HW222665   4.888   4.127   0.595
 7256SOL     OW22666   3.300   0.040   3.611
 7256SOL    HW122667   3.306   0.072   3.706
 7256SOL    HW222668   3.274   0.117   3.552
 7257SOL     OW22669   1.075   1.294   4.868
 7257SOL    HW122670   0.977   1.274   4.875
 7257SOL    HW222671   1.124   1.246   4.940
 7258SOL     OW22672   0.511   1.570   3.099
 7258SOL    HW122673   0.433   1.537   3.046
 7258SOL    HW222674   0.504   1.669   3.112
 7259SOL     OW22675   1.178   3.604   2.047
 7259SOL    HW122676   1.146   3.580   1.956
 7259SOL    HW222677   1.154   3.699   2.067
 7260SOL     OW22678   5.783   2.640   0.849
 7260SOL    HW122679   5.698   2.624   0.899
 7260SOL    HW222680   5.766   2.701   0.772
 7261SOL     OW22681   0.386   4.718   6.926
 7261SOL    HW122682   0.334   4.796   6.961
 7261SOL    HW222683   0.433   4.673   7.002
 7262SOL     OW22684   3.042   0.353   4.952
 7262SOL    HW122685   2.987   0.295   4.893
 7262SOL    HW222686   2.994   0.439   4.969
 7263SOL     OW22687   6.668   5.007   6.006
 7263SOL    HW122688   6.721   4.978   5.927
 7263SOL    HW222689   6.711   5.087   6.048
 7264SOL     OW22690   4.631   2.212   1.129
 7264SOL    HW122691   4.695   2.276   1.087
 7264SOL    HW222692   4.630   2.226   1.228
 7265SOL     OW22693   3.418   6.997   5.456
 7265SOL    HW122694   3.447   6.981   5.551
 7265SOL    HW222695   3.492   6.974   5.394
 7266SOL     OW22696   6.514   0.771   2.594
 7266SOL    HW122697   6.566   0.825   2.528
 7266SOL    HW222698   6.417   0.772   2.569
 7267SOL     OW22699   6.754   3.454   5.379
 7267SOL    HW122700   6.751   3.512   5.298
 7267SOL    HW222701   6.791   3.364   5.354
 7268SOL     OW22702   5.428   5.857   4.728
 7268SOL    HW122703   5.450   5.783   4.664
 7268SOL    HW222704   5.415   5.942   4.677
 7269SOL     OW22705   2.731   5.685   4.456
 7269SOL    HW122706   2.698   5.633   4.535
 7269SOL    HW222707   2.751   5.623   4.381
 7270SOL     OW22708   6.950   1.855   4.333
 7270SOL    HW122709   6.900   1.832   4.250
 7270SOL    HW222710   6.988   1.947   4.326
 7271SOL     OW22711   0.457   5.316   3.107
 7271SOL    HW122712   0.501   5.378   3.172
 7271SOL    HW222713   0.520   5.297   3.031
 7272SOL     OW22714   6.724   4.066   2.096
 7272SOL    HW122715   6.785   3.986   2.095
 7272SOL    HW222716   6.636   4.041   2.056
 7273SOL     OW22717   0.568   1.615   4.873
 7273SOL    HW122718   0.515   1.645   4.952
 7273SOL    HW222719   0.582   1.516   4.877
 7274SOL     OW22720   0.071   5.535   0.529
 7274SOL    HW122721   0.156   5.506   0.484
 7274SOL    HW222722   0.009   5.575   0.462
 7275SOL     OW22723   6.943   5.751   3.234
 7275SOL    HW122724   7.017   5.801   3.190
 7275SOL    HW222725   6.950   5.762   3.333
 7276SOL     OW22726   5.038   6.335   3.998
 7276SOL    HW122727   5.118   6.309   4.052
 7276SOL    HW222728   5.067   6.363   3.907
 7277SOL     OW22729   5.261   0.991   6.875
 7277SOL    HW122730   5.241   0.981   6.778
 7277SOL    HW222731   5.194   0.941   6.929
 7278SOL     OW22732   3.800   3.059   1.752
 7278SOL    HW122733   3.872   3.063   1.822
 7278SOL    HW222734   3.815   2.979   1.694
 7279SOL     OW22735   3.578   6.388   5.935
 7279SOL    HW122736   3.579   6.432   5.846
 7279SOL    HW222737   3.658   6.327   5.943
 7280SOL     OW22738   4.179   6.751   5.903
 7280SOL    HW122739   4.266   6.790   5.874
 7280SOL    HW222740   4.137   6.703   5.826
 7281SOL     OW22741   5.644   0.907   6.175
 7281SOL    HW122742   5.554   0.923   6.214
 7281SOL    HW222743   5.700   0.989   6.183
 7282SOL     OW22744   5.784   5.838   3.515
 7282SOL    HW122745   5.708   5.783   3.552
 7282SOL    HW222746   5.787   5.826   3.416
 7283SOL     OW22747   2.238   1.575   2.692
 7283SOL    HW122748   2.328   1.575   2.734
 7283SOL    HW222749   2.217   1.484   2.657
 7284SOL     OW22750   1.211   1.046   4.060
 7284SOL    HW122751   1.221   0.996   3.974
 7284SOL    HW222752   1.137   1.005   4.113
 7285SOL     OW22753   6.293   4.993   1.753
 7285SOL    HW122754   6.227   5.001   1.828
 7285SOL    HW222755   6.356   5.070   1.756
 7286SOL     OW22756   1.522   3.492   0.067
 7286SOL    HW122757   1.619   3.508   0.054
 7286SOL    HW222758   1.499   3.399   0.037
 7287SOL     OW22759   6.255   2.063   6.198
 7287SOL    HW122760   6.189   1.993   6.224
 7287SOL    HW222761   6.288   2.044   6.105
 7288SOL     OW22762   2.442   0.784   6.696
 7288SOL    HW122763   2.445   0.848   6.772
 7288SOL    HW222764   2.522   0.725   6.698
 7289SOL     OW22765   4.454   0.929   3.114
 7289SOL    HW122766   4.431   0.843   3.068
 7289SOL    HW222767   4.551   0.949   3.101
 7290SOL     OW22768   2.516   6.282   4.373
 7290SOL    HW122769   2.525   6.333   4.459
 7290SOL    HW222770   2.508   6.184   4.392
 7291SOL     OW22771   4.012   4.489   1.360
 7291SOL    HW122772   3.918   4.519   1.379
 7291SOL    HW222773   4.055   4.458   1.444
 7292SOL     OW22774   4.282   0.121   5.147
 7292SOL    HW122775   4.189   0.141   5.116
 7292SOL    HW222776   4.279   0.080   5.239
 7293SOL     OW22777   2.691   1.012   5.762
 7293SOL    HW122778   2.600   1.023   5.724
 7293SOL    HW222779   2.699   1.064   5.847
 7294SOL     OW22780   6.041   4.745   6.732
 7294SOL    HW122781   6.096   4.809   6.786
 7294SOL    HW222782   5.957   4.790   6.703
 7295SOL     OW22783   3.996   6.413   1.599
 7295SOL    HW122784   3.896   6.410   1.601
 7295SOL    HW222785   4.026   6.507   1.582
 7296SOL     OW22786   4.392   5.606   0.529
 7296SOL    HW122787   4.439   5.537   0.585
 7296SOL    HW222788   4.326   5.654   0.585
 7297SOL     OW22789   4.611   6.841   2.185
 7297SOL    HW122790   4.555   6.920   2.210
 7297SOL    HW222791   4.698   6.845   2.235
 7298SOL     OW22792   5.400   2.463   4.355
 7298SOL    HW122793   5.425   2.437   4.448
 7298SOL    HW222794   5.446   2.548   4.331
 7299SOL     OW22795   5.311   3.525   0.247
 7299SOL    HW122796   5.235   3.586   0.271
 7299SOL    HW222797   5.296   3.435   0.286
 7300SOL     OW22798   4.055   5.131   0.827
 7300SOL    HW122799   3.970   5.151   0.778
 7300SOL    HW222800   4.126   5.105   0.762
 7301SOL     OW22801   6.109   1.715   6.773
 7301SOL    HW122802   6.135   1.731   6.868
 7301SOL    HW222803   6.012   1.734   6.761
 7302SOL     OW22804   0.322   1.622   6.631
 7302SOL    HW122805   0.406   1.631   6.578
 7302SOL    HW222806   0.252   1.578   6.575
 7303SOL     OW22807   5.206   6.964   1.598
 7303SOL    HW122808   5.286   0.001   1.600
 7303SOL    HW222809   5.167   6.957   1.690
 7304SOL     OW22810   4.019   3.705   4.111
 7304SOL    HW122811   3.948   3.657   4.161
 7304SOL    HW222812   4.074   3.639   4.059
 7305SOL     OW22813   5.769   2.801   6.751
 7305SOL    HW122814   5.849   2.745   6.772
 7305SOL    HW222815   5.740   2.783   6.657
 7306SOL     OW22816   4.382   4.658   1.520
 7306SOL    HW122817   4.477   4.682   1.498
 7306SOL    HW222818   4.381   4.579   1.581
 7307SOL     OW22819   3.527   6.899   1.872
 7307SOL    HW122820   3.443   6.910   1.819
 7307SOL    HW222821   3.592   6.970   1.846
 7308SOL     OW22822   5.244   0.321   4.040
 7308SOL    HW122823   5.189   0.325   4.124
 7308SOL    HW222824   5.187   0.346   3.962
 7309SOL     OW22825   4.662   4.516   6.936
 7309SOL    HW122826   4.755   4.486   6.918
 7309SOL    HW222827   4.619   4.546   6.851
 7310SOL     OW22828   1.626   5.606   1.598
 7310SOL    HW122829   1.680   5.687   1.574
 7310SOL    HW222830   1.679   5.524   1.575
 7311SOL     OW22831   3.193   1.901   2.058
 7311SOL    HW122832   3.138   1.969   2.106
 7311SOL    HW222833   3.285   1.937   2.043
 7312SOL     OW22834   0.424   2.528   6.746
 7312SOL    HW122835   0.445   2.552   6.651
 7312SOL    HW222836   0.336   2.567   6.771
 7313SOL     OW22837   4.238   2.752   6.137
 7313SOL    HW122838   4.299   2.698   6.194
 7313SOL    HW222839   4.148   2.756   6.180
 7314SOL     OW22840   0.834   1.734   4.508
 7314SOL    HW122841   0.871   1.650   4.548
 7314SOL    HW222842   0.817   1.801   4.581
 7315SOL     OW22843   6.705   1.455   6.609
 7315SOL    HW122844   6.801   1.484   6.612
 7315SOL    HW222845   6.686   1.410   6.522
 7316SOL     OW22846   3.904   3.599   3.399
 7316SOL    HW122847   3.949   3.687   3.380
 7316SOL    HW222848   3.813   3.598   3.357
 7317SOL     OW22849   3.535   0.726   3.735
 7317SOL    HW122850   3.602   0.763   3.670
 7317SOL    HW222851   3.566   0.636   3.767
 7318SOL     OW22852   2.178   0.394   1.181
 7318SOL    HW122853   2.142   0.474   1.133
 7318SOL    HW222854   2.277   0.388   1.166
 7319SOL     OW22855   0.116   3.968   6.110
 7319SOL    HW122856   0.114   3.884   6.164
 7319SOL    HW222857   0.052   4.034   6.149
 7320SOL     OW22858   0.381   1.224   2.051
 7320SOL    HW122859   0.311   1.240   1.981
 7320SOL    HW222860   0.430   1.309   2.069
 7321SOL     OW22861   4.239   1.435   3.906
 7321SOL    HW122862   4.192   1.523   3.913
 7321SOL    HW222863   4.261   1.416   3.811
 7322SOL     OW22864   0.919   2.768   1.303
 7322SOL    HW122865   0.868   2.705   1.361
 7322SOL    HW222866   0.864   2.791   1.223
 7323SOL     OW22867   2.585   4.645   3.146
 7323SOL    HW122868   2.574   4.593   3.232
 7323SOL    HW222869   2.522   4.722   3.146
 7324SOL     OW22870   4.910   6.081   2.698
 7324SOL    HW122871   4.886   6.049   2.607
 7324SOL    HW222872   5.009   6.096   2.703
 7325SOL     OW22873   3.127   6.566   6.989
 7325SOL    HW122874   3.086   6.476   7.001
 7325SOL    HW222875   3.108   6.622   0.048
 7326SOL     OW22876   2.897   0.927   4.037
 7326SOL    HW122877   2.882   0.928   3.939
 7326SOL    HW222878   2.832   0.864   4.080
 7327SOL     OW22879   1.735   3.263   5.640
 7327SOL    HW122880   1.686   3.194   5.587
 7327SOL    HW222881   1.824   3.280   5.597
 7328SOL     OW22882   2.001   6.571   7.004
 7328SOL    HW122883   1.913   6.607   6.975
 7328SOL    HW222884   2.041   6.516   6.931
 7329SOL     OW22885   4.943   3.921   1.990
 7329SOL    HW122886   4.897   3.978   1.922
 7329SOL    HW222887   4.922   3.825   1.974
 7330SOL     OW22888   3.766   2.633   1.084
 7330SOL    HW122889   3.763   2.733   1.092
 7330SOL    HW222890   3.703   2.593   1.151
 7331SOL     OW22891   6.474   1.281   1.112
 7331SOL    HW122892   6.551   1.218   1.123
 7331SOL    HW222893   6.502   1.360   1.057
 7332SOL     OW22894   4.286   0.017   0.390
 7332SOL    HW122895   4.219   6.998   0.329
 7332SOL    HW222896   4.323   6.970   0.452
 7333SOL     OW22897   0.276   4.524   2.256
 7333SOL    HW122898   0.267   4.615   2.296
 7333SOL    HW222899   0.212   4.514   2.180
 7334SOL     OW22900   2.888   0.074   3.048
 7334SOL    HW122901   2.877   6.999   3.032
 7334SOL    HW222902   2.904   0.090   3.146
 7335SOL     OW22903   1.817   3.491   3.678
 7335SOL    HW122904   1.765   3.418   3.635
 7335SOL    HW222905   1.914   3.481   3.656
 7336SOL     OW22906   1.179   6.229   4.627
 7336SOL    HW122907   1.173   6.165   4.703
 7336SOL    HW222908   1.154   6.182   4.542
 7337SOL     OW22909   4.955   1.713   1.540
 7337SOL    HW122910   4.935   1.803   1.499
 7337SOL    HW222911   4.891   1.646   1.504
 7338SOL     OW22912   0.238   3.894   0.425
 7338SOL    HW122913   0.281   3.809   0.456
 7338SOL    HW222914   0.179   3.930   0.497
 7339SOL     OW22915   1.854   5.388   5.408
 7339SOL    HW122916   1.872   5.309   5.349
 7339SOL    HW222917   1.933   5.448   5.408
 7340SOL     OW22918   3.313   6.947   6.203
 7340SOL    HW122919   3.351   6.874   6.260
 7340SOL    HW222920   3.280   7.021   6.261
 7341SOL     OW22921   6.136   2.203   6.990
 7341SOL    HW122922   6.219   2.196   0.024
 7341SOL    HW222923   6.151   2.271   6.919
 7342SOL     OW22924   0.277   5.976   1.466
 7342SOL    HW122925   0.327   6.060   1.489
 7342SOL    HW222926   0.308   5.902   1.526
 7343SOL     OW22927   6.512   3.257   0.918
 7343SOL    HW122928   6.443   3.190   0.947
 7343SOL    HW222929   6.555   3.225   0.833
 7344SOL     OW22930   2.461   0.867   5.746
 7344SOL    HW122931   2.506   0.831   5.664
 7344SOL    HW222932   2.438   0.964   5.730
 7345SOL     OW22933   3.960   6.244   6.932
 7345SOL    HW122934   3.885   6.240   6.865
 7345SOL    HW222935   3.963   6.335   6.973
 7346SOL     OW22936   4.506   4.938   2.185
 7346SOL    HW122937   4.601   4.945   2.215
 7346SOL    HW222938   4.454   5.016   2.220
 7347SOL     OW22939   4.406   0.644   5.871
 7347SOL    HW122940   4.474   0.712   5.900
 7347SOL    HW222941   4.414   0.563   5.929
 7348SOL     OW22942   0.497   6.139   0.153
 7348SOL    HW122943   0.554   6.168   0.076
 7348SOL    HW222944   0.480   6.041   0.146
 7349SOL     OW22945   4.755   1.351   1.004
 7349SOL    HW122946   4.671   1.360   1.057
 7349SOL    HW222947   4.741   1.287   0.929
 7350SOL     OW22948   3.893   1.208   5.469
 7350SOL    HW122949   3.898   1.133   5.535
 7350SOL    HW222950   3.815   1.193   5.408
 7351SOL     OW22951   2.420   5.006   4.750
 7351SOL    HW122952   2.381   5.022   4.841
 7351SOL    HW222953   2.479   5.083   4.725
 7352SOL     OW22954   6.171   2.349   4.259
 7352SOL    HW122955   6.121   2.280   4.207
 7352SOL    HW222956   6.150   2.338   4.356
 7353SOL     OW22957   0.251   1.948   6.094
 7353SOL    HW122958   0.280   1.857   6.125
 7353SOL    HW222959   0.158   1.943   6.058
 7354SOL     OW22960   0.828   2.055   2.784
 7354SOL    HW122961   0.805   1.989   2.856
 7354SOL    HW222962   0.846   2.144   2.825
 7355SOL     OW22963   4.330   1.831   0.935
 7355SOL    HW122964   4.394   1.899   0.902
 7355SOL    HW222965   4.330   1.752   0.873
 7356SOL     OW22966   3.597   4.270   5.843
 7356SOL    HW122967   3.695   4.290   5.838
 7356SOL    HW222968   3.575   4.198   5.776
 7357SOL     OW22969   4.322   0.002   1.918
 7357SOL    HW122970   4.274   6.940   1.895
 7357SOL    HW222971   4.307   0.069   1.845
 7358SOL     OW22972   4.105   0.176   2.694
 7358SOL    HW122973   4.092   0.111   2.769
 7358SOL    HW222974   4.162   0.134   2.623
 7359SOL     OW22975   3.227   6.440   2.389
 7359SOL    HW122976   3.216   6.383   2.307
 7359SOL    HW222977   3.197   6.389   2.469
 7360SOL     OW22978   3.018   4.187   6.269
 7360SOL    HW122979   3.048   4.098   6.234
 7360SOL    HW222980   3.046   4.196   6.365
 7361SOL     OW22981   6.436   0.733   3.661
 7361SOL    HW122982   6.406   0.637   3.658
 7361SOL    HW222983   6.516   0.741   3.721
 7362SOL     OW22984   3.414   5.709   0.439
 7362SOL    HW122985   3.380   5.693   0.532
 7362SOL    HW222986   3.342   5.691   0.373
 7363SOL     OW22987   4.434   1.178   1.300
 7363SOL    HW122988   4.344   1.220   1.304
 7363SOL    HW222989   4.489   1.221   1.228
 7364SOL     OW22990   5.527   5.751   1.720
 7364SOL    HW122991   5.529   5.746   1.620
 7364SOL    HW222992   5.617   5.779   1.754
 7365SOL     OW22993   4.904   3.647   2.283
 7365SOL    HW122994   4.883   3.579   2.213
 7365SOL    HW222995   4.847   3.728   2.269
 7366SOL     OW22996   2.605   5.997   3.443
 7366SOL    HW122997   2.626   5.976   3.348
 7366SOL    HW222998   2.533   5.936   3.475
 7367SOL     OW22999   4.653   1.145   0.795
 7367SOL    HW123000   4.624   1.137   0.700
 7367SOL    HW223001   4.746   1.108   0.805
 7368SOL     OW23002   2.998   3.897   2.525
 7368SOL    HW123003   2.932   3.971   2.536
 7368SOL    HW223004   2.979   3.846   2.441
 7369SOL     OW23005   5.133   3.635   6.673
 7369SOL    HW123006   5.127   3.687   6.758
 7369SOL    HW223007   5.121   3.696   6.595
 7370SOL     OW23008   2.587   0.344   3.982
 7370SOL    HW123009   2.632   0.353   4.071
 7370SOL    HW223010   2.521   0.418   3.971
 7371SOL     OW23011   3.673   0.523   3.209
 7371SOL    HW123012   3.597   0.499   3.149
 7371SOL    HW223013   3.696   0.619   3.198
 7372SOL     OW23014   4.262   1.766   5.273
 7372SOL    HW123015   4.357   1.775   5.241
 7372SOL    HW223016   4.201   1.759   5.195
 7373SOL     OW23017   6.668   2.887   4.508
 7373SOL    HW123018   6.568   2.883   4.505
 7373SOL    HW223019   6.706   2.826   4.439
 7374SOL     OW23020   6.860   3.392   6.296
 7374SOL    HW123021   6.945   3.388   6.348
 7374SOL    HW223022   6.871   3.342   6.210
 7375SOL     OW23023   2.840   1.490   1.357
 7375SOL    HW123024   2.865   1.442   1.441
 7375SOL    HW223025   2.780   1.567   1.378
 7376SOL     OW23026   6.570   5.372   0.360
 7376SOL    HW123027   6.513   5.383   0.279
 7376SOL    HW223028   6.616   5.284   0.358
 7377SOL     OW23029   2.992   5.584   0.802
 7377SOL    HW123030   2.958   5.585   0.896
 7377SOL    HW223031   2.999   5.490   0.769
 7378SOL     OW23032   2.216   4.969   5.329
 7378SOL    HW123033   2.246   4.898   5.265
 7378SOL    HW223034   2.185   4.926   5.414
 7379SOL     OW23035   5.246   2.205   3.120
 7379SOL    HW123036   5.299   2.140   3.174
 7379SOL    HW223037   5.228   2.167   3.030
 7380SOL     OW23038   5.343   3.491   1.711
 7380SOL    HW123039   5.340   3.550   1.630
 7380SOL    HW223040   5.271   3.518   1.774
 7381SOL     OW23041   3.978   0.265   1.191
 7381SOL    HW123042   4.019   0.356   1.197
 7381SOL    HW223043   3.965   0.240   1.095
 7382SOL     OW23044   0.610   2.559   0.300
 7382SOL    HW123045   0.685   2.576   0.364
 7382SOL    HW223046   0.532   2.617   0.325
 7383SOL     OW23047   2.380   6.902   0.934
 7383SOL    HW123048   2.359   6.905   1.032
 7383SOL    HW223049   2.297   6.881   0.882
 7384SOL     OW23050   6.960   0.703   6.542
 7384SOL    HW123051   6.917   0.680   6.455
 7384SOL    HW223052   0.018   0.761   6.525
 7385SOL     OW23053   6.544   4.255   2.802
 7385SOL    HW123054   6.472   4.251   2.733
 7385SOL    HW223055   6.634   4.253   2.757
 7386SOL     OW23056   5.730   3.992   0.844
 7386SOL    HW123057   5.723   3.906   0.895
 7386SOL    HW223058   5.824   4.026   0.848
 7387SOL     OW23059   0.301   5.631   3.810
 7387SOL    HW123060   0.315   5.701   3.740
 7387SOL    HW223061   0.365   5.646   3.886
 7388SOL     OW23062   2.233   4.690   3.214
 7388SOL    HW123063   2.320   4.676   3.260
 7388SOL    HW223064   2.162   4.709   3.282
 7389SOL     OW23065   0.432   2.682   0.907
 7389SOL    HW123066   0.334   2.668   0.897
 7389SOL    HW223067   0.464   2.636   0.990
 7390SOL     OW23068   4.292   2.217   4.511
 7390SOL    HW123069   4.312   2.135   4.565
 7390SOL    HW223070   4.366   2.283   4.520
 7391SOL     OW23071   3.146   4.088   1.867
 7391SOL    HW123072   3.244   4.100   1.886
 7391SOL    HW223073   3.098   4.072   1.953
 7392SOL     OW23074   3.708   6.577   0.534
 7392SOL    HW123075   3.717   6.516   0.455
 7392SOL    HW223076   3.763   6.542   0.610
 7393SOL     OW23077   4.026   5.724   3.349
 7393SOL    HW123078   4.027   5.823   3.365
 7393SOL    HW223079   4.117   5.686   3.367
 7394SOL     OW23080   1.398   1.565   6.813
 7394SOL    HW123081   1.359   1.480   6.777
 7394SOL    HW223082   1.339   1.601   6.885
 7395SOL     OW23083   3.250   5.666   0.727
 7395SOL    HW123084   3.158   5.703   0.736
 7395SOL    HW223085   3.251   5.569   0.753
 7396SOL     OW23086   1.190   4.639   2.384
 7396SOL    HW123087   1.234   4.585   2.455
 7396SOL    HW223088   1.221   4.608   2.294
 7397SOL     OW23089   6.250   5.104   5.258
 7397SOL    HW123090   6.265   5.007   5.280
 7397SOL    HW223091   6.331   5.141   5.214
 7398SOL     OW23092   2.742   5.661   1.888
 7398SOL    HW123093   2.665   5.598   1.882
 7398SOL    HW223094   2.827   5.609   1.900
 7399SOL     OW23095   6.738   2.088   6.138
 7399SOL    HW123096   6.679   2.105   6.216
 7399SOL    HW223097   6.791   2.005   6.155
 7400SOL     OW23098   4.112   3.244   5.564
 7400SOL    HW123099   4.082   3.193   5.645
 7400SOL    HW223100   4.039   3.304   5.533
 7401SOL     OW23101   3.046   2.079   4.724
 7401SOL    HW123102   3.052   1.984   4.756
 7401SOL    HW223103   3.070   2.141   4.799
 7402SOL     OW23104   4.064   4.827   4.684
 7402SOL    HW123105   4.110   4.754   4.634
 7402SOL    HW223106   4.122   4.907   4.688
 7403SOL     OW23107   2.320   4.985   4.016
 7403SOL    HW123108   2.367   4.906   4.055
 7403SOL    HW223109   2.228   4.991   4.054
 7404SOL     OW23110   2.030   2.980   1.126
 7404SOL    HW123111   1.942   2.966   1.170
 7404SOL    HW223112   2.100   2.995   1.196
 7405SOL     OW23113   3.149   6.939   5.414
 7405SOL    HW123114   3.245   6.966   5.410
 7405SOL    HW223115   3.111   6.937   5.322
 7406SOL     OW23116   0.856   2.825   4.452
 7406SOL    HW123117   0.803   2.910   4.461
 7406SOL    HW223118   0.796   2.747   4.469
 7407SOL     OW23119   1.069   6.349   4.336
 7407SOL    HW123120   1.166   6.328   4.323
 7407SOL    HW223121   1.014   6.267   4.319
 7408SOL     OW23122   4.101   5.002   5.399
 7408SOL    HW123123   4.057   4.916   5.424
 7408SOL    HW223124   4.194   5.005   5.438
 7409SOL     OW23125   5.701   4.852   1.202
 7409SOL    HW123126   5.699   4.840   1.103
 7409SOL    HW223127   5.768   4.922   1.226
 7410SOL     OW23128   6.076   0.936   0.020
 7410SOL    HW123129   6.085   1.030   0.055
 7410SOL    HW223130   6.099   0.935   6.945
 7411SOL     OW23131   3.726   1.847   5.658
 7411SOL    HW123132   3.654   1.784   5.688
 7411SOL    HW223133   3.739   1.918   5.728
 7412SOL     OW23134   4.708   6.976   6.875
 7412SOL    HW123135   4.626   0.003   6.902
 7412SOL    HW223136   4.732   6.910   6.947
 7413SOL     OW23137   4.806   1.158   3.725
 7413SOL    HW123138   4.706   1.164   3.730
 7413SOL    HW223139   4.835   1.169   3.630
 7414SOL     OW23140   3.240   0.980   4.787
 7414SOL    HW123141   3.292   0.920   4.726
 7414SOL    HW223142   3.297   1.004   4.866
 7415SOL     OW23143   4.076   0.897   5.522
 7415SOL    HW123144   4.122   0.975   5.480
 7415SOL    HW223145   3.990   0.927   5.562
 7416SOL     OW23146   6.977   0.672   2.107
 7416SOL    HW123147   0.029   0.696   2.044
 7416SOL    HW223148   7.008   0.685   2.201
 7417SOL     OW23149   6.759   0.779   1.630
 7417SOL    HW123150   6.764   0.831   1.716
 7417SOL    HW223151   6.800   0.833   1.556
 7418SOL     OW23152   2.468   3.631   6.248
 7418SOL    HW123153   2.458   3.602   6.153
 7418SOL    HW223154   2.434   3.559   6.308
 7419SOL     OW23155   6.900   2.573   4.618
 7419SOL    HW123156   6.896   2.476   4.644
 7419SOL    HW223157   6.824   2.622   4.660
 7420SOL     OW23158   6.425   6.835   0.007
 7420SOL    HW123159   6.478   6.862   6.949
 7420SOL    HW223160   6.480   6.850   0.089
 7421SOL     OW23161   0.086   4.206   0.950
 7421SOL    HW123162   7.012   4.180   0.950
 7421SOL    HW223163   0.143   4.123   0.957
 7422SOL     OW23164   6.889   3.046   1.617
 7422SOL    HW123165   6.946   2.982   1.668
 7422SOL    HW223166   6.806   3.001   1.587
 7423SOL     OW23167   4.001   2.502   6.071
 7423SOL    HW123168   3.956   2.450   6.000
 7423SOL    HW223169   4.088   2.537   6.037
 7424SOL     OW23170   1.135   1.787   4.373
 7424SOL    HW123171   1.047   1.777   4.327
 7424SOL    HW223172   1.200   1.833   4.312
 7425SOL     OW23173   5.869   0.757   0.764
 7425SOL    HW123174   5.823   0.727   0.680
 7425SOL    HW223175   5.959   0.794   0.741
 7426SOL     OW23176   3.622   3.679   5.542
 7426SOL    HW123177   3.703   3.732   5.567
 7426SOL    HW223178   3.631   3.648   5.447
 7427SOL     OW23179   2.945   0.875   1.440
 7427SOL    HW123180   2.918   0.807   1.508
 7427SOL    HW223181   2.865   0.925   1.408
 7428SOL     OW23182   1.011   0.010   5.230
 7428SOL    HW123183   1.024   6.934   5.225
 7428SOL    HW223184   1.096   0.056   5.203
 7429SOL     OW23185   0.237   0.308   2.227
 7429SOL    HW123186   0.330   0.330   2.199
 7429SOL    HW223187   0.210   0.219   2.190
 7430SOL     OW23188   6.568   3.200   2.788
 7430SOL    HW123189   6.482   3.241   2.761
 7430SOL    HW223190   6.640   3.270   2.790
 7431SOL     OW23191   1.079   2.709   4.586
 7431SOL    HW123192   1.142   2.689   4.512
 7431SOL    HW223193   1.016   2.782   4.557
 7432SOL     OW23194   1.225   1.292   2.669
 7432SOL    HW123195   1.228   1.392   2.665
 7432SOL    HW223196   1.233   1.255   2.577
 7433SOL     OW23197   4.032   0.105   6.010
 7433SOL    HW123198   4.031   0.170   5.934
 7433SOL    HW223199   4.110   0.125   6.070
 7434SOL     OW23200   3.768   6.914   3.181
 7434SOL    HW123201   3.742   6.898   3.086
 7434SOL    HW223202   3.800   6.829   3.222
 7435SOL     OW23203   4.488   4.600   3.190
 7435SOL    HW123204   4.400   4.647   3.179
 7435SOL    HW223205   4.562   4.662   3.166
 7436SOL     OW23206   4.601   2.899   6.227
 7436SOL    HW123207   4.629   2.829   6.293
 7436SOL    HW223208   4.663   2.977   6.234
 7437SOL     OW23209   3.997   0.645   1.466
 7437SOL    HW123210   3.924   0.663   1.400
 7437SOL    HW223211   3.976   0.560   1.515
 7438SOL     OW23212   1.434   0.857   6.121
 7438SOL    HW123213   1.507   0.925   6.122
 7438SOL    HW223214   1.457   0.785   6.054
 7439SOL     OW23215   1.475   4.498   5.728
 7439SOL    HW123216   1.399   4.560   5.745
 7439SOL    HW223217   1.544   4.508   5.800
 7440SOL     OW23218   6.274   2.340   4.937
 7440SOL    HW123219   6.322   2.274   4.880
 7440SOL    HW223220   6.311   2.337   5.030
 7441SOL     OW23221   5.292   6.886   0.631
 7441SOL    HW123222   5.317   6.973   0.590
 7441SOL    HW223223   5.193   6.878   0.634
 7442SOL     OW23224   0.031   1.121   6.307
 7442SOL    HW123225   6.984   1.086   6.370
 7442SOL    HW223226   0.035   1.221   6.316
 7443SOL     OW23227   0.283   6.673   0.343
 7443SOL    HW123228   0.324   6.738   0.281
 7443SOL    HW223229   0.320   6.685   0.435
 7444SOL     OW23230   0.997   6.387   6.637
 7444SOL    HW123231   1.007   6.378   6.538
 7444SOL    HW223232   0.929   6.321   6.670
 7445SOL     OW23233   4.062   5.987   2.011
 7445SOL    HW123234   4.021   6.078   2.000
 7445SOL    HW223235   4.073   5.968   2.109
 7446SOL     OW23236   6.253   4.859   0.481
 7446SOL    HW123237   6.224   4.779   0.429
 7446SOL    HW223238   6.199   4.864   0.566
 7447SOL     OW23239   0.087   5.706   0.904
 7447SOL    HW123240   0.168   5.696   0.962
 7447SOL    HW223241   0.009   5.659   0.946
 7448SOL     OW23242   4.757   5.182   6.920
 7448SOL    HW123243   4.735   5.085   6.917
 7448SOL    HW223244   4.821   5.204   6.846
 7449SOL     OW23245   6.371   3.472   6.098
 7449SOL    HW123246   6.429   3.549   6.071
 7449SOL    HW223247   6.281   3.506   6.124
 7450SOL     OW23248   5.092   3.651   0.323
 7450SOL    HW123249   5.005   3.617   0.287
 7450SOL    HW223250   5.108   3.744   0.288
 7451SOL     OW23251   4.484   5.591   2.937
 7451SOL    HW123252   4.458   5.687   2.936
 7451SOL    HW223253   4.567   5.578   2.884
 7452SOL     OW23254   6.624   6.126   0.048
 7452SOL    HW123255   6.659   6.209   0.006
 7452SOL    HW223256   6.568   6.076   7.004
 7453SOL     OW23257   4.429   4.500   6.431
 7453SOL    HW123258   4.398   4.595   6.436
 7453SOL    HW223259   4.497   4.491   6.358
 7454SOL     OW23260   4.098   1.915   1.166
 7454SOL    HW123261   4.092   2.008   1.201
 7454SOL    HW223262   4.177   1.909   1.104
 7455SOL     OW23263   6.202   0.709   2.757
 7455SOL    HW123264   6.263   0.635   2.786
 7455SOL    HW223265   6.107   0.676   2.758
 7456SOL     OW23266   2.685   0.675   4.972
 7456SOL    HW123267   2.670   0.691   5.069
 7456SOL    HW223268   2.656   0.756   4.920
 7457SOL     OW23269   1.332   1.971   2.787
 7457SOL    HW123270   1.334   1.934   2.880
 7457SOL    HW223271   1.368   2.065   2.788
 7458SOL     OW23272   7.009   5.986   4.890
 7458SOL    HW123273   0.043   6.009   4.969
 7458SOL    HW223274   6.939   6.056   4.877
 7459SOL     OW23275   5.187   6.621   2.970
 7459SOL    HW123276   5.253   6.605   3.043
 7459SOL    HW223277   5.158   6.533   2.932
 7460SOL     OW23278   0.526   0.736   1.400
 7460SOL    HW123279   0.469   0.818   1.404
 7460SOL    HW223280   0.616   0.757   1.440
 7461SOL     OW23281   1.675   4.512   5.922
 7461SOL    HW123282   1.746   4.537   5.856
 7461SOL    HW223283   1.713   4.446   5.988
 7462SOL     OW23284   2.113   4.305   6.996
 7462SOL    HW123285   2.187   4.346   6.943
 7462SOL    HW223286   2.151   4.246   0.045
 7463SOL     OW23287   4.769   4.782   0.706
 7463SOL    HW123288   4.812   4.793   0.617
 7463SOL    HW223289   4.677   4.820   0.704
 7464SOL     OW23290   5.562   5.625   5.371
 7464SOL    HW123291   5.566   5.529   5.345
 7464SOL    HW223292   5.649   5.670   5.348
 7465SOL     OW23293   1.174   3.580   6.785
 7465SOL    HW123294   1.204   3.526   6.863
 7465SOL    HW223295   1.241   3.573   6.711
 7466SOL     OW23296   0.684   0.447   5.700
 7466SOL    HW123297   0.594   0.455   5.742
 7466SOL    HW223298   0.700   0.526   5.641
 7467SOL     OW23299   1.441   4.240   3.934
 7467SOL    HW123300   1.358   4.220   3.988
 7467SOL    HW223301   1.483   4.154   3.906
 7468SOL     OW23302   6.024   2.790   4.559
 7468SOL    HW123303   6.012   2.878   4.512
 7468SOL    HW223304   5.952   2.780   4.628
 7469SOL     OW23305   6.887   1.882   0.000
 7469SOL    HW123306   6.917   1.866   0.095
 7469SOL    HW223307   6.865   1.795   6.980
 7470SOL     OW23308   5.077   3.179   3.873
 7470SOL    HW123309   5.083   3.234   3.956
 7470SOL    HW223310   4.982   3.151   3.858
 7471SOL     OW23311   3.100   0.270   6.150
 7471SOL    HW123312   3.037   0.295   6.223
 7471SOL    HW223313   3.072   0.316   6.065
 7472SOL     OW23314   0.115   0.516   5.173
 7472SOL    HW123315   0.136   0.419   5.176
 7472SOL    HW223316   0.185   0.567   5.224
 7473SOL     OW23317   5.052   0.284   3.664
 7473SOL    HW123318   5.022   0.349   3.594
 7473SOL    HW223319   5.037   0.325   3.755
 7474SOL     OW23320   6.198   2.226   2.234
 7474SOL    HW123321   6.129   2.247   2.304
 7474SOL    HW223322   6.288   2.223   2.276
 7475SOL     OW23323   5.326   3.104   1.035
 7475SOL    HW123324   5.235   3.143   1.047
 7475SOL    HW223325   5.347   3.045   1.113
 7476SOL     OW23326   2.698   1.393   2.168
 7476SOL    HW123327   2.728   1.313   2.116
 7476SOL    HW223328   2.605   1.417   2.141
 7477SOL     OW23329   2.317   3.432   5.588
 7477SOL    HW123330   2.279   3.517   5.552
 7477SOL    HW223331   2.415   3.443   5.604
 7478SOL     OW23332   0.905   2.883   0.073
 7478SOL    HW123333   0.907   2.804   0.012
 7478SOL    HW223334   0.810   2.906   0.095
 7479SOL     OW23335   4.746   2.625   2.089
 7479SOL    HW123336   4.744   2.717   2.127
 7479SOL    HW223337   4.816   2.620   2.018
 7480SOL     OW23338   3.846   6.632   2.128
 7480SOL    HW123339   3.767   6.642   2.067
 7480SOL    HW223340   3.872   6.535   2.134
 7481SOL     OW23341   0.691   4.403   6.852
 7481SOL    HW123342   0.661   4.369   6.941
 7481SOL    HW223343   0.780   4.446   6.861
 7482SOL     OW23344   4.012   1.478   4.553
 7482SOL    HW123345   3.976   1.445   4.466
 7482SOL    HW223346   3.969   1.566   4.575
 7483SOL     OW23347   6.399   1.218   5.243
 7483SOL    HW123348   6.338   1.155   5.291
 7483SOL    HW223349   6.480   1.169   5.211
 7484SOL     OW23350   2.477   6.965   5.194
 7484SOL    HW123351   2.422   6.967   5.111
 7484SOL    HW223352   2.498   0.037   5.222
 7485SOL     OW23353   3.794   6.983   6.928
 7485SOL    HW123354   3.718   7.006   6.988
 7485SOL    HW223355   3.785   0.008   6.841
 7486SOL     OW23356   4.069   6.141   1.049
 7486SOL    HW123357   4.168   6.144   1.040
 7486SOL    HW223358   4.041   6.060   1.099
 7487SOL     OW23359   3.474   6.213   4.653
 7487SOL    HW123360   3.556   6.259   4.687
 7487SOL    HW223361   3.396   6.274   4.659
 7488SOL     OW23362   2.205   5.804   3.269
 7488SOL    HW123363   2.204   5.811   3.170
 7488SOL    HW223364   2.168   5.715   3.297
 7489SOL     OW23365   5.376   3.960   5.850
 7489SOL    HW123366   5.364   4.050   5.809
 7489SOL    HW223367   5.286   3.917   5.861
 7490SOL     OW23368   2.071   2.084   1.614
 7490SOL    HW123369   2.006   2.035   1.556
 7490SOL    HW223370   2.062   2.054   1.708
 7491SOL     OW23371   4.180   4.267   5.841
 7491SOL    HW123372   4.103   4.328   5.820
 7491SOL    HW223373   4.227   4.243   5.757
 7492SOL     OW23374   1.698   1.789   3.032
 7492SOL    HW123375   1.797   1.797   3.032
 7492SOL    HW223376   1.668   1.750   2.944
 7493SOL     OW23377   5.751   4.469   4.956
 7493SOL    HW123378   5.707   4.383   4.931
 7493SOL    HW223379   5.850   4.457   4.960
 7494SOL     OW23380   5.647   1.739   2.439
 7494SOL    HW123381   5.611   1.706   2.351
 7494SOL    HW223382   5.744   1.759   2.430
 7495SOL     OW23383   1.544   3.621   4.398
 7495SOL    HW123384   1.456   3.668   4.396
 7495SOL    HW223385   1.584   3.629   4.490
 7496SOL     OW23386   5.976   3.239   3.633
 7496SOL    HW123387   6.047   3.303   3.660
 7496SOL    HW223388   5.970   3.166   3.702
 7497SOL     OW23389   6.023   0.563   0.938
 7497SOL    HW123390   5.991   0.623   0.865
 7497SOL    HW223391   6.077   0.617   1.004
 7498SOL     OW23392   2.341   6.116   2.732
 7498SOL    HW123393   2.332   6.156   2.641
 7498SOL    HW223394   2.321   6.018   2.728
 7499SOL     OW23395   3.150   1.144   2.780
 7499SOL    HW123396   3.146   1.053   2.820
 7499SOL    HW223397   3.207   1.143   2.698
 7500SOL     OW23398   3.673   1.369   5.150
 7500SOL    HW123399   3.653   1.339   5.243
 7500SOL    HW223400   3.592   1.409   5.108
 7501SOL     OW23401   5.714   1.600   5.146
 7501SOL    HW123402   5.739   1.696   5.161
 7501SOL    HW223403   5.788   1.553   5.099
 7502SOL     OW23404   3.742   1.060   4.503
 7502SOL    HW123405   3.776   1.070   4.410
 7502SOL    HW223406   3.678   1.135   4.524
 7503SOL     OW23407   1.116   5.719   0.922
 7503SOL    HW123408   1.123   5.818   0.911
 7503SOL    HW223409   1.204   5.682   0.949
 7504SOL     OW23410   6.102   5.896   4.909
 7504SOL    HW123411   6.176   5.958   4.883
 7504SOL    HW223412   6.022   5.950   4.935
 7505SOL     OW23413   0.663   6.631   6.690
 7505SOL    HW123414   0.697   6.655   6.599
 7505SOL    HW223415   0.595   6.699   6.718
 7506SOL     OW23416   3.529   2.093   4.374
 7506SOL    HW123417   3.614   2.123   4.418
 7506SOL    HW223418   3.462   2.067   4.444
 7507SOL     OW23419   6.657   3.668   5.969
 7507SOL    HW123420   6.737   3.624   6.010
 7507SOL    HW223421   6.681   3.760   5.941
 7508SOL     OW23422   4.128   6.414   0.226
 7508SOL    HW123423   4.034   6.446   0.219
 7508SOL    HW223424   4.134   6.344   0.297
 7509SOL     OW23425   5.559   4.246   3.232
 7509SOL    HW123426   5.555   4.335   3.278
 7509SOL    HW223427   5.618   4.184   3.284
 7510SOL     OW23428   3.745   4.523   1.404
 7510SOL    HW123429   3.731   4.424   1.393
 7510SOL    HW223430   3.708   4.571   1.325
 7511SOL     OW23431   4.393   6.011   4.610
 7511SOL    HW123432   4.444   6.016   4.524
 7511SOL    HW223433   4.442   6.065   4.679
 7512SOL     OW23434   3.524   5.498   0.791
 7512SOL    HW123435   3.441   5.467   0.745
 7512SOL    HW223436   3.500   5.543   0.877
 7513SOL     OW23437   0.025   0.963   2.552
 7513SOL    HW123438   0.116   0.940   2.586
 7513SOL    HW223439   7.018   1.051   2.591
 7514SOL     OW23440   0.160   0.222   0.220
 7514SOL    HW123441   0.179   0.249   0.126
 7514SOL    HW223442   0.193   0.128   0.235
 7515SOL     OW23443   6.922   5.479   4.599
 7515SOL    HW123444   6.873   5.553   4.645
 7515SOL    HW223445   6.940   5.406   4.664
 7516SOL     OW23446   2.148   6.012   4.222
 7516SOL    HW123447   2.152   6.019   4.122
 7516SOL    HW223448   2.238   5.985   4.257
 7517SOL     OW23449   0.429   2.710   0.438
 7517SOL    HW123450   0.336   2.746   0.446
 7517SOL    HW223451   0.495   2.783   0.451
 7518SOL     OW23452   4.018   2.081   4.778
 7518SOL    HW123453   4.016   2.118   4.685
 7518SOL    HW223454   4.021   2.156   4.843
 7519SOL     OW23455   3.146   6.997   4.764
 7519SOL    HW123456   3.101   6.930   4.705
 7519SOL    HW223457   3.235   6.962   4.793
 7520SOL     OW23458   1.618   0.427   0.808
 7520SOL    HW123459   1.670   0.466   0.733
 7520SOL    HW223460   1.550   0.363   0.772
 7521SOL     OW23461   4.728   1.712   5.572
 7521SOL    HW123462   4.641   1.757   5.551
 7521SOL    HW223463   4.777   1.765   5.642
 7522SOL     OW23464   1.330   6.632   4.012
 7522SOL    HW123465   1.248   6.683   4.038
 7522SOL    HW223466   1.353   6.567   4.084
 7523SOL     OW23467   5.275   1.698   6.764
 7523SOL    HW123468   5.336   1.712   6.843
 7523SOL    HW223469   5.182   1.725   6.789
 7524SOL     OW23470   7.000   4.190   4.886
 7524SOL    HW123471   6.947   4.168   4.968
 7524SOL    HW223472   6.969   4.278   4.850
 7525SOL     OW23473   2.424   4.481   5.729
 7525SOL    HW123474   2.362   4.406   5.752
 7525SOL    HW223475   2.498   4.485   5.796
 7526SOL     OW23476   0.770   3.785   1.204
 7526SOL    HW123477   0.839   3.798   1.275
 7526SOL    HW223478   0.786   3.852   1.131
 7527SOL     OW23479   2.812   5.295   2.657
 7527SOL    HW123480   2.729   5.340   2.690
 7527SOL    HW223481   2.892   5.331   2.705
 7528SOL     OW23482   6.711   2.666   6.949
 7528SOL    HW123483   6.751   2.596   7.008
 7528SOL    HW223484   6.773   2.744   6.943
 7529SOL     OW23485   5.874   2.475   5.010
 7529SOL    HW123486   5.968   2.478   5.043
 7529SOL    HW223487   5.844   2.567   4.986
 7530SOL     OW23488   1.886   2.716   3.440
 7530SOL    HW123489   1.821   2.789   3.418
 7530SOL    HW223490   1.835   2.636   3.473
 7531SOL     OW23491   4.517   1.654   4.105
 7531SOL    HW123492   4.475   1.718   4.040
 7531SOL    HW223493   4.455   1.641   4.183
 7532SOL     OW23494   4.315   4.286   6.098
 7532SOL    HW123495   4.245   4.283   6.026
 7532SOL    HW223496   4.270   4.280   6.187
 7533SOL     OW23497   4.294   4.400   0.481
 7533SOL    HW123498   4.212   4.362   0.523
 7533SOL    HW223499   4.364   4.329   0.475
 7534SOL     OW23500   4.326   6.190   4.857
 7534SOL    HW123501   4.303   6.233   4.769
 7534SOL    HW223502   4.242   6.162   4.903
 7535SOL     OW23503   0.233   6.879   4.999
 7535SOL    HW123504   0.225   6.819   5.079
 7535SOL    HW223505   0.208   6.828   4.917
 7536SOL     OW23506   5.728   6.763   3.007
 7536SOL    HW123507   5.671   6.701   2.953
 7536SOL    HW223508   5.730   6.853   2.964
 7537SOL     OW23509   2.470   6.712   1.706
 7537SOL    HW123510   2.406   6.767   1.652
 7537SOL    HW223511   2.487   6.757   1.794
 7538SOL     OW23512   1.286   4.874   0.025
 7538SOL    HW123513   1.365   4.880   0.087
 7538SOL    HW223514   1.263   4.778   0.008
 7539SOL     OW23515   6.397   6.982   5.130
 7539SOL    HW123516   6.410   0.050   5.089
 7539SOL    HW223517   6.466   6.919   5.095
 7540SOL     OW23518   4.959   4.114   3.848
 7540SOL    HW123519   4.883   4.114   3.913
 7540SOL    HW223520   5.003   4.203   3.848
 7541SOL     OW23521   1.940   4.093   7.013
 7541SOL    HW123522   1.994   4.177   7.002
 7541SOL    HW223523   1.856   4.101   6.959
 7542SOL     OW23524   6.142   6.258   4.879
 7542SOL    HW123525   6.144   6.283   4.976
 7542SOL    HW223526   6.104   6.334   4.826
 7543SOL     OW23527   2.004   0.332   6.755
 7543SOL    HW123528   2.098   0.301   6.739
 7543SOL    HW223529   2.006   0.419   6.803
 7544SOL     OW23530   6.583   2.066   5.917
 7544SOL    HW123531   6.634   2.096   5.836
 7544SOL    HW223532   6.644   2.062   5.995
 7545SOL     OW23533   1.154   5.957   4.766
 7545SOL    HW123534   1.109   5.874   4.732
 7545SOL    HW223535   1.131   5.970   4.862
 7546SOL     OW23536   2.274   3.336   1.633
 7546SOL    HW123537   2.297   3.370   1.724
 7546SOL    HW223538   2.334   3.259   1.610
 7547SOL     OW23539   4.022   0.778   2.213
 7547SOL    HW123540   3.927   0.764   2.242
 7547SOL    HW223541   4.027   0.770   2.113
 7548SOL     OW23542   2.607   2.177   6.227
 7548SOL    HW123543   2.509   2.184   6.206
 7548SOL    HW223544   2.660   2.193   6.144
 7549SOL     OW23545   5.142   0.296   5.632
 7549SOL    HW123546   5.238   0.319   5.621
 7549SOL    HW223547   5.127   0.258   5.723
 7550SOL     OW23548   3.177   6.668   4.745
 7550SOL    HW123549   3.218   6.602   4.808
 7550SOL    HW223550   3.136   6.619   4.668
 7551SOL     OW23551   6.013   3.030   6.909
 7551SOL    HW123552   5.964   2.961   6.962
 7551SOL    HW223553   6.096   2.991   6.871
 7552SOL     OW23554   2.741   6.853   4.529
 7552SOL    HW123555   2.728   6.810   4.618
 7552SOL    HW223556   2.722   6.787   4.456
 7553SOL     OW23557   6.587   0.411   5.718
 7553SOL    HW123558   6.678   0.413   5.759
 7553SOL    HW223559   6.592   0.373   5.626
 7554SOL     OW23560   4.756   1.823   1.895
 7554SOL    HW123561   4.725   1.796   1.804
 7554SOL    HW223562   4.821   1.756   1.930
 7555SOL     OW23563   4.435   5.626   4.316
 7555SOL    HW123564   4.525   5.668   4.312
 7555SOL    HW223565   4.393   5.627   4.225
 7556SOL     OW23566   0.633   5.603   0.873
 7556SOL    HW123567   0.539   5.569   0.876
 7556SOL    HW223568   0.636   5.689   0.822
 7557SOL     OW23569   4.413   5.777   0.298
 7557SOL    HW123570   4.495   5.753   0.246
 7557SOL    HW223571   4.409   5.721   0.381
 7558SOL     OW23572   2.035   1.517   4.463
 7558SOL    HW123573   2.088   1.601   4.467
 7558SOL    HW223574   1.962   1.526   4.396
 7559SOL     OW23575   1.302   6.719   4.887
 7559SOL    HW123576   1.397   6.700   4.911
 7559SOL    HW223577   1.273   6.658   4.813
 7560SOL     OW23578   0.482   1.147   5.474
 7560SOL    HW123579   0.406   1.140   5.538
 7560SOL    HW223580   0.556   1.087   5.504
 7561SOL     OW23581   5.398   1.118   5.759
 7561SOL    HW123582   5.439   1.206   5.736
 7561SOL    HW223583   5.311   1.107   5.711
 7562SOL     OW23584   1.740   5.558   3.558
 7562SOL    HW123585   1.815   5.616   3.526
 7562SOL    HW223586   1.777   5.488   3.620
 7563SOL     OW23587   3.249   6.166   2.989
 7563SOL    HW123588   3.153   6.154   3.015
 7563SOL    HW223589   3.260   6.252   2.940
 7564SOL     OW23590   6.076   3.490   6.482
 7564SOL    HW123591   6.133   3.427   6.535
 7564SOL    HW223592   5.985   3.450   6.469
 7565SOL     OW23593   6.464   3.290   5.308
 7565SOL    HW123594   6.480   3.322   5.402
 7565SOL    HW223595   6.384   3.230   5.307
 7566SOL     OW23596   5.161   3.942   1.407
 7566SOL    HW123597   5.238   3.991   1.447
 7566SOL    HW223598   5.075   3.983   1.439
 7567SOL     OW23599   1.596   0.430   3.090
 7567SOL    HW123600   1.573   0.376   3.171
 7567SOL    HW223601   1.513   0.469   3.052
 7568SOL     OW23602   0.184   4.566   1.423
 7568SOL    HW123603   0.260   4.587   1.485
 7568SOL    HW223604   0.202   4.479   1.378
 7569SOL     OW23605   4.585   4.049   1.358
 7569SOL    HW123606   4.604   4.112   1.432
 7569SOL    HW223607   4.606   4.092   1.271
 7570SOL     OW23608   1.315   2.539   1.937
 7570SOL    HW123609   1.280   2.448   1.915
 7570SOL    HW223610   1.275   2.570   2.024
 7571SOL     OW23611   5.188   1.453   3.257
 7571SOL    HW123612   5.266   1.389   3.261
 7571SOL    HW223613   5.119   1.417   3.193
 7572SOL     OW23614   4.205   6.860   2.199
 7572SOL    HW123615   4.242   6.953   2.203
 7572SOL    HW223616   4.226   6.821   2.109
 7573SOL     OW23617   3.447   0.579   5.961
 7573SOL    HW123618   3.429   0.494   6.011
 7573SOL    HW223619   3.506   0.637   6.017
 7574SOL     OW23620   0.628   3.625   2.728
 7574SOL    HW123621   0.711   3.658   2.683
 7574SOL    HW223622   0.627   3.655   2.823
 7575SOL     OW23623   6.808   0.270   0.015
 7575SOL    HW123624   6.778   0.348   6.982
 7575SOL    HW223625   6.731   0.207   0.028
 7576SOL     OW23626   4.953   3.149   6.722
 7576SOL    HW123627   5.046   3.117   6.708
 7576SOL    HW223628   4.955   3.238   6.769
 7577SOL     OW23629   6.797   0.529   5.356
 7577SOL    HW123630   6.881   0.572   5.389
 7577SOL    HW223631   6.765   0.577   5.274
 7578SOL     OW23632   6.263   5.841   2.205
 7578SOL    HW123633   6.189   5.774   2.205
 7578SOL    HW223634   6.350   5.795   2.222
 7579SOL     OW23635   1.302   1.650   6.494
 7579SOL    HW123636   1.331   1.723   6.555
 7579SOL    HW223637   1.331   1.670   6.401
 7580SOL     OW23638   2.104   4.477   2.110
 7580SOL    HW123639   2.167   4.552   2.095
 7580SOL    HW223640   2.073   4.477   2.205
 7581SOL     OW23641   0.522   0.297   1.029
 7581SOL    HW123642   0.522   0.305   0.929
 7581SOL    HW223643   0.508   0.201   1.055
 7582SOL     OW23644   1.312   0.762   5.710
 7582SOL    HW123645   1.345   0.673   5.679
 7582SOL    HW223646   1.213   0.767   5.697
 7583SOL     OW23647   5.679   3.676   2.619
 7583SOL    HW123648   5.603   3.655   2.557
 7583SOL    HW223649   5.706   3.592   2.666
 7584SOL     OW23650   0.419   1.064   3.527
 7584SOL    HW123651   0.434   0.988   3.590
 7584SOL    HW223652   0.505   1.087   3.482
 7585SOL     OW23653   0.623   1.287   6.093
 7585SOL    HW123654   0.717   1.315   6.114
 7585SOL    HW223655   0.616   1.266   5.995
 7586SOL     OW23656   2.342   6.681   3.982
 7586SOL    HW123657   2.361   6.775   3.953
 7586SOL    HW223658   2.290   6.634   3.911
 7587SOL     OW23659   5.937   0.377   1.990
 7587SOL    HW123660   5.989   0.302   1.949
 7587SOL    HW223661   5.875   0.416   1.922
 7588SOL     OW23662   2.088   3.800   4.823
 7588SOL    HW123663   2.143   3.870   4.776
 7588SOL    HW223664   2.086   3.821   4.921
 7589SOL     OW23665   6.499   0.092   2.553
 7589SOL    HW123666   6.579   0.076   2.611
 7589SOL    HW223667   6.427   0.136   2.607
 7590SOL     OW23668   5.576   0.834   6.570
 7590SOL    HW123669   5.549   0.929   6.558
 7590SOL    HW223670   5.566   0.808   6.667
 7591SOL     OW23671   3.930   3.570   5.001
 7591SOL    HW123672   3.890   3.509   5.069
 7591SOL    HW223673   3.989   3.517   4.939
 7592SOL     OW23674   0.098   0.131   3.129
 7592SOL    HW123675   0.107   0.049   3.185
 7592SOL    HW223676   0.009   0.174   3.146
 7593SOL     OW23677   6.694   1.966   6.546
 7593SOL    HW123678   6.662   2.005   6.459
 7593SOL    HW223679   6.772   2.018   6.578
 7594SOL     OW23680   6.759   4.263   5.380
 7594SOL    HW123681   6.773   4.231   5.474
 7594SOL    HW223682   6.725   4.357   5.381
 7595SOL     OW23683   0.368   3.655   0.542
 7595SOL    HW123684   0.366   3.556   0.560
 7595SOL    HW223685   0.443   3.676   0.479
 7596SOL     OW23686   2.985   2.066   6.983
 7596SOL    HW123687   3.004   1.985   6.927
 7596SOL    HW223688   3.043   2.064   0.043
 7597SOL     OW23689   2.349   4.394   0.230
 7597SOL    HW123690   2.255   4.411   0.259
 7597SOL    HW223691   2.389   4.479   0.195
 7598SOL     OW23692   5.023   0.998   2.309
 7598SOL    HW123693   4.992   1.006   2.214
 7598SOL    HW223694   4.964   1.053   2.368
 7599SOL     OW23695   2.819   3.186   0.279
 7599SOL    HW123696   2.906   3.214   0.238
 7599SOL    HW223697   2.813   3.220   0.372
 7600SOL     OW23698   0.156   6.977   4.650
 7600SOL    HW123699   0.116   6.965   4.559
 7600SOL    HW223700   0.212   6.898   4.673
 7601SOL     OW23701   2.923   6.168   0.998
 7601SOL    HW123702   2.952   6.095   0.937
 7601SOL    HW223703   2.846   6.135   1.054
 7602SOL     OW23704   6.936   0.928   1.445
 7602SOL    HW123705   7.007   0.863   1.418
 7602SOL    HW223706   6.864   0.930   1.375
 7603SOL     OW23707   4.310   1.795   6.575
 7603SOL    HW123708   4.311   1.725   6.647
 7603SOL    HW223709   4.396   1.792   6.524
 7604SOL     OW23710   2.482   1.963   5.453
 7604SOL    HW123711   2.456   2.001   5.542
 7604SOL    HW223712   2.524   2.035   5.397
 7605SOL     OW23713   2.743   6.225   6.165
 7605SOL    HW123714   2.752   6.130   6.196
 7605SOL    HW223715   2.803   6.239   6.086
 7606SOL     OW23716   6.378   1.049   3.758
 7606SOL    HW123717   6.319   1.017   3.683
 7606SOL    HW223718   6.324   1.055   3.842
 7607SOL     OW23719   2.175   5.667   5.194
 7607SOL    HW123720   2.221   5.742   5.241
 7607SOL    HW223721   2.186   5.678   5.095
 7608SOL     OW23722   0.681   2.685   6.461
 7608SOL    HW123723   0.583   2.682   6.481
 7608SOL    HW223724   0.694   2.722   6.369
 7609SOL     OW23725   3.293   0.415   4.840
 7609SOL    HW123726   3.223   0.380   4.903
 7609SOL    HW223727   3.262   0.503   4.802
 7610SOL     OW23728   4.238   5.860   4.876
 7610SOL    HW123729   4.237   5.949   4.829
 7610SOL    HW223730   4.257   5.875   4.973
 7611SOL     OW23731   4.307   2.104   0.461
 7611SOL    HW123732   4.239   2.050   0.511
 7611SOL    HW223733   4.388   2.048   0.444
 7612SOL     OW23734   4.893   3.284   2.313
 7612SOL    HW123735   4.877   3.351   2.240
 7612SOL    HW223736   4.887   3.330   2.401
 7613SOL     OW23737   0.192   0.823   6.421
 7613SOL    HW123738   0.233   0.894   6.478
 7613SOL    HW223739   0.201   0.847   6.325
 7614SOL     OW23740   5.885   5.233   6.778
 7614SOL    HW123741   5.803   5.198   6.824
 7614SOL    HW223742   5.905   5.176   6.698
 7615SOL     OW23743   4.979   3.483   6.208
 7615SOL    HW123744   4.965   3.573   6.167
 7615SOL    HW223745   5.077   3.468   6.222
 7616SOL     OW23746   6.721   6.640   2.129
 7616SOL    HW123747   6.749   6.549   2.097
 7616SOL    HW223748   6.790   6.677   2.191
 7617SOL     OW23749   5.232   4.908   2.958
 7617SOL    HW123750   5.261   4.942   3.048
 7617SOL    HW223751   5.171   4.830   2.971
 7618SOL     OW23752   2.844   2.346   0.175
 7618SOL    HW123753   2.943   2.340   0.161
 7618SOL    HW223754   2.815   2.270   0.233
 7619SOL     OW23755   0.629   0.763   4.488
 7619SOL    HW123756   0.571   0.804   4.418
 7619SOL    HW223757   0.576   0.751   4.572
 7620SOL     OW23758   3.284   4.256   0.548
 7620SOL    HW123759   3.272   4.229   0.452
 7620SOL    HW223760   3.380   4.248   0.573
 7621SOL     OW23761   5.867   4.757   0.859
 7621SOL    HW123762   5.922   4.780   0.940
 7621SOL    HW223763   5.808   4.835   0.837
 7622SOL     OW23764   2.262   3.630   0.754
 7622SOL    HW123765   2.359   3.651   0.748
 7622SOL    HW223766   2.217   3.655   0.669
 7623SOL     OW23767   5.274   5.221   3.369
 7623SOL    HW123768   5.190   5.275   3.367
 7623SOL    HW223769   5.328   5.238   3.286
 7624SOL     OW23770   6.535   3.249   3.433
 7624SOL    HW123771   6.477   3.302   3.372
 7624SOL    HW223772   6.478   3.192   3.492
 7625SOL     OW23773   5.081   0.386   1.966
 7625SOL    HW123774   5.110   0.455   1.899
 7625SOL    HW223775   5.155   0.370   2.032
 7626SOL     OW23776   4.965   6.042   0.454
 7626SOL    HW123777   4.882   6.094   0.430
 7626SOL    HW223778   4.969   5.958   0.399
 7627SOL     OW23779   4.558   2.485   5.559
 7627SOL    HW123780   4.475   2.491   5.504
 7627SOL    HW223781   4.539   2.516   5.652
 7628SOL     OW23782   3.840   2.864   0.489
 7628SOL    HW123783   3.873   2.958   0.496
 7628SOL    HW223784   3.775   2.846   0.562
 7629SOL     OW23785   5.696   2.590   3.780
 7629SOL    HW123786   5.694   2.535   3.696
 7629SOL    HW223787   5.780   2.644   3.783
 7630SOL     OW23788   1.859   5.646   3.873
 7630SOL    HW123789   1.769   5.670   3.836
 7630SOL    HW223790   1.926   5.643   3.798
 7631SOL     OW23791   1.324   1.297   6.709
 7631SOL    HW123792   1.241   1.338   6.746
 7631SOL    HW223793   1.303   1.249   6.624
 7632SOL     OW23794   4.051   5.373   0.950
 7632SOL    HW123795   4.039   5.281   0.913
 7632SOL    HW223796   3.996   5.384   1.033
 7633SOL     OW23797   5.481   0.602   1.893
 7633SOL    HW123798   5.463   0.505   1.881
 7633SOL    HW223799   5.416   0.655   1.839
 7634SOL     OW23800   0.660   2.001   0.004
 7634SOL    HW123801   0.668   2.073   6.957
 7634SOL    HW223802   0.670   2.042   0.095
 7635SOL     OW23803   1.504   3.097   5.876
 7635SOL    HW123804   1.551   3.130   5.958
 7635SOL    HW223805   1.521   3.160   5.800
 7636SOL     OW23806   7.018   2.846   3.446
 7636SOL    HW123807   0.020   2.907   3.371
 7636SOL    HW223808   0.006   2.894   3.533
 7637SOL     OW23809   1.825   4.395   4.781
 7637SOL    HW123810   1.910   4.351   4.809
 7637SOL    HW223811   1.803   4.469   4.846
 7638SOL     OW23812   0.241   0.045   1.041
 7638SOL    HW123813   0.199   0.120   0.990
 7638SOL    HW223814   0.207   6.980   1.006
 7639SOL     OW23815   2.032   5.961   0.294
 7639SOL    HW123816   2.113   5.902   0.296
 7639SOL    HW223817   1.963   5.925   0.357
 7640SOL     OW23818   3.218   0.584   0.566
 7640SOL    HW123819   3.185   0.491   0.582
 7640SOL    HW223820   3.141   0.644   0.546
 7641SOL     OW23821   6.393   4.174   5.429
 7641SOL    HW123822   6.311   4.122   5.452
 7641SOL    HW223823   6.423   4.227   5.508
 7642SOL     OW23824   5.323   0.650   4.153
 7642SOL    HW123825   5.256   0.595   4.205
 7642SOL    HW223826   5.293   0.745   4.151
 7643SOL     OW23827   5.256   1.955   3.990
 7643SOL    HW123828   5.173   1.975   3.938
 7643SOL    HW223829   5.315   1.894   3.937
 7644SOL     OW23830   5.581   3.930   0.167
 7644SOL    HW123831   5.609   3.834   0.157
 7644SOL    HW223832   5.527   3.941   0.250
 7645SOL     OW23833   6.323   4.391   6.497
 7645SOL    HW123834   6.277   4.466   6.449
 7645SOL    HW223835   6.259   4.350   6.562
 7646SOL     OW23836   6.008   1.273   2.991
 7646SOL    HW123837   5.954   1.352   2.962
 7646SOL    HW223838   5.961   1.189   2.962
 7647SOL     OW23839   6.599   1.471   4.254
 7647SOL    HW123840   6.523   1.448   4.191
 7647SOL    HW223841   6.600   1.570   4.270
 7648SOL     OW23842   1.806   2.637   0.775
 7648SOL    HW123843   1.839   2.560   0.720
 7648SOL    HW223844   1.823   2.723   0.725
 7649SOL     OW23845   4.372   0.796   0.636
 7649SOL    HW123846   4.447   0.729   0.634
 7649SOL    HW223847   4.286   0.750   0.615
 7650SOL     OW23848   3.656   2.768   0.229
 7650SOL    HW123849   3.709   2.756   0.313
 7650SOL    HW223850   3.696   2.712   0.156
 7651SOL     OW23851   3.327   5.490   5.749
 7651SOL    HW123852   3.320   5.531   5.658
 7651SOL    HW223853   3.378   5.553   5.809
 7652SOL     OW23854   0.795   0.831   4.807
 7652SOL    HW123855   0.719   0.836   4.871
 7652SOL    HW223856   0.795   0.742   4.761
 7653SOL     OW23857   1.940   6.543   5.929
 7653SOL    HW123858   1.970   6.500   6.014
 7653SOL    HW223859   2.017   6.593   5.888
 7654SOL     OW23860   0.267   2.408   6.141
 7654SOL    HW123861   0.186   2.465   6.152
 7654SOL    HW223862   0.249   2.316   6.176
 7655SOL     OW23863   2.712   1.462   5.748
 7655SOL    HW123864   2.683   1.553   5.778
 7655SOL    HW223865   2.760   1.417   5.823
 7656SOL     OW23866   6.066   3.441   6.859
 7656SOL    HW123867   6.037   3.362   6.913
 7656SOL    HW223868   5.987   3.499   6.839
 7657SOL     OW23869   0.670   4.115   5.004
 7657SOL    HW123870   0.659   4.214   5.019
 7657SOL    HW223871   0.737   4.101   4.931
 7658SOL     OW23872   2.439   0.079   0.714
 7658SOL    HW123873   2.402   0.032   0.794
 7658SOL    HW223874   2.464   0.013   0.644
 7659SOL     OW23875   5.595   4.101   5.313
 7659SOL    HW123876   5.657   4.024   5.325
 7659SOL    HW223877   5.645   4.186   5.321
 7660SOL     OW23878   0.377   6.329   5.002
 7660SOL    HW123879   0.354   6.306   4.907
 7660SOL    HW223880   0.434   6.256   5.040
 7661SOL     OW23881   1.652   0.024   5.088
 7661SOL    HW123882   1.573   0.082   5.069
 7661SOL    HW223883   1.734   0.066   5.048
 7662SOL     OW23884   6.760   6.394   1.997
 7662SOL    HW123885   6.689   6.324   2.008
 7662SOL    HW223886   6.847   6.349   1.978
 7663SOL     OW23887   1.759   5.852   3.459
 7663SOL    HW123888   1.850   5.891   3.450
 7663SOL    HW223889   1.710   5.896   3.534
 7664SOL     OW23890   5.396   2.453   2.996
 7664SOL    HW123891   5.317   2.392   2.990
 7664SOL    HW223892   5.469   2.408   3.047
 7665SOL     OW23893   1.942   6.448   5.066
 7665SOL    HW123894   1.862   6.505   5.086
 7665SOL    HW223895   2.011   6.462   5.137
 7666SOL     OW23896   6.575   4.787   3.974
 7666SOL    HW123897   6.569   4.808   3.876
 7666SOL    HW223898   6.639   4.712   3.988
 7667SOL     OW23899   4.850   5.641   1.480
 7667SOL    HW123900   4.793   5.561   1.500
 7667SOL    HW223901   4.792   5.715   1.445
 7668SOL     OW23902   1.845   5.157   0.670
 7668SOL    HW123903   1.922   5.156   0.735
 7668SOL    HW223904   1.776   5.221   0.702
 7669SOL     OW23905   4.525   2.484   6.717
 7669SOL    HW123906   4.458   2.467   6.644
 7669SOL    HW223907   4.480   2.533   6.792
 7670SOL     OW23908   1.248   1.126   1.041
 7670SOL    HW123909   1.165   1.098   0.992
 7670SOL    HW223910   1.225   1.199   1.106
 7671SOL     OW23911   3.900   0.976   1.993
 7671SOL    HW123912   3.857   1.025   2.069
 7671SOL    HW223913   3.980   1.027   1.963
 7672SOL     OW23914   5.842   2.703   3.243
 7672SOL    HW123915   5.926   2.752   3.264
 7672SOL    HW223916   5.864   2.612   3.207
 7673SOL     OW23917   2.263   6.189   5.277
 7673SOL    HW123918   2.173   6.230   5.266
 7673SOL    HW223919   2.291   6.196   5.373
 7674SOL     OW23920   4.046   5.751   3.824
 7674SOL    HW123921   4.052   5.845   3.857
 7674SOL    HW223922   3.957   5.737   3.780
 7675SOL     OW23923   3.968   6.660   2.899
 7675SOL    HW123924   3.911   6.578   2.900
 7675SOL    HW223925   3.909   6.741   2.898
 7676SOL     OW23926   3.329   3.203   4.085
 7676SOL    HW123927   3.296   3.276   4.146
 7676SOL    HW223928   3.394   3.145   4.135
 7677SOL     OW23929   0.264   6.973   0.528
 7677SOL    HW123930   0.358   6.996   0.551
 7677SOL    HW223931   0.248   6.989   0.430
 7678SOL     OW23932   3.505   1.041   5.247
 7678SOL    HW123933   3.579   1.004   5.303
 7678SOL    HW223934   3.474   1.127   5.286
 7679SOL     OW23935   3.412   5.510   4.343
 7679SOL    HW123936   3.473   5.568   4.398
 7679SOL    HW223937   3.402   5.421   4.388
 7680SOL     OW23938   1.625   5.671   3.759
 7680SOL    HW123939   1.638   5.641   3.665
 7680SOL    HW223940   1.579   5.599   3.811
 7681SOL     OW23941   2.138   2.368   5.470
 7681SOL    HW123942   2.136   2.286   5.412
 7681SOL    HW223943   2.046   2.384   5.506
 7682SOL     OW23944   2.863   6.488   1.756
 7682SOL    HW123945   2.962   6.496   1.768
 7682SOL    HW223946   2.832   6.555   1.689
 7683SOL     OW23947   1.309   4.626   4.046
 7683SOL    HW123948   1.293   4.722   4.065
 7683SOL    HW223949   1.399   4.599   4.082
 7684SOL     OW23950   4.977   3.580   1.622
 7684SOL    HW123951   4.957   3.677   1.631
 7684SOL    HW223952   4.918   3.527   1.683
 7685SOL     OW23953   1.934   0.105   6.624
 7685SOL    HW123954   1.953   0.191   6.673
 7685SOL    HW223955   2.005   0.038   6.645
 7686SOL     OW23956   6.703   1.247   4.963
 7686SOL    HW123957   6.653   1.166   4.994
 7686SOL    HW223958   6.662   1.281   4.878
 7687SOL     OW23959   6.338   3.804   5.466
 7687SOL    HW123960   6.400   3.822   5.542
 7687SOL    HW223961   6.297   3.890   5.435
 7688SOL     OW23962   6.588   3.425   1.112
 7688SOL    HW123963   6.542   3.364   1.047
 7688SOL    HW223964   6.608   3.512   1.067
 7689SOL     OW23965   5.268   6.766   3.277
 7689SOL    HW123966   5.324   6.785   3.197
 7689SOL    HW223967   5.296   6.826   3.352
 7690SOL     OW23968   6.470   3.789   2.238
 7690SOL    HW123969   6.393   3.852   2.247
 7690SOL    HW223970   6.447   3.701   2.280
 7691SOL     OW23971   4.733   2.436   3.703
 7691SOL    HW123972   4.777   2.372   3.640
 7691SOL    HW223973   4.798   2.466   3.772
 7692SOL     OW23974   1.647   6.100   2.272
 7692SOL    HW123975   1.582   6.066   2.205
 7692SOL    HW223976   1.738   6.064   2.251
 7693SOL     OW23977   2.554   2.429   0.731
 7693SOL    HW123978   2.648   2.463   0.735
 7693SOL    HW223979   2.510   2.463   0.648
 7694SOL     OW23980   4.836   2.560   1.582
 7694SOL    HW123981   4.852   2.619   1.661
 7694SOL    HW223982   4.806   2.470   1.613
 7695SOL     OW23983   5.265   6.770   4.013
 7695SOL    HW123984   5.308   6.845   4.064
 7695SOL    HW223985   5.284   6.683   4.059
 7696SOL     OW23986   1.984   1.480   5.233
 7696SOL    HW123987   2.059   1.428   5.194
 7696SOL    HW223988   1.959   1.442   5.322
 7697SOL     OW23989   5.742   6.393   3.432
 7697SOL    HW123990   5.754   6.377   3.334
 7697SOL    HW223991   5.658   6.445   3.447
 7698SOL     OW23992   6.059   1.851   1.404
 7698SOL    HW123993   6.137   1.790   1.417
 7698SOL    HW223994   5.981   1.799   1.368
 7699SOL     OW23995   3.643   5.800   5.992
 7699SOL    HW123996   3.699   5.814   6.073
 7699SOL    HW223997   3.701   5.779   5.914
 7700SOL     OW23998   5.592   4.242   1.450
 7700SOL    HW123999   5.673   4.291   1.483
 7700SOL    HW224000   5.569   4.274   1.358
 7701SOL     OW24001   3.404   1.922   6.343
 7701SOL    HW124002   3.368   1.987   6.410
 7701SOL    HW224003   3.335   1.852   6.326
 7702SOL     OW24004   5.880   6.692   5.217
 7702SOL    HW124005   5.786   6.697   5.252
 7702SOL    HW224006   5.941   6.742   5.277
 7703SOL     OW24007   0.290   6.273   0.225
 7703SOL    HW124008   0.232   6.197   0.253
 7703SOL    HW224009   0.377   6.238   0.192
 7704SOL     OW24010   2.097   2.253   4.521
 7704SOL    HW124011   2.048   2.221   4.440
 7704SOL    HW224012   2.076   2.349   4.538
 7705SOL     OW24013   0.707   3.824   0.106
 7705SOL    HW124014   0.728   3.854   0.012
 7705SOL    HW224015   0.610   3.804   0.114
 7706SOL     OW24016   3.514   3.444   2.559
 7706SOL    HW124017   3.468   3.419   2.645
 7706SOL    HW224018   3.602   3.399   2.554
 7707SOL     OW24019   6.398   5.466   5.346
 7707SOL    HW124020   6.479   5.407   5.342
 7707SOL    HW224021   6.414   5.549   5.292
 7708SOL     OW24022   0.851   0.160   3.314
 7708SOL    HW124023   0.809   0.077   3.280
 7708SOL    HW224024   0.937   0.176   3.266
 7709SOL     OW24025   6.526   4.633   1.011
 7709SOL    HW124026   6.452   4.681   1.059
 7709SOL    HW224027   6.487   4.561   0.954
 7710SOL     OW24028   5.889   4.095   3.436
 7710SOL    HW124029   5.911   4.104   3.533
 7710SOL    HW224030   5.858   4.002   3.417
 7711SOL     OW24031   0.781   4.899   3.406
 7711SOL    HW124032   0.879   4.889   3.424
 7711SOL    HW224033   0.737   4.810   3.409
 7712SOL     OW24034   1.122   4.185   4.735
 7712SOL    HW124035   1.151   4.272   4.695
 7712SOL    HW224036   1.137   4.188   4.834
 7713SOL     OW24037   0.476   5.322   0.684
 7713SOL    HW124038   0.439   5.365   0.766
 7713SOL    HW224039   0.547   5.257   0.710
 7714SOL     OW24040   5.647   1.215   5.153
 7714SOL    HW124041   5.642   1.123   5.194
 7714SOL    HW224042   5.606   1.213   5.061
 7715SOL     OW24043   4.071   3.450   6.509
 7715SOL    HW124044   4.038   3.510   6.436
 7715SOL    HW224045   4.165   3.475   6.533
 7716SOL     OW24046   1.824   0.755   6.977
 7716SOL    HW124047   1.778   0.666   6.976
 7716SOL    HW224048   1.861   0.772   0.046
 7717SOL     OW24049   1.014   1.949   5.984
 7717SOL    HW124050   0.996   2.035   5.936
 7717SOL    HW224051   1.061   1.968   6.070
 7718SOL     OW24052   0.585   3.653   3.741
 7718SOL    HW124053   0.523   3.633   3.817
 7718SOL    HW224054   0.654   3.719   3.769
 7719SOL     OW24055   2.340   6.652   5.252
 7719SOL    HW124056   2.432   6.692   5.249
 7719SOL    HW224057   2.312   6.640   5.347
 7720SOL     OW24058   4.024   0.669   6.473
 7720SOL    HW124059   4.038   0.695   6.568
 7720SOL    HW224060   4.016   0.751   6.416
 7721SOL     OW24061   5.475   5.830   2.452
 7721SOL    HW124062   5.557   5.780   2.425
 7721SOL    HW224063   5.482   5.925   2.420
 7722SOL     OW24064   0.216   6.534   4.632
 7722SOL    HW124065   0.254   6.582   4.553
 7722SOL    HW224066   0.117   6.527   4.622
 7723SOL     OW24067   3.208   5.128   6.092
 7723SOL    HW124068   3.277   5.120   6.020
 7723SOL    HW224069   3.119   5.144   6.051
 7724SOL     OW24070   1.266   3.997   6.681
 7724SOL    HW124071   1.337   3.937   6.717
 7724SOL    HW224072   1.277   4.088   6.719
 7725SOL     OW24073   5.576   2.900   5.212
 7725SOL    HW124074   5.499   2.929   5.155
 7725SOL    HW224075   5.579   2.800   5.215
 7726SOL     OW24076   1.642   2.965   0.575
 7726SOL    HW124077   1.561   2.923   0.615
 7726SOL    HW224078   1.619   2.998   0.483
 7727SOL     OW24079   6.217   0.017   3.039
 7727SOL    HW124080   6.160   6.964   3.008
 7727SOL    HW224081   6.285   7.005   3.105
 7728SOL     OW24082   1.602   3.086   5.466
 7728SOL    HW124083   1.666   3.014   5.442
 7728SOL    HW224084   1.513   3.067   5.424
 7729SOL     OW24085   0.426   0.481   2.859
 7729SOL    HW124086   0.458   0.565   2.901
 7729SOL    HW224087   0.333   0.461   2.890
 7730SOL     OW24088   5.578   3.375   6.320
 7730SOL    HW124089   5.498   3.347   6.374
 7730SOL    HW224090   5.660   3.374   6.377
 7731SOL     OW24091   0.267   0.582   5.930
 7731SOL    HW124092   0.307   0.670   5.959
 7731SOL    HW224093   0.215   0.596   5.846
 7732SOL     OW24094   3.790   1.324   0.740
 7732SOL    HW124095   3.805   1.355   0.646
 7732SOL    HW224096   3.721   1.382   0.784
 7733SOL     OW24097   5.734   6.172   1.746
 7733SOL    HW124098   5.778   6.226   1.817
 7733SOL    HW224099   5.789   6.176   1.662
 7734SOL     OW24100   3.450   4.100   3.510
 7734SOL    HW124101   3.496   4.126   3.595
 7734SOL    HW224102   3.353   4.086   3.527
 7735SOL     OW24103   1.059   5.326   1.233
 7735SOL    HW124104   0.973   5.311   1.281
 7735SOL    HW224105   1.125   5.368   1.295
 7736SOL     OW24106   2.214   1.620   1.028
 7736SOL    HW124107   2.219   1.716   1.000
 7736SOL    HW224108   2.188   1.614   1.124
 7737SOL     OW24109   4.544   4.422   6.193
 7737SOL    HW124110   4.452   4.403   6.160
 7737SOL    HW224111   4.611   4.380   6.132
 7738SOL     OW24112   1.911   0.933   5.370
 7738SOL    HW124113   1.959   0.921   5.457
 7738SOL    HW224114   1.820   0.891   5.376
 7739SOL     OW24115   0.643   2.965   6.732
 7739SOL    HW124116   0.720   3.007   6.781
 7739SOL    HW224117   0.676   2.925   6.647
 7740SOL     OW24118   2.027   0.528   3.737
 7740SOL    HW124119   1.956   0.598   3.740
 7740SOL    HW224120   2.083   0.541   3.655
 7741SOL     OW24121   6.162   4.606   6.026
 7741SOL    HW124122   6.210   4.523   6.054
 7741SOL    HW224123   6.228   4.680   6.012
 7742SOL     OW24124   4.457   2.476   3.483
 7742SOL    HW124125   4.373   2.527   3.466
 7742SOL    HW224126   4.465   2.402   3.416
 7743SOL     OW24127   3.283   1.174   6.333
 7743SOL    HW124128   3.211   1.144   6.396
 7743SOL    HW224129   3.316   1.095   6.281
 7744SOL     OW24130   0.106   6.035   4.500
 7744SOL    HW124131   0.194   6.073   4.469
 7744SOL    HW224132   0.123   5.949   4.548
 7745SOL     OW24133   3.379   0.228   0.812
 7745SOL    HW124134   3.448   0.203   0.744
 7745SOL    HW224135   3.300   0.167   0.805
 7746SOL     OW24136   0.082   6.348   1.525
 7746SOL    HW124137   0.025   6.394   1.593
 7746SOL    HW224138   0.036   6.349   1.436
 7747SOL     OW24139   6.488   5.981   0.799
 7747SOL    HW124140   6.587   5.989   0.784
 7747SOL    HW224141   6.466   6.016   0.890
 7748SOL     OW24142   4.218   1.439   5.961
 7748SOL    HW124143   4.277   1.463   6.039
 7748SOL    HW224144   4.199   1.341   5.962
 7749SOL     OW24145   3.147   4.021   3.045
 7749SOL    HW124146   3.158   3.925   3.019
 7749SOL    HW224147   3.178   4.080   2.969
 7750SOL     OW24148   5.910   3.867   5.752
 7750SOL    HW124149   5.993   3.923   5.758
 7750SOL    HW224150   5.936   3.771   5.737
 7751SOL     OW24151   0.407   1.675   3.771
 7751SOL    HW124152   0.422   1.631   3.682
 7751SOL    HW224153   0.353   1.758   3.759
 7752SOL     OW24154   5.115   4.160   6.234
 7752SOL    HW124155   5.117   4.169   6.134
 7752SOL    HW224156   5.207   4.143   6.268
 7753SOL     OW24157   2.280   0.970   4.663
 7753SOL    HW124158   2.280   1.067   4.640
 7753SOL    HW224159   2.226   0.955   4.747
 7754SOL     OW24160   0.041   1.082   0.438
 7754SOL    HW124161   0.082   1.086   0.530
 7754SOL    HW224162   0.069   0.997   0.393
 7755SOL     OW24163   1.210   6.292   5.457
 7755SOL    HW124164   1.209   6.379   5.407
 7755SOL    HW224165   1.299   6.248   5.444
 7756SOL     OW24166   3.581   6.661   2.796
 7756SOL    HW124167   3.510   6.639   2.730
 7756SOL    HW224168   3.601   6.580   2.852
 7757SOL     OW24169   3.945   1.915   5.273
 7757SOL    HW124170   3.949   1.867   5.361
 7757SOL    HW224171   4.004   1.868   5.207
 7758SOL     OW24172   2.604   1.041   6.457
 7758SOL    HW124173   2.516   1.006   6.487
 7758SOL    HW224174   2.613   1.137   6.484
 7759SOL     OW24175   1.990   0.066   4.707
 7759SOL    HW124176   1.959   0.106   4.621
 7759SOL    HW224177   1.932   0.099   4.782
 7760SOL     OW24178   5.351   1.469   2.814
 7760SOL    HW124179   5.412   1.510   2.746
 7760SOL    HW224180   5.365   1.370   2.817
 7761SOL     OW24181   4.609   1.064   6.768
 7761SOL    HW124182   4.536   1.007   6.805
 7761SOL    HW224183   4.570   1.148   6.731
 7762SOL     OW24184   1.862   2.046   0.829
 7762SOL    HW124185   1.810   2.131   0.833
 7762SOL    HW224186   1.933   2.053   0.760
 7763SOL     OW24187   2.041   3.005   0.840
 7763SOL    HW124188   2.059   3.103   0.834
 7763SOL    HW224189   2.007   2.982   0.931
 7764SOL     OW24190   3.905   3.775   2.155
 7764SOL    HW124191   3.996   3.733   2.156
 7764SOL    HW224192   3.836   3.703   2.156
 7765SOL     OW24193   0.502   1.455   2.105
 7765SOL    HW124194   0.492   1.554   2.092
 7765SOL    HW224195   0.517   1.435   2.202
 7766SOL     OW24196   6.445   3.429   0.098
 7766SOL    HW124197   6.444   3.515   0.148
 7766SOL    HW224198   6.431   3.353   0.161
 7767SOL     OW24199   6.134   3.897   5.076
 7767SOL    HW124200   6.170   3.805   5.092
 7767SOL    HW224201   6.178   3.937   4.995
 7768SOL     OW24202   4.519   5.081   1.478
 7768SOL    HW124203   4.519   5.035   1.567
 7768SOL    HW224204   4.611   5.080   1.439
 7769SOL     OW24205   4.649   1.583   3.787
 7769SOL    HW124206   4.637   1.512   3.857
 7769SOL    HW224207   4.703   1.658   3.826
 7770SOL     OW24208   2.604   6.317   0.957
 7770SOL    HW124209   2.563   6.263   1.031
 7770SOL    HW224210   2.542   6.391   0.932
 7771SOL     OW24211   2.563   0.587   4.268
 7771SOL    HW124212   2.594   0.532   4.346
 7771SOL    HW224213   2.518   0.528   4.201
 7772SOL     OW24214   5.635   0.683   6.323
 7772SOL    HW124215   5.651   0.765   6.268
 7772SOL    HW224216   5.601   0.710   6.414
 7773SOL     OW24217   4.120   4.776   6.052
 7773SOL    HW124218   4.133   4.719   5.971
 7773SOL    HW224219   4.025   4.770   6.082
 7774SOL     OW24220   4.303   1.033   0.798
 7774SOL    HW124221   4.324   0.957   0.736
 7774SOL    HW224222   4.250   1.102   0.750
 7775SOL     OW24223   0.886   6.746   1.609
 7775SOL    HW124224   0.932   6.668   1.566
 7775SOL    HW224225   0.802   6.767   1.560
 7776SOL     OW24226   2.916   4.295   1.063
 7776SOL    HW124227   2.905   4.209   1.014
 7776SOL    HW224228   2.830   4.319   1.107
 7777SOL     OW24229   0.021   0.817   6.900
 7777SOL    HW124230   0.012   0.859   6.810
 7777SOL    HW224231   0.015   0.887   6.970
 7778SOL     OW24232   5.622   2.255   2.819
 7778SOL    HW124233   5.580   2.196   2.888
 7778SOL    HW224234   5.588   2.229   2.728
 7779SOL     OW24235   4.512   2.975   0.146
 7779SOL    HW124236   4.481   3.070   0.134
 7779SOL    HW224237   4.440   2.913   0.114
 7780SOL     OW24238   1.852   0.716   3.942
 7780SOL    HW124239   1.939   0.764   3.957
 7780SOL    HW224240   1.822   0.675   4.028
 7781SOL     OW24241   2.529   4.050   5.607
 7781SOL    HW124242   2.538   4.087   5.515
 7781SOL    HW224243   2.600   4.088   5.666
 7782SOL     OW24244   4.802   4.811   6.671
 7782SOL    HW124245   4.741   4.826   6.749
 7782SOL    HW224246   4.884   4.867   6.680
 7783SOL     OW24247   3.384   6.437   6.782
 7783SOL    HW124248   3.478   6.463   6.762
 7783SOL    HW224249   3.322   6.511   6.757
 7784SOL     OW24250   6.658   3.228   0.356
 7784SOL    HW124251   6.676   3.325   0.340
 7784SOL    HW224252   6.560   3.213   0.367
 7785SOL     OW24253   1.639   6.661   6.206
 7785SOL    HW124254   1.617   6.758   6.220
 7785SOL    HW224255   1.558   6.612   6.176
 7786SOL     OW24256   3.804   3.901   5.010
 7786SOL    HW124257   3.900   3.881   4.991
 7786SOL    HW224258   3.754   3.815   5.022
 7787SOL     OW24259   3.322   2.117   5.173
 7787SOL    HW124260   3.272   2.203   5.171
 7787SOL    HW224261   3.349   2.092   5.080
 7788SOL     OW24262   6.773   2.494   1.330
 7788SOL    HW124263   6.861   2.479   1.375
 7788SOL    HW224264   6.743   2.410   1.285
 7789SOL     OW24265   0.646   0.559   1.998
 7789SOL    HW124266   0.709   0.565   2.076
 7789SOL    HW224267   0.690   0.506   1.925
 7790SOL     OW24268   0.217   3.778   3.307
 7790SOL    HW124269   0.221   3.681   3.283
 7790SOL    HW224270   0.309   3.810   3.330
 7791SOL     OW24271   6.967   5.811   6.238
 7791SOL    HW124272   6.885   5.866   6.252
 7791SOL    HW224273   6.960   5.763   6.150
 7792SOL     OW24274   1.489   5.981   6.637
 7792SOL    HW124275   1.455   5.897   6.679
 7792SOL    HW224276   1.450   5.990   6.545
 7793SOL     OW24277   2.278   0.152   6.400
 7793SOL    HW124278   2.243   0.168   6.308
 7793SOL    HW224279   2.348   0.221   6.422
 7794SOL     OW24280   5.391   4.603   2.475
 7794SOL    HW124281   5.318   4.636   2.534
 7794SOL    HW224282   5.363   4.610   2.379
 7795SOL     OW24283   2.377   3.905   6.311
 7795SOL    HW124284   2.349   3.945   6.224
 7795SOL    HW224285   2.383   3.806   6.302
 7796SOL     OW24286   4.025   3.926   3.522
 7796SOL    HW124287   4.039   3.886   3.432
 7796SOL    HW224288   3.940   3.979   3.522
 7797SOL     OW24289   1.815   6.136   3.987
 7797SOL    HW124290   1.858   6.078   3.918
 7797SOL    HW224291   1.739   6.088   4.030
 7798SOL     OW24292   5.025   5.568   5.747
 7798SOL    HW124293   5.086   5.593   5.822
 7798SOL    HW224294   4.982   5.651   5.710
 7799SOL     OW24295   5.524   5.964   1.475
 7799SOL    HW124296   5.516   5.975   1.574
 7799SOL    HW224297   5.530   6.054   1.433
 7800SOL     OW24298   0.957   6.162   2.620
 7800SOL    HW124299   0.915   6.155   2.711
 7800SOL    HW224300   0.979   6.257   2.601
 7801SOL     OW24301   4.183   2.249   5.432
 7801SOL    HW124302   4.255   2.211   5.491
 7801SOL    HW224303   4.133   2.320   5.483
 7802SOL     OW24304   6.100   2.246   6.325
 7802SOL    HW124305   6.147   2.172   6.278
 7802SOL    HW224306   6.136   2.334   6.294
 7803SOL     OW24307   3.207   3.143   6.760
 7803SOL    HW124308   3.272   3.194   6.816
 7803SOL    HW224309   3.256   3.087   6.693
 7804SOL     OW24310   4.917   0.879   5.900
 7804SOL    HW124311   4.875   0.872   5.990
 7804SOL    HW224312   4.879   0.958   5.851
 7805SOL     OW24313   5.503   2.892   1.806
 7805SOL    HW124314   5.457   2.885   1.895
 7805SOL    HW224315   5.587   2.945   1.816
 7806SOL     OW24316   5.449   2.544   0.232
 7806SOL    HW124317   5.433   2.513   0.138
 7806SOL    HW224318   5.531   2.501   0.269
 7807SOL     OW24319   0.844   5.142   6.573
 7807SOL    HW124320   0.862   5.071   6.641
 7807SOL    HW224321   0.761   5.192   6.597
 7808SOL     OW24322   0.087   1.719   5.082
 7808SOL    HW124323   0.021   1.763   5.022
 7808SOL    HW224324   0.039   1.665   5.151
 7809SOL     OW24325   1.277   5.673   5.571
 7809SOL    HW124326   1.329   5.679   5.656
 7809SOL    HW224327   1.244   5.580   5.558
 7810SOL     OW24328   2.993   1.570   7.015
 7810SOL    HW124329   3.081   1.586   6.970
 7810SOL    HW224330   3.008   1.510   0.072
 7811SOL     OW24331   6.432   4.429   5.076
 7811SOL    HW124332   6.449   4.340   5.033
 7811SOL    HW224333   6.387   4.415   5.164
 7812SOL     OW24334   0.931   1.843   4.180
 7812SOL    HW124335   1.012   1.893   4.149
 7812SOL    HW224336   0.852   1.904   4.181
 7813SOL     OW24337   5.715   1.325   1.475
 7813SOL    HW124338   5.667   1.256   1.421
 7813SOL    HW224339   5.650   1.375   1.531
 7814SOL     OW24340   1.767   3.210   4.011
 7814SOL    HW124341   1.824   3.132   3.986
 7814SOL    HW224342   1.679   3.204   3.965
 7815SOL     OW24343   6.848   1.878   5.472
 7815SOL    HW124344   6.818   1.963   5.430
 7815SOL    HW224345   6.815   1.800   5.418
 7816SOL     OW24346   6.889   4.402   4.538
 7816SOL    HW124347   6.812   4.402   4.601
 7816SOL    HW224348   6.873   4.467   4.464
 7817SOL     OW24349   5.940   2.743   5.906
 7817SOL    HW124350   5.866   2.803   5.938
 7817SOL    HW224351   5.916   2.648   5.925
 7818SOL     OW24352   6.316   2.852   3.610
 7818SOL    HW124353   6.311   2.929   3.547
 7818SOL    HW224354   6.372   2.877   3.689
 7819SOL     OW24355   1.829   1.263   0.767
 7819SOL    HW124356   1.923   1.285   0.794
 7819SOL    HW224357   1.824   1.259   0.667
 7820SOL     OW24358   2.585   6.768   5.537
 7820SOL    HW124359   2.623   6.797   5.449
 7820SOL    HW224360   2.648   6.794   5.610
 7821SOL     OW24361   2.787   6.033   1.462
 7821SOL    HW124362   2.734   5.972   1.520
 7821SOL    HW224363   2.823   6.109   1.516
 7822SOL     OW24364   0.531   6.561   4.570
 7822SOL    HW124365   0.494   6.490   4.512
 7822SOL    HW224366   0.460   6.629   4.590
 7823SOL     OW24367   2.523   3.553   5.977
 7823SOL    HW124368   2.528   3.616   5.900
 7823SOL    HW224369   2.474   3.470   5.949
 7824SOL     OW24370   1.282   3.881   5.640
 7824SOL    HW124371   1.291   3.782   5.633
 7824SOL    HW224372   1.235   3.916   5.559
 7825SOL     OW24373   1.993   0.868   0.133
 7825SOL    HW124374   1.963   0.964   0.136
 7825SOL    HW224375   1.989   0.829   0.225
 7826SOL     OW24376   0.607   4.527   6.081
 7826SOL    HW124377   0.637   4.434   6.062
 7826SOL    HW224378   0.549   4.527   6.163
 7827SOL     OW24379   5.979   4.766   3.555
 7827SOL    HW124380   5.939   4.770   3.647
 7827SOL    HW224381   6.077   4.747   3.562
 7828SOL     OW24382   1.228   5.899   5.442
 7828SOL    HW124383   1.154   5.871   5.381
 7828SOL    HW224384   1.263   5.820   5.492
 7829SOL     OW24385   4.412   4.839   1.149
 7829SOL    HW124386   4.372   4.906   1.212
 7829SOL    HW224387   4.388   4.747   1.178
 7830SOL     OW24388   1.584   5.385   3.745
 7830SOL    HW124389   1.487   5.364   3.732
 7830SOL    HW224390   1.639   5.307   3.717
 7831SOL     OW24391   1.459   0.156   6.642
 7831SOL    HW124392   1.393   0.118   6.708
 7831SOL    HW224393   1.448   0.256   6.639
 7832SOL     OW24394   0.393   1.012   4.871
 7832SOL    HW124395   0.392   1.097   4.819
 7832SOL    HW224396   0.313   1.009   4.932
 7833SOL     OW24397   1.088   0.344   2.434
 7833SOL    HW124398   1.024   0.357   2.509
 7833SOL    HW224399   1.169   0.296   2.467
 7834SOL     OW24400   0.943   3.451   4.580
 7834SOL    HW124401   0.860   3.432   4.631
 7834SOL    HW224402   1.014   3.483   4.642
 7835SOL     OW24403   2.499   3.059   5.648
 7835SOL    HW124404   2.574   2.997   5.626
 7835SOL    HW224405   2.534   3.151   5.662
 7836SOL     OW24406   3.063   3.587   4.748
 7836SOL    HW124407   3.016   3.499   4.753
 7836SOL    HW224408   3.141   3.587   4.811
 7837SOL     OW24409   0.405   5.547   0.530
 7837SOL    HW124410   0.458   5.618   0.577
 7837SOL    HW224411   0.432   5.457   0.564
 7838SOL     OW24412   3.777   4.303   0.752
 7838SOL    HW124413   3.793   4.401   0.738
 7838SOL    HW224414   3.798   4.279   0.846
 7839SOL     OW24415   6.163   3.971   4.540
 7839SOL    HW124416   6.213   3.944   4.622
 7839SOL    HW224417   6.065   3.970   4.558
 7840SOL     OW24418   2.569   2.422   3.400
 7840SOL    HW124419   2.530   2.510   3.427
 7840SOL    HW224420   2.628   2.388   3.473
 7841SOL     OW24421   3.784   2.713   6.476
 7841SOL    HW124422   3.877   2.719   6.440
 7841SOL    HW224423   3.733   2.645   6.425
 7842SOL     OW24424   0.810   0.514   0.984
 7842SOL    HW124425   0.828   0.447   0.912
 7842SOL    HW224426   0.784   0.466   1.068
 7843SOL     OW24427   6.660   5.877   2.422
 7843SOL    HW124428   6.719   5.803   2.393
 7843SOL    HW224429   6.712   5.940   2.481
 7844SOL     OW24430   2.875   6.490   2.255
 7844SOL    HW124431   2.901   6.447   2.168
 7844SOL    HW224432   2.850   6.419   2.321
 7845SOL     OW24433   7.001   2.806   2.021
 7845SOL    HW124434   0.045   2.817   2.095
 7845SOL    HW224435   7.005   2.712   1.986
 7846SOL     OW24436   0.165   1.911   0.424
 7846SOL    HW124437   0.116   1.896   0.510
 7846SOL    HW224438   0.261   1.887   0.435
 7847SOL     OW24439   5.713   3.437   5.486
 7847SOL    HW124440   5.762   3.447   5.399
 7847SOL    HW224441   5.669   3.524   5.509
 7848SOL     OW24442   5.040   5.013   0.221
 7848SOL    HW124443   5.041   5.089   0.157
 7848SOL    HW224444   5.119   5.020   0.282
 7849SOL     OW24445   4.838   5.603   6.454
 7849SOL    HW124446   4.749   5.597   6.499
 7849SOL    HW224447   4.897   5.664   6.506
 7850SOL     OW24448   0.170   1.089   3.380
 7850SOL    HW124449   0.257   1.094   3.429
 7850SOL    HW224450   0.135   0.996   3.386
 7851SOL     OW24451   0.780   4.029   0.538
 7851SOL    HW124452   0.765   3.931   0.524
 7851SOL    HW224453   0.798   4.047   0.635
 7852SOL     OW24454   1.115   3.448   5.465
 7852SOL    HW124455   1.138   3.428   5.370
 7852SOL    HW224456   1.022   3.414   5.484
 7853SOL     OW24457   4.279   2.900   1.589
 7853SOL    HW124458   4.327   2.931   1.507
 7853SOL    HW224459   4.282   2.971   1.659
 7854SOL     OW24460   4.078   1.058   1.566
 7854SOL    HW124461   4.048   1.087   1.475
 7854SOL    HW224462   4.131   1.131   1.609
 7855SOL     OW24463   5.300   5.880   3.225
 7855SOL    HW124464   5.331   5.973   3.247
 7855SOL    HW224465   5.301   5.867   3.126
 7856SOL     OW24466   2.045   6.161   6.343
 7856SOL    HW124467   2.002   6.190   6.428
 7856SOL    HW224468   1.986   6.096   6.296
 7857SOL     OW24469   6.702   4.710   0.547
 7857SOL    HW124470   6.615   4.755   0.565
 7857SOL    HW224471   6.692   4.647   0.469
 7858SOL     OW24472   0.449   4.357   6.747
 7858SOL    HW124473   0.393   4.286   6.789
 7858SOL    HW224474   0.538   4.361   6.792
 7859SOL     OW24475   4.747   2.294   1.593
 7859SOL    HW124476   4.814   2.219   1.596
 7859SOL    HW224477   4.677   2.280   1.663
 7860SOL     OW24478   2.507   1.536   2.759
 7860SOL    HW124479   2.581   1.486   2.803
 7860SOL    HW224480   2.515   1.526   2.659
 7861SOL     OW24481   1.830   5.299   0.396
 7861SOL    HW124482   1.803   5.348   0.478
 7861SOL    HW224483   1.824   5.361   0.317
 7862SOL     OW24484   0.568   0.460   6.662
 7862SOL    HW124485   0.628   0.520   6.609
 7862SOL    HW224486   0.492   0.513   6.699
 7863SOL     OW24487   0.810   5.221   3.863
 7863SOL    HW124488   0.813   5.232   3.962
 7863SOL    HW224489   0.717   5.237   3.830
 7864SOL     OW24490   2.995   5.905   5.048
 7864SOL    HW124491   3.004   5.989   5.102
 7864SOL    HW224492   2.932   5.842   5.094
 7865SOL     OW24493   6.079   5.500   4.134
 7865SOL    HW124494   6.096   5.406   4.104
 7865SOL    HW224495   6.061   5.558   4.055
 7866SOL     OW24496   1.201   1.474   5.419
 7866SOL    HW124497   1.298   1.499   5.426
 7866SOL    HW224498   1.146   1.556   5.405
 7867SOL     OW24499   4.409   6.157   1.939
 7867SOL    HW124500   4.375   6.157   2.033
 7867SOL    HW224501   4.374   6.237   1.891
 7868SOL     OW24502   3.977   5.921   1.732
 7868SOL    HW124503   3.988   5.941   1.829
 7868SOL    HW224504   4.060   5.879   1.696
 7869SOL     OW24505   5.576   4.803   0.120
 7869SOL    HW124506   5.582   4.739   0.197
 7869SOL    HW224507   5.667   4.815   0.081
 7870SOL     OW24508   6.884   0.719   3.140
 7870SOL    HW124509   6.879   0.787   3.067
 7870SOL    HW224510   6.793   0.706   3.180
 7871SOL     OW24511   4.933   0.560   0.646
 7871SOL    HW124512   4.938   0.464   0.674
 7871SOL    HW224513   4.877   0.568   0.564
 7872SOL     OW24514   6.445   5.229   3.796
 7872SOL    HW124515   6.415   5.308   3.850
 7872SOL    HW224516   6.492   5.164   3.855
 7873SOL     OW24517   5.219   2.301   6.544
 7873SOL    HW124518   5.287   2.269   6.610
 7873SOL    HW224519   5.166   2.376   6.585
 7874SOL     OW24520   6.469   2.186   1.082
 7874SOL    HW124521   6.551   2.242   1.100
 7874SOL    HW224522   6.487   2.125   1.005
 7875SOL     OW24523   6.680   5.134   0.372
 7875SOL    HW124524   6.721   5.058   0.322
 7875SOL    HW224525   6.649   5.102   0.462
 7876SOL     OW24526   1.135   6.449   2.992
 7876SOL    HW124527   1.162   6.364   3.036
 7876SOL    HW224528   1.126   6.435   2.894
 7877SOL     OW24529   1.243   3.011   1.889
 7877SOL    HW124530   1.249   2.921   1.846
 7877SOL    HW224531   1.175   3.010   1.961
 7878SOL     OW24532   4.072   0.906   2.714
 7878SOL    HW124533   4.107   0.816   2.687
 7878SOL    HW224534   4.064   0.964   2.632
 7879SOL     OW24535   2.385   6.123   1.582
 7879SOL    HW124536   2.308   6.102   1.522
 7879SOL    HW224537   2.421   6.214   1.561
 7880SOL     OW24538   1.600   4.692   2.831
 7880SOL    HW124539   1.648   4.605   2.848
 7880SOL    HW224540   1.650   4.766   2.876
 7881SOL     OW24541   4.627   2.624   3.002
 7881SOL    HW124542   4.688   2.663   2.932
 7881SOL    HW224543   4.558   2.566   2.957
 7882SOL     OW24544   0.411   2.851   0.023
 7882SOL    HW124545   0.322   2.808   0.040
 7882SOL    HW224546   0.462   2.796   6.980
 7883SOL     OW24547   0.049   0.326   4.437
 7883SOL    HW124548   0.109   0.406   4.449
 7883SOL    HW224549   0.091   0.247   4.483
 7884SOL     OW24550   1.326   2.783   4.061
 7884SOL    HW124551   1.243   2.745   4.022
 7884SOL    HW224552   1.322   2.883   4.058
 7885SOL     OW24553   6.434   6.518   0.417
 7885SOL    HW124554   6.481   6.431   0.399
 7885SOL    HW224555   6.498   6.593   0.402
 7886SOL     OW24556   4.957   3.304   0.317
 7886SOL    HW124557   4.863   3.330   0.339
 7886SOL    HW224558   4.979   3.331   0.224
 7887SOL     OW24559   4.312   1.819   6.202
 7887SOL    HW124560   4.255   1.865   6.270
 7887SOL    HW224561   4.294   1.858   6.112
 7888SOL     OW24562   4.605   5.983   3.975
 7888SOL    HW124563   4.553   5.898   3.979
 7888SOL    HW224564   4.570   6.040   3.900
 7889SOL     OW24565   5.961   4.414   3.621
 7889SOL    HW124566   5.924   4.396   3.530
 7889SOL    HW224567   6.049   4.462   3.613
 7890SOL     OW24568   2.080   4.335   3.444
 7890SOL    HW124569   2.036   4.418   3.478
 7890SOL    HW224570   2.179   4.345   3.449
 7891SOL     OW24571   6.962   4.297   2.384
 7891SOL    HW124572   6.974   4.350   2.468
 7891SOL    HW224573   6.864   4.286   2.366
 7892SOL     OW24574   2.596   2.511   4.359
 7892SOL    HW124575   2.600   2.434   4.295
 7892SOL    HW224576   2.588   2.596   4.307
 7893SOL     OW24577   4.949   6.327   1.734
 7893SOL    HW124578   5.035   6.298   1.691
 7893SOL    HW224579   4.960   6.419   1.772
 7894SOL     OW24580   2.891   0.016   0.872
 7894SOL    HW124581   2.794   7.015   0.870
 7894SOL    HW224582   2.922   0.024   0.967
 7895SOL     OW24583   1.398   1.448   4.957
 7895SOL    HW124584   1.490   1.412   4.966
 7895SOL    HW224585   1.395   1.541   4.995
 7896SOL     OW24586   3.770   1.771   0.459
 7896SOL    HW124587   3.739   1.677   0.442
 7896SOL    HW224588   3.724   1.833   0.395
 7897SOL     OW24589   3.148   3.910   0.681
 7897SOL    HW124590   3.192   3.940   0.596
 7897SOL    HW224591   3.176   3.970   0.756
 7898SOL     OW24592   5.510   0.940   4.516
 7898SOL    HW124593   5.559   0.873   4.460
 7898SOL    HW224594   5.516   1.030   4.473
 7899SOL     OW24595   4.738   0.800   1.941
 7899SOL    HW124596   4.725   0.775   2.037
 7899SOL    HW224597   4.690   0.886   1.923
 7900SOL     OW24598   0.945   5.700   1.133
 7900SOL    HW124599   0.987   5.687   1.044
 7900SOL    HW224600   1.000   5.765   1.186
 7901SOL     OW24601   5.616   5.043   1.518
 7901SOL    HW124602   5.636   4.946   1.508
 7901SOL    HW224603   5.573   5.078   1.434
 7902SOL     OW24604   4.520   5.240   6.223
 7902SOL    HW124605   4.489   5.225   6.317
 7902SOL    HW224606   4.511   5.337   6.200
 7903SOL     OW24607   1.575   2.282   1.958
 7903SOL    HW124608   1.520   2.294   2.040
 7903SOL    HW224609   1.672   2.292   1.981
 7904SOL     OW24610   5.471   1.679   3.200
 7904SOL    HW124611   5.485   1.599   3.141
 7904SOL    HW224612   5.472   1.650   3.296
 7905SOL     OW24613   2.985   2.347   1.516
 7905SOL    HW124614   2.902   2.383   1.558
 7905SOL    HW224615   3.062   2.360   1.578
 7906SOL     OW24616   1.974   3.908   6.530
 7906SOL    HW124617   1.876   3.909   6.511
 7906SOL    HW224618   1.998   3.824   6.579
 7907SOL     OW24619   0.318   3.072   3.091
 7907SOL    HW124620   0.375   3.105   3.166
 7907SOL    HW224621   0.370   3.076   3.005
 7908SOL     OW24622   1.170   0.700   3.142
 7908SOL    HW124623   1.169   0.750   3.228
 7908SOL    HW224624   1.078   0.670   3.119
 7909SOL     OW24625   3.529   5.607   5.067
 7909SOL    HW124626   3.567   5.519   5.096
 7909SOL    HW224627   3.501   5.660   5.147
 7910SOL     OW24628   6.352   3.099   5.567
 7910SOL    HW124629   6.397   3.177   5.611
 7910SOL    HW224630   6.321   3.035   5.638
 7911SOL     OW24631   0.034   6.223   6.961
 7911SOL    HW124632   7.022   6.169   0.015
 7911SOL    HW224633   0.133   6.212   6.953
 7912SOL     OW24634   6.552   4.925   5.330
 7912SOL    HW124635   6.616   5.000   5.308
 7912SOL    HW224636   6.530   4.928   5.428
 7913SOL     OW24637   1.752   6.047   6.400
 7913SOL    HW124638   1.798   6.036   6.488
 7913SOL    HW224639   1.778   5.972   6.339
 7914SOL     OW24640   5.832   4.350   1.046
 7914SOL    HW124641   5.789   4.268   1.084
 7914SOL    HW224642   5.774   4.387   0.973
 7915SOL     OW24643   3.268   1.338   2.940
 7915SOL    HW124644   3.277   1.266   2.871
 7915SOL    HW224645   3.175   1.337   2.977
 7916SOL     OW24646   3.395   3.313   5.195
 7916SOL    HW124647   3.322   3.278   5.137
 7916SOL    HW224648   3.481   3.314   5.143
 7917SOL     OW24649   3.788   4.077   3.526
 7917SOL    HW124650   3.728   4.095   3.448
 7917SOL    HW224651   3.745   4.110   3.610
 7918SOL     OW24652   6.080   2.049   1.670
 7918SOL    HW124653   5.999   2.033   1.614
 7918SOL    HW224654   6.066   2.008   1.760
 7919SOL     OW24655   5.817   3.488   2.766
 7919SOL    HW124656   5.769   3.423   2.824
 7919SOL    HW224657   5.896   3.443   2.723
 7920SOL     OW24658   0.338   6.401   0.464
 7920SOL    HW124659   0.345   6.360   0.373
 7920SOL    HW224660   0.361   6.498   0.459
 7921SOL     OW24661   3.546   4.986   1.823
 7921SOL    HW124662   3.512   4.955   1.734
 7921SOL    HW224663   3.539   4.912   1.889
 7922SOL     OW24664   1.598   4.109   4.781
 7922SOL    HW124665   1.587   4.052   4.700
 7922SOL    HW224666   1.673   4.074   4.837
 7923SOL     OW24667   1.782   3.188   2.371
 7923SOL    HW124668   1.842   3.267   2.363
 7923SOL    HW224669   1.757   3.174   2.467
 7924SOL     OW24670   2.735   2.045   3.520
 7924SOL    HW124671   2.720   2.143   3.532
 7924SOL    HW224672   2.648   2.000   3.501
 7925SOL     OW24673   1.394   1.820   0.611
 7925SOL    HW124674   1.314   1.823   0.551
 7925SOL    HW224675   1.444   1.906   0.604
 7926SOL     OW24676   3.435   0.263   1.564
 7926SOL    HW124677   3.436   0.347   1.510
 7926SOL    HW224678   3.471   0.282   1.656
 7927SOL     OW24679   4.602   4.830   4.305
 7927SOL    HW124680   4.555   4.867   4.385
 7927SOL    HW224681   4.611   4.731   4.315
 7928SOL     OW24682   1.080   4.010   1.378
 7928SOL    HW124683   1.146   4.084   1.364
 7928SOL    HW224684   1.000   4.025   1.319
 7929SOL     OW24685   3.368   3.663   4.631
 7929SOL    HW124686   3.278   3.687   4.668
 7929SOL    HW224687   3.392   3.570   4.660
 7930SOL     OW24688   3.269   0.282   1.916
 7930SOL    HW124689   3.267   0.379   1.891
 7930SOL    HW224690   3.238   0.228   1.838
 7931SOL     OW24691   2.324   3.256   5.290
 7931SOL    HW124692   2.373   3.190   5.233
 7931SOL    HW224693   2.294   3.211   5.374
 7932SOL     OW24694   3.107   2.058   1.166
 7932SOL    HW124695   3.039   2.022   1.230
 7932SOL    HW224696   3.182   2.100   1.217
 7933SOL     OW24697   1.431   1.196   5.886
 7933SOL    HW124698   1.341   1.202   5.930
 7933SOL    HW224699   1.453   1.101   5.868
 7934SOL     OW24700   4.200   2.453   5.862
 7934SOL    HW124701   4.188   2.354   5.853
 7934SOL    HW224702   4.296   2.477   5.845
 7935SOL     OW24703   4.657   5.142   2.655
 7935SOL    HW124704   4.717   5.065   2.634
 7935SOL    HW224705   4.674   5.216   2.590
 7936SOL     OW24706   4.237   6.509   2.068
 7936SOL    HW124707   4.308   6.579   2.070
 7936SOL    HW224708   4.198   6.498   2.160
 7937SOL     OW24709   5.553   1.886   6.120
 7937SOL    HW124710   5.554   1.797   6.073
 7937SOL    HW224711   5.504   1.952   6.063
 7938SOL     OW24712   6.463   4.211   4.180
 7938SOL    HW124713   6.526   4.224   4.257
 7938SOL    HW224714   6.500   4.142   4.118
 7939SOL     OW24715   5.950   5.602   4.336
 7939SOL    HW124716   5.991   5.550   4.260
 7939SOL    HW224717   5.962   5.552   4.421
 7940SOL     OW24718   1.501   5.633   0.349
 7940SOL    HW124719   1.522   5.536   0.341
 7940SOL    HW224720   1.498   5.658   0.446
 7941SOL     OW24721   0.809   0.646   1.663
 7941SOL    HW124722   0.844   0.573   1.721
 7941SOL    HW224723   0.868   0.656   1.583
 7942SOL     OW24724   0.699   6.730   1.296
 7942SOL    HW124725   0.603   6.760   1.301
 7942SOL    HW224726   0.721   6.705   1.202
 7943SOL     OW24727   6.507   2.795   6.506
 7943SOL    HW124728   6.564   2.743   6.570
 7943SOL    HW224729   6.488   2.885   6.545
 7944SOL     OW24730   6.188   3.515   2.013
 7944SOL    HW124731   6.162   3.551   1.923
 7944SOL    HW224732   6.233   3.586   2.066
 7945SOL     OW24733   6.228   6.207   6.949
 7945SOL    HW124734   6.183   6.288   6.911
 7945SOL    HW224735   6.166   6.129   6.944
 7946SOL     OW24736   1.762   0.951   5.647
 7946SOL    HW124737   1.775   1.017   5.573
 7946SOL    HW224738   1.688   0.983   5.708
 7947SOL     OW24739   3.145   5.268   6.405
 7947SOL    HW124740   3.096   5.198   6.354
 7947SOL    HW224741   3.116   5.265   6.501
 7948SOL     OW24742   1.481   4.320   4.613
 7948SOL    HW124743   1.539   4.268   4.676
 7948SOL    HW224744   1.526   4.325   4.523
 7949SOL     OW24745   0.296   3.893   4.395
 7949SOL    HW124746   0.251   3.861   4.479
 7949SOL    HW224747   0.392   3.911   4.415
 7950SOL     OW24748   2.827   5.850   3.068
 7950SOL    HW124749   2.796   5.770   3.120
 7950SOL    HW224750   2.756   5.875   3.001
 7951SOL     OW24751   2.227   3.797   0.314
 7951SOL    HW124752   2.172   3.765   0.391
 7951SOL    HW224753   2.316   3.830   0.348
 7952SOL     OW24754   6.055   3.592   0.547
 7952SOL    HW124755   5.992   3.532   0.596
 7952SOL    HW224756   6.148   3.573   0.576
 7953SOL     OW24757   2.110   4.461   1.237
 7953SOL    HW124758   2.023   4.456   1.286
 7953SOL    HW224759   2.173   4.392   1.274
 7954SOL     OW24760   6.089   5.399   3.697
 7954SOL    HW124761   6.026   5.441   3.632
 7954SOL    HW224762   6.178   5.386   3.653
 7955SOL     OW24763   1.438   6.096   6.387
 7955SOL    HW124764   1.514   6.065   6.329
 7955SOL    HW224765   1.440   6.195   6.395
 7956SOL     OW24766   5.186   6.340   3.195
 7956SOL    HW124767   5.105   6.364   3.143
 7956SOL    HW224768   5.169   6.354   3.293
 7957SOL     OW24769   0.628   3.185   1.689
 7957SOL    HW124770   0.553   3.234   1.645
 7957SOL    HW224771   0.689   3.148   1.620
 7958SOL     OW24772   2.039   5.612   3.357
 7958SOL    HW124773   2.064   5.534   3.299
 7958SOL    HW224774   1.977   5.672   3.307
 7959SOL     OW24775   4.640   3.949   0.963
 7959SOL    HW124776   4.722   3.958   1.021
 7959SOL    HW224777   4.665   3.968   0.868
 7960SOL     OW24778   1.799   2.243   1.309
 7960SOL    HW124779   1.700   2.227   1.315
 7960SOL    HW224780   1.819   2.304   1.233
 7961SOL     OW24781   1.615   6.316   0.036
 7961SOL    HW124782   1.625   6.296   0.134
 7961SOL    HW224783   1.570   6.405   0.024
 7962SOL     OW24784   1.403   6.850   2.479
 7962SOL    HW124785   1.335   6.893   2.420
 7962SOL    HW224786   1.385   6.752   2.484
 7963SOL     OW24787   0.205   6.348   6.331
 7963SOL    HW124788   0.271   6.322   6.260
 7963SOL    HW224789   0.199   6.275   6.399
 7964SOL     OW24790   6.291   5.201   3.575
 7964SOL    HW124791   6.213   5.162   3.624
 7964SOL    HW224792   6.368   5.213   3.639
 7965SOL     OW24793   3.682   1.940   1.342
 7965SOL    HW124794   3.602   1.998   1.323
 7965SOL    HW224795   3.720   1.965   1.432
 7966SOL     OW24796   0.268   1.405   3.842
 7966SOL    HW124797   0.242   1.332   3.778
 7966SOL    HW224798   0.200   1.478   3.837
 7967SOL     OW24799   1.686   0.110   4.180
 7967SOL    HW124800   1.765   0.078   4.128
 7967SOL    HW224801   1.627   0.165   4.120
 7968SOL     OW24802   2.386   1.468   7.009
 7968SOL    HW124803   2.319   1.401   6.978
 7968SOL    HW224804   2.442   1.429   0.059
 7969SOL     OW24805   4.033   1.905   3.588
 7969SOL    HW124806   4.046   1.983   3.649
 7969SOL    HW224807   3.950   1.856   3.614
 7970SOL     OW24808   0.364   4.848   2.954
 7970SOL    HW124809   0.337   4.929   3.007
 7970SOL    HW224810   0.461   4.832   2.966
 7971SOL     OW24811   3.630   1.642   3.298
 7971SOL    HW124812   3.591   1.727   3.262
 7971SOL    HW224813   3.652   1.581   3.221
 7972SOL     OW24814   4.917   5.198   1.043
 7972SOL    HW124815   4.889   5.263   1.114
 7972SOL    HW224816   4.836   5.162   0.998
 7973SOL     OW24817   5.901   1.673   3.027
 7973SOL    HW124818   5.838   1.751   3.017
 7973SOL    HW224819   5.991   1.699   2.991
 7974SOL     OW24820   4.571   6.085   4.844
 7974SOL    HW124821   4.578   6.037   4.931
 7974SOL    HW224822   4.486   6.138   4.842
 7975SOL     OW24823   1.802   0.801   2.017
 7975SOL    HW124824   1.866   0.876   1.998
 7975SOL    HW224825   1.808   0.775   2.113
 7976SOL     OW24826   0.269   6.523   6.009
 7976SOL    HW124827   0.288   6.600   6.069
 7976SOL    HW224828   0.262   6.439   6.063
 7977SOL     OW24829   5.466   6.377   1.561
 7977SOL    HW124830   5.535   6.444   1.590
 7977SOL    HW224831   5.499   6.327   1.482
 7978SOL     OW24832   3.403   1.598   5.916
 7978SOL    HW124833   3.403   1.501   5.940
 7978SOL    HW224834   3.310   1.629   5.896
 7979SOL     OW24835   4.621   5.472   4.493
 7979SOL    HW124836   4.641   5.375   4.476
 7979SOL    HW224837   4.543   5.500   4.436
 7980SOL     OW24838   2.656   0.885   1.062
 7980SOL    HW124839   2.662   0.832   1.146
 7980SOL    HW224840   2.584   0.847   1.003
 7981SOL     OW24841   0.495   6.590   2.876
 7981SOL    HW124842   0.594   6.579   2.884
 7981SOL    HW224843   0.449   6.516   2.925
 7982SOL     OW24844   0.154   2.376   1.309
 7982SOL    HW124845   0.090   2.370   1.385
 7982SOL    HW224846   0.244   2.403   1.343
 7983SOL     OW24847   5.241   1.782   1.392
 7983SOL    HW124848   5.169   1.818   1.333
 7983SOL    HW224849   5.228   1.815   1.485
 7984SOL     OW24850   5.422   0.764   6.834
 7984SOL    HW124851   5.475   0.832   6.884
 7984SOL    HW224852   5.357   0.810   6.773
 7985SOL     OW24853   0.388   1.721   0.851
 7985SOL    HW124854   0.426   1.737   0.942
 7985SOL    HW224855   0.363   1.625   0.842
 7986SOL     OW24856   4.854   3.887   0.441
 7986SOL    HW124857   4.909   3.834   0.506
 7986SOL    HW224858   4.886   3.982   0.441
 7987SOL     OW24859   1.056   4.138   5.650
 7987SOL    HW124860   1.122   4.151   5.724
 7987SOL    HW224861   1.087   4.066   5.589
 7988SOL     OW24862   2.406   1.236   4.995
 7988SOL    HW124863   2.462   1.304   5.043
 7988SOL    HW224864   2.444   1.145   5.008
 7989SOL     OW24865   2.516   3.380   6.984
 7989SOL    HW124866   2.436   3.440   6.977
 7989SOL    HW224867   2.502   3.299   6.928
 7990SOL     OW24868   2.282   2.824   4.624
 7990SOL    HW124869   2.295   2.736   4.579
 7990SOL    HW224870   2.322   2.821   4.715
 7991SOL     OW24871   2.355   2.936   5.833
 7991SOL    HW124872   2.263   2.975   5.841
 7991SOL    HW224873   2.408   2.989   5.767
 7992SOL     OW24874   2.802   1.346   6.917
 7992SOL    HW124875   2.773   1.331   6.822
 7992SOL    HW224876   2.858   1.429   6.921
 7993SOL     OW24877   3.392   5.633   6.218
 7993SOL    HW124878   3.451   5.583   6.282
 7993SOL    HW224879   3.336   5.698   6.268
 7994SOL     OW24880   5.450   0.056   4.716
 7994SOL    HW124881   5.395   0.133   4.681
 7994SOL    HW224882   5.545   0.084   4.725
 7995SOL     OW24883   4.136   5.196   2.287
 7995SOL    HW124884   4.067   5.251   2.238
 7995SOL    HW224885   4.203   5.161   2.222
 7996SOL     OW24886   4.759   2.049   5.322
 7996SOL    HW124887   4.772   2.076   5.227
 7996SOL    HW224888   4.847   2.020   5.360
 7997SOL     OW24889   5.120   3.262   1.058
 7997SOL    HW124890   5.111   3.294   0.964
 7997SOL    HW224891   5.029   3.256   1.100
 7998SOL     OW24892   0.006   5.825   0.039
 7998SOL    HW124893   7.001   5.803   6.968
 7998SOL    HW224894   6.989   5.914   0.065
 7999SOL     OW24895   3.201   2.220   5.936
 7999SOL    HW124896   3.300   2.218   5.925
 7999SOL    HW224897   3.161   2.135   5.903
 8000SOL     OW24898   5.229   0.073   5.295
 8000SOL    HW124899   5.220   0.169   5.269
 8000SOL    HW224900   5.161   0.051   5.365
 8001SOL     OW24901   3.090   4.626   1.298
 8001SOL    HW124902   3.084   4.565   1.377
 8001SOL    HW224903   3.128   4.713   1.326
 8002SOL     OW24904   4.636   2.184   5.595
 8002SOL    HW124905   4.658   2.148   5.505
 8002SOL    HW224906   4.670   2.278   5.602
 8003SOL     OW24907   5.080   5.743   3.368
 8003SOL    HW124908   5.144   5.782   3.301
 8003SOL    HW224909   4.996   5.798   3.369
 8004SOL     OW24910   2.028   5.240   3.441
 8004SOL    HW124911   2.047   5.180   3.363
 8004SOL    HW224912   2.072   5.203   3.523
 8005SOL     OW24913   2.570   0.573   2.222
 8005SOL    HW124914   2.586   0.497   2.285
 8005SOL    HW224915   2.499   0.633   2.260
 8006SOL     OW24916   5.041   5.460   3.130
 8006SOL    HW124917   4.952   5.430   3.163
 8006SOL    HW224918   5.050   5.438   3.033
 8007SOL     OW24919   0.995   1.310   3.315
 8007SOL    HW124920   0.939   1.393   3.321
 8007SOL    HW224921   0.994   1.276   3.221
 8008SOL     OW24922   6.660   4.863   0.901
 8008SOL    HW124923   6.650   4.784   0.961
 8008SOL    HW224924   6.573   4.883   0.857
 8009SOL     OW24925   6.463   6.192   3.167
 8009SOL    HW124926   6.485   6.281   3.126
 8009SOL    HW224927   6.459   6.122   3.096
 8010SOL     OW24928   1.990   1.609   5.638
 8010SOL    HW124929   2.073   1.576   5.681
 8010SOL    HW224930   2.001   1.611   5.539
 8011SOL     OW24931   2.068   3.474   0.373
 8011SOL    HW124932   2.005   3.454   0.299
 8011SOL    HW224933   2.103   3.388   0.411
 8012SOL     OW24934   1.789   5.291   3.254
 8012SOL    HW124935   1.697   5.301   3.291
 8012SOL    HW224936   1.853   5.270   3.328
 8013SOL     OW24937   6.260   6.044   3.938
 8013SOL    HW124938   6.173   6.001   3.916
 8013SOL    HW224939   6.326   6.026   3.865
 8014SOL     OW24940   2.529   0.433   6.094
 8014SOL    HW124941   2.538   0.516   6.039
 8014SOL    HW224942   2.460   0.374   6.052
 8015SOL     OW24943   2.088   0.655   0.802
 8015SOL    HW124944   2.016   0.623   0.741
 8015SOL    HW224945   2.097   0.754   0.794
 8016SOL     OW24946   4.666   5.432   1.555
 8016SOL    HW124947   4.678   5.349   1.501
 8016SOL    HW224948   4.606   5.495   1.505
 8017SOL     OW24949   6.239   3.137   4.395
 8017SOL    HW124950   6.168   3.124   4.327
 8017SOL    HW224951   6.310   3.197   4.359
 8018SOL     OW24952   4.886   3.317   3.252
 8018SOL    HW124953   4.899   3.233   3.200
 8018SOL    HW224954   4.870   3.295   3.349
 8019SOL     OW24955   3.817   5.074   1.417
 8019SOL    HW124956   3.818   5.143   1.344
 8019SOL    HW224957   3.756   5.000   1.392
 8020SOL     OW24958   6.138   6.365   6.686
 8020SOL    HW124959   6.149   6.458   6.649
 8020SOL    HW224960   6.048   6.330   6.659
 8021SOL     OW24961   6.377   1.351   2.622
 8021SOL    HW124962   6.311   1.282   2.592
 8021SOL    HW224963   6.398   1.338   2.718
 8022SOL     OW24964   6.008   4.915   4.046
 8022SOL    HW124965   6.105   4.918   4.071
 8022SOL    HW224966   5.958   4.861   4.114
 8023SOL     OW24967   6.935   5.396   3.546
 8023SOL    HW124968   6.999   5.458   3.591
 8023SOL    HW224969   6.885   5.344   3.616
 8024SOL     OW24970   4.980   5.822   3.916
 8024SOL    HW124971   4.987   5.840   3.818
 8024SOL    HW224972   4.927   5.894   3.960
 8025SOL     OW24973   2.345   6.084   0.030
 8025SOL    HW124974   2.268   6.024   0.052
 8025SOL    HW224975   2.391   6.112   0.114
 8026SOL     OW24976   3.073   2.384   0.452
 8026SOL    HW124977   2.984   2.357   0.488
 8026SOL    HW224978   3.083   2.349   0.359
 8027SOL     OW24979   4.059   3.603   5.740
 8027SOL    HW124980   4.113   3.685   5.759
 8027SOL    HW224981   4.078   3.572   5.647
 8028SOL     OW24982   6.089   4.380   1.329
 8028SOL    HW124983   6.172   4.325   1.323
 8028SOL    HW224984   6.070   4.422   1.240
 8029SOL     OW24985   2.808   4.371   5.551
 8029SOL    HW124986   2.799   4.289   5.607
 8029SOL    HW224987   2.835   4.345   5.458
 8030SOL     OW24988   0.577   3.892   2.063
 8030SOL    HW124989   0.666   3.888   2.108
 8030SOL    HW224990   0.533   3.802   2.067
 8031SOL     OW24991   4.061   6.164   0.656
 8031SOL    HW124992   4.059   6.262   0.634
 8031SOL    HW224993   4.008   6.148   0.740
 8032SOL     OW24994   4.247   3.516   5.265
 8032SOL    HW124995   4.235   3.496   5.362
 8032SOL    HW224996   4.307   3.595   5.255
 8033SOL     OW24997   5.541   1.217   2.373
 8033SOL    HW124998   5.467   1.152   2.384
 8033SOL    HW224999   5.504   1.310   2.372
 8034SOL     OW25000   6.751   2.774   5.539
 8034SOL    HW125001   6.655   2.796   5.558
 8034SOL    HW225002   6.777   2.812   5.450
 8035SOL     OW25003   5.946   5.769   6.902
 8035SOL    HW125004   5.990   5.858   6.906
 8035SOL    HW225005   5.892   5.762   6.817
 8036SOL     OW25006   1.047   3.300   1.695
 8036SOL    HW125007   0.998   3.332   1.614
 8036SOL    HW225008   1.139   3.272   1.669
 8037SOL     OW25009   1.559   3.152   1.431
 8037SOL    HW125010   1.461   3.133   1.442
 8037SOL    HW225011   1.572   3.247   1.402
 8038SOL     OW25012   5.733   0.818   3.715
 8038SOL    HW125013   5.777   0.731   3.690
 8038SOL    HW225014   5.638   0.817   3.685
 8039SOL     OW25015   2.418   5.795   3.511
 8039SOL    HW125016   2.387   5.778   3.417
 8039SOL    HW225017   2.441   5.708   3.554
 8040SOL     OW25018   6.294   6.045   6.108
 8040SOL    HW125019   6.338   6.081   6.191
 8040SOL    HW225020   6.229   6.112   6.073
 8041SOL     OW25021   3.281   2.826   0.903
 8041SOL    HW125022   3.214   2.769   0.854
 8041SOL    HW225023   3.350   2.767   0.945
 8042SOL     OW25024   1.767   4.768   0.070
 8042SOL    HW125025   1.707   4.729   0.140
 8042SOL    HW225026   1.845   4.708   0.056
 8043SOL     OW25027   3.087   0.672   1.233
 8043SOL    HW125028   3.140   0.614   1.294
 8043SOL    HW225029   3.032   0.735   1.287
 8044SOL     OW25030   3.231   2.648   1.276
 8044SOL    HW125031   3.162   2.578   1.259
 8044SOL    HW225032   3.186   2.733   1.304
 8045SOL     OW25033   5.426   2.738   4.270
 8045SOL    HW125034   5.466   2.728   4.179
 8045SOL    HW225035   5.459   2.823   4.312
 8046SOL     OW25036   6.441   5.253   5.115
 8046SOL    HW125037   6.423   5.346   5.083
 8046SOL    HW225038   6.523   5.253   5.172
 8047SOL     OW25039   3.085   6.819   4.074
 8047SOL    HW125040   3.120   6.889   4.136
 8047SOL    HW225041   3.150   6.805   3.999
 8048SOL     OW25042   5.358   6.904   5.439
 8048SOL    HW125043   5.422   6.954   5.497
 8048SOL    HW225044   5.319   6.965   5.370
 8049SOL     OW25045   2.500   6.357   6.121
 8049SOL    HW125046   2.571   6.307   6.172
 8049SOL    HW225047   2.465   6.431   6.179
 8050SOL     OW25048   0.449   3.538   1.661
 8050SOL    HW125049   0.398   3.604   1.716
 8050SOL    HW225050   0.489   3.585   1.582
 8051SOL     OW25051   1.969   2.214   4.026
 8051SOL    HW125052   1.899   2.150   4.057
 8051SOL    HW225053   1.940   2.255   3.939
 8052SOL     OW25054   4.397   1.127   2.931
 8052SOL    HW125055   4.300   1.138   2.909
 8052SOL    HW225056   4.408   1.047   2.990
 8053SOL     OW25057   4.801   3.432   1.434
 8053SOL    HW125058   4.884   3.434   1.490
 8053SOL    HW225059   4.724   3.401   1.489
 8054SOL     OW25060   4.856   6.591   4.771
 8054SOL    HW125061   4.956   6.586   4.772
 8054SOL    HW225062   4.819   6.536   4.845
 8055SOL     OW25063   1.332   0.564   4.901
 8055SOL    HW125064   1.311   0.659   4.877
 8055SOL    HW225065   1.248   0.509   4.894
 8056SOL     OW25066   4.853   1.242   2.783
 8056SOL    HW125067   4.909   1.325   2.778
 8056SOL    HW225068   4.810   1.238   2.873
 8057SOL     OW25069   3.016   6.920   3.406
 8057SOL    HW125070   2.975   6.992   3.463
 8057SOL    HW225071   3.106   6.896   3.441
 8058SOL     OW25072   1.935   0.851   3.220
 8058SOL    HW125073   1.860   0.909   3.251
 8058SOL    HW225074   1.899   0.764   3.186
 8059SOL     OW25075   2.042   1.386   3.530
 8059SOL    HW125076   2.038   1.398   3.431
 8059SOL    HW225077   1.949   1.394   3.568
 8060SOL     OW25078   1.402   2.739   5.246
 8060SOL    HW125079   1.422   2.756   5.343
 8060SOL    HW225080   1.306   2.759   5.228
 8061SOL     OW25081   5.121   6.424   2.378
 8061SOL    HW125082   5.109   6.416   2.279
 8061SOL    HW225083   5.104   6.518   2.406
 8062SOL     OW25084   1.643   1.500   1.712
 8062SOL    HW125085   1.563   1.487   1.770
 8062SOL    HW225086   1.624   1.465   1.620
 8063SOL     OW25087   3.352   2.108   5.442
 8063SOL    HW125088   3.318   2.194   5.480
 8063SOL    HW225089   3.357   2.114   5.343
 8064SOL     OW25090   5.320   2.081   6.081
 8064SOL    HW125091   5.279   2.140   6.151
 8064SOL    HW225092   5.340   2.135   6.000
 8065SOL     OW25093   4.466   0.856   6.926
 8065SOL    HW125094   4.448   0.934   6.985
 8065SOL    HW225095   4.391   0.790   6.933
 8066SOL     OW25096   0.233   0.705   1.939
 8066SOL    HW125097   0.242   0.743   2.031
 8066SOL    HW225098   0.276   0.766   1.873
 8067SOL     OW25099   4.393   1.838   2.873
 8067SOL    HW125100   4.374   1.896   2.794
 8067SOL    HW225101   4.474   1.782   2.855
 8068SOL     OW25102   6.124   4.030   3.306
 8068SOL    HW125103   6.157   4.062   3.217
 8068SOL    HW225104   6.041   4.080   3.331
 8069SOL     OW25105   6.655   5.434   2.291
 8069SOL    HW125106   6.630   5.398   2.201
 8069SOL    HW225107   6.740   5.487   2.282
 8070SOL     OW25108   4.152   1.158   2.833
 8070SOL    HW125109   4.120   1.068   2.801
 8070SOL    HW225110   4.077   1.223   2.829
 8071SOL     OW25111   6.404   4.375   6.904
 8071SOL    HW125112   6.335   4.432   6.859
 8071SOL    HW225113   6.491   4.383   6.854
 8072SOL     OW25114   3.046   0.162   2.875
 8072SOL    HW125115   2.975   0.133   2.939
 8072SOL    HW225116   3.066   0.087   2.811
 8073SOL     OW25117   5.391   0.150   6.448
 8073SOL    HW125118   5.491   0.142   6.444
 8073SOL    HW225119   5.350   0.069   6.406
 8074SOL     OW25120   2.945   4.716   0.470
 8074SOL    HW125121   2.990   4.805   0.482
 8074SOL    HW225122   3.008   4.643   0.496
 8075SOL     OW25123   6.226   1.720   3.808
 8075SOL    HW125124   6.262   1.630   3.831
 8075SOL    HW225125   6.174   1.714   3.722
 8076SOL     OW25126   4.730   2.283   6.621
 8076SOL    HW125127   4.738   2.226   6.539
 8076SOL    HW225128   4.652   2.345   6.611
 8077SOL     OW25129   0.449   0.807   6.855
 8077SOL    HW125130   0.377   0.824   6.923
 8077SOL    HW225131   0.426   0.725   6.803
 8078SOL     OW25132   6.654   4.066   1.224
 8078SOL    HW125133   6.577   4.061   1.287
 8078SOL    HW225134   6.621   4.059   1.130
 8079SOL     OW25135   1.475   3.441   0.812
 8079SOL    HW125136   1.474   3.513   0.882
 8079SOL    HW225137   1.562   3.444   0.763
 8080SOL     OW25138   3.494   5.089   6.804
 8080SOL    HW125139   3.506   5.173   6.857
 8080SOL    HW225140   3.532   5.012   6.855
 8081SOL     OW25141   5.021   2.361   4.289
 8081SOL    HW125142   4.943   2.360   4.226
 8081SOL    HW225143   5.102   2.393   4.241
 8082SOL     OW25144   6.872   3.785   4.998
 8082SOL    HW125145   6.879   3.689   5.025
 8082SOL    HW225146   6.839   3.839   5.075
 8083SOL     OW25147   6.627   2.169   5.491
 8083SOL    HW125148   6.656   2.189   5.584
 8083SOL    HW225149   6.528   2.152   5.490
 8084SOL     OW25150   5.864   6.727   6.169
 8084SOL    HW125151   5.950   6.776   6.180
 8084SOL    HW225152   5.788   6.782   6.205
 8085SOL     OW25153   5.215   2.781   1.989
 8085SOL    HW125154   5.292   2.751   2.047
 8085SOL    HW225155   5.223   2.879   1.971
 8086SOL     OW25156   2.749   5.247   0.073
 8086SOL    HW125157   2.732   5.283   7.004
 8086SOL    HW225158   2.772   5.322   0.135
 8087SOL     OW25159   1.917   4.157   1.046
 8087SOL    HW125160   1.952   4.192   0.959
 8087SOL    HW225161   1.839   4.096   1.029
 8088SOL     OW25162   4.467   0.670   2.983
 8088SOL    HW125163   4.411   0.588   2.980
 8088SOL    HW225164   4.550   0.653   3.035
 8089SOL     OW25165   6.918   2.139   0.373
 8089SOL    HW125166   6.896   2.235   0.388
 8089SOL    HW225167   7.015   2.130   0.353
 8090SOL     OW25168   5.510   0.904   4.810
 8090SOL    HW125169   5.468   0.978   4.863
 8090SOL    HW225170   5.510   0.928   4.713
 8091SOL     OW25171   1.754   3.629   4.630
 8091SOL    HW125172   1.779   3.540   4.590
 8091SOL    HW225173   1.834   3.688   4.632
 8092SOL     OW25174   6.317   1.922   4.020
 8092SOL    HW125175   6.298   1.847   3.957
 8092SOL    HW225176   6.247   1.993   4.011
 8093SOL     OW25177   5.916   4.747   0.483
 8093SOL    HW125178   5.860   4.810   0.429
 8093SOL    HW225179   5.998   4.723   0.431
 8094SOL     OW25180   0.939   3.612   4.356
 8094SOL    HW125181   0.863   3.590   4.296
 8094SOL    HW225182   0.933   3.556   4.439
 8095SOL     OW25183   6.575   3.008   4.785
 8095SOL    HW125184   6.534   2.967   4.704
 8095SOL    HW225185   6.511   3.002   4.861
 8096SOL     OW25186   3.887   0.419   0.859
 8096SOL    HW125187   3.880   0.377   0.768
 8096SOL    HW225188   3.796   0.452   0.887
 8097SOL     OW25189   4.918   2.076   4.094
 8097SOL    HW125190   4.883   2.132   4.169
 8097SOL    HW225191   4.922   1.980   4.124
 8098SOL     OW25192   2.178   2.053   3.967
 8098SOL    HW125193   2.226   2.092   3.889
 8098SOL    HW225194   2.093   2.103   3.983
 8099SOL     OW25195   4.300   6.680   3.916
 8099SOL    HW125196   4.328   6.750   3.850
 8099SOL    HW225197   4.238   6.721   3.983
 8100SOL     OW25198   6.352   6.559   1.491
 8100SOL    HW125199   6.253   6.551   1.504
 8100SOL    HW225200   6.370   6.581   1.395
 8101SOL     OW25201   1.287   4.619   2.888
 8101SOL    HW125202   1.355   4.692   2.880
 8101SOL    HW225203   1.231   4.617   2.805
 8102SOL     OW25204   6.537   0.118   5.527
 8102SOL    HW125205   6.487   0.031   5.521
 8102SOL    HW225206   6.519   0.172   5.446
 8103SOL     OW25207   2.799   2.323   2.385
 8103SOL    HW125208   2.831   2.395   2.446
 8103SOL    HW225209   2.843   2.332   2.296
 8104SOL     OW25210   2.590   0.648   5.928
 8104SOL    HW125211   2.550   0.737   5.905
 8104SOL    HW225212   2.687   0.648   5.905
 8105SOL     OW25213   2.323   2.742   2.804
 8105SOL    HW125214   2.282   2.831   2.787
 8105SOL    HW225215   2.338   2.729   2.902
 8106SOL     OW25216   0.683   4.758   6.752
 8106SOL    HW125217   0.744   4.678   6.752
 8106SOL    HW225218   0.590   4.730   6.729
 8107SOL     OW25219   0.588   5.318   6.611
 8107SOL    HW125220   0.596   5.342   6.514
 8107SOL    HW225221   0.589   5.402   6.666
 8108SOL     OW25222   1.964   2.003   6.081
 8108SOL    HW125223   1.964   1.927   6.016
 8108SOL    HW225224   1.948   1.968   6.173
 8109SOL     OW25225   0.059   5.510   4.921
 8109SOL    HW125226   0.031   5.415   4.903
 8109SOL    HW225227   7.002   5.564   4.947
 8110SOL     OW25228   0.884   5.098   0.513
 8110SOL    HW125229   0.826   5.131   0.439
 8110SOL    HW225230   0.979   5.096   0.483
 8111SOL     OW25231   3.463   6.587   3.992
 8111SOL    HW125232   3.483   6.492   3.968
 8111SOL    HW225233   3.373   6.593   4.035
 8112SOL     OW25234   3.792   1.892   4.371
 8112SOL    HW125235   3.808   1.942   4.286
 8112SOL    HW225236   3.776   1.957   4.445
 8113SOL     OW25237   3.164   2.505   6.296
 8113SOL    HW125238   3.256   2.511   6.336
 8113SOL    HW225239   3.099   2.552   6.355
 8114SOL     OW25240   2.423   3.552   1.475
 8114SOL    HW125241   2.348   3.519   1.532
 8114SOL    HW225242   2.444   3.485   1.404
 8115SOL     OW25243   4.175   2.820   1.279
 8115SOL    HW125244   4.219   2.909   1.295
 8115SOL    HW225245   4.076   2.833   1.275
 8116SOL     OW25246   5.790   2.393   5.681
 8116SOL    HW125247   5.793   2.391   5.581
 8116SOL    HW225248   5.706   2.348   5.712
 8117SOL     OW25249   3.194   2.890   5.095
 8117SOL    HW125250   3.222   2.879   5.191
 8117SOL    HW225251   3.238   2.819   5.039
 8118SOL     OW25252   0.699   2.312   4.275
 8118SOL    HW125253   0.626   2.244   4.284
 8118SOL    HW225254   0.788   2.266   4.271
 8119SOL     OW25255   1.214   7.015   2.367
 8119SOL    HW125256   1.137   6.958   2.338
 8119SOL    HW225257   1.211   0.080   2.318
 8120SOL     OW25258   4.752   4.179   2.146
 8120SOL    HW125259   4.725   4.155   2.053
 8120SOL    HW225260   4.837   4.232   2.145
 8121SOL     OW25261   6.903   6.280   3.530
 8121SOL    HW125262   6.882   6.374   3.503
 8121SOL    HW225263   6.890   6.220   3.451
 8122SOL     OW25264   0.262   4.744   1.239
 8122SOL    HW125265   0.236   4.678   1.310
 8122SOL    HW225266   0.215   4.831   1.255
 8123SOL     OW25267   1.447   4.904   5.754
 8123SOL    HW125268   1.429   4.861   5.666
 8123SOL    HW225269   1.505   4.984   5.741
 8124SOL     OW25270   1.218   6.365   2.485
 8124SOL    HW125271   1.284   6.308   2.436
 8124SOL    HW225272   1.136   6.377   2.428
 8125SOL     OW25273   4.519   5.392   3.939
 8125SOL    HW125274   4.518   5.324   4.013
 8125SOL    HW225275   4.431   5.392   3.893
 8126SOL     OW25276   6.989   4.109   1.785
 8126SOL    HW125277   6.942   4.060   1.712
 8126SOL    HW225278   0.012   4.190   1.748
 8127SOL     OW25279   4.452   5.163   6.778
 8127SOL    HW125280   4.362   5.185   6.738
 8127SOL    HW225281   4.442   5.146   6.876
 8128SOL     OW25282   3.762   2.478   5.838
 8128SOL    HW125283   3.698   2.416   5.793
 8128SOL    HW225284   3.850   2.475   5.791
 8129SOL     OW25285   5.384   5.314   6.517
 8129SOL    HW125286   5.287   5.289   6.526
 8129SOL    HW225287   5.440   5.253   6.573
 8130SOL     OW25288   0.571   0.198   6.052
 8130SOL    HW125289   0.524   0.246   5.978
 8130SOL    HW225290   0.504   0.163   6.117
 8131SOL     OW25291   2.668   1.458   1.145
 8131SOL    HW125292   2.743   1.486   1.204
 8131SOL    HW225293   2.581   1.480   1.189
 8132SOL     OW25294   5.276   4.993   3.227
 8132SOL    HW125295   5.242   5.069   3.282
 8132SOL    HW225296   5.375   4.987   3.237
 8133SOL     OW25297   0.521   5.284   2.702
 8133SOL    HW125298   0.566   5.284   2.613
 8133SOL    HW225299   0.591   5.272   2.774
 8134SOL     OW25300   3.239   3.320   1.464
 8134SOL    HW125301   3.313   3.307   1.531
 8134SOL    HW225302   3.251   3.408   1.418
 8135SOL     OW25303   4.229   5.766   2.609
 8135SOL    HW125304   4.197   5.841   2.666
 8135SOL    HW225305   4.298   5.800   2.544
 8136SOL     OW25306   2.524   5.646   1.171
 8136SOL    HW125307   2.595   5.634   1.241
 8136SOL    HW225308   2.434   5.650   1.215
 8137SOL     OW25309   3.472   4.194   5.461
 8137SOL    HW125310   3.539   4.167   5.530
 8137SOL    HW225311   3.422   4.114   5.428
 8138SOL     OW25312   4.388   0.843   4.170
 8138SOL    HW125313   4.321   0.876   4.235
 8138SOL    HW225314   4.373   0.885   4.080
 8139SOL     OW25315   2.163   3.206   5.868
 8139SOL    HW125316   2.172   3.260   5.785
 8139SOL    HW225317   2.069   3.173   5.877
 8140SOL     OW25318   5.203   1.478   1.556
 8140SOL    HW125319   5.235   1.457   1.464
 8140SOL    HW225320   5.207   1.577   1.571
 8141SOL     OW25321   5.762   2.196   4.823
 8141SOL    HW125322   5.663   2.188   4.823
 8141SOL    HW225323   5.797   2.182   4.916
 8142SOL     OW25324   4.105   5.430   0.468
 8142SOL    HW125325   4.194   5.425   0.423
 8142SOL    HW225326   4.117   5.426   0.567
 8143SOL     OW25327   5.329   5.074   0.365
 8143SOL    HW125328   5.355   5.029   0.279
 8143SOL    HW225329   5.346   5.011   0.441
 8144SOL     OW25330   1.638   5.719   6.478
 8144SOL    HW125331   1.580   5.723   6.559
 8144SOL    HW225332   1.731   5.692   6.504
 8145SOL     OW25333   5.383   5.210   5.565
 8145SOL    HW125334   5.379   5.309   5.579
 8145SOL    HW225335   5.291   5.177   5.542
 8146SOL     OW25336   6.901   5.931   5.712
 8146SOL    HW125337   6.868   5.837   5.725
 8146SOL    HW225338   6.865   5.989   5.784
 8147SOL     OW25339   2.825   6.468   4.435
 8147SOL    HW125340   2.785   6.551   4.397
 8147SOL    HW225341   2.766   6.434   4.509
 8148SOL     OW25342   4.629   4.881   0.317
 8148SOL    HW125343   4.583   4.909   0.233
 8148SOL    HW225344   4.696   4.809   0.296
 8149SOL     OW25345   1.419   6.905   4.601
 8149SOL    HW125346   1.336   6.938   4.645
 8149SOL    HW225347   1.408   6.808   4.579
 8150SOL     OW25348   0.418   3.786   0.791
 8150SOL    HW125349   0.388   3.717   0.858
 8150SOL    HW225350   0.373   3.768   0.703
 8151SOL     OW25351   6.202   4.115   2.905
 8151SOL    HW125352   6.157   4.083   2.821
 8151SOL    HW225353   6.295   4.079   2.908
 8152SOL     OW25354   4.754   2.348   4.816
 8152SOL    HW125355   4.791   2.418   4.755
 8152SOL    HW225356   4.723   2.270   4.762
 8153SOL     OW25357   0.038   0.890   1.189
 8153SOL    HW125358   0.132   0.922   1.201
 8153SOL    HW225359   7.007   0.962   1.145
 8154SOL     OW25360   6.996   0.241   4.799
 8154SOL    HW125361   6.928   0.236   4.726
 8154SOL    HW225362   6.999   0.334   4.835
 8155SOL     OW25363   1.417   4.816   4.807
 8155SOL    HW125364   1.441   4.889   4.743
 8155SOL    HW225365   1.449   4.728   4.771
 8156SOL     OW25366   0.707   3.492   0.155
 8156SOL    HW125367   0.625   3.514   0.102
 8156SOL    HW225368   0.776   3.564   0.142
 8157SOL     OW25369   6.245   4.800   5.572
 8157SOL    HW125370   6.168   4.794   5.635
 8157SOL    HW225371   6.222   4.755   5.486
 8158SOL     OW25372   6.956   5.280   5.653
 8158SOL    HW125373   7.005   5.365   5.636
 8158SOL    HW225374   7.022   5.210   5.683
 8159SOL     OW25375   2.363   5.700   4.482
 8159SOL    HW125376   2.356   5.785   4.533
 8159SOL    HW225377   2.453   5.693   4.439
 8160SOL     OW25378   4.874   3.083   3.131
 8160SOL    HW125379   4.876   3.114   3.036
 8160SOL    HW225380   4.810   3.007   3.141
 8161SOL     OW25381   0.348   1.722   1.299
 8161SOL    HW125382   0.374   1.780   1.376
 8161SOL    HW225383   0.255   1.747   1.270
 8162SOL     OW25384   6.426   6.090   6.353
 8162SOL    HW125385   6.487   6.164   6.382
 8162SOL    HW225386   6.418   6.023   6.427
 8163SOL     OW25387   3.176   5.777   5.864
 8163SOL    HW125388   3.174   5.768   5.765
 8163SOL    HW225389   3.261   5.739   5.900
 8164SOL     OW25390   5.495   1.942   0.369
 8164SOL    HW125391   5.451   2.021   0.328
 8164SOL    HW225392   5.463   1.931   0.463
 8165SOL     OW25393   1.393   2.774   5.567
 8165SOL    HW125394   1.333   2.707   5.610
 8165SOL    HW225395   1.446   2.821   5.638
 8166SOL     OW25396   3.234   2.145   3.206
 8166SOL    HW125397   3.155   2.104   3.161
 8166SOL    HW225398   3.310   2.153   3.141
 8167SOL     OW25399   1.818   1.489   2.125
 8167SOL    HW125400   1.908   1.476   2.167
 8167SOL    HW225401   1.826   1.553   2.048
 8168SOL     OW25402   0.860   5.701   2.991
 8168SOL    HW125403   0.845   5.734   2.897
 8168SOL    HW225404   0.841   5.775   3.055
 8169SOL     OW25405   5.127   5.135   6.915
 8169SOL    HW125406   5.086   5.192   6.986
 8169SOL    HW225407   5.076   5.146   6.829
 8170SOL     OW25408   0.067   5.164   3.163
 8170SOL    HW125409   0.013   5.223   3.103
 8170SOL    HW225410   0.117   5.098   3.107
 8171SOL     OW25411   0.823   1.070   2.092
 8171SOL    HW125412   0.785   1.162   2.080
 8171SOL    HW225413   0.823   1.022   2.004
 8172SOL     OW25414   1.410   4.490   0.344
 8172SOL    HW125415   1.333   4.541   0.382
 8172SOL    HW225416   1.461   4.446   0.418
 8173SOL     OW25417   5.351   0.344   1.107
 8173SOL    HW125418   5.268   0.350   1.051
 8173SOL    HW225419   5.331   0.370   1.201
 8174SOL     OW25420   2.994   6.195   3.831
 8174SOL    HW125421   2.995   6.126   3.758
 8174SOL    HW225422   2.923   6.171   3.897
 8175SOL     OW25423   1.474   2.791   6.455
 8175SOL    HW125424   1.544   2.722   6.472
 8175SOL    HW225425   1.516   2.869   6.406
 8176SOL     OW25426   2.461   4.145   0.170
 8176SOL    HW125427   2.426   4.236   0.195
 8176SOL    HW225428   2.508   4.104   0.249
 8177SOL     OW25429   3.552   1.230   1.864
 8177SOL    HW125430   3.595   1.270   1.944
 8177SOL    HW225431   3.596   1.143   1.842
 8178SOL     OW25432   2.631   6.406   0.631
 8178SOL    HW125433   2.701   6.457   0.679
 8178SOL    HW225434   2.542   6.421   0.675
 8179SOL     OW25435   6.464   6.453   4.875
 8179SOL    HW125436   6.469   6.429   4.971
 8179SOL    HW225437   6.501   6.378   4.820
 8180SOL     OW25438   3.024   4.975   0.491
 8180SOL    HW125439   3.085   5.016   0.559
 8180SOL    HW225440   2.934   5.018   0.497
 8181SOL     OW25441   5.992   1.034   6.572
 8181SOL    HW125442   6.014   0.945   6.533
 8181SOL    HW225443   6.022   1.106   6.509
 8182SOL     OW25444   3.241   3.742   2.906
 8182SOL    HW125445   3.224   3.643   2.903
 8182SOL    HW225446   3.156   3.791   2.893
 8183SOL     OW25447   0.522   0.666   5.126
 8183SOL    HW125448   0.607   0.635   5.168
 8183SOL    HW225449   0.539   0.752   5.077
 8184SOL     OW25450   6.554   5.354   4.502
 8184SOL    HW125451   6.563   5.349   4.602
 8184SOL    HW225452   6.578   5.445   4.471
 8185SOL     OW25453   6.600   6.470   4.525
 8185SOL    HW125454   6.663   6.453   4.450
 8185SOL    HW225455   6.509   6.491   4.489
 8186SOL     OW25456   0.530   6.373   6.613
 8186SOL    HW125457   0.566   6.465   6.626
 8186SOL    HW225458   0.453   6.359   6.675
 8187SOL     OW25459   0.654   6.751   4.180
 8187SOL    HW125460   0.684   6.775   4.272
 8187SOL    HW225461   0.686   6.660   4.157
 8188SOL     OW25462   1.683   2.550   2.674
 8188SOL    HW125463   1.781   2.539   2.656
 8188SOL    HW225464   1.649   2.630   2.625
 8189SOL     OW25465   6.803   5.239   3.713
 8189SOL    HW125466   6.753   5.177   3.653
 8189SOL    HW225467   6.756   5.243   3.802
 8190SOL     OW25468   5.454   3.578   2.477
 8190SOL    HW125469   5.395   3.645   2.431
 8190SOL    HW225470   5.398   3.507   2.519
 8191SOL     OW25471   4.455   4.979   0.894
 8191SOL    HW125472   4.371   4.995   0.843
 8191SOL    HW225473   4.440   4.906   0.961
 8192SOL     OW25474   6.726   5.619   2.835
 8192SOL    HW125475   6.659   5.681   2.877
 8192SOL    HW225476   6.691   5.526   2.837
 8193SOL     OW25477   0.920   5.154   4.842
 8193SOL    HW125478   0.903   5.238   4.893
 8193SOL    HW225479   0.972   5.090   4.899
 8194SOL     OW25480   6.062   6.450   1.791
 8194SOL    HW125481   6.143   6.491   1.833
 8194SOL    HW225482   6.029   6.509   1.717
 8195SOL     OW25483   6.090   6.735   3.199
 8195SOL    HW125484   6.100   6.711   3.296
 8195SOL    HW225485   5.997   6.769   3.183
 8196SOL     OW25486   5.666   6.952   2.816
 8196SOL    HW125487   5.635   0.014   2.772
 8196SOL    HW225488   5.601   6.879   2.796
 8197SOL     OW25489   3.764   0.896   3.686
 8197SOL    HW125490   3.777   0.905   3.785
 8197SOL    HW225491   3.843   0.849   3.646
 8198SOL     OW25492   2.069   5.522   0.102
 8198SOL    HW125493   1.984   5.574   0.091
 8198SOL    HW225494   2.056   5.430   0.065
 8199SOL     OW25495   5.991   2.669   6.898
 8199SOL    HW125496   5.940   2.722   6.966
 8199SOL    HW225497   6.083   2.707   6.889
 8200SOL     OW25498   6.055   4.846   0.073
 8200SOL    HW125499   6.153   4.861   0.061
 8200SOL    HW225500   6.038   4.749   0.094
 8201SOL     OW25501   4.932   1.296   5.914
 8201SOL    HW125502   4.851   1.335   5.958
 8201SOL    HW225503   5.003   1.281   5.983
 8202SOL     OW25504   0.358   6.150   2.299
 8202SOL    HW125505   0.314   6.234   2.331
 8202SOL    HW225506   0.380   6.092   2.378
 8203SOL     OW25507   0.753   3.173   0.376
 8203SOL    HW125508   0.697   3.137   0.450
 8203SOL    HW225509   0.742   3.115   0.295
 8204SOL     OW25510   1.066   3.524   0.165
 8204SOL    HW125511   1.143   3.565   0.214
 8204SOL    HW225512   1.005   3.597   0.133
 8205SOL     OW25513   0.280   4.618   6.093
 8205SOL    HW125514   0.333   4.593   6.174
 8205SOL    HW225515   0.241   4.709   6.106
 8206SOL     OW25516   3.399   1.541   1.044
 8206SOL    HW125517   3.358   1.465   1.096
 8206SOL    HW225518   3.349   1.625   1.063
 8207SOL     OW25519   3.620   3.134   3.826
 8207SOL    HW125520   3.633   3.232   3.813
 8207SOL    HW225521   3.527   3.109   3.797
 8208SOL     OW25522   4.229   6.901   5.330
 8208SOL    HW125523   4.130   6.916   5.327
 8208SOL    HW225524   4.273   6.976   5.379
 8209SOL     OW25525   5.059   3.493   3.833
 8209SOL    HW125526   5.158   3.503   3.829
 8209SOL    HW225527   5.023   3.473   3.741
 8210SOL     OW25528   1.585   2.342   5.704
 8210SOL    HW125529   1.569   2.440   5.697
 8210SOL    HW225530   1.680   2.322   5.680
 8211SOL     OW25531   4.208   4.264   0.846
 8211SOL    HW125532   4.188   4.216   0.761
 8211SOL    HW225533   4.212   4.198   0.921
 8212SOL     OW25534   2.123   3.936   2.669
 8212SOL    HW125535   2.118   3.918   2.571
 8212SOL    HW225536   2.084   3.859   2.719
 8213SOL     OW25537   6.640   3.996   0.517
 8213SOL    HW125538   6.729   3.970   0.554
 8213SOL    HW225539   6.569   3.975   0.584
 8214SOL     OW25540   5.161   3.063   3.311
 8214SOL    HW125541   5.198   3.100   3.226
 8214SOL    HW225542   5.061   3.076   3.313
 8215SOL     OW25543   3.001   4.428   1.474
 8215SOL    HW125544   3.011   4.390   1.566
 8215SOL    HW225545   2.979   4.355   1.409
 8216SOL     OW25546   5.359   2.893   5.523
 8216SOL    HW125547   5.316   2.884   5.433
 8216SOL    HW225548   5.320   2.825   5.585
 8217SOL     OW25549   2.020   5.875   6.785
 8217SOL    HW125550   1.956   5.904   6.856
 8217SOL    HW225551   2.092   5.819   6.826
 8218SOL     OW25552   4.276   1.476   0.100
 8218SOL    HW125553   4.353   1.414   0.085
 8218SOL    HW225554   4.229   1.452   0.185
 8219SOL     OW25555   5.575   3.308   6.978
 8219SOL    HW125556   5.477   3.330   6.974
 8219SOL    HW225557   5.598   3.244   6.904
 8220SOL     OW25558   3.854   3.280   1.527
 8220SOL    HW125559   3.916   3.202   1.527
 8220SOL    HW225560   3.759   3.247   1.526
 8221SOL     OW25561   5.535   3.630   3.979
 8221SOL    HW125562   5.485   3.716   3.970
 8221SOL    HW225563   5.471   3.555   3.996
 8222SOL     OW25564   5.783   1.437   2.904
 8222SOL    HW125565   5.835   1.511   2.947
 8222SOL    HW225566   5.780   1.452   2.805
 8223SOL     OW25567   0.844   3.478   6.860
 8223SOL    HW125568   0.912   3.536   6.906
 8223SOL    HW225569   0.802   3.417   6.927
 8224SOL     OW25570   1.139   3.448   2.640
 8224SOL    HW125571   1.220   3.428   2.584
 8224SOL    HW225572   1.086   3.364   2.653
 8225SOL     OW25573   5.502   0.137   1.016
 8225SOL    HW125574   5.454   0.222   1.039
 8225SOL    HW225575   5.546   0.101   1.098
 8226SOL     OW25576   4.216   0.613   7.001
 8226SOL    HW125577   4.249   0.586   0.069
 8226SOL    HW225578   4.265   0.562   6.931
 8227SOL     OW25579   6.012   4.803   3.275
 8227SOL    HW125580   5.969   4.768   3.358
 8227SOL    HW225581   6.108   4.825   3.294
 8228SOL     OW25582   6.993   1.294   3.373
 8228SOL    HW125583   0.033   1.216   3.364
 8228SOL    HW225584   6.902   1.261   3.396
 8229SOL     OW25585   5.797   4.827   6.682
 8229SOL    HW125586   5.764   4.908   6.633
 8229SOL    HW225587   5.746   4.747   6.652
 8230SOL     OW25588   4.839   0.141   2.971
 8230SOL    HW125589   4.769   0.202   3.007
 8230SOL    HW225590   4.829   0.050   3.012
 8231SOL     OW25591   3.403   5.419   1.546
 8231SOL    HW125592   3.353   5.412   1.459
 8231SOL    HW225593   3.343   5.393   1.621
 8232SOL     OW25594   2.913   1.536   0.541
 8232SOL    HW125595   3.002   1.518   0.581
 8232SOL    HW225596   2.841   1.496   0.598
 8233SOL     OW25597   0.891   6.031   6.033
 8233SOL    HW125598   0.900   5.999   5.939
 8233SOL    HW225599   0.944   5.972   6.094
 8234SOL     OW25600   1.626   3.124   6.831
 8234SOL    HW125601   1.545   3.081   6.871
 8234SOL    HW225602   1.608   3.147   6.736
 8235SOL     OW25603   4.707   2.657   6.629
 8235SOL    HW125604   4.638   2.605   6.679
 8235SOL    HW225605   4.726   2.743   6.676
 8236SOL     OW25606   6.411   2.444   1.874
 8236SOL    HW125607   6.446   2.354   1.848
 8236SOL    HW225608   6.484   2.498   1.916
 8237SOL     OW25609   4.027   6.459   5.338
 8237SOL    HW125610   3.971   6.378   5.325
 8237SOL    HW225611   4.009   6.498   5.429
 8238SOL     OW25612   0.741   1.585   5.337
 8238SOL    HW125613   0.716   1.627   5.250
 8238SOL    HW225614   0.659   1.555   5.385
 8239SOL     OW25615   5.094   1.257   6.134
 8239SOL    HW125616   5.183   1.212   6.132
 8239SOL    HW225617   5.057   1.255   6.227
 8240SOL     OW25618   2.951   3.258   2.855
 8240SOL    HW125619   2.933   3.232   2.949
 8240SOL    HW225620   3.013   3.336   2.852
 8241SOL     OW25621   3.635   5.927   1.221
 8241SOL    HW125622   3.688   5.962   1.298
 8241SOL    HW225623   3.544   5.968   1.221
 8242SOL     OW25624   1.858   4.731   4.720
 8242SOL    HW125625   1.773   4.705   4.674
 8242SOL    HW225626   1.880   4.825   4.697
 8243SOL     OW25627   0.230   4.112   4.255
 8243SOL    HW125628   0.268   4.042   4.315
 8243SOL    HW225629   0.154   4.158   4.302
 8244SOL     OW25630   3.343   5.967   5.355
 8244SOL    HW125631   3.294   6.008   5.432
 8244SOL    HW225632   3.325   6.020   5.272
 8245SOL     OW25633   4.519   4.153   1.112
 8245SOL    HW125634   4.551   4.065   1.077
 8245SOL    HW225635   4.578   4.226   1.076
 8246SOL     OW25636   6.236   2.789   5.115
 8246SOL    HW125637   6.212   2.726   5.189
 8246SOL    HW225638   6.167   2.783   5.043
 8247SOL     OW25639   1.298   6.107   0.231
 8247SOL    HW125640   1.388   6.075   0.258
 8247SOL    HW225641   1.293   6.111   0.131
 8248SOL     OW25642   6.538   3.849   3.197
 8248SOL    HW125643   6.561   3.937   3.155
 8248SOL    HW225644   6.622   3.797   3.214
 8249SOL     OW25645   1.167   5.398   3.276
 8249SOL    HW125646   1.167   5.493   3.306
 8249SOL    HW225647   1.139   5.338   3.350
 8250SOL     OW25648   3.075   3.089   2.661
 8250SOL    HW125649   3.022   3.157   2.711
 8250SOL    HW225650   3.094   3.011   2.721
 8251SOL     OW25651   5.851   0.822   4.189
 8251SOL    HW125652   5.858   0.921   4.199
 8251SOL    HW225653   5.827   0.800   4.094
 8252SOL     OW25654   1.301   4.105   4.344
 8252SOL    HW125655   1.291   4.148   4.254
 8252SOL    HW225656   1.290   4.006   4.335
 8253SOL     OW25657   2.766   3.113   6.314
 8253SOL    HW125658   2.839   3.044   6.311
 8253SOL    HW225659   2.758   3.157   6.225
 8254SOL     OW25660   4.628   4.428   2.587
 8254SOL    HW125661   4.627   4.410   2.489
 8254SOL    HW225662   4.551   4.487   2.611
 8255SOL     OW25663   4.730   5.856   3.579
 8255SOL    HW125664   4.770   5.899   3.498
 8255SOL    HW225665   4.797   5.795   3.621
 8256SOL     OW25666   5.506   1.869   3.025
 8256SOL    HW125667   5.601   1.901   3.033
 8256SOL    HW225668   5.492   1.792   3.087
 8257SOL     OW25669   6.420   4.503   3.910
 8257SOL    HW125670   6.461   4.509   4.002
 8257SOL    HW225671   6.463   4.571   3.850
 8258SOL     OW25672   5.548   1.889   0.854
 8258SOL    HW125673   5.638   1.932   0.860
 8258SOL    HW225674   5.510   1.879   0.946
 8259SOL     OW25675   4.807   0.567   1.373
 8259SOL    HW125676   4.900   0.539   1.349
 8259SOL    HW225677   4.758   0.592   1.289
 8260SOL     OW25678   3.556   5.370   6.092
 8260SOL    HW125679   3.512   5.303   6.152
 8260SOL    HW225680   3.501   5.382   6.010
 8261SOL     OW25681   4.597   1.616   1.408
 8261SOL    HW125682   4.621   1.519   1.403
 8261SOL    HW225683   4.654   1.668   1.344
 8262SOL     OW25684   6.351   2.679   2.112
 8262SOL    HW125685   6.284   2.607   2.133
 8262SOL    HW225686   6.321   2.731   2.033
 8263SOL     OW25687   6.304   2.088   0.191
 8263SOL    HW125688   6.307   1.990   0.211
 8263SOL    HW225689   6.239   2.133   0.253
 8264SOL     OW25690   1.150   4.125   2.185
 8264SOL    HW125691   1.144   4.100   2.282
 8264SOL    HW225692   1.236   4.175   2.169
 8265SOL     OW25693   2.168   0.537   2.325
 8265SOL    HW125694   2.222   0.463   2.365
 8265SOL    HW225695   2.092   0.498   2.272
 8266SOL     OW25696   2.606   0.989   2.666
 8266SOL    HW125697   2.651   1.033   2.588
 8266SOL    HW225698   2.577   1.059   2.731
 8267SOL     OW25699   6.733   2.690   1.749
 8267SOL    HW125700   6.680   2.693   1.664
 8267SOL    HW225701   6.830   2.692   1.728
 8268SOL     OW25702   1.775   4.333   0.172
 8268SOL    HW125703   1.797   4.236   0.166
 8268SOL    HW225704   1.676   4.345   0.174
 8269SOL     OW25705   5.758   2.224   6.936
 8269SOL    HW125706   5.661   2.232   6.916
 8269SOL    HW225707   5.803   2.312   6.919
 8270SOL     OW25708   1.646   6.148   4.325
 8270SOL    HW125709   1.722   6.083   4.323
 8270SOL    HW225710   1.623   6.170   4.419
 8271SOL     OW25711   0.573   2.081   3.389
 8271SOL    HW125712   0.557   2.153   3.456
 8271SOL    HW225713   0.501   2.012   3.394
 8272SOL     OW25714   3.753   1.920   3.987
 8272SOL    HW125715   3.670   1.960   4.026
 8272SOL    HW225716   3.812   1.993   3.951
 8273SOL     OW25717   1.996   6.415   0.681
 8273SOL    HW125718   2.027   6.509   0.692
 8273SOL    HW225719   1.948   6.404   0.594
 8274SOL     OW25720   5.305   4.006   3.583
 8274SOL    HW125721   5.234   3.969   3.642
 8274SOL    HW225722   5.266   4.074   3.520
 8275SOL     OW25723   6.791   2.281   0.162
 8275SOL    HW125724   6.720   2.255   0.096
 8275SOL    HW225725   6.858   2.207   0.170
 8276SOL     OW25726   1.651   1.746   3.296
 8276SOL    HW125727   1.673   1.750   3.199
 8276SOL    HW225728   1.558   1.780   3.311
 8277SOL     OW25729   6.975   0.920   0.819
 8277SOL    HW125730   0.048   0.948   0.828
 8277SOL    HW225731   6.960   0.883   0.727
 8278SOL     OW25732   0.806   2.562   0.790
 8278SOL    HW125733   0.726   2.581   0.733
 8278SOL    HW225734   0.791   2.598   0.882
 8279SOL     OW25735   0.034   6.671   3.897
 8279SOL    HW125736   6.974   6.629   3.858
 8279SOL    HW225737   0.058   6.626   3.983
 8280SOL     OW25738   3.672   2.965   6.382
 8280SOL    HW125739   3.624   2.937   6.299
 8280SOL    HW225740   3.713   2.885   6.426
 8281SOL     OW25741   4.003   4.640   1.829
 8281SOL    HW125742   3.918   4.668   1.784
 8281SOL    HW225743   4.079   4.693   1.790
 8282SOL     OW25744   6.892   3.363   6.022
 8282SOL    HW125745   6.854   3.275   5.992
 8282SOL    HW225746   6.882   3.431   5.949
 8283SOL     OW25747   2.255   2.320   5.724
 8283SOL    HW125748   2.212   2.346   5.638
 8283SOL    HW225749   2.295   2.402   5.767
 8284SOL     OW25750   6.479   4.823   1.922
 8284SOL    HW125751   6.430   4.746   1.963
 8284SOL    HW225752   6.420   4.868   1.856
 8285SOL     OW25753   3.641   2.868   4.397
 8285SOL    HW125754   3.623   2.781   4.352
 8285SOL    HW225755   3.738   2.890   4.389
 8286SOL     OW25756   0.691   2.123   0.239
 8286SOL    HW125757   0.636   2.146   0.319
 8286SOL    HW225758   0.764   2.190   0.228
 8287SOL     OW25759   1.337   0.315   4.342
 8287SOL    HW125760   1.375   0.231   4.381
 8287SOL    HW225761   1.244   0.297   4.309
 8288SOL     OW25762   2.625   1.278   3.203
 8288SOL    HW125763   2.542   1.258   3.254
 8288SOL    HW225764   2.678   1.194   3.191
 8289SOL     OW25765   1.014   6.422   0.184
 8289SOL    HW125766   0.953   6.351   0.218
 8289SOL    HW225767   0.962   6.490   0.133
 8290SOL     OW25768   6.472   2.042   1.442
 8290SOL    HW125769   6.530   2.100   1.498
 8290SOL    HW225770   6.404   2.097   1.396
 8291SOL     OW25771   4.158   0.672   1.903
 8291SOL    HW125772   4.255   0.669   1.878
 8291SOL    HW225773   4.108   0.724   1.834
 8292SOL     OW25774   2.704   0.689   6.397
 8292SOL    HW125775   2.735   0.739   6.477
 8292SOL    HW225776   2.604   0.689   6.393
 8293SOL     OW25777   6.330   5.292   5.562
 8293SOL    HW125778   6.293   5.233   5.490
 8293SOL    HW225779   6.350   5.383   5.524
 8294SOL     OW25780   6.454   2.856   0.294
 8294SOL    HW125781   6.379   2.871   0.230
 8294SOL    HW225782   6.428   2.887   0.385
 8295SOL     OW25783   5.353   2.408   6.078
 8295SOL    HW125784   5.450   2.383   6.087
 8295SOL    HW225785   5.299   2.355   6.143
 8296SOL     OW25786   0.536   5.235   5.465
 8296SOL    HW125787   0.501   5.166   5.529
 8296SOL    HW225788   0.494   5.221   5.375
 8297SOL     OW25789   1.343   3.829   3.945
 8297SOL    HW125790   1.402   3.759   3.905
 8297SOL    HW225791   1.387   3.919   3.935
 8298SOL     OW25792   4.262   2.308   2.644
 8298SOL    HW125793   4.287   2.303   2.547
 8298SOL    HW225794   4.163   2.316   2.652
 8299SOL     OW25795   5.949   1.328   1.334
 8299SOL    HW125796   5.971   1.232   1.347
 8299SOL    HW225797   5.865   1.350   1.384
 8300SOL     OW25798   0.923   5.365   2.756
 8300SOL    HW125799   0.958   5.273   2.769
 8300SOL    HW225800   1.000   5.429   2.750
 8301SOL     OW25801   3.741   0.860   5.865
 8301SOL    HW125802   3.642   0.851   5.858
 8301SOL    HW225803   3.782   0.770   5.880
 8302SOL     OW25804   6.994   5.567   6.879
 8302SOL    HW125805   0.003   5.529   6.966
 8302SOL    HW225806   0.050   5.590   6.822
 8303SOL     OW25807   0.176   0.361   0.755
 8303SOL    HW125808   0.276   0.364   0.764
 8303SOL    HW225809   0.144   0.446   0.712
 8304SOL     OW25810   6.988   3.454   0.273
 8304SOL    HW125811   6.897   3.470   0.312
 8304SOL    HW225812   0.027   3.421   0.345
 8305SOL     OW25813   3.106   5.746   2.245
 8305SOL    HW125814   3.066   5.819   2.300
 8305SOL    HW225815   3.149   5.679   2.305
 8306SOL     OW25816   2.391   1.586   3.418
 8306SOL    HW125817   2.408   1.683   3.438
 8306SOL    HW225818   2.383   1.574   3.319
 8307SOL     OW25819   3.652   6.321   1.162
 8307SOL    HW125820   3.631   6.223   1.163
 8307SOL    HW225821   3.574   6.371   1.126
 8308SOL     OW25822   2.929   0.552   1.769
 8308SOL    HW125823   2.844   0.601   1.750
 8308SOL    HW225824   2.972   0.523   1.684
 8309SOL     OW25825   6.230   6.385   2.354
 8309SOL    HW125826   6.195   6.300   2.314
 8309SOL    HW225827   6.314   6.365   2.405
 8310SOL     OW25828   6.594   4.761   6.456
 8310SOL    HW125829   6.499   4.790   6.459
 8310SOL    HW225830   6.634   4.785   6.368
 8311SOL     OW25831   6.543   1.134   6.107
 8311SOL    HW125832   6.623   1.146   6.166
 8311SOL    HW225833   6.563   1.066   6.036
 8312SOL     OW25834   4.674   5.909   1.652
 8312SOL    HW125835   4.723   5.827   1.682
 8312SOL    HW225836   4.607   5.935   1.721
 8313SOL     OW25837   3.650   1.820   2.912
 8313SOL    HW125838   3.603   1.796   2.827
 8313SOL    HW225839   3.684   1.737   2.956
 8314SOL     OW25840   6.637   0.120   4.599
 8314SOL    HW125841   6.688   0.036   4.579
 8314SOL    HW225842   6.540   0.098   4.609
 8315SOL     OW25843   5.646   4.372   0.234
 8315SOL    HW125844   5.563   4.327   0.202
 8315SOL    HW225845   5.669   4.338   0.325
 8316SOL     OW25846   2.762   5.156   6.227
 8316SOL    HW125847   2.846   5.110   6.257
 8316SOL    HW225848   2.766   5.253   6.253
 8317SOL     OW25849   2.456   4.855   1.850
 8317SOL    HW125850   2.463   4.955   1.853
 8317SOL    HW225851   2.548   4.815   1.848
 8318SOL     OW25852   3.404   1.328   6.000
 8318SOL    HW125853   3.397   1.232   5.976
 8318SOL    HW225854   3.459   1.338   6.083
 8319SOL     OW25855   2.234   0.676   5.171
 8319SOL    HW125856   2.202   0.744   5.105
 8319SOL    HW225857   2.331   0.691   5.190
 8320SOL     OW25858   3.266   5.125   0.998
 8320SOL    HW125859   3.346   5.157   1.048
 8320SOL    HW225860   3.184   5.138   1.054
 8321SOL     OW25861   6.597   1.347   1.674
 8321SOL    HW125862   6.591   1.357   1.774
 8321SOL    HW225863   6.680   1.390   1.641
 8322SOL     OW25864   5.451   6.272   0.467
 8322SOL    HW125865   5.457   6.245   0.371
 8322SOL    HW225866   5.461   6.191   0.525
 8323SOL     OW25867   1.322   0.889   1.570
 8323SOL    HW125868   1.252   0.831   1.612
 8323SOL    HW225869   1.318   0.981   1.609
 8324SOL     OW25870   6.580   0.704   3.018
 8324SOL    HW125871   6.634   0.669   2.941
 8324SOL    HW225872   6.502   0.643   3.034
 8325SOL     OW25873   3.256   3.587   4.922
 8325SOL    HW125874   3.254   3.573   5.021
 8325SOL    HW225875   3.335   3.539   4.883
 8326SOL     OW25876   4.689   2.772   5.711
 8326SOL    HW125877   4.780   2.753   5.747
 8326SOL    HW225878   4.626   2.701   5.740
 8327SOL     OW25879   4.883   2.587   6.028
 8327SOL    HW125880   4.844   2.499   6.000
 8327SOL    HW225881   4.925   2.577   6.118
 8328SOL     OW25882   1.914   2.341   3.776
 8328SOL    HW125883   1.946   2.434   3.795
 8328SOL    HW225884   1.948   2.312   3.686
 8329SOL     OW25885   1.205   4.251   5.007
 8329SOL    HW125886   1.302   4.268   4.987
 8329SOL    HW225887   1.196   4.226   5.104
 8330SOL     OW25888   2.690   0.093   6.531
 8330SOL    HW125889   2.725   0.000   6.516
 8330SOL    HW225890   2.686   0.141   6.443
 8331SOL     OW25891   1.974   0.350   0.613
 8331SOL    HW125892   2.061   0.310   0.643
 8331SOL    HW225893   1.917   0.278   0.573
 8332SOL     OW25894   4.974   6.597   3.162
 8332SOL    HW125895   5.038   6.619   3.088
 8332SOL    HW225896   4.881   6.616   3.131
 8333SOL     OW25897   2.457   4.393   5.306
 8333SOL    HW125898   2.487   4.427   5.395
 8333SOL    HW225899   2.481   4.460   5.235
 8334SOL     OW25900   6.535   0.153   2.948
 8334SOL    HW125901   6.489   0.073   2.910
 8334SOL    HW225902   6.630   0.131   2.968
 8335SOL     OW25903   6.387   5.492   4.975
 8335SOL    HW125904   6.311   5.506   4.912
 8335SOL    HW225905   6.406   5.578   5.024
 8336SOL     OW25906   1.545   1.489   2.527
 8336SOL    HW125907   1.446   1.504   2.519
 8336SOL    HW225908   1.562   1.398   2.564
 8337SOL     OW25909   6.369   6.572   2.961
 8337SOL    HW125910   6.412   6.591   3.049
 8337SOL    HW225911   6.396   6.642   2.895
 8338SOL     OW25912   2.882   5.703   0.562
 8338SOL    HW125913   2.811   5.771   0.575
 8338SOL    HW225914   2.922   5.679   0.651
 8339SOL     OW25915   5.336   0.840   2.972
 8339SOL    HW125916   5.303   0.751   2.941
 8339SOL    HW225917   5.423   0.828   3.021
 8340SOL     OW25918   5.163   3.824   2.168
 8340SOL    HW125919   5.124   3.738   2.200
 8340SOL    HW225920   5.094   3.875   2.117
 8341SOL     OW25921   1.740   0.508   6.916
 8341SOL    HW125922   1.650   0.537   6.884
 8341SOL    HW225923   1.745   0.408   6.912
 8342SOL     OW25924   5.640   6.720   0.957
 8342SOL    HW125925   5.715   6.769   0.999
 8342SOL    HW225926   5.567   6.784   0.932
 8343SOL     OW25927   0.019   4.225   4.390
 8343SOL    HW125928   6.981   4.151   4.360
 8343SOL    HW225929   6.987   4.302   4.420
 8344SOL     OW25930   4.015   0.116   4.700
 8344SOL    HW125931   3.961   0.076   4.626
 8344SOL    HW225932   4.023   0.049   4.774
 8345SOL     OW25933   5.633   1.393   3.277
 8345SOL    HW125934   5.603   1.366   3.369
 8345SOL    HW225935   5.554   1.402   3.217
 8346SOL     OW25936   3.877   5.293   1.831
 8346SOL    HW125937   3.831   5.208   1.809
 8346SOL    HW225938   3.831   5.369   1.784
 8347SOL     OW25939   3.023   5.505   4.054
 8347SOL    HW125940   3.088   5.554   4.112
 8347SOL    HW225941   2.996   5.420   4.100
 8348SOL     OW25942   2.248   0.130   0.414
 8348SOL    HW125943   2.200   0.081   0.486
 8348SOL    HW225944   2.196   0.123   0.329
 8349SOL     OW25945   6.094   4.609   2.849
 8349SOL    HW125946   6.148   4.549   2.790
 8349SOL    HW225947   6.005   4.567   2.866
 8350SOL     OW25948   6.527   0.501   4.524
 8350SOL    HW125949   6.441   0.493   4.574
 8350SOL    HW225950   6.601   0.526   4.587
 8351SOL     OW25951   2.132   6.676   2.359
 8351SOL    HW125952   2.113   6.624   2.442
 8351SOL    HW225953   2.085   6.634   2.282
 8352SOL     OW25954   5.592   6.220   2.146
 8352SOL    HW125955   5.624   6.176   2.062
 8352SOL    HW225956   5.588   6.319   2.131
 8353SOL     OW25957   2.303   3.789   1.359
 8353SOL    HW125958   2.352   3.711   1.396
 8353SOL    HW225959   2.368   3.854   1.320
 8354SOL     OW25960   3.274   0.060   0.567
 8354SOL    HW125961   3.188   0.037   0.612
 8354SOL    HW225962   3.293   7.015   0.495
 8355SOL     OW25963   2.190   1.577   0.425
 8355SOL    HW125964   2.156   1.483   0.428
 8355SOL    HW225965   2.190   1.616   0.517
 8356SOL     OW25966   2.663   4.953   0.657
 8356SOL    HW125967   2.663   4.921   0.562
 8356SOL    HW225968   2.679   4.876   0.718
 8357SOL     OW25969   3.339   6.524   1.978
 8357SOL    HW125970   3.307   6.549   1.887
 8357SOL    HW225971   3.315   6.596   2.044
 8358SOL     OW25972   3.246   1.665   5.382
 8358SOL    HW125973   3.271   1.619   5.467
 8358SOL    HW225974   3.322   1.657   5.317
 8359SOL     OW25975   4.037   4.789   4.241
 8359SOL    HW125976   4.081   4.877   4.260
 8359SOL    HW225977   4.031   4.776   4.142
 8360SOL     OW25978   4.394   0.589   3.403
 8360SOL    HW125979   4.309   0.540   3.419
 8360SOL    HW225980   4.381   0.686   3.426
 8361SOL     OW25981   1.353   0.575   3.010
 8361SOL    HW125982   1.306   0.514   2.947
 8361SOL    HW225983   1.285   0.635   3.054
 8362SOL     OW25984   3.524   3.162   0.672
 8362SOL    HW125985   3.499   3.067   0.690
 8362SOL    HW225986   3.612   3.182   0.716
 8363SOL     OW25987   7.019   2.601   1.688
 8363SOL    HW125988   0.036   2.654   1.613
 8363SOL    HW225989   0.060   2.599   1.765
 8364SOL     OW25990   6.901   5.020   5.220
 8364SOL    HW125991   6.999   5.003   5.229
 8364SOL    HW225992   6.856   4.937   5.187
 8365SOL     OW25993   2.046   3.901   5.938
 8365SOL    HW125994   2.105   3.844   5.881
 8365SOL    HW225995   1.968   3.847   5.970
 8366SOL     OW25996   2.029   6.635   1.371
 8366SOL    HW125997   1.931   6.630   1.390
 8366SOL    HW225998   2.050   6.720   1.323
 8367SOL     OW25999   4.949   5.707   3.622
 8367SOL    HW126000   4.948   5.638   3.695
 8367SOL    HW226001   5.013   5.678   3.550
 8368SOL     OW26002   2.687   5.142   5.970
 8368SOL    HW126003   2.699   5.238   5.943
 8368SOL    HW226004   2.710   5.132   6.067
 8369SOL     OW26005   1.429   1.815   2.053
 8369SOL    HW126006   1.449   1.815   2.151
 8369SOL    HW226007   1.408   1.722   2.022
 8370SOL     OW26008   2.373   0.858   0.601
 8370SOL    HW126009   2.460   0.901   0.579
 8370SOL    HW226010   2.309   0.870   0.525
 8371SOL     OW26011   1.518   2.775   0.099
 8371SOL    HW126012   1.448   2.704   0.104
 8371SOL    HW226013   1.607   2.736   0.126
 8372SOL     OW26014   5.848   0.752   0.096
 8372SOL    HW126015   5.940   0.793   0.096
 8372SOL    HW226016   5.853   0.661   0.054
 8373SOL     OW26017   2.037   6.618   3.537
 8373SOL    HW126018   1.956   6.569   3.571
 8373SOL    HW226019   2.040   6.709   3.579
 8374SOL     OW26020   6.745   1.827   5.914
 8374SOL    HW126021   6.770   1.904   5.856
 8374SOL    HW226022   6.646   1.813   5.910
 8375SOL     OW26023   4.196   0.512   6.347
 8375SOL    HW126024   4.176   0.415   6.365
 8375SOL    HW226025   4.143   0.569   6.409
 8376SOL     OW26026   4.821   0.347   4.137
 8376SOL    HW126027   4.783   0.437   4.160
 8376SOL    HW226028   4.752   0.277   4.154
 8377SOL     OW26029   4.233   4.644   0.302
 8377SOL    HW126030   4.259   4.719   0.362
 8377SOL    HW226031   4.268   4.558   0.339
 8378SOL     OW26032   5.182   3.651   3.390
 8378SOL    HW126033   5.173   3.690   3.482
 8378SOL    HW226034   5.174   3.551   3.396
 8379SOL     OW26035   5.365   3.005   2.979
 8379SOL    HW126036   5.393   2.911   2.996
 8379SOL    HW226037   5.393   3.033   2.887
 8380SOL     OW26038   5.748   1.251   4.595
 8380SOL    HW126039   5.664   1.227   4.548
 8380SOL    HW226040   5.729   1.265   4.692
 8381SOL     OW26041   2.028   5.047   4.953
 8381SOL    HW126042   2.105   4.986   4.975
 8381SOL    HW226043   2.063   5.138   4.931
 8382SOL     OW26044   0.575   4.376   1.475
 8382SOL    HW126045   0.548   4.285   1.445
 8382SOL    HW226046   0.647   4.368   1.544
 8383SOL     OW26047   3.627   1.308   5.417
 8383SOL    HW126048   3.650   1.404   5.435
 8383SOL    HW226049   3.554   1.279   5.480
 8384SOL     OW26050   0.464   0.309   1.673
 8384SOL    HW126051   0.422   0.329   1.761
 8384SOL    HW226052   0.393   0.281   1.608
 8385SOL     OW26053   4.161   2.266   1.507
 8385SOL    HW126054   4.196   2.286   1.416
 8385SOL    HW226055   4.182   2.342   1.569
 8386SOL     OW26056   0.207   2.239   1.623
 8386SOL    HW126057   0.125   2.181   1.625
 8386SOL    HW226058   0.288   2.184   1.643
 8387SOL     OW26059   0.555   2.401   3.009
 8387SOL    HW126060   0.564   2.309   3.047
 8387SOL    HW226061   0.564   2.397   2.909
 8388SOL     OW26062   1.368   6.967   2.723
 8388SOL    HW126063   1.431   6.927   2.790
 8388SOL    HW226064   1.392   6.933   2.632
 8389SOL     OW26065   6.741   2.314   3.998
 8389SOL    HW126066   6.742   2.301   3.899
 8389SOL    HW226067   6.700   2.403   4.019
 8390SOL     OW26068   6.648   2.682   6.712
 8390SOL    HW126069   6.724   2.635   6.667
 8390SOL    HW226070   6.662   2.682   6.811
 8391SOL     OW26071   6.092   0.628   0.593
 8391SOL    HW126072   6.168   0.653   0.653
 8391SOL    HW226073   6.093   0.529   0.578
 8392SOL     OW26074   3.720   2.996   4.653
 8392SOL    HW126075   3.802   3.050   4.640
 8392SOL    HW226076   3.706   2.936   4.574
 8393SOL     OW26077   5.577   0.512   0.473
 8393SOL    HW126078   5.510   0.438   0.472
 8393SOL    HW226079   5.636   0.504   0.392
 8394SOL     OW26080   4.878   3.608   3.238
 8394SOL    HW126081   4.879   3.514   3.273
 8394SOL    HW226082   4.971   3.637   3.216
 8395SOL     OW26083   1.846   1.390   6.071
 8395SOL    HW126084   1.780   1.326   6.109
 8395SOL    HW226085   1.834   1.395   5.972
 8396SOL     OW26086   5.267   5.067   4.226
 8396SOL    HW126087   5.270   5.144   4.288
 8396SOL    HW226088   5.342   5.004   4.246
 8397SOL     OW26089   5.855   6.433   3.003
 8397SOL    HW126090   5.845   6.496   3.079
 8397SOL    HW226091   5.855   6.339   3.037
 8398SOL     OW26092   5.646   1.653   5.986
 8398SOL    HW126093   5.718   1.590   5.956
 8398SOL    HW226094   5.582   1.670   5.911
 8399SOL     OW26095   0.313   4.062   2.911
 8399SOL    HW126096   0.325   4.058   2.811
 8399SOL    HW226097   0.251   3.990   2.940
 8400SOL     OW26098   1.244   0.729   4.222
 8400SOL    HW126099   1.171   0.705   4.158
 8400SOL    HW226100   1.210   0.793   4.290
 8401SOL     OW26101   1.501   0.266   6.340
 8401SOL    HW126102   1.582   0.212   6.316
 8401SOL    HW226103   1.526   0.333   6.411
 8402SOL     OW26104   3.143   1.191   5.815
 8402SOL    HW126105   3.181   1.283   5.812
 8402SOL    HW226106   3.213   1.127   5.847
 8403SOL     OW26107   5.723   4.270   6.228
 8403SOL    HW126108   5.673   4.347   6.269
 8403SOL    HW226109   5.792   4.237   6.293
 8404SOL     OW26110   1.774   1.098   0.105
 8404SOL    HW126111   1.863   1.126   0.070
 8404SOL    HW226112   1.716   1.067   0.030
 8405SOL     OW26113   3.464   6.691   5.500
 8405SOL    HW126114   3.417   6.738   5.575
 8405SOL    HW226115   3.418   6.604   5.481
 8406SOL     OW26116   6.328   1.010   6.242
 8406SOL    HW126117   6.382   1.000   6.325
 8406SOL    HW226118   6.361   1.089   6.190
 8407SOL     OW26119   5.133   0.326   5.288
 8407SOL    HW126120   5.068   0.326   5.364
 8407SOL    HW226121   5.084   0.330   5.201
 8408SOL     OW26122   3.475   2.132   1.362
 8408SOL    HW126123   3.509   2.173   1.447
 8408SOL    HW226124   3.379   2.157   1.350
 8409SOL     OW26125   4.780   2.861   1.777
 8409SOL    HW126126   4.769   2.922   1.855
 8409SOL    HW226127   4.692   2.845   1.734
 8410SOL     OW26128   6.665   2.222   1.551
 8410SOL    HW126129   6.738   2.172   1.505
 8410SOL    HW226130   6.704   2.278   1.624
 8411SOL     OW26131   0.663   5.251   1.472
 8411SOL    HW126132   0.654   5.179   1.404
 8411SOL    HW226133   0.748   5.237   1.523
 8412SOL     OW26134   2.234   2.320   6.939
 8412SOL    HW126135   2.330   2.296   6.944
 8412SOL    HW226136   2.225   2.413   6.902
 8413SOL     OW26137   3.921   5.726   5.318
 8413SOL    HW126138   4.005   5.682   5.287
 8413SOL    HW226139   3.928   5.825   5.305
 8414SOL     OW26140   1.352   0.200   0.850
 8414SOL    HW126141   1.368   0.118   0.905
 8414SOL    HW226142   1.409   0.198   0.769
 8415SOL     OW26143   3.903   1.407   6.159
 8415SOL    HW126144   3.964   1.471   6.204
 8415SOL    HW226145   3.889   1.434   6.064
 8416SOL     OW26146   0.120   1.997   5.497
 8416SOL    HW126147   0.049   1.948   5.446
 8416SOL    HW226148   0.204   2.000   5.443
 8417SOL     OW26149   1.237   3.258   5.653
 8417SOL    HW126150   1.237   3.255   5.753
 8417SOL    HW226151   1.164   3.320   5.622
 8418SOL     OW26152   6.563   6.381   2.870
 8418SOL    HW126153   6.590   6.429   2.786
 8418SOL    HW226154   6.479   6.423   2.906
 8419SOL     OW26155   3.960   1.274   3.702
 8419SOL    HW126156   4.003   1.327   3.629
 8419SOL    HW226157   3.868   1.308   3.718
 8420SOL     OW26158   4.099   1.394   2.508
 8420SOL    HW126159   4.164   1.398   2.583
 8420SOL    HW226160   4.017   1.447   2.531
 8421SOL     OW26161   5.017   0.326   6.662
 8421SOL    HW126162   4.928   0.289   6.638
 8421SOL    HW226163   5.087   0.256   6.650
 8422SOL     OW26164   5.464   1.176   4.212
 8422SOL    HW126165   5.537   1.218   4.158
 8422SOL    HW226166   5.376   1.203   4.175
 8423SOL     OW26167   6.606   5.631   0.056
 8423SOL    HW126168   6.597   5.689   6.997
 8423SOL    HW226169   6.516   5.620   0.099
 8424SOL     OW26170   2.516   0.173   5.312
 8424SOL    HW126171   2.452   0.249   5.313
 8424SOL    HW226172   2.568   0.172   5.397
 8425SOL     OW26173   3.039   3.095   2.080
 8425SOL    HW126174   3.010   3.180   2.122
 8425SOL    HW226175   2.967   3.061   2.019
 8426SOL     OW26176   3.404   3.490   2.298
 8426SOL    HW126177   3.447   3.522   2.382
 8426SOL    HW226178   3.423   3.393   2.286
 8427SOL     OW26179   3.952   3.804   2.477
 8427SOL    HW126180   4.015   3.824   2.402
 8427SOL    HW226181   3.997   3.745   2.544
 8428SOL     OW26182   4.663   1.611   1.711
 8428SOL    HW126183   4.642   1.621   1.614
 8428SOL    HW226184   4.714   1.527   1.726
 8429SOL     OW26185   3.518   6.246   5.431
 8429SOL    HW126186   3.477   6.197   5.354
 8429SOL    HW226187   3.566   6.181   5.490
 8430SOL     OW26188   4.982   6.137   6.031
 8430SOL    HW126189   4.898   6.188   6.014
 8430SOL    HW226190   5.058   6.179   5.981
 8431SOL     OW26191   2.763   2.656   6.382
 8431SOL    HW126192   2.853   2.630   6.417
 8431SOL    HW226193   2.717   2.576   6.344
 8432SOL     OW26194   6.511   5.112   5.799
 8432SOL    HW126195   6.532   5.064   5.883
 8432SOL    HW226196   6.423   5.159   5.808
 8433SOL     OW26197   4.514   1.637   0.390
 8433SOL    HW126198   4.414   1.642   0.391
 8433SOL    HW226199   4.548   1.673   0.303
 8434SOL     OW26200   3.080   6.354   4.271
 8434SOL    HW126201   3.067   6.258   4.296
 8434SOL    HW226202   3.024   6.411   4.331
 8435SOL     OW26203   6.617   1.201   3.735
 8435SOL    HW126204   6.544   1.133   3.725
 8435SOL    HW226205   6.673   1.179   3.815
 8436SOL     OW26206   1.989   4.865   2.346
 8436SOL    HW126207   2.006   4.928   2.271
 8436SOL    HW226208   2.075   4.825   2.376
 8437SOL     OW26209   1.732   5.435   0.178
 8437SOL    HW126210   1.662   5.399   0.116
 8437SOL    HW226211   1.768   5.521   0.143
 8438SOL     OW26212   0.718   4.459   2.449
 8438SOL    HW126213   0.668   4.399   2.386
 8438SOL    HW226214   0.666   4.543   2.463
 8439SOL     OW26215   5.490   4.795   2.801
 8439SOL    HW126216   5.406   4.823   2.846
 8439SOL    HW226217   5.549   4.747   2.866
 8440SOL     OW26218   2.182   2.006   2.871
 8440SOL    HW126219   2.155   2.040   2.961
 8440SOL    HW226220   2.280   2.021   2.857
 8441SOL     OW26221   0.521   3.069   6.260
 8441SOL    HW126222   0.486   3.052   6.168
 8441SOL    HW226223   0.446   3.097   6.321
 8442SOL     OW26224   3.462   2.696   6.142
 8442SOL    HW126225   3.516   2.621   6.103
 8442SOL    HW226226   3.412   2.742   6.068
 8443SOL     OW26227   2.217   4.004   3.283
 8443SOL    HW126228   2.150   3.992   3.209
 8443SOL    HW226229   2.295   4.057   3.248
 8444SOL     OW26230   5.301   6.201   5.324
 8444SOL    HW126231   5.379   6.208   5.386
 8444SOL    HW226232   5.325   6.240   5.235
 8445SOL     OW26233   4.761   6.709   6.371
 8445SOL    HW126234   4.717   6.787   6.414
 8445SOL    HW226235   4.832   6.740   6.309
 8446SOL     OW26236   6.404   6.131   4.358
 8446SOL    HW126237   6.422   6.053   4.298
 8446SOL    HW226238   6.440   6.215   4.316
 8447SOL     OW26239   3.858   2.156   3.896
 8447SOL    HW126240   3.953   2.126   3.884
 8447SOL    HW226241   3.819   2.178   3.807
 8448SOL     OW26242   3.032   6.913   2.385
 8448SOL    HW126243   3.030   6.954   2.294
 8448SOL    HW226244   3.069   6.820   2.378
 8449SOL     OW26245   7.005   2.343   4.080
 8449SOL    HW126246   6.906   2.339   4.066
 8449SOL    HW226247   0.027   2.373   3.995
 8450SOL     OW26248   6.860   1.164   0.041
 8450SOL    HW126249   6.846   1.187   0.138
 8450SOL    HW226250   6.931   1.095   0.033
 8451SOL     OW26251   4.631   2.894   0.429
 8451SOL    HW126252   4.635   2.944   0.342
 8451SOL    HW226253   4.537   2.862   0.444
 8452SOL     OW26254   4.843   0.821   6.161
 8452SOL    HW126255   4.898   0.876   6.225
 8452SOL    HW226256   4.781   0.763   6.213
 8453SOL     OW26257   0.037   0.624   0.169
 8453SOL    HW126258   0.084   0.600   0.084
 8453SOL    HW226259   0.033   0.545   0.229
 8454SOL     OW26260   6.622   6.325   0.245
 8454SOL    HW126261   6.607   6.240   0.194
 8454SOL    HW226262   6.718   6.333   0.270
 8455SOL     OW26263   6.547   0.984   2.943
 8455SOL    HW126264   6.599   0.900   2.958
 8455SOL    HW226265   6.451   0.961   2.927
 8456SOL     OW26266   6.144   0.508   1.637
 8456SOL    HW126267   6.167   0.500   1.540
 8456SOL    HW226268   6.071   0.575   1.649
 8457SOL     OW26269   6.117   6.470   5.073
 8457SOL    HW126270   6.167   6.461   5.159
 8457SOL    HW226271   6.162   6.538   5.015
 8458SOL     OW26272   1.515   6.267   0.721
 8458SOL    HW126273   1.484   6.280   0.815
 8458SOL    HW226274   1.450   6.308   0.658
 8459SOL     OW26275   1.394   6.252   3.991
 8459SOL    HW126276   1.480   6.303   3.999
 8459SOL    HW226277   1.372   6.212   4.080
 8460SOL     OW26278   4.079   3.755   3.718
 8460SOL    HW126279   4.160   3.782   3.771
 8460SOL    HW226280   4.062   3.823   3.647
 8461SOL     OW26281   6.464   3.777   3.997
 8461SOL    HW126282   6.489   3.874   3.996
 8461SOL    HW226283   6.538   3.724   3.956
 8462SOL     OW26284   2.667   2.263   2.121
 8462SOL    HW126285   2.757   2.283   2.082
 8462SOL    HW226286   2.625   2.348   2.154
 8463SOL     OW26287   6.345   0.580   1.375
 8463SOL    HW126288   6.352   0.481   1.363
 8463SOL    HW226289   6.431   0.615   1.411
 8464SOL     OW26290   6.744   1.099   4.680
 8464SOL    HW126291   6.840   1.121   4.696
 8464SOL    HW226292   6.733   1.058   4.590
 8465SOL     OW26293   2.269   0.566   0.090
 8465SOL    HW126294   2.328   0.610   0.158
 8465SOL    HW226295   2.246   0.632   0.018
 8466SOL     OW26296   0.961   0.045   3.753
 8466SOL    HW126297   0.885   0.087   3.702
 8466SOL    HW226298   0.931   0.025   3.846
 8467SOL     OW26299   3.510   5.195   1.092
 8467SOL    HW126300   3.582   5.127   1.080
 8467SOL    HW226301   3.537   5.281   1.049
 8468SOL     OW26302   5.036   2.683   0.070
 8468SOL    HW126303   5.113   2.621   0.062
 8468SOL    HW226304   4.992   2.671   0.159
 8469SOL     OW26305   5.358   1.824   4.996
 8469SOL    HW126306   5.359   1.832   4.897
 8469SOL    HW226307   5.289   1.887   5.034
 8470SOL     OW26308   1.768   3.345   6.961
 8470SOL    HW126309   1.718   3.424   6.925
 8470SOL    HW226310   1.733   3.262   6.918
 8471SOL     OW26311   3.798   2.008   5.877
 8471SOL    HW126312   3.790   1.975   5.971
 8471SOL    HW226313   3.839   2.099   5.877
 8472SOL     OW26314   1.447   5.758   2.549
 8472SOL    HW126315   1.463   5.662   2.526
 8472SOL    HW226316   1.400   5.802   2.473
 8473SOL     OW26317   6.693   5.731   6.528
 8473SOL    HW126318   6.675   5.713   6.431
 8473SOL    HW226319   6.755   5.662   6.564
 8474SOL     OW26320   4.044   6.005   0.070
 8474SOL    HW126321   3.952   5.974   0.094
 8474SOL    HW226322   4.040   6.056   7.006
 8475SOL     OW26323   4.954   1.525   2.806
 8475SOL    HW126324   4.917   1.581   2.880
 8475SOL    HW226325   5.026   1.575   2.759
 8476SOL     OW26326   5.011   0.516   2.798
 8476SOL    HW126327   5.036   0.531   2.702
 8476SOL    HW226328   5.003   0.418   2.815
 8477SOL     OW26329   2.594   1.409   3.530
 8477SOL    HW126330   2.668   1.445   3.473
 8477SOL    HW226331   2.515   1.470   3.524
 8478SOL     OW26332   1.155   1.952   6.231
 8478SOL    HW126333   1.197   2.026   6.284
 8478SOL    HW226334   1.220   1.876   6.223
 8479SOL     OW26335   5.448   6.834   1.694
 8479SOL    HW126336   5.354   6.804   1.679
 8479SOL    HW226337   5.452   6.889   1.778
 8480SOL     OW26338   2.523   0.624   1.961
 8480SOL    HW126339   2.436   0.673   1.971
 8480SOL    HW226340   2.570   0.623   2.049
 8481SOL     OW26341   3.826   0.189   5.669
 8481SOL    HW126342   3.780   0.275   5.690
 8481SOL    HW226343   3.793   0.155   5.580
 8482SOL     OW26344   6.058   1.073   1.363
 8482SOL    HW126345   6.013   1.064   1.451
 8482SOL    HW226346   6.101   0.986   1.338
 8483SOL     OW26347   4.606   6.239   1.580
 8483SOL    HW126348   4.634   6.290   1.499
 8483SOL    HW226349   4.515   6.199   1.564
 8484SOL     OW26350   6.978   4.966   6.259
 8484SOL    HW126351   6.922   5.004   6.333
 8484SOL    HW226352   6.956   4.869   6.248
 8485SOL     OW26353   2.087   3.099   6.185
 8485SOL    HW126354   2.123   3.183   6.144
 8485SOL    HW226355   2.085   3.027   6.115
 8486SOL     OW26356   4.469   0.268   1.450
 8486SOL    HW126357   4.427   0.358   1.463
 8486SOL    HW226358   4.516   0.265   1.362
 8487SOL     OW26359   4.930   0.459   1.081
 8487SOL    HW126360   4.858   0.512   1.036
 8487SOL    HW226361   4.898   0.366   1.097
 8488SOL     OW26362   0.349   4.858   6.465
 8488SOL    HW126363   0.424   4.916   6.432
 8488SOL    HW226364   0.387   4.781   6.517
 8489SOL     OW26365   3.253   0.159   3.077
 8489SOL    HW126366   3.184   0.141   3.006
 8489SOL    HW226367   3.304   0.075   3.096
 8490SOL     OW26368   4.256   5.183   2.043
 8490SOL    HW126369   4.199   5.120   1.989
 8490SOL    HW226370   4.337   5.207   1.991
 8491SOL     OW26371   6.628   0.544   1.023
 8491SOL    HW126372   6.536   0.505   1.018
 8491SOL    HW226373   6.686   0.486   1.080
 8492SOL     OW26374   6.094   4.194   4.384
 8492SOL    HW126375   6.148   4.115   4.415
 8492SOL    HW226376   6.008   4.197   4.434
 8493SOL     OW26377   4.460   3.220   0.847
 8493SOL    HW126378   4.502   3.150   0.789
 8493SOL    HW226379   4.379   3.183   0.892
 8494SOL     OW26380   2.999   6.080   6.553
 8494SOL    HW126381   2.905   6.060   6.580
 8494SOL    HW226382   2.999   6.156   6.487
 8495SOL     OW26383   0.335   3.693   6.010
 8495SOL    HW126384   0.286   3.697   5.923
 8495SOL    HW226385   0.424   3.650   5.997
 8496SOL     OW26386   1.210   1.615   4.568
 8496SOL    HW126387   1.158   1.667   4.501
 8496SOL    HW226388   1.190   1.517   4.557
 8497SOL     OW26389   5.693   3.072   4.785
 8497SOL    HW126390   5.698   3.066   4.884
 8497SOL    HW226391   5.768   3.129   4.751
 8498SOL     OW26392   6.209   1.107   2.581
 8498SOL    HW126393   6.210   1.063   2.670
 8498SOL    HW226394   6.120   1.093   2.537
 8499SOL     OW26395   0.112   3.986   0.648
 8499SOL    HW126396   0.082   4.082   0.648
 8499SOL    HW226397   0.181   3.972   0.719
 8500SOL     OW26398   1.594   0.844   5.006
 8500SOL    HW126399   1.566   0.831   4.910
 8500SOL    HW226400   1.514   0.833   5.065
 8501SOL     OW26401   3.391   3.196   6.258
 8501SOL    HW126402   3.319   3.220   6.194
 8501SOL    HW226403   3.477   3.182   6.209
 8502SOL     OW26404   0.286   6.571   1.164
 8502SOL    HW126405   0.323   6.496   1.220
 8502SOL    HW226406   0.271   6.539   1.071
 8503SOL     OW26407   4.060   5.990   3.486
 8503SOL    HW126408   4.004   5.996   3.569
 8503SOL    HW226409   4.126   6.065   3.486
 8504SOL     OW26410   1.568   4.970   2.939
 8504SOL    HW126411   1.571   5.016   2.851
 8504SOL    HW226412   1.632   5.014   3.002
 8505SOL     OW26413   4.321   2.016   2.649
 8505SOL    HW126414   4.255   1.952   2.611
 8505SOL    HW226415   4.281   2.108   2.652
 8506SOL     OW26416   0.725   5.211   0.724
 8506SOL    HW126417   0.756   5.297   0.764
 8506SOL    HW226418   0.795   5.177   0.661
 8507SOL     OW26419   2.367   0.094   4.351
 8507SOL    HW126420   2.400   0.105   4.258
 8507SOL    HW226421   2.408   0.013   4.392
 8508SOL     OW26422   1.179   3.641   6.444
 8508SOL    HW126423   1.167   3.543   6.455
 8508SOL    HW226424   1.097   3.681   6.403
 8509SOL     OW26425   6.907   2.948   4.197
 8509SOL    HW126426   6.827   2.897   4.229
 8509SOL    HW226427   6.878   3.022   4.138
 8510SOL     OW26428   5.484   6.593   3.418
 8510SOL    HW126429   5.428   6.570   3.339
 8510SOL    HW226430   5.558   6.654   3.390
 8511SOL     OW26431   6.271   4.988   0.901
 8511SOL    HW126432   6.206   4.924   0.859
 8511SOL    HW226433   6.309   5.048   0.830
 8512SOL     OW26434   4.100   2.635   0.737
 8512SOL    HW126435   4.029   2.600   0.798
 8512SOL    HW226436   4.085   2.600   0.644
 8513SOL     OW26437   0.316   3.679   1.200
 8513SOL    HW126438   0.258   3.761   1.202
 8513SOL    HW226439   0.310   3.636   1.111
 8514SOL     OW26440   2.312   2.808   4.961
 8514SOL    HW126441   2.307   2.884   5.026
 8514SOL    HW226442   2.391   2.750   4.983
 8515SOL     OW26443   2.895   1.473   0.257
 8515SOL    HW126444   2.898   1.490   0.356
 8515SOL    HW226445   2.888   1.375   0.240
 8516SOL     OW26446   0.207   4.126   5.669
 8516SOL    HW126447   0.239   4.033   5.652
 8516SOL    HW226448   0.108   4.131   5.653
 8517SOL     OW26449   1.249   2.364   5.920
 8517SOL    HW126450   1.275   2.273   5.952
 8517SOL    HW226451   1.150   2.376   5.929
 8518SOL     OW26452   5.865   4.934   0.301
 8518SOL    HW126453   5.877   5.033   0.296
 8518SOL    HW226454   5.924   4.890   0.233
 8519SOL     OW26455   1.635   3.985   1.512
 8519SOL    HW126456   1.700   3.945   1.576
 8519SOL    HW226457   1.612   3.918   1.442
 8520SOL     OW26458   2.946   3.661   6.514
 8520SOL    HW126459   2.860   3.651   6.465
 8520SOL    HW226460   3.014   3.704   6.455
 8521SOL     OW26461   1.841   0.226   4.898
 8521SOL    HW126462   1.896   0.306   4.874
 8521SOL    HW226463   1.766   0.216   4.831
 8522SOL     OW26464   7.011   0.424   0.344
 8522SOL    HW126465   6.997   0.443   0.441
 8522SOL    HW226466   0.024   0.331   0.333
 8523SOL     OW26467   4.122   2.215   1.841
 8523SOL    HW126468   4.033   2.258   1.824
 8523SOL    HW226469   4.194   2.266   1.794
 8524SOL     OW26470   2.265   6.347   4.672
 8524SOL    HW126471   2.319   6.308   4.746
 8524SOL    HW226472   2.168   6.345   4.697
 8525SOL     OW26473   6.369   2.599   3.561
 8525SOL    HW126474   6.352   2.697   3.565
 8525SOL    HW226475   6.403   2.575   3.470
 8526SOL     OW26476   0.589   5.007   6.455
 8526SOL    HW126477   0.561   5.083   6.395
 8526SOL    HW226478   0.677   4.971   6.425
 8527SOL     OW26479   1.351   0.853   6.585
 8527SOL    HW126480   1.357   0.855   6.685
 8527SOL    HW226481   1.396   0.934   6.547
 8528SOL     OW26482   5.937   6.668   0.403
 8528SOL    HW126483   6.028   6.631   0.384
 8528SOL    HW226484   5.939   6.767   0.392
 8529SOL     OW26485   0.959   6.667   0.044
 8529SOL    HW126486   1.028   6.738   0.034
 8529SOL    HW226487   0.947   6.620   6.978
 8530SOL     OW26488   3.528   3.712   2.779
 8530SOL    HW126489   3.529   3.811   2.789
 8530SOL    HW226490   3.447   3.675   2.826
 8531SOL     OW26491   6.373   5.725   3.386
 8531SOL    HW126492   6.348   5.769   3.472
 8531SOL    HW226493   6.417   5.791   3.326
 8532SOL     OW26494   3.602   5.312   0.184
 8532SOL    HW126495   3.586   5.391   0.242
 8532SOL    HW226496   3.671   5.253   0.226
 8533SOL     OW26497   2.287   5.919   5.323
 8533SOL    HW126498   2.291   5.919   5.423
 8533SOL    HW226499   2.251   6.006   5.290
 8534SOL     OW26500   2.125   3.203   1.924
 8534SOL    HW126501   2.165   3.281   1.972
 8534SOL    HW226502   2.037   3.230   1.885
 8535SOL     OW26503   6.300   6.532   1.881
 8535SOL    HW126504   6.297   6.531   1.981
 8535SOL    HW226505   6.374   6.473   1.849
 8536SOL     OW26506   2.815   0.669   4.171
 8536SOL    HW126507   2.887   0.690   4.237
 8536SOL    HW226508   2.728   0.659   4.220
 8537SOL     OW26509   5.890   1.043   3.276
 8537SOL    HW126510   5.810   1.038   3.215
 8537SOL    HW226511   5.896   1.135   3.315
 8538SOL     OW26512   0.684   2.461   0.053
 8538SOL    HW126513   0.681   2.482   0.151
 8538SOL    HW226514   0.654   2.541   0.001
 8539SOL     OW26515   5.592   3.702   2.148
 8539SOL    HW126516   5.505   3.714   2.196
 8539SOL    HW226517   5.614   3.787   2.098
 8540SOL     OW26518   4.208   0.143   1.158
 8540SOL    HW126519   4.269   0.213   1.122
 8540SOL    HW226520   4.122   0.185   1.187
 8541SOL     OW26521   1.088   3.149   3.184
 8541SOL    HW126522   1.136   3.230   3.218
 8541SOL    HW226523   1.108   3.136   3.087
 8542SOL     OW26524   2.607   4.850   6.379
 8542SOL    HW126525   2.671   4.848   6.303
 8542SOL    HW226526   2.590   4.757   6.411
 8543SOL     OW26527   3.956   1.843   6.781
 8543SOL    HW126528   3.909   1.825   6.695
 8543SOL    HW226529   3.962   1.758   6.834
 8544SOL     OW26530   6.154   2.562   4.446
 8544SOL    HW126531   6.133   2.658   4.466
 8544SOL    HW226532   6.129   2.541   4.351
 8545SOL     OW26533   4.624   6.887   5.579
 8545SOL    HW126534   4.564   6.842   5.645
 8545SOL    HW226535   4.693   6.822   5.546
 8546SOL     OW26536   4.906   1.903   6.006
 8546SOL    HW126537   4.907   1.885   5.907
 8546SOL    HW226538   4.996   1.879   6.044
 8547SOL     OW26539   1.493   4.289   1.983
 8547SOL    HW126540   1.475   4.224   1.910
 8547SOL    HW226541   1.591   4.309   1.987
 8548SOL     OW26542   6.144   2.258   5.534
 8548SOL    HW126543   6.097   2.206   5.462
 8548SOL    HW226544   6.116   2.223   5.623
 8549SOL     OW26545   4.939   2.511   4.553
 8549SOL    HW126546   4.862   2.573   4.555
 8549SOL    HW226547   4.946   2.468   4.463
 8550SOL     OW26548   2.297   5.216   5.223
 8550SOL    HW126549   2.291   5.298   5.279
 8550SOL    HW226550   2.273   5.136   5.277
 8551SOL     OW26551   2.960   5.322   0.715
 8551SOL    HW126552   3.000   5.244   0.763
 8551SOL    HW226553   2.862   5.307   0.703
 8552SOL     OW26554   3.086   6.523   3.704
 8552SOL    HW126555   3.103   6.621   3.712
 8552SOL    HW226556   3.034   6.506   3.620
 8553SOL     OW26557   6.367   5.633   0.236
 8553SOL    HW126558   6.407   5.622   0.327
 8553SOL    HW226559   6.280   5.583   0.231
 8554SOL     OW26560   5.495   4.057   6.952
 8554SOL    HW126561   5.504   4.007   0.016
 8554SOL    HW226562   5.544   4.008   6.880
 8555SOL     OW26563   1.730   6.643   4.006
 8555SOL    HW126564   1.768   6.681   4.090
 8555SOL    HW226565   1.696   6.718   3.948
 8556SOL     OW26566   5.437   0.263   5.658
 8556SOL    HW126567   5.488   0.340   5.620
 8556SOL    HW226568   5.486   0.178   5.639
 8557SOL     OW26569   6.874   2.083   1.455
 8557SOL    HW126570   6.820   1.999   1.454
 8557SOL    HW226571   6.962   2.066   1.412
 8558SOL     OW26572   1.701   4.364   2.357
 8558SOL    HW126573   1.774   4.396   2.418
 8558SOL    HW226574   1.622   4.425   2.364
 8559SOL     OW26575   1.396   1.332   4.713
 8559SOL    HW126576   1.455   1.390   4.658
 8559SOL    HW226577   1.389   1.370   4.805
 8560SOL     OW26578   6.397   2.881   0.555
 8560SOL    HW126579   6.459   2.891   0.633
 8560SOL    HW226580   6.388   2.785   0.531
 8561SOL     OW26581   5.095   5.858   6.041
 8561SOL    HW126582   5.178   5.881   5.989
 8561SOL    HW226583   5.031   5.934   6.038
 8562SOL     OW26584   4.259   1.405   4.591
 8562SOL    HW126585   4.177   1.454   4.562
 8562SOL    HW226586   4.258   1.395   4.691
 8563SOL     OW26587   2.059   2.595   6.000
 8563SOL    HW126588   2.016   2.609   5.911
 8563SOL    HW226589   2.002   2.537   6.056
 8564SOL     OW26590   0.687   5.399   4.489
 8564SOL    HW126591   0.647   5.340   4.559
 8564SOL    HW226592   0.615   5.434   4.429
 8565SOL     OW26593   3.958   1.164   1.351
 8565SOL    HW126594   3.978   1.135   1.257
 8565SOL    HW226595   3.861   1.186   1.359
 8566SOL     OW26596   1.492   4.656   4.282
 8566SOL    HW126597   1.521   4.746   4.249
 8566SOL    HW226598   1.405   4.665   4.331
 8567SOL     OW26599   5.317   6.417   6.590
 8567SOL    HW126600   5.325   6.466   6.677
 8567SOL    HW226601   5.223   6.384   6.579
 8568SOL     OW26602   5.081   6.367   0.639
 8568SOL    HW126603   5.004   6.370   0.576
 8568SOL    HW226604   5.152   6.430   0.609
 8569SOL     OW26605   2.469   0.855   5.255
 8569SOL    HW126606   2.541   0.786   5.246
 8569SOL    HW226607   2.498   0.939   5.210
 8570SOL     OW26608   6.844   4.220   6.020
 8570SOL    HW126609   6.885   4.299   5.975
 8570SOL    HW226610   6.774   4.250   6.084
 8571SOL     OW26611   0.923   4.557   6.825
 8571SOL    HW126612   0.994   4.601   6.879
 8571SOL    HW226613   0.963   4.514   6.744
 8572SOL     OW26614   2.825   4.404   6.614
 8572SOL    HW126615   2.806   4.310   6.585
 8572SOL    HW226616   2.815   4.466   6.537
 8573SOL     OW26617   2.687   5.478   4.281
 8573SOL    HW126618   2.781   5.464   4.310
 8573SOL    HW226619   2.686   5.534   4.198
 8574SOL     OW26620   0.925   4.462   4.478
 8574SOL    HW126621   0.987   4.383   4.473
 8574SOL    HW226622   0.912   4.488   4.573
 8575SOL     OW26623   2.810   2.797   5.821
 8575SOL    HW126624   2.798   2.812   5.723
 8575SOL    HW226625   2.721   2.800   5.867
 8576SOL     OW26626   1.810   0.519   0.238
 8576SOL    HW126627   1.903   0.483   0.232
 8576SOL    HW226628   1.807   0.593   0.305
 8577SOL     OW26629   6.244   5.350   4.463
 8577SOL    HW126630   6.342   5.370   4.456
 8577SOL    HW226631   6.192   5.435   4.456
 8578SOL     OW26632   4.550   0.496   4.490
 8578SOL    HW126633   4.580   0.569   4.552
 8578SOL    HW226634   4.627   0.436   4.470
 8579SOL     OW26635   0.058   4.411   2.625
 8579SOL    HW126636   0.127   4.339   2.628
 8579SOL    HW226637   0.074   4.476   2.699
 8580SOL     OW26638   1.309   5.964   5.871
 8580SOL    HW126639   1.290   5.868   5.853
 8580SOL    HW226640   1.402   5.975   5.906
 8581SOL     OW26641   3.283   3.605   0.073
 8581SOL    HW126642   3.346   3.682   0.080
 8581SOL    HW226643   3.202   3.621   0.129
 8582SOL     OW26644   2.929   5.942   0.221
 8582SOL    HW126645   2.996   5.953   0.148
 8582SOL    HW226646   2.975   5.908   0.303
 8583SOL     OW26647   5.875   6.954   4.079
 8583SOL    HW126648   5.777   6.952   4.059
 8583SOL    HW226649   5.900   6.875   4.134
 8584SOL     OW26650   0.780   5.496   6.097
 8584SOL    HW126651   0.758   5.572   6.035
 8584SOL    HW226652   0.852   5.440   6.056
 8585SOL     OW26653   1.249   1.005   0.695
 8585SOL    HW126654   1.284   0.954   0.774
 8585SOL    HW226655   1.261   0.949   0.612
 8586SOL     OW26656   3.980   5.349   2.934
 8586SOL    HW126657   3.938   5.402   2.859
 8586SOL    HW226658   4.077   5.333   2.913
 8587SOL     OW26659   0.264   1.110   1.105
 8587SOL    HW126660   0.215   1.062   1.032
 8587SOL    HW226661   0.359   1.126   1.076
 8588SOL     OW26662   4.068   3.527   6.929
 8588SOL    HW126663   4.060   3.590   6.852
 8588SOL    HW226664   4.017   3.564   7.007
 8589SOL     OW26665   3.817   1.175   3.949
 8589SOL    HW126666   3.908   1.209   3.928
 8589SOL    HW226667   3.758   1.187   3.869
 8590SOL     OW26668   5.116   3.837   5.854
 8590SOL    HW126669   5.165   3.805   5.936
 8590SOL    HW226670   5.026   3.793   5.850
 8591SOL     OW26671   0.126   2.856   0.706
 8591SOL    HW126672   0.223   2.878   0.690
 8591SOL    HW226673   0.120   2.777   0.766
 8592SOL     OW26674   6.806   5.782   0.540
 8592SOL    HW126675   6.791   5.737   0.628
 8592SOL    HW226676   6.765   5.728   0.467
 8593SOL     OW26677   1.194   4.955   3.983
 8593SOL    HW126678   1.268   5.019   3.962
 8593SOL    HW226679   1.205   4.920   4.076
 8594SOL     OW26680   3.762   3.573   2.781
 8594SOL    HW126681   3.670   3.608   2.771
 8594SOL    HW226682   3.822   3.645   2.815
 8595SOL     OW26683   1.203   2.557   2.622
 8595SOL    HW126684   1.245   2.648   2.626
 8595SOL    HW226685   1.254   2.500   2.558
 8596SOL     OW26686   6.827   3.907   2.762
 8596SOL    HW126687   6.788   3.941   2.847
 8596SOL    HW226688   6.896   3.838   2.782
 8597SOL     OW26689   2.016   1.989   1.033
 8597SOL    HW126690   2.083   2.063   1.041
 8597SOL    HW226691   1.947   2.014   0.966
 8598SOL     OW26692   6.047   3.002   1.981
 8598SOL    HW126693   6.007   3.023   2.070
 8598SOL    HW226694   6.090   2.912   1.984
 8599SOL     OW26695   0.590   2.329   0.798
 8599SOL    HW126696   0.510   2.305   0.745
 8599SOL    HW226697   0.646   2.395   0.748
 8600SOL     OW26698   0.270   3.068   6.013
 8600SOL    HW126699   0.203   3.059   5.940
 8600SOL    HW226700   0.245   3.007   6.089
 8601SOL     OW26701   0.755   0.144   4.636
 8601SOL    HW126702   0.723   0.157   4.730
 8601SOL    HW226703   0.678   0.122   4.577
 8602SOL     OW26704   1.076   6.675   1.942
 8602SOL    HW126705   1.010   6.723   1.885
 8602SOL    HW226706   1.134   6.617   1.885
 8603SOL     OW26707   5.075   3.911   2.460
 8603SOL    HW126708   5.128   3.995   2.463
 8603SOL    HW226709   5.014   3.913   2.380
 8604SOL     OW26710   6.304   2.626   3.900
 8604SOL    HW126711   6.348   2.713   3.879
 8604SOL    HW226712   6.279   2.579   3.815
 8605SOL     OW26713   1.933   5.102   1.074
 8605SOL    HW126714   1.877   5.154   1.138
 8605SOL    HW226715   2.006   5.055   1.123
 8606SOL     OW26716   4.075   5.443   5.048
 8606SOL    HW126717   4.011   5.371   5.023
 8606SOL    HW226718   4.063   5.521   4.986
 8607SOL     OW26719   3.079   6.945   0.669
 8607SOL    HW126720   3.050   6.859   0.625
 8607SOL    HW226721   3.009   6.973   0.735
 8608SOL     OW26722   5.949   6.448   3.891
 8608SOL    HW126723   5.939   6.507   3.812
 8608SOL    HW226724   5.891   6.367   3.880
 8609SOL     OW26725   5.146   6.461   5.511
 8609SOL    HW126726   5.206   6.435   5.436
 8609SOL    HW226727   5.111   6.553   5.495
 8610SOL     OW26728   0.189   0.464   4.747
 8610SOL    HW126729   0.175   0.369   4.719
 8610SOL    HW226730   0.257   0.468   4.820
 8611SOL     OW26731   1.800   1.664   2.524
 8611SOL    HW126732   1.722   1.609   2.496
 8611SOL    HW226733   1.794   1.754   2.481
 8612SOL     OW26734   5.165   3.185   4.620
 8612SOL    HW126735   5.150   3.127   4.540
 8612SOL    HW226736   5.261   3.214   4.622
 8613SOL     OW26737   1.493   1.077   1.176
 8613SOL    HW126738   1.423   1.126   1.124
 8613SOL    HW226739   1.460   0.985   1.198
 8614SOL     OW26740   1.323   2.810   3.717
 8614SOL    HW126741   1.253   2.743   3.691
 8614SOL    HW226742   1.393   2.766   3.773
 8615SOL     OW26743   4.069   2.161   6.199
 8615SOL    HW126744   4.051   2.255   6.226
 8615SOL    HW226745   4.033   2.099   6.268
 8616SOL     OW26746   0.535   3.402   0.889
 8616SOL    HW126747   0.571   3.422   0.798
 8616SOL    HW226748   0.599   3.433   0.959
 8617SOL     OW26749   6.361   3.515   0.591
 8617SOL    HW126750   6.372   3.420   0.618
 8617SOL    HW226751   6.429   3.572   0.638
 8618SOL     OW26752   2.691   1.002   3.161
 8618SOL    HW126753   2.690   0.968   3.067
 8618SOL    HW226754   2.667   0.927   3.223
 8619SOL     OW26755   3.744   5.620   0.655
 8619SOL    HW126756   3.765   5.702   0.708
 8619SOL    HW226757   3.668   5.572   0.697
 8620SOL     OW26758   5.624   5.468   4.326
 8620SOL    HW126759   5.667   5.553   4.356
 8620SOL    HW226760   5.669   5.435   4.242
 8621SOL     OW26761   5.070   1.538   3.809
 8621SOL    HW126762   5.134   1.491   3.749
 8621SOL    HW226763   5.021   1.470   3.865
 8622SOL     OW26764   4.967   5.296   5.669
 8622SOL    HW126765   4.869   5.292   5.651
 8622SOL    HW226766   4.997   5.391   5.669
 8623SOL     OW26767   5.962   1.408   3.813
 8623SOL    HW126768   5.974   1.353   3.730
 8623SOL    HW226769   5.976   1.350   3.893
 8624SOL     OW26770   6.904   2.898   3.157
 8624SOL    HW126771   6.955   2.942   3.231
 8624SOL    HW226772   6.868   2.968   3.095
 8625SOL     OW26773   3.215   1.666   6.568
 8625SOL    HW126774   3.194   1.758   6.535
 8625SOL    HW226775   3.311   1.646   6.552
 8626SOL     OW26776   3.339   3.578   1.791
 8626SOL    HW126777   3.394   3.636   1.731
 8626SOL    HW226778   3.266   3.631   1.832
 8627SOL     OW26779   2.940   0.736   6.214
 8627SOL    HW126780   2.938   0.836   6.211
 8627SOL    HW226781   2.850   0.701   6.239
 8628SOL     OW26782   6.127   0.813   1.416
 8628SOL    HW126783   6.055   0.761   1.369
 8628SOL    HW226784   6.112   0.808   1.515
 8629SOL     OW26785   1.508   6.340   3.661
 8629SOL    HW126786   1.485   6.354   3.564
 8629SOL    HW226787   1.434   6.289   3.705
 8630SOL     OW26788   5.544   5.084   4.144
 8630SOL    HW126789   5.639   5.111   4.128
 8630SOL    HW226790   5.526   4.998   4.096
 8631SOL     OW26791   3.969   0.055   3.106
 8631SOL    HW126792   3.941   0.150   3.095
 8631SOL    HW226793   3.894   0.002   3.145
 8632SOL     OW26794   2.414   0.691   2.898
 8632SOL    HW126795   2.389   0.619   2.962
 8632SOL    HW226796   2.372   0.777   2.927
 8633SOL     OW26797   6.348   6.539   3.317
 8633SOL    HW126798   6.274   6.485   3.277
 8633SOL    HW226799   6.336   6.544   3.417
 8634SOL     OW26800   4.772   6.773   1.220
 8634SOL    HW126801   4.695   6.712   1.208
 8634SOL    HW226802   4.739   6.865   1.242
 8635SOL     OW26803   5.929   3.582   5.370
 8635SOL    HW126804   5.984   3.500   5.358
 8635SOL    HW226805   5.919   3.628   5.282
 8636SOL     OW26806   5.536   4.728   1.576
 8636SOL    HW126807   5.630   4.697   1.586
 8636SOL    HW226808   5.490   4.726   1.665
 8637SOL     OW26809   0.470   1.016   1.863
 8637SOL    HW126810   0.443   1.094   1.921
 8637SOL    HW226811   0.493   0.938   1.922
 8638SOL     OW26812   5.865   4.468   0.606
 8638SOL    HW126813   5.820   4.540   0.554
 8638SOL    HW226814   5.962   4.490   0.617
 8639SOL     OW26815   5.537   2.600   3.988
 8639SOL    HW126816   5.440   2.611   3.965
 8639SOL    HW226817   5.592   2.607   3.905
 8640SOL     OW26818   4.899   5.829   1.024
 8640SOL    HW126819   4.992   5.791   1.025
 8640SOL    HW226820   4.891   5.895   0.949
 8641SOL     OW26821   5.140   5.156   4.011
 8641SOL    HW126822   5.207   5.134   4.082
 8641SOL    HW226823   5.152   5.251   3.983
 8642SOL     OW26824   4.664   0.975   1.067
 8642SOL    HW126825   4.577   0.967   1.019
 8642SOL    HW226826   4.739   0.946   1.007
 8643SOL     OW26827   4.897   0.192   0.422
 8643SOL    HW126828   4.883   0.270   0.483
 8643SOL    HW226829   4.835   0.118   0.448
 8644SOL     OW26830   6.139   2.641   5.319
 8644SOL    HW126831   6.221   2.663   5.371
 8644SOL    HW226832   6.064   2.700   5.349
 8645SOL     OW26833   6.354   3.566   2.366
 8645SOL    HW126834   6.384   3.504   2.439
 8645SOL    HW226835   6.255   3.579   2.371
 8646SOL     OW26836   4.263   5.848   0.094
 8646SOL    HW126837   4.286   5.827   0.189
 8646SOL    HW226838   4.193   5.920   0.092
 8647SOL     OW26839   5.148   4.826   2.223
 8647SOL    HW126840   5.154   4.885   2.304
 8647SOL    HW226841   5.058   4.838   2.181
 8648SOL     OW26842   6.352   0.845   4.718
 8648SOL    HW126843   6.340   0.930   4.666
 8648SOL    HW226844   6.438   0.850   4.769
 8649SOL     OW26845   6.697   3.136   5.357
 8649SOL    HW126846   6.619   3.183   5.315
 8649SOL    HW226847   6.721   3.182   5.442
 8650SOL     OW26848   0.467   5.507   1.933
 8650SOL    HW126849   0.525   5.523   1.853
 8650SOL    HW226850   0.377   5.547   1.916
 8651SOL     OW26851   4.800   3.079   1.054
 8651SOL    HW126852   4.808   3.170   1.096
 8651SOL    HW226853   4.844   3.080   0.964
 8652SOL     OW26854   1.161   3.219   4.629
 8652SOL    HW126855   1.203   3.200   4.718
 8652SOL    HW226856   1.155   3.134   4.576
 8653SOL     OW26857   5.310   3.717   6.026
 8653SOL    HW126858   5.399   3.760   6.014
 8653SOL    HW226859   5.318   3.638   6.087
 8654SOL     OW26860   2.020   4.339   1.890
 8654SOL    HW126861   2.060   4.377   1.974
 8654SOL    HW226862   2.047   4.243   1.881
 8655SOL     OW26863   5.207   6.865   2.834
 8655SOL    HW126864   5.124   6.864   2.779
 8655SOL    HW226865   5.200   6.796   2.906
 8656SOL     OW26866   6.955   2.183   2.488
 8656SOL    HW126867   6.882   2.241   2.525
 8656SOL    HW226868   6.973   2.210   2.393
 8657SOL     OW26869   2.426   5.513   0.787
 8657SOL    HW126870   2.353   5.466   0.836
 8657SOL    HW226871   2.490   5.552   0.852
 8658SOL     OW26872   0.758   6.651   5.496
 8658SOL    HW126873   0.765   6.560   5.455
 8658SOL    HW226874   0.814   6.655   5.579
 8659SOL     OW26875   3.609   6.988   3.851
 8659SOL    HW126876   3.534   6.968   3.915
 8659SOL    HW226877   3.576   0.031   3.783
 8660SOL     OW26878   4.992   4.329   6.971
 8660SOL    HW126879   4.933   4.259   7.011
 8660SOL    HW226880   5.086   4.313   6.998
 8661SOL     OW26881   6.325   2.485   2.548
 8661SOL    HW126882   6.373   2.565   2.510
 8661SOL    HW226883   6.238   2.514   2.587
 8662SOL     OW26884   0.453   1.233   0.276
 8662SOL    HW126885   0.516   1.252   0.200
 8662SOL    HW226886   0.360   1.252   0.247
 8663SOL     OW26887   2.751   5.663   6.658
 8663SOL    HW126888   2.674   5.665   6.594
 8663SOL    HW226889   2.834   5.635   6.610
 8664SOL     OW26890   4.808   4.286   1.678
 8664SOL    HW126891   4.815   4.379   1.644
 8664SOL    HW226892   4.735   4.238   1.629
 8665SOL     OW26893   5.432   5.422   3.543
 8665SOL    HW126894   5.527   5.432   3.575
 8665SOL    HW226895   5.428   5.352   3.472
 8666SOL     OW26896   0.278   5.127   4.820
 8666SOL    HW126897   0.310   5.221   4.825
 8666SOL    HW226898   0.201   5.120   4.757
 8667SOL     OW26899   5.166   2.806   3.205
 8667SOL    HW126900   5.151   2.898   3.242
 8667SOL    HW226901   5.089   2.780   3.147
 8668SOL     OW26902   3.192   0.614   4.663
 8668SOL    HW126903   3.248   0.682   4.615
 8668SOL    HW226904   3.111   0.592   4.609
 8669SOL     OW26905   3.383   6.656   6.983
 8669SOL    HW126906   3.291   6.620   6.965
 8669SOL    HW226907   3.450   6.583   6.970
 8670SOL     OW26908   3.899   5.452   2.696
 8670SOL    HW126909   3.800   5.462   2.704
 8670SOL    HW226910   3.921   5.384   2.626
 8671SOL     OW26911   6.038   4.803   1.080
 8671SOL    HW126912   6.133   4.795   1.109
 8671SOL    HW226913   5.988   4.861   1.144
 8672SOL     OW26914   3.983   5.679   4.823
 8672SOL    HW126915   3.917   5.749   4.795
 8672SOL    HW226916   4.076   5.713   4.807
 8673SOL     OW26917   5.114   2.220   6.976
 8673SOL    HW126918   5.120   2.121   6.983
 8673SOL    HW226919   5.039   2.245   6.915
 8674SOL     OW26920   6.669   0.061   2.343
 8674SOL    HW126921   6.609   0.080   2.421
 8674SOL    HW226922   6.638   7.001   2.296
 8675SOL     OW26923   2.773   2.380   1.693
 8675SOL    HW126924   2.834   2.410   1.767
 8675SOL    HW226925   2.718   2.303   1.724
 8676SOL     OW26926   5.246   1.365   3.704
 8676SOL    HW126927   5.336   1.400   3.730
 8676SOL    HW226928   5.249   1.265   3.700
 8677SOL     OW26929   2.234   4.073   5.324
 8677SOL    HW126930   2.233   4.003   5.395
 8677SOL    HW226931   2.301   4.049   5.254
 8678SOL     OW26932   1.544   1.863   6.131
 8678SOL    HW126933   1.554   1.962   6.144
 8678SOL    HW226934   1.586   1.837   6.044
 8679SOL     OW26935   6.345   2.218   5.192
 8679SOL    HW126936   6.274   2.151   5.172
 8679SOL    HW226937   6.375   2.208   5.287
 8680SOL     OW26938   0.582   3.190   5.815
 8680SOL    HW126939   0.616   3.153   5.902
 8680SOL    HW226940   0.517   3.126   5.775
 8681SOL     OW26941   3.961   3.741   1.474
 8681SOL    HW126942   3.902   3.660   1.467
 8681SOL    HW226943   3.972   3.766   1.569
 8682SOL     OW26944   1.740   5.824   2.479
 8682SOL    HW126945   1.748   5.829   2.379
 8682SOL    HW226946   1.645   5.800   2.503
 8683SOL     OW26947   4.305   3.622   6.570
 8683SOL    HW126948   4.238   3.664   6.631
 8683SOL    HW226949   4.390   3.608   6.620
 8684SOL     OW26950   6.257   2.243   3.873
 8684SOL    HW126951   6.356   2.230   3.862
 8684SOL    HW226952   6.230   2.328   3.829
 8685SOL     OW26953   0.461   2.336   5.524
 8685SOL    HW126954   0.526   2.262   5.504
 8685SOL    HW226955   0.370   2.297   5.541
 8686SOL     OW26956   5.833   0.836   4.716
 8686SOL    HW126957   5.787   0.748   4.710
 8686SOL    HW226958   5.811   0.879   4.804
 8687SOL     OW26959   3.569   1.266   2.582
 8687SOL    HW126960   3.577   1.286   2.680
 8687SOL    HW226961   3.569   1.351   2.530
 8688SOL     OW26962   0.010   6.503   2.186
 8688SOL    HW126963   0.001   6.446   2.104
 8688SOL    HW226964   0.062   6.585   2.165
 8689SOL     OW26965   4.872   4.562   2.040
 8689SOL    HW126966   4.809   4.522   1.974
 8689SOL    HW226967   4.912   4.490   2.097
 8690SOL     OW26968   1.399   0.494   1.930
 8690SOL    HW126969   1.496   0.517   1.933
 8690SOL    HW226970   1.347   0.560   1.986
 8691SOL     OW26971   5.451   1.088   6.518
 8691SOL    HW126972   5.534   1.138   6.492
 8691SOL    HW226973   5.409   1.132   6.598
 8692SOL     OW26974   1.622   1.700   3.555
 8692SOL    HW126975   1.617   1.729   3.460
 8692SOL    HW226976   1.532   1.669   3.585
 8693SOL     OW26977   5.071   2.510   6.650
 8693SOL    HW126978   4.989   2.553   6.612
 8693SOL    HW226979   5.141   2.579   6.666
 8694SOL     OW26980   3.421   1.053   5.970
 8694SOL    HW126981   3.327   1.061   6.001
 8694SOL    HW226982   3.430   0.970   5.913
 8695SOL     OW26983   4.163   3.486   4.765
 8695SOL    HW126984   4.162   3.585   4.749
 8695SOL    HW226985   4.217   3.466   4.846
 8696SOL     OW26986   2.295   5.081   6.872
 8696SOL    HW126987   2.340   5.009   6.924
 8696SOL    HW226988   2.288   5.053   6.776
 8697SOL     OW26989   5.129   5.466   6.991
 8697SOL    HW126990   5.203   5.425   6.937
 8697SOL    HW226991   5.077   5.529   6.933
 8698SOL     OW26992   6.153   6.010   5.682
 8698SOL    HW126993   6.153   5.997   5.583
 8698SOL    HW226994   6.099   5.937   5.724
 8699SOL     OW26995   2.424   1.163   4.234
 8699SOL    HW126996   2.408   1.187   4.330
 8699SOL    HW226997   2.468   1.240   4.187
 8700SOL     OW26998   2.849   0.365   6.067
 8700SOL    HW126999   2.873   0.278   6.110
 8700SOL    HW227000   2.749   0.375   6.067
 8701SOL     OW27001   1.054   0.369   3.046
 8701SOL    HW127002   1.005   0.309   2.984
 8701SOL    HW227003   1.017   0.462   3.039
 8702SOL     OW27004   4.243   0.063   6.189
 8702SOL    HW127005   4.249   0.128   6.265
 8702SOL    HW227006   4.286   0.103   6.108
 8703SOL     OW27007   1.455   4.271   1.181
 8703SOL    HW127008   1.528   4.222   1.229
 8703SOL    HW227009   1.495   4.335   1.116
 8704SOL     OW27010   0.976   4.418   2.522
 8704SOL    HW127011   1.016   4.502   2.560
 8704SOL    HW227012   0.877   4.430   2.512
 8705SOL     OW27013   4.157   6.460   4.591
 8705SOL    HW127014   4.134   6.363   4.580
 8705SOL    HW227015   4.246   6.478   4.549
 8706SOL     OW27016   5.187   0.124   6.653
 8706SOL    HW127017   5.259   0.149   6.589
 8706SOL    HW227018   5.138   0.044   6.619
 8707SOL     OW27019   3.953   1.507   5.418
 8707SOL    HW127020   3.986   1.444   5.348
 8707SOL    HW227021   3.872   1.468   5.463
 8708SOL     OW27022   3.387   1.817   1.287
 8708SOL    HW127023   3.389   1.916   1.295
 8708SOL    HW227024   3.392   1.776   1.378
 8709SOL     OW27025   5.467   3.288   6.566
 8709SOL    HW127026   5.436   3.363   6.624
 8709SOL    HW227027   5.407   3.208   6.580
 8710SOL     OW27028   6.201   3.988   4.216
 8710SOL    HW127029   6.267   3.954   4.282
 8710SOL    HW227030   6.141   4.055   4.259
 8711SOL     OW27031   2.193   1.527   3.908
 8711SOL    HW127032   2.272   1.555   3.963
 8711SOL    HW227033   2.221   1.520   3.812
 8712SOL     OW27034   3.047   0.168   6.795
 8712SOL    HW127035   3.000   0.080   6.807
 8712SOL    HW227036   3.062   0.185   6.697
 8713SOL     OW27037   5.886   5.172   3.269
 8713SOL    HW127038   5.843   5.115   3.338
 8713SOL    HW227039   5.979   5.196   3.298
 8714SOL     OW27040   2.003   1.092   3.764
 8714SOL    HW127041   2.011   1.004   3.811
 8714SOL    HW227042   2.065   1.159   3.806
 8715SOL     OW27043   5.311   0.035   2.961
 8715SOL    HW127044   5.266   6.983   2.913
 8715SOL    HW227045   5.316   0.115   2.901
 8716SOL     OW27046   1.350   0.895   2.342
 8716SOL    HW127047   1.301   0.868   2.259
 8716SOL    HW227048   1.443   0.923   2.318
 8717SOL     OW27049   4.715   3.883   0.699
 8717SOL    HW127050   4.779   3.959   0.691
 8717SOL    HW227051   4.694   3.846   0.609
 8718SOL     OW27052   6.842   2.774   6.162
 8718SOL    HW127053   6.756   2.815   6.194
 8718SOL    HW227054   6.835   2.756   6.063
 8719SOL     OW27055   6.959   0.818   5.158
 8719SOL    HW127056   7.004   0.905   5.179
 8719SOL    HW227057   7.012   0.743   5.198
 8720SOL     OW27058   5.091   3.248   5.611
 8720SOL    HW127059   5.035   3.295   5.678
 8720SOL    HW227060   5.071   3.283   5.519
 8721SOL     OW27061   6.994   0.504   4.954
 8721SOL    HW127062   0.026   0.507   5.038
 8721SOL    HW227063   0.022   0.548   4.880
 8722SOL     OW27064   4.063   2.520   0.491
 8722SOL    HW127065   4.010   2.559   0.416
 8722SOL    HW227066   4.150   2.485   0.456
 8723SOL     OW27067   0.233   5.767   0.667
 8723SOL    HW127068   0.164   5.743   0.736
 8723SOL    HW227069   0.253   5.688   0.610
 8724SOL     OW27070   4.044   5.889   6.332
 8724SOL    HW127071   4.074   5.929   6.419
 8724SOL    HW227072   4.041   5.960   6.262
 8725SOL     OW27073   2.204   6.761   0.005
 8725SOL    HW127074   2.250   6.717   0.083
 8725SOL    HW227075   2.111   6.723   7.019
 8726SOL     OW27076   0.634   6.422   0.262
 8726SOL    HW127077   0.695   6.427   0.341
 8726SOL    HW227078   0.672   6.360   0.194
 8727SOL     OW27079   5.180   6.668   1.754
 8727SOL    HW127080   5.119   6.693   1.829
 8727SOL    HW227081   5.245   6.599   1.785
 8728SOL     OW27082   2.537   5.803   5.316
 8728SOL    HW127083   2.443   5.837   5.310
 8728SOL    HW227084   2.538   5.704   5.300
 8729SOL     OW27085   4.775   5.630   4.890
 8729SOL    HW127086   4.757   5.653   4.985
 8729SOL    HW227087   4.754   5.709   4.832
 8730SOL     OW27088   5.696   6.615   1.416
 8730SOL    HW127089   5.651   6.631   1.504
 8730SOL    HW227090   5.727   6.520   1.411
 8731SOL     OW27091   1.015   1.928   3.604
 8731SOL    HW127092   0.925   1.955   3.635
 8731SOL    HW227093   1.066   2.009   3.574
 8732SOL     OW27094   6.762   6.522   2.716
 8732SOL    HW127095   6.744   6.616   2.745
 8732SOL    HW227096   6.779   6.519   2.618
 8733SOL     OW27097   6.662   0.020   0.445
 8733SOL    HW127098   6.736   0.005   0.511
 8733SOL    HW227099   6.683   0.102   0.391
 8734SOL     OW27100   6.073   6.924   0.937
 8734SOL    HW127101   6.072   6.841   0.882
 8734SOL    HW227102   6.165   6.940   0.973
 8735SOL     OW27103   0.298   3.409   5.658
 8735SOL    HW127104   0.364   3.347   5.615
 8735SOL    HW227105   0.288   3.491   5.602
 8736SOL     OW27106   0.377   5.336   5.867
 8736SOL    HW127107   0.324   5.329   5.782
 8736SOL    HW227108   0.471   5.362   5.845
 8737SOL     OW27109   3.908   5.481   6.877
 8737SOL    HW127110   3.964   5.499   6.957
 8737SOL    HW227111   3.876   5.386   6.879
 8738SOL     OW27112   0.884   3.687   4.939
 8738SOL    HW127113   0.837   3.765   4.979
 8738SOL    HW227114   0.971   3.718   4.900
 8739SOL     OW27115   1.422   3.031   5.238
 8739SOL    HW127116   1.419   3.099   5.165
 8739SOL    HW227117   1.434   2.939   5.199
 8740SOL     OW27118   0.720   5.676   0.488
 8740SOL    HW127119   0.758   5.749   0.431
 8740SOL    HW227120   0.715   5.592   0.435
 8741SOL     OW27121   1.433   3.496   2.094
 8741SOL    HW127122   1.344   3.531   2.065
 8741SOL    HW227123   1.474   3.444   2.018
 8742SOL     OW27124   4.598   4.994   1.734
 8742SOL    HW127125   4.622   5.081   1.777
 8742SOL    HW227126   4.680   4.951   1.695
 8743SOL     OW27127   3.636   5.687   2.580
 8743SOL    HW127128   3.574   5.765   2.588
 8743SOL    HW227129   3.583   5.604   2.562
 8744SOL     OW27130   2.628   3.564   5.417
 8744SOL    HW127131   2.641   3.500   5.493
 8744SOL    HW227132   2.684   3.645   5.433
 8745SOL     OW27133   5.019   1.649   5.350
 8745SOL    HW127134   5.015   1.661   5.251
 8745SOL    HW227135   4.945   1.588   5.379
 8746SOL     OW27136   5.198   3.441   4.887
 8746SOL    HW127137   5.105   3.471   4.867
 8746SOL    HW227138   5.252   3.443   4.803
 8747SOL     OW27139   1.200   1.568   3.948
 8747SOL    HW127140   1.221   1.657   3.908
 8747SOL    HW227141   1.278   1.536   4.001
 8748SOL     OW27142   2.940   1.593   6.570
 8748SOL    HW127143   3.036   1.609   6.596
 8748SOL    HW227144   2.905   1.672   6.521
 8749SOL     OW27145   4.181   0.869   3.849
 8749SOL    HW127146   4.141   0.949   3.893
 8749SOL    HW227147   4.268   0.895   3.805
 8750SOL     OW27148   2.426   6.657   4.873
 8750SOL    HW127149   2.447   6.564   4.902
 8750SOL    HW227150   2.355   6.695   4.933
 8751SOL     OW27151   1.504   6.172   2.721
 8751SOL    HW127152   1.526   6.208   2.812
 8751SOL    HW227153   1.473   6.247   2.663
 8752SOL     OW27154   2.021   0.914   6.669
 8752SOL    HW127155   2.093   0.950   6.729
 8752SOL    HW227156   2.059   0.841   6.612
 8753SOL     OW27157   5.017   2.343   4.987
 8753SOL    HW127158   5.029   2.429   4.938
 8753SOL    HW227159   4.930   2.301   4.960
 8754SOL     OW27160   1.718   1.128   5.198
 8754SOL    HW127161   1.683   1.127   5.104
 8754SOL    HW227162   1.754   1.038   5.221
 8755SOL     OW27163   1.803   2.734   1.060
 8755SOL    HW127164   1.811   2.712   0.962
 8755SOL    HW227165   1.739   2.809   1.072
 8756SOL     OW27166   3.384   5.019   5.073
 8756SOL    HW127167   3.452   5.043   5.141
 8756SOL    HW227168   3.305   4.977   5.118
 8757SOL     OW27169   3.085   5.467   3.167
 8757SOL    HW127170   3.113   5.372   3.179
 8757SOL    HW227171   3.159   5.519   3.126
 8758SOL     OW27172   4.899   6.913   2.277
 8758SOL    HW127173   4.844   6.994   2.292
 8758SOL    HW227174   4.957   6.926   2.196
 8759SOL     OW27175   5.396   0.322   5.959
 8759SOL    HW127176   5.381   0.289   5.865
 8759SOL    HW227177   5.332   0.396   5.979
 8760SOL     OW27178   1.688   2.797   3.704
 8760SOL    HW127179   1.714   2.711   3.660
 8760SOL    HW227180   1.635   2.777   3.787
 8761SOL     OW27181   5.022   6.011   1.723
 8761SOL    HW127182   5.046   6.004   1.820
 8761SOL    HW227183   5.049   5.927   1.676
 8762SOL     OW27184   2.173   4.980   1.196
 8762SOL    HW127185   2.167   5.022   1.286
 8762SOL    HW227186   2.129   4.890   1.198
 8763SOL     OW27187   6.805   5.886   6.778
 8763SOL    HW127188   6.785   5.868   6.682
 8763SOL    HW227189   6.902   5.904   6.789
 8764SOL     OW27190   2.460   2.084   6.692
 8764SOL    HW127191   2.495   2.174   6.716
 8764SOL    HW227192   2.537   2.025   6.666
 8765SOL     OW27193   5.764   0.315   4.885
 8765SOL    HW127194   5.809   0.340   4.799
 8765SOL    HW227195   5.808   0.363   4.961
 8766SOL     OW27196   2.426   4.370   2.792
 8766SOL    HW127197   2.455   4.400   2.701
 8766SOL    HW227198   2.470   4.426   2.861
 8767SOL     OW27199   3.997   0.665   5.368
 8767SOL    HW127200   4.060   0.612   5.311
 8767SOL    HW227201   4.047   0.737   5.416
 8768SOL     OW27202   1.115   4.260   1.067
 8768SOL    HW127203   1.181   4.189   1.045
 8768SOL    HW227204   1.024   4.233   1.036
 8769SOL     OW27205   1.680   0.015   6.727
 8769SOL    HW127206   1.616   0.082   6.688
 8769SOL    HW227207   1.772   0.033   6.693
 8770SOL     OW27208   6.134   2.230   3.235
 8770SOL    HW127209   6.199   2.155   3.249
 8770SOL    HW227210   6.181   2.310   3.198
 8771SOL     OW27211   3.063   3.415   4.460
 8771SOL    HW127212   3.071   3.317   4.444
 8771SOL    HW227213   3.146   3.450   4.504
 8772SOL     OW27214   0.031   0.318   6.735
 8772SOL    HW127215   6.988   0.242   6.734
 8772SOL    HW227216   0.124   0.282   6.735
 8773SOL     OW27217   3.114   1.736   3.214
 8773SOL    HW127218   3.140   1.667   3.282
 8773SOL    HW227219   3.049   1.800   3.256
 8774SOL     OW27220   1.637   1.484   0.831
 8774SOL    HW127221   1.729   1.448   0.814
 8774SOL    HW227222   1.606   1.534   0.751
 8775SOL     OW27223   6.358   6.304   3.932
 8775SOL    HW127224   6.452   6.287   3.902
 8775SOL    HW227225   6.314   6.217   3.954
 8776SOL     OW27226   3.291   2.950   5.594
 8776SOL    HW127227   3.274   2.866   5.645
 8776SOL    HW227228   3.388   2.974   5.599
 8777SOL     OW27229   6.093   5.301   3.011
 8777SOL    HW127230   6.098   5.386   3.064
 8777SOL    HW227231   6.153   5.307   2.931
 8778SOL     OW27232   1.178   3.161   2.911
 8778SOL    HW127233   1.235   3.223   2.964
 8778SOL    HW227234   1.233   3.085   2.877
 8779SOL     OW27235   1.850   4.795   0.752
 8779SOL    HW127236   1.882   4.872   0.697
 8779SOL    HW227237   1.757   4.771   0.724
 8780SOL     OW27238   2.070   6.038   4.907
 8780SOL    HW127239   2.022   6.015   4.822
 8780SOL    HW227240   2.006   6.083   4.970
 8781SOL     OW27241   0.634   2.725   2.542
 8781SOL    HW127242   0.552   2.706   2.490
 8781SOL    HW227243   0.652   2.650   2.605
 8782SOL     OW27244   5.237   0.942   4.439
 8782SOL    HW127245   5.245   0.957   4.340
 8782SOL    HW227246   5.328   0.922   4.477
 8783SOL     OW27247   6.410   2.303   5.771
 8783SOL    HW127248   6.325   2.338   5.809
 8783SOL    HW227249   6.429   2.212   5.808
 8784SOL     OW27250   4.918   3.988   6.218
 8784SOL    HW127251   4.861   4.008   6.298
 8784SOL    HW227252   5.007   4.032   6.228
 8785SOL     OW27253   5.583   4.035   6.275
 8785SOL    HW127254   5.643   4.112   6.251
 8785SOL    HW227255   5.555   3.989   6.191
 8786SOL     OW27256   1.949   5.200   6.605
 8786SOL    HW127257   1.947   5.294   6.640
 8786SOL    HW227258   1.898   5.140   6.668
 8787SOL     OW27259   1.316   2.516   6.863
 8787SOL    HW127260   1.312   2.566   6.776
 8787SOL    HW227261   1.392   2.451   6.860
 8788SOL     OW27262   1.432   1.636   5.172
 8788SOL    HW127263   1.464   1.712   5.228
 8788SOL    HW227264   1.506   1.571   5.158
 8789SOL     OW27265   6.858   1.545   0.319
 8789SOL    HW127266   6.783   1.514   0.262
 8789SOL    HW227267   6.931   1.476   0.319
 8790SOL     OW27268   4.393   1.006   0.428
 8790SOL    HW127269   4.439   0.997   0.340
 8790SOL    HW227270   4.404   0.921   0.480
 8791SOL     OW27271   6.378   5.972   5.845
 8791SOL    HW127272   6.300   5.974   5.782
 8791SOL    HW227273   6.349   6.007   5.935
 8792SOL     OW27274   6.013   6.507   2.543
 8792SOL    HW127275   6.084   6.490   2.475
 8792SOL    HW227276   5.992   6.605   2.545
 8793SOL     OW27277   1.113   5.188   2.834
 8793SOL    HW127278   1.154   5.103   2.804
 8793SOL    HW227279   1.183   5.248   2.873
 8794SOL     OW27280   2.033   6.377   1.673
 8794SOL    HW127281   2.115   6.359   1.727
 8794SOL    HW227282   2.020   6.476   1.665
 8795SOL     OW27283   3.939   6.805   4.466
 8795SOL    HW127284   3.843   6.832   4.462
 8795SOL    HW227285   3.996   6.880   4.432
 8796SOL     OW27286   3.905   1.728   4.566
 8796SOL    HW127287   4.001   1.756   4.565
 8796SOL    HW227288   3.856   1.775   4.492
 8797SOL     OW27289   6.645   5.427   0.632
 8797SOL    HW127290   6.624   5.418   0.535
 8797SOL    HW227291   6.738   5.462   0.643
 8798SOL     OW27292   3.385   3.309   5.486
 8798SOL    HW127293   3.394   3.297   5.387
 8798SOL    HW227294   3.475   3.320   5.527
 8799SOL     OW27295   4.139   1.053   2.301
 8799SOL    HW127296   4.140   1.133   2.241
 8799SOL    HW227297   4.117   0.972   2.247
 8800SOL     OW27298   4.179   3.769   0.735
 8800SOL    HW127299   4.213   3.818   0.815
 8800SOL    HW227300   4.150   3.677   0.762
 8801SOL     OW27301   3.100   0.359   5.485
 8801SOL    HW127302   3.101   0.271   5.532
 8801SOL    HW227303   3.012   0.371   5.440
 8802SOL     OW27304   1.460   6.612   0.974
 8802SOL    HW127305   1.460   6.682   0.902
 8802SOL    HW227306   1.448   6.655   1.063
 8803SOL     OW27307   3.448   6.299   2.569
 8803SOL    HW127308   3.498   6.298   2.482
 8803SOL    HW227309   3.448   6.392   2.606
 8804SOL     OW27310   3.468   0.500   1.450
 8804SOL    HW127311   3.498   0.542   1.536
 8804SOL    HW227312   3.486   0.563   1.374
 8805SOL     OW27313   6.879   0.550   3.789
 8805SOL    HW127314   6.864   0.625   3.853
 8805SOL    HW227315   6.956   0.494   3.820
 8806SOL     OW27316   1.576   4.957   6.543
 8806SOL    HW127317   1.498   4.894   6.537
 8806SOL    HW227318   1.629   4.951   6.458
 8807SOL     OW27319   1.357   5.402   6.426
 8807SOL    HW127320   1.317   5.345   6.355
 8807SOL    HW227321   1.428   5.460   6.387
 8808SOL     OW27322   5.531   2.573   0.957
 8808SOL    HW127323   5.532   2.474   0.943
 8808SOL    HW227324   5.439   2.608   0.939
 8809SOL     OW27325   5.798   4.523   0.069
 8809SOL    HW127326   5.755   4.525   7.002
 8809SOL    HW227327   5.745   4.465   0.131
 8810SOL     OW27328   5.500   1.562   4.014
 8810SOL    HW127329   5.448   1.582   4.097
 8810SOL    HW227330   5.588   1.610   4.018
 8811SOL     OW27331   0.720   0.510   3.231
 8811SOL    HW127332   0.689   0.415   3.220
 8811SOL    HW227333   0.664   0.555   3.300
 8812SOL     OW27334   2.667   0.386   0.174
 8812SOL    HW127335   2.603   0.411   0.102
 8812SOL    HW227336   2.617   0.344   0.250
 8813SOL     OW27337   0.586   5.271   1.096
 8813SOL    HW127338   0.673   5.320   1.091
 8813SOL    HW227339   0.528   5.312   1.166
 8814SOL     OW27340   6.339   6.781   6.277
 8814SOL    HW127341   6.242   6.791   6.297
 8814SOL    HW227342   6.388   6.863   6.306
 8815SOL     OW27343   6.260   4.842   3.394
 8815SOL    HW127344   6.334   4.824   3.329
 8815SOL    HW227345   6.283   4.800   3.482
 8816SOL     OW27346   0.458   5.257   2.070
 8816SOL    HW127347   0.414   5.245   2.159
 8816SOL    HW227348   0.475   5.354   2.053
 8817SOL     OW27349   1.840   4.018   4.911
 8817SOL    HW127350   1.923   4.007   4.965
 8817SOL    HW227351   1.808   3.928   4.881
 8818SOL     OW27352   6.803   5.130   5.466
 8818SOL    HW127353   6.871   5.188   5.509
 8818SOL    HW227354   6.843   5.083   5.387
 8819SOL     OW27355   0.431   1.626   4.637
 8819SOL    HW127356   0.471   1.574   4.562
 8819SOL    HW227357   0.490   1.621   4.717
 8820SOL     OW27358   1.760   2.540   3.583
 8820SOL    HW127359   1.708   2.477   3.525
 8820SOL    HW227360   1.793   2.492   3.663
 8821SOL     OW27361   1.571   6.057   6.950
 8821SOL    HW127362   1.608   6.145   6.982
 8821SOL    HW227363   1.588   6.048   6.852
 8822SOL     OW27364   1.408   1.840   3.330
 8822SOL    HW127365   1.333   1.788   3.288
 8822SOL    HW227366   1.399   1.937   3.305
 8823SOL     OW27367   2.652   5.932   0.255
 8823SOL    HW127368   2.638   5.845   0.303
 8823SOL    HW227369   2.749   5.943   0.235
 8824SOL     OW27370   5.049   4.142   1.602
 8824SOL    HW127371   5.119   4.118   1.669
 8824SOL    HW227372   4.975   4.191   1.647
 8825SOL     OW27373   2.084   2.024   6.439
 8825SOL    HW127374   1.991   1.988   6.428
 8825SOL    HW227375   2.134   1.967   6.504
 8826SOL     OW27376   5.523   6.614   1.207
 8826SOL    HW127377   5.596   6.637   1.272
 8826SOL    HW227378   5.552   6.637   1.114
 8827SOL     OW27379   0.108   0.887   4.065
 8827SOL    HW127380   0.102   0.982   4.033
 8827SOL    HW227381   0.108   0.826   3.986
 8828SOL     OW27382   1.417   5.290   2.709
 8828SOL    HW127383   1.506   5.315   2.669
 8828SOL    HW227384   1.388   5.361   2.772
 8829SOL     OW27385   6.983   0.420   1.505
 8829SOL    HW127386   0.036   0.420   1.571
 8829SOL    HW227387   6.981   0.508   1.457
 8830SOL     OW27388   1.135   1.499   1.634
 8830SOL    HW127389   1.056   1.530   1.580
 8830SOL    HW227390   1.108   1.491   1.730
 8831SOL     OW27391   0.110   0.172   1.251
 8831SOL    HW127392   0.132   0.268   1.234
 8831SOL    HW227393   0.137   0.118   1.171
 8832SOL     OW27394   6.230   0.674   1.135
 8832SOL    HW127395   6.296   0.741   1.100
 8832SOL    HW227396   6.224   0.682   1.234
 8833SOL     OW27397   6.894   5.647   1.083
 8833SOL    HW127398   6.807   5.692   1.061
 8833SOL    HW227399   6.915   5.660   1.180
 8834SOL     OW27400   6.705   4.241   4.990
 8834SOL    HW127401   6.635   4.174   5.016
 8834SOL    HW227402   6.774   4.246   5.063
 8835SOL     OW27403   1.227   1.935   0.395
 8835SOL    HW127404   1.320   1.942   0.360
 8835SOL    HW227405   1.199   2.022   0.434
 8836SOL     OW27406   4.924   2.079   1.467
 8836SOL    HW127407   4.838   2.028   1.470
 8836SOL    HW227408   4.929   2.131   1.382
 8837SOL     OW27409   0.789   3.104   2.204
 8837SOL    HW127410   0.710   3.149   2.163
 8837SOL    HW227411   0.862   3.096   2.135
 8838SOL     OW27412   1.802   6.528   2.991
 8838SOL    HW127413   1.705   6.542   3.007
 8838SOL    HW227414   1.855   6.575   3.062
 8839SOL     OW27415   5.813   5.451   5.071
 8839SOL    HW127416   5.897   5.397   5.081
 8839SOL    HW227417   5.837   5.547   5.053
 8840SOL     OW27418   4.454   0.573   2.090
 8840SOL    HW127419   4.437   0.478   2.065
 8840SOL    HW227420   4.482   0.624   2.008
 8841SOL     OW27421   4.400   0.205   3.183
 8841SOL    HW127422   4.425   0.241   3.273
 8841SOL    HW227423   4.321   0.145   3.192
 8842SOL     OW27424   1.771   1.810   2.292
 8842SOL    HW127425   1.780   1.807   2.193
 8842SOL    HW227426   1.674   1.811   2.317
 8843SOL     OW27427   0.101   2.479   3.865
 8843SOL    HW127428   0.021   2.504   3.810
 8843SOL    HW227429   0.184   2.510   3.819
 8844SOL     OW27430   5.822   1.692   6.712
 8844SOL    HW127431   5.782   1.781   6.690
 8844SOL    HW227432   5.853   1.648   6.628
 8845SOL     OW27433   5.624   2.981   0.020
 8845SOL    HW127434   5.617   3.049   6.970
 8845SOL    HW227435   5.534   2.967   0.062
 8846SOL     OW27436   3.203   4.958   4.341
 8846SOL    HW127437   3.302   4.957   4.324
 8846SOL    HW227438   3.186   4.935   4.437
 8847SOL     OW27439   1.931   1.945   3.836
 8847SOL    HW127440   1.957   1.882   3.762
 8847SOL    HW227441   2.006   1.951   3.902
 8848SOL     OW27442   0.455   1.397   4.066
 8848SOL    HW127443   0.530   1.463   4.074
 8848SOL    HW227444   0.425   1.392   3.971
 8849SOL     OW27445   2.270   6.333   1.802
 8849SOL    HW127446   2.325   6.407   1.764
 8849SOL    HW227447   2.328   6.273   1.858
 8850SOL     OW27448   3.710   2.017   0.303
 8850SOL    HW127449   3.702   2.008   0.203
 8850SOL    HW227450   3.621   2.040   0.341
 8851SOL     OW27451   2.266   4.227   1.309
 8851SOL    HW127452   2.172   4.194   1.321
 8851SOL    HW227453   2.323   4.153   1.272
 8852SOL     OW27454   0.745   3.000   4.975
 8852SOL    HW127455   0.813   3.061   4.936
 8852SOL    HW227456   0.661   3.051   4.994
 8853SOL     OW27457   5.289   0.355   1.405
 8853SOL    HW127458   5.313   0.259   1.389
 8853SOL    HW227459   5.192   0.369   1.383
 8854SOL     OW27460   7.016   2.834   4.951
 8854SOL    HW127461   0.049   2.856   4.871
 8854SOL    HW227462   6.949   2.907   4.966
 8855SOL     OW27463   5.270   5.017   1.180
 8855SOL    HW127464   5.323   4.935   1.161
 8855SOL    HW227465   5.175   4.991   1.201
 8856SOL     OW27466   6.258   0.660   5.217
 8856SOL    HW127467   6.259   0.561   5.201
 8856SOL    HW227468   6.249   0.708   5.130
 8857SOL     OW27469   6.882   2.522   0.095
 8857SOL    HW127470   6.857   2.427   0.113
 8857SOL    HW227471   6.935   2.558   0.172
 8858SOL     OW27472   0.499   5.176   5.211
 8858SOL    HW127473   0.423   5.144   5.156
 8858SOL    HW227474   0.561   5.100   5.231
 8859SOL     OW27475   0.354   6.108   3.718
 8859SOL    HW127476   0.387   6.181   3.658
 8859SOL    HW227477   0.336   6.146   3.809
 8860SOL     OW27478   7.009   2.259   3.530
 8860SOL    HW127479   6.966   2.191   3.589
 8860SOL    HW227480   0.083   2.237   3.516
 8861SOL     OW27481   3.687   2.963   1.217
 8861SOL    HW127482   3.620   3.037   1.212
 8861SOL    HW227483   3.660   2.898   1.288
 8862SOL     OW27484   4.652   4.922   4.601
 8862SOL    HW127485   4.697   4.961   4.681
 8862SOL    HW227486   4.572   4.978   4.577
 8863SOL     OW27487   1.904   3.589   2.167
 8863SOL    HW127488   1.898   3.551   2.075
 8863SOL    HW227489   1.813   3.620   2.196
 8864SOL     OW27490   6.911   2.322   4.741
 8864SOL    HW127491   6.837   2.326   4.808
 8864SOL    HW227492   6.876   2.282   4.656
 8865SOL     OW27493   2.755   1.399   0.719
 8865SOL    HW127494   2.783   1.438   0.807
 8865SOL    HW227495   2.814   1.322   0.696
 8866SOL     OW27496   6.114   1.243   2.211
 8866SOL    HW127497   6.029   1.218   2.257
 8866SOL    HW227498   6.095   1.263   2.115
 8867SOL     OW27499   5.940   1.744   4.357
 8867SOL    HW127500   5.842   1.760   4.370
 8867SOL    HW227501   5.954   1.678   4.284
 8868SOL     OW27502   0.339   2.998   4.101
 8868SOL    HW127503   0.412   2.977   4.036
 8868SOL    HW227504   0.253   2.960   4.067
 8869SOL     OW27505   3.453   0.324   3.005
 8869SOL    HW127506   3.436   0.393   2.935
 8869SOL    HW227507   3.366   0.285   3.035
 8870SOL     OW27508   0.817   1.060   1.246
 8870SOL    HW127509   0.829   1.155   1.217
 8870SOL    HW227510   0.720   1.040   1.257
 8871SOL     OW27511   6.894   6.426   0.294
 8871SOL    HW127512   6.892   6.348   0.357
 8871SOL    HW227513   6.985   6.435   0.255
 8872SOL     OW27514   6.364   5.450   3.321
 8872SOL    HW127515   6.370   5.545   3.353
 8872SOL    HW227516   6.441   5.397   3.357
 8873SOL     OW27517   1.963   1.920   3.113
 8873SOL    HW127518   2.044   1.976   3.096
 8873SOL    HW227519   1.978   1.828   3.076
 8874SOL     OW27520   2.327   6.310   0.578
 8874SOL    HW127521   2.424   6.314   0.556
 8874SOL    HW227522   2.306   6.226   0.627
 8875SOL     OW27523   6.750   2.745   4.279
 8875SOL    HW127524   6.666   2.706   4.243
 8875SOL    HW227525   6.818   2.673   4.293
 8876SOL     OW27526   5.089   0.346   0.271
 8876SOL    HW127527   5.108   0.423   0.333
 8876SOL    HW227528   5.051   0.270   0.323
 8877SOL     OW27529   0.885   4.467   2.065
 8877SOL    HW127530   0.937   4.550   2.041
 8877SOL    HW227531   0.931   4.419   2.140
 8878SOL     OW27532   4.840   3.885   2.617
 8878SOL    HW127533   4.766   3.890   2.549
 8878SOL    HW227534   4.926   3.910   2.573
 8879SOL     OW27535   6.217   4.514   3.591
 8879SOL    HW127536   6.253   4.500   3.499
 8879SOL    HW227537   6.289   4.550   3.650
 8880SOL     OW27538   3.899   1.762   2.705
 8880SOL    HW127539   3.916   1.825   2.780
 8880SOL    HW227540   3.802   1.734   2.706
 8881SOL     OW27541   4.088   6.001   2.783
 8881SOL    HW127542   4.128   6.035   2.869
 8881SOL    HW227543   3.989   5.996   2.792
 8882SOL     OW27544   3.727   1.193   6.801
 8882SOL    HW127545   3.770   1.272   6.845
 8882SOL    HW227546   3.735   1.202   6.702
 8883SOL     OW27547   0.466   6.795   3.127
 8883SOL    HW127548   0.368   6.804   3.106
 8883SOL    HW227549   0.514   6.758   3.048
 8884SOL     OW27550   4.620   1.901   5.838
 8884SOL    HW127551   4.600   1.819   5.891
 8884SOL    HW227552   4.599   1.885   5.742
 8885SOL     OW27553   4.837   5.643   0.770
 8885SOL    HW127554   4.791   5.554   0.769
 8885SOL    HW227555   4.849   5.673   0.864
 8886SOL     OW27556   4.555   6.645   0.898
 8886SOL    HW127557   4.515   6.736   0.889
 8886SOL    HW227558   4.599   6.619   0.812
 8887SOL     OW27559   4.194   0.667   2.601
 8887SOL    HW127560   4.206   0.658   2.502
 8887SOL    HW227561   4.281   0.692   2.643
 8888SOL     OW27562   3.845   1.851   2.411
 8888SOL    HW127563   3.804   1.762   2.395
 8888SOL    HW227564   3.900   1.877   2.332
 8889SOL     OW27565   2.023   4.352   6.642
 8889SOL    HW127566   2.071   4.267   6.664
 8889SOL    HW227567   1.945   4.333   6.584
 8890SOL     OW27568   2.203   5.766   6.993
 8890SOL    HW127569   2.145   5.688   7.019
 8890SOL    HW227570   2.290   5.760   0.019
 8891SOL     OW27571   5.390   3.519   5.053
 8891SOL    HW127572   5.440   3.451   5.107
 8891SOL    HW227573   5.336   3.473   4.983
 8892SOL     OW27574   2.477   4.961   5.951
 8892SOL    HW127575   2.545   5.034   5.960
 8892SOL    HW227576   2.473   4.908   6.035
 8893SOL     OW27577   0.396   4.793   5.252
 8893SOL    HW127578   0.375   4.707   5.297
 8893SOL    HW227579   0.420   4.776   5.156
 8894SOL     OW27580   5.909   2.342   2.026
 8894SOL    HW127581   5.895   2.337   1.927
 8894SOL    HW227582   6.003   2.369   2.045
 8895SOL     OW27583   0.664   3.288   1.960
 8895SOL    HW127584   0.649   3.234   1.877
 8895SOL    HW227585   0.583   3.344   1.978
 8896SOL     OW27586   0.615   0.752   3.709
 8896SOL    HW127587   0.701   0.741   3.758
 8896SOL    HW227588   0.558   0.671   3.721
 8897SOL     OW27589   1.114   4.461   4.126
 8897SOL    HW127590   1.073   4.499   4.209
 8897SOL    HW227591   1.190   4.519   4.096
 8898SOL     OW27592   6.118   4.982   1.988
 8898SOL    HW127593   6.076   5.067   2.020
 8898SOL    HW227594   6.143   4.925   2.066
 8899SOL     OW27595   1.553   4.626   2.476
 8899SOL    HW127596   1.522   4.641   2.382
 8899SOL    HW227597   1.638   4.677   2.491
 8900SOL     OW27598   4.537   1.885   5.005
 8900SOL    HW127599   4.536   1.974   5.050
 8900SOL    HW227600   4.615   1.832   5.038
 8901SOL     OW27601   0.894   5.337   5.694
 8901SOL    HW127602   0.885   5.250   5.645
 8901SOL    HW227603   0.990   5.359   5.705
 8902SOL     OW27604   1.697   3.751   6.505
 8902SOL    HW127605   1.760   3.686   6.462
 8902SOL    HW227606   1.604   3.733   6.473
 8903SOL     OW27607   0.717   0.843   3.479
 8903SOL    HW127608   0.672   0.833   3.567
 8903SOL    HW227609   0.734   0.940   3.460
 8904SOL     OW27610   5.652   0.757   2.102
 8904SOL    HW127611   5.606   0.831   2.052
 8904SOL    HW227612   5.583   0.695   2.140
 8905SOL     OW27613   1.662   4.935   1.514
 8905SOL    HW127614   1.703   4.858   1.564
 8905SOL    HW227615   1.650   4.910   1.419
 8906SOL     OW27616   6.978   1.585   6.647
 8906SOL    HW127617   0.031   1.533   6.608
 8906SOL    HW227618   6.985   1.681   6.618
 8907SOL     OW27619   2.788   2.993   5.322
 8907SOL    HW127620   2.709   3.018   5.267
 8907SOL    HW227621   2.865   3.053   5.299
 8908SOL     OW27622   1.961   6.431   5.650
 8908SOL    HW127623   1.870   6.392   5.636
 8908SOL    HW227624   1.974   6.453   5.746
 8909SOL     OW27625   1.766   6.359   1.696
 8909SOL    HW127626   1.734   6.438   1.644
 8909SOL    HW227627   1.861   6.374   1.726
 8910SOL     OW27628   1.235   0.978   3.781
 8910SOL    HW127629   1.193   0.914   3.717
 8910SOL    HW227630   1.242   1.068   3.739
 8911SOL     OW27631   5.214   2.703   4.447
 8911SOL    HW127632   5.130   2.658   4.417
 8911SOL    HW227633   5.287   2.686   4.381
 8912SOL     OW27634   3.598   3.690   3.618
 8912SOL    HW127635   3.692   3.690   3.653
 8912SOL    HW227636   3.598   3.719   3.522
 8913SOL     OW27637   5.022   5.598   0.467
 8913SOL    HW127638   4.929   5.620   0.438
 8913SOL    HW227639   5.079   5.680   0.463
 8914SOL     OW27640   5.190   4.838   4.927
 8914SOL    HW127641   5.185   4.748   4.971
 8914SOL    HW227642   5.192   4.827   4.828
 8915SOL     OW27643   2.779   1.680   3.257
 8915SOL    HW127644   2.681   1.685   3.239
 8915SOL    HW227645   2.829   1.720   3.181
 8916SOL     OW27646   6.618   6.799   2.503
 8916SOL    HW127647   6.624   6.821   2.600
 8916SOL    HW227648   6.626   6.700   2.491
 8917SOL     OW27649   5.590   2.701   6.952
 8917SOL    HW127650   5.564   2.774   7.016
 8917SOL    HW227651   5.654   2.738   6.884
 8918SOL     OW27652   1.895   3.208   3.085
 8918SOL    HW127653   1.963   3.182   3.016
 8918SOL    HW227654   1.925   3.291   3.132
 8919SOL     OW27655   0.208   2.001   3.119
 8919SOL    HW127656   0.222   2.077   3.056
 8919SOL    HW227657   0.114   2.002   3.153
 8920SOL     OW27658   1.814   2.207   0.200
 8920SOL    HW127659   1.799   2.117   0.241
 8920SOL    HW227660   1.906   2.239   0.224
 8921SOL     OW27661   2.051   1.433   2.266
 8921SOL    HW127662   2.043   1.510   2.330
 8921SOL    HW227663   2.140   1.391   2.276
 8922SOL     OW27664   3.726   5.607   3.900
 8922SOL    HW127665   3.759   5.521   3.938
 8922SOL    HW227666   3.632   5.597   3.869
 8923SOL     OW27667   2.698   2.260   3.852
 8923SOL    HW127668   2.769   2.224   3.912
 8923SOL    HW227669   2.655   2.339   3.895
 8924SOL     OW27670   6.291   4.761   4.722
 8924SOL    HW127671   6.233   4.782   4.643
 8924SOL    HW227672   6.349   4.683   4.701
 8925SOL     OW27673   1.278   5.815   3.833
 8925SOL    HW127674   1.310   5.893   3.886
 8925SOL    HW227675   1.341   5.738   3.845
 8926SOL     OW27676   5.964   2.598   6.554
 8926SOL    HW127677   5.931   2.607   6.460
 8926SOL    HW227678   5.991   2.503   6.571
 8927SOL     OW27679   1.375   1.511   6.059
 8927SOL    HW127680   1.415   1.539   5.972
 8927SOL    HW227681   1.447   1.483   6.121
 8928SOL     OW27682   6.506   5.960   5.080
 8928SOL    HW127683   6.584   6.016   5.109
 8928SOL    HW227684   6.432   5.970   5.147
 8929SOL     OW27685   0.842   1.033   3.018
 8929SOL    HW127686   0.929   0.990   2.994
 8929SOL    HW227687   0.767   0.978   2.982
 8930SOL     OW27688   2.349   5.158   2.290
 8930SOL    HW127689   2.389   5.070   2.315
 8930SOL    HW227690   2.371   5.178   2.195
 8931SOL     OW27691   4.704   3.751   6.996
 8931SOL    HW127692   4.765   3.807   6.940
 8931SOL    HW227693   4.741   3.744   0.066
 8932SOL     OW27694   1.053   3.093   2.105
 8932SOL    HW127695   1.069   3.190   2.125
 8932SOL    HW227696   0.987   3.085   2.030
 8933SOL     OW27697   4.947   2.601   5.256
 8933SOL    HW127698   4.910   2.650   5.335
 8933SOL    HW227699   4.917   2.647   5.172
 8934SOL     OW27700   2.640   5.861   2.208
 8934SOL    HW127701   2.578   5.783   2.219
 8934SOL    HW227702   2.733   5.828   2.191
 8935SOL     OW27703   0.655   5.667   6.494
 8935SOL    HW127704   0.638   5.766   6.491
 8935SOL    HW227705   0.753   5.651   6.506
 8936SOL     OW27706   4.285   3.486   0.069
 8936SOL    HW127707   4.359   3.548   0.043
 8936SOL    HW227708   4.219   3.481   7.017
 8937SOL     OW27709   0.523   1.977   6.538
 8937SOL    HW127710   0.584   1.946   6.611
 8937SOL    HW227711   0.429   1.980   6.573
 8938SOL     OW27712   5.257   5.247   1.854
 8938SOL    HW127713   5.345   5.220   1.814
 8938SOL    HW227714   5.240   5.194   1.937
 8939SOL     OW27715   6.285   1.620   4.728
 8939SOL    HW127716   6.368   1.653   4.682
 8939SOL    HW227717   6.204   1.649   4.677
 8940SOL     OW27718   5.189   6.802   1.403
 8940SOL    HW127719   5.221   6.708   1.412
 8940SOL    HW227720   5.207   6.852   1.487
 8941SOL     OW27721   4.241   1.687   0.331
 8941SOL    HW127722   4.255   1.779   0.293
 8941SOL    HW227723   4.207   1.627   0.259
 8942SOL     OW27724   0.952   2.146   5.599
 8942SOL    HW127725   1.041   2.147   5.552
 8942SOL    HW227726   0.963   2.106   5.690
 8943SOL     OW27727   5.090   3.072   0.384
 8943SOL    HW127728   5.034   3.147   0.417
 8943SOL    HW227729   5.075   3.059   0.286
 8944SOL     OW27730   4.533   5.450   0.677
 8944SOL    HW127731   4.622   5.409   0.695
 8944SOL    HW227732   4.492   5.480   0.764
 8945SOL     OW27733   2.467   0.677   3.711
 8945SOL    HW127734   2.417   0.642   3.790
 8945SOL    HW227735   2.556   0.633   3.706
 8946SOL     OW27736   3.828   0.339   5.255
 8946SOL    HW127737   3.781   0.275   5.315
 8946SOL    HW227738   3.805   0.432   5.280
 8947SOL     OW27739   2.936   3.210   5.923
 8947SOL    HW127740   2.984   3.124   5.910
 8947SOL    HW227741   2.993   3.286   5.893
 8948SOL     OW27742   5.189   5.474   3.632
 8948SOL    HW127743   5.127   5.454   3.557
 8948SOL    HW227744   5.280   5.436   3.611
 8949SOL     OW27745   1.596   5.321   6.238
 8949SOL    HW127746   1.681   5.299   6.286
 8949SOL    HW227747   1.577   5.419   6.246
 8950SOL     OW27748   5.262   2.665   5.152
 8950SOL    HW127749   5.186   2.601   5.153
 8950SOL    HW227750   5.248   2.736   5.222
 8951SOL     OW27751   2.381   1.238   5.434
 8951SOL    HW127752   2.447   1.206   5.367
 8951SOL    HW227753   2.387   1.338   5.443
 8952SOL     OW27754   5.138   6.705   3.621
 8952SOL    HW127755   5.224   6.673   3.662
 8952SOL    HW227756   5.103   6.781   3.675
 8953SOL     OW27757   1.348   5.772   6.152
 8953SOL    HW127758   1.330   5.757   6.055
 8953SOL    HW227759   1.413   5.847   6.163
 8954SOL     OW27760   2.590   6.666   5.869
 8954SOL    HW127761   2.637   6.705   5.790
 8954SOL    HW227762   2.536   6.587   5.840
 8955SOL     OW27763   0.169   3.131   3.807
 8955SOL    HW127764   0.151   3.058   3.872
 8955SOL    HW227765   0.206   3.211   3.856
 8956SOL     OW27766   1.680   0.441   3.795
 8956SOL    HW127767   1.727   0.529   3.782
 8956SOL    HW227768   1.732   0.369   3.748
 8957SOL     OW27769   3.264   5.697   1.974
 8957SOL    HW127770   3.247   5.656   2.064
 8957SOL    HW227771   3.300   5.789   1.986
 8958SOL     OW27772   2.699   0.271   4.667
 8958SOL    HW127773   2.762   0.256   4.744
 8958SOL    HW227774   2.664   0.182   4.636
 8959SOL     OW27775   3.063   5.793   6.674
 8959SOL    HW127776   3.011   5.727   6.621
 8959SOL    HW227777   3.133   5.835   6.616
 8960SOL     OW27778   4.160   5.620   0.990
 8960SOL    HW127779   4.083   5.659   1.040
 8960SOL    HW227780   4.142   5.523   0.973
 8961SOL     OW27781   0.440   2.886   4.719
 8961SOL    HW127782   0.471   2.791   4.709
 8961SOL    HW227783   0.477   2.942   4.645
 8962SOL     OW27784   4.604   0.529   3.947
 8962SOL    HW127785   4.642   0.451   3.897
 8962SOL    HW227786   4.505   0.530   3.937
 8963SOL     OW27787   1.462   0.846   4.768
 8963SOL    HW127788   1.532   0.915   4.749
 8963SOL    HW227789   1.442   0.795   4.684
 8964SOL     OW27790   1.067   2.406   3.640
 8964SOL    HW127791   1.138   2.424   3.573
 8964SOL    HW227792   1.108   2.371   3.725
 8965SOL     OW27793   1.534   4.515   1.287
 8965SOL    HW127794   1.475   4.594   1.303
 8965SOL    HW227795   1.479   4.431   1.291
 8966SOL     OW27796   3.369   1.998   4.617
 8966SOL    HW127797   3.416   2.028   4.700
 8966SOL    HW227798   3.330   1.907   4.632
 8967SOL     OW27799   5.272   6.506   0.514
 8967SOL    HW127800   5.246   6.553   0.429
 8967SOL    HW227801   5.371   6.497   0.518
 8968SOL     OW27802   6.109   4.568   3.902
 8968SOL    HW127803   6.209   4.568   3.911
 8968SOL    HW227804   6.078   4.478   3.872
 8969SOL     OW27805   6.531   6.999   4.097
 8969SOL    HW127806   6.433   7.014   4.081
 8969SOL    HW227807   6.572   6.961   4.014
 8970SOL     OW27808   3.278   3.163   1.864
 8970SOL    HW127809   3.342   3.091   1.891
 8970SOL    HW227810   3.193   3.154   1.915
 8971SOL     OW27811   2.823   6.850   2.902
 8971SOL    HW127812   2.894   6.779   2.897
 8971SOL    HW227813   2.733   6.807   2.894
 8972SOL     OW27814   5.491   6.827   5.988
 8972SOL    HW127815   5.580   6.833   5.944
 8972SOL    HW227816   5.433   6.902   5.956
 8973SOL     OW27817   1.690   4.295   6.731
 8973SOL    HW127818   1.748   4.345   6.795
 8973SOL    HW227819   1.701   4.333   6.639
 8974SOL     OW27820   1.146   2.647   4.328
 8974SOL    HW127821   1.066   2.678   4.279
 8974SOL    HW227822   1.214   2.720   4.332
 8975SOL     OW27823   3.557   0.971   6.621
 8975SOL    HW127824   3.586   0.928   6.535
 8975SOL    HW227825   3.464   0.939   6.643
 8976SOL     OW27826   1.029   6.599   4.203
 8976SOL    HW127827   1.055   6.521   4.261
 8976SOL    HW227828   1.088   6.677   4.224
 8977SOL     OW27829   6.284   2.104   0.640
 8977SOL    HW127830   6.222   2.148   0.576
 8977SOL    HW227831   6.249   2.014   0.665
 8978SOL     OW27832   5.825   4.041   2.974
 8978SOL    HW127833   5.745   3.990   3.005
 8978SOL    HW227834   5.796   4.120   2.920
 8979SOL     OW27835   0.576   5.135   4.929
 8979SOL    HW127836   0.535   5.184   5.006
 8979SOL    HW227837   0.580   5.037   4.950
 8980SOL     OW27838   3.161   3.151   3.722
 8980SOL    HW127839   3.223   3.152   3.644
 8980SOL    HW227840   3.086   3.215   3.706
 8981SOL     OW27841   3.155   2.532   5.341
 8981SOL    HW127842   3.090   2.604   5.316
 8981SOL    HW227843   3.162   2.466   5.267
 8982SOL     OW27844   2.689   4.504   0.285
 8982SOL    HW127845   2.668   4.573   0.355
 8982SOL    HW227846   2.763   4.537   0.227
 8983SOL     OW27847   4.744   4.292   0.853
 8983SOL    HW127848   4.647   4.293   0.878
 8983SOL    HW227849   4.800   4.303   0.934
 8984SOL     OW27850   1.449   6.272   2.397
 8984SOL    HW127851   1.512   6.336   2.441
 8984SOL    HW227852   1.501   6.198   2.355
 8985SOL     OW27853   2.805   3.044   6.699
 8985SOL    HW127854   2.730   2.984   6.670
 8985SOL    HW227855   2.862   3.066   6.620
 8986SOL     OW27856   2.146   5.900   2.347
 8986SOL    HW127857   2.102   5.940   2.427
 8986SOL    HW227858   2.113   5.806   2.334
 8987SOL     OW27859   5.346   6.300   2.480
 8987SOL    HW127860   5.269   6.350   2.442
 8987SOL    HW227861   5.414   6.364   2.516
 8988SOL     OW27862   0.382   3.977   5.116
 8988SOL    HW127863   0.370   4.070   5.082
 8988SOL    HW227864   0.453   3.975   5.186
 8989SOL     OW27865   1.769   2.615   0.159
 8989SOL    HW127866   1.744   2.545   0.092
 8989SOL    HW227867   1.869   2.615   0.171
 8990SOL     OW27868   0.539   4.447   4.480
 8990SOL    HW127869   0.447   4.463   4.444
 8990SOL    HW227870   0.595   4.528   4.465
 8991SOL     OW27871   1.033   2.095   4.800
 8991SOL    HW127872   1.062   2.025   4.865
 8991SOL    HW227873   1.086   2.179   4.815
 8992SOL     OW27874   6.207   1.439   1.802
 8992SOL    HW127875   6.304   1.431   1.824
 8992SOL    HW227876   6.190   1.528   1.761
 8993SOL     OW27877   4.630   2.690   1.116
 8993SOL    HW127878   4.605   2.682   1.212
 8993SOL    HW227879   4.559   2.648   1.060
 8994SOL     OW27880   1.985   5.660   2.270
 8994SOL    HW127881   2.078   5.666   2.233
 8994SOL    HW227882   1.957   5.564   2.274
 8995SOL     OW27883   0.784   0.728   0.805
 8995SOL    HW127884   0.810   0.662   0.875
 8995SOL    HW227885   0.797   0.688   0.714
 8996SOL     OW27886   4.465   5.774   6.008
 8996SOL    HW127887   4.533   5.819   6.067
 8996SOL    HW227888   4.378   5.767   6.056
 8997SOL     OW27889   5.306   6.376   4.792
 8997SOL    HW127890   5.237   6.436   4.751
 8997SOL    HW227891   5.395   6.421   4.789
 8998SOL     OW27892   0.161   4.184   5.266
 8998SOL    HW127893   0.173   4.264   5.325
 8998SOL    HW227894   0.251   4.149   5.239
 8999SOL     OW27895   4.244   6.261   6.541
 8999SOL    HW127896   4.200   6.321   6.475
 8999SOL    HW227897   4.211   6.167   6.530
 9000SOL     OW27898   1.251   3.685   1.073
 9000SOL    HW127899   1.246   3.679   1.173
 9000SOL    HW227900   1.178   3.744   1.039
 9001SOL     OW27901   2.066   5.148   0.836
 9001SOL    HW127902   2.005   5.139   0.914
 9001SOL    HW227903   2.161   5.135   0.867
 9002SOL     OW27904   6.533   6.594   6.279
 9002SOL    HW127905   6.436   6.600   6.254
 9002SOL    HW227906   6.551   6.655   6.356
 9003SOL     OW27907   4.818   6.563   0.764
 9003SOL    HW127908   4.775   6.473   0.758
 9003SOL    HW227909   4.869   6.570   0.850
 9004SOL     OW27910   6.172   4.268   1.994
 9004SOL    HW127911   6.248   4.328   1.971
 9004SOL    HW227912   6.164   4.260   2.094
 9005SOL     OW27913   4.890   1.027   5.092
 9005SOL    HW127914   4.879   0.936   5.131
 9005SOL    HW227915   4.974   1.068   5.126
 9006SOL     OW27916   3.636   6.504   6.682
 9006SOL    HW127917   3.698   6.564   6.733
 9006SOL    HW227918   3.627   6.536   6.588
 9007SOL     OW27919   0.169   0.323   3.424
 9007SOL    HW127920   0.095   0.255   3.429
 9007SOL    HW227921   0.187   0.345   3.328
 9008SOL     OW27922   6.851   5.055   1.752
 9008SOL    HW127923   6.863   5.152   1.730
 9008SOL    HW227924   6.938   5.017   1.783
 9009SOL     OW27925   3.000   6.151   2.183
 9009SOL    HW127926   2.944   6.085   2.134
 9009SOL    HW227927   2.992   6.241   2.140
 9010SOL     OW27928   2.118   4.658   4.746
 9010SOL    HW127929   2.158   4.720   4.679
 9010SOL    HW227930   2.020   4.678   4.756
 9011SOL     OW27931   2.332   1.392   2.278
 9011SOL    HW127932   2.358   1.450   2.201
 9011SOL    HW227933   2.341   1.296   2.253
 9012SOL     OW27934   2.198   5.709   0.341
 9012SOL    HW127935   2.253   5.749   0.414
 9012SOL    HW227936   2.138   5.639   0.379
 9013SOL     OW27937   2.357   0.283   4.557
 9013SOL    HW127938   2.352   0.209   4.490
 9013SOL    HW227939   2.439   0.273   4.612
 9014SOL     OW27940   5.548   3.308   3.177
 9014SOL    HW127941   5.591   3.246   3.243
 9014SOL    HW227942   5.456   3.274   3.155
 9015SOL     OW27943   3.900   6.430   6.479
 9015SOL    HW127944   3.835   6.499   6.447
 9015SOL    HW227945   3.945   6.388   6.400
 9016SOL     OW27946   5.004   5.081   5.805
 9016SOL    HW127947   4.975   5.171   5.773
 9016SOL    HW227948   5.051   5.090   5.893
 9017SOL     OW27949   3.151   0.699   5.714
 9017SOL    HW127950   3.153   0.753   5.799
 9017SOL    HW227951   3.121   0.758   5.639
 9018SOL     OW27952   2.501   5.356   0.273
 9018SOL    HW127953   2.476   5.424   0.204
 9018SOL    HW227954   2.597   5.331   0.262
 9019SOL     OW27955   0.168   4.409   4.978
 9019SOL    HW127956   0.237   4.339   4.998
 9019SOL    HW227957   0.078   4.365   4.971
 9020SOL     OW27958   5.274   5.777   3.642
 9020SOL    HW127959   5.233   5.852   3.590
 9020SOL    HW227960   5.234   5.690   3.611
 9021SOL     OW27961   6.616   1.764   4.400
 9021SOL    HW127962   6.674   1.842   4.421
 9021SOL    HW227963   6.545   1.792   4.335
 9022SOL     OW27964   4.799   3.192   6.478
 9022SOL    HW127965   4.703   3.179   6.503
 9022SOL    HW227966   4.857   3.163   6.554
 9023SOL     OW27967   0.149   4.515   1.025
 9023SOL    HW127968   0.142   4.593   1.087
 9023SOL    HW227969   0.217   4.535   0.955
 9024SOL     OW27970   1.789   4.314   6.470
 9024SOL    HW127971   1.802   4.400   6.420
 9024SOL    HW227972   1.788   4.238   6.405
 9025SOL     OW27973   0.784   6.325   1.786
 9025SOL    HW127974   0.765   6.392   1.858
 9025SOL    HW227975   0.876   6.340   1.750
 9026SOL     OW27976   5.883   1.693   6.436
 9026SOL    HW127977   5.788   1.724   6.444
 9026SOL    HW227978   5.884   1.601   6.395
 9027SOL     OW27979   6.904   4.255   2.909
 9027SOL    HW127980   6.938   4.338   2.955
 9027SOL    HW227981   6.871   4.279   2.818
 9028SOL     OW27982   2.785   4.989   0.169
 9028SOL    HW127983   2.877   4.957   0.148
 9028SOL    HW227984   2.777   5.086   0.146
 9029SOL     OW27985   4.108   6.156   5.018
 9029SOL    HW127986   4.067   6.132   5.106
 9029SOL    HW227987   4.038   6.197   4.959
 9030SOL     OW27988   3.058   2.101   2.172
 9030SOL    HW127989   3.069   2.114   2.271
 9030SOL    HW227990   3.008   2.178   2.134
 9031SOL     OW27991   5.034   6.152   4.937
 9031SOL    HW127992   5.107   6.200   4.986
 9031SOL    HW227993   5.049   6.158   4.839
 9032SOL     OW27994   4.865   2.844   1.197
 9032SOL    HW127995   4.783   2.788   1.188
 9032SOL    HW227996   4.842   2.940   1.178
 9033SOL     OW27997   0.500   6.073   2.852
 9033SOL    HW127998   0.421   6.016   2.875
 9033SOL    HW227999   0.478   6.131   2.774
 9034SOL     OW28000   4.307   6.579   5.092
 9034SOL    HW128001   4.365   6.660   5.103
 9034SOL    HW228002   4.285   6.566   4.996
 9035SOL     OW28003   2.314   5.967   5.577
 9035SOL    HW128004   2.377   5.942   5.651
 9035SOL    HW228005   2.246   6.032   5.612
 9036SOL     OW28006   0.178   4.846   4.843
 9036SOL    HW128007   0.176   4.779   4.768
 9036SOL    HW228008   0.133   4.930   4.814
 9037SOL     OW28009   6.686   1.009   2.502
 9037SOL    HW128010   6.589   1.029   2.491
 9037SOL    HW228011   6.734   1.029   2.417
 9038SOL     OW28012   3.037   4.115   5.597
 9038SOL    HW128013   3.033   4.075   5.506
 9038SOL    HW228014   2.945   4.139   5.628
 9039SOL     OW28015   4.641   6.509   5.866
 9039SOL    HW128016   4.577   6.458   5.924
 9039SOL    HW228017   4.722   6.534   5.920
 9040SOL     OW28018   2.697   2.262   1.224
 9040SOL    HW128019   2.707   2.360   1.239
 9040SOL    HW228020   2.632   2.246   1.149
 9041SOL     OW28021   6.727   2.316   3.727
 9041SOL    HW128022   6.733   2.217   3.715
 9041SOL    HW228023   6.630   2.342   3.733
 9042SOL     OW28024   6.897   5.221   6.666
 9042SOL    HW128025   6.879   5.320   6.666
 9042SOL    HW228026   6.957   5.198   6.742
 9043SOL     OW28027   2.848   2.810   1.719
 9043SOL    HW128028   2.821   2.873   1.792
 9043SOL    HW228029   2.939   2.774   1.738
 9044SOL     OW28030   2.478   1.360   0.208
 9044SOL    HW128031   2.473   1.422   0.286
 9044SOL    HW228032   2.573   1.341   0.185
 9045SOL     OW28033   3.490   0.502   4.596
 9045SOL    HW128034   3.513   0.484   4.692
 9045SOL    HW228035   3.449   0.592   4.588
 9046SOL     OW28036   4.094   3.340   1.694
 9046SOL    HW128037   4.013   3.328   1.638
 9046SOL    HW228038   4.069   3.387   1.780
 9047SOL     OW28039   0.546   4.292   5.543
 9047SOL    HW128040   0.519   4.289   5.640
 9047SOL    HW228041   0.646   4.285   5.536
 9048SOL     OW28042   0.961   3.062   5.541
 9048SOL    HW128043   1.046   3.030   5.500
 9048SOL    HW228044   0.884   3.010   5.502
 9049SOL     OW28045   0.395   6.600   5.058
 9049SOL    HW128046   0.308   6.639   5.089
 9049SOL    HW228047   0.377   6.512   5.014
 9050SOL     OW28048   0.936   3.720   0.028
 9050SOL    HW128049   0.946   3.763   6.961
 9050SOL    HW228050   0.852   3.752   0.072
 9051SOL     OW28051   1.677   0.568   1.962
 9051SOL    HW128052   1.761   0.517   1.947
 9051SOL    HW228053   1.698   0.664   1.979
 9052SOL     OW28054   1.855   2.676   6.726
 9052SOL    HW128055   1.834   2.686   6.823
 9052SOL    HW228056   1.902   2.758   6.694
 9053SOL     OW28057   0.402   1.262   0.560
 9053SOL    HW128058   0.425   1.356   0.586
 9053SOL    HW228059   0.424   1.247   0.464
 9054SOL     OW28060   1.426   4.871   3.445
 9054SOL    HW128061   1.398   4.808   3.373
 9054SOL    HW228062   1.523   4.893   3.435
 9055SOL     OW28063   0.760   3.200   6.848
 9055SOL    HW128064   0.709   3.166   6.927
 9055SOL    HW228065   0.707   3.272   6.803
 9056SOL     OW28066   5.228   0.922   4.148
 9056SOL    HW128067   5.130   0.932   4.129
 9056SOL    HW228068   5.274   1.009   4.130
 9057SOL     OW28069   5.026   1.029   3.906
 9057SOL    HW128070   4.959   0.975   3.958
 9057SOL    HW228071   4.978   1.098   3.852
 9058SOL     OW28072   1.433   6.656   5.883
 9058SOL    HW128073   1.418   6.619   5.975
 9058SOL    HW228074   1.362   6.723   5.862
 9059SOL     OW28075   2.399   2.202   3.466
 9059SOL    HW128076   2.458   2.270   3.421
 9059SOL    HW228077   2.307   2.207   3.429
 9060SOL     OW28078   5.783   1.922   5.623
 9060SOL    HW128079   5.816   1.988   5.690
 9060SOL    HW228080   5.683   1.925   5.620
 9061SOL     OW28081   2.678   4.647   4.391
 9061SOL    HW128082   2.646   4.562   4.348
 9061SOL    HW228083   2.603   4.690   4.440
 9062SOL     OW28084   1.194   6.322   1.333
 9062SOL    HW128085   1.166   6.407   1.288
 9062SOL    HW228086   1.293   6.323   1.347
 9063SOL     OW28087   2.470   1.460   2.030
 9063SOL    HW128088   2.411   1.539   2.010
 9063SOL    HW228089   2.511   1.427   1.945
 9064SOL     OW28090   4.056   3.812   0.475
 9064SOL    HW128091   4.104   3.820   0.562
 9064SOL    HW228092   4.018   3.901   0.449
 9065SOL     OW28093   3.108   1.235   0.436
 9065SOL    HW128094   3.059   1.221   0.522
 9065SOL    HW228095   3.193   1.284   0.453
 9066SOL     OW28096   5.510   6.708   0.574
 9066SOL    HW128097   5.421   6.753   0.572
 9066SOL    HW228098   5.578   6.770   0.612
 9067SOL     OW28099   6.950   1.132   2.000
 9067SOL    HW128100   7.016   1.108   2.071
 9067SOL    HW228101   6.979   1.094   1.912
 9068SOL     OW28102   0.068   6.749   5.573
 9068SOL    HW128103   0.056   6.723   5.668
 9068SOL    HW228104   0.115   6.837   5.568
 9069SOL     OW28105   1.243   3.175   5.919
 9069SOL    HW128106   1.295   3.090   5.921
 9069SOL    HW228107   1.146   3.154   5.907
 9070SOL     OW28108   1.491   4.575   4.713
 9070SOL    HW128109   1.483   4.487   4.666
 9070SOL    HW228110   1.517   4.559   4.809
 9071SOL     OW28111   5.026   5.271   0.112
 9071SOL    HW128112   5.027   5.293   0.210
 9071SOL    HW228113   5.059   5.349   0.060
 9072SOL     OW28114   5.328   4.437   1.336
 9072SOL    HW128115   5.358   4.532   1.350
 9072SOL    HW228116   5.240   4.424   1.380
 9073SOL     OW28117   1.670   6.921   1.222
 9073SOL    HW128118   1.712   6.916   1.132
 9073SOL    HW228119   1.738   6.896   1.292
 9074SOL     OW28120   0.786   1.101   0.836
 9074SOL    HW128121   0.815   1.084   0.742
 9074SOL    HW228122   0.712   1.038   0.860
 9075SOL     OW28123   6.537   0.208   1.095
 9075SOL    HW128124   6.502   0.292   1.055
 9075SOL    HW228125   6.487   0.130   1.056
 9076SOL     OW28126   1.880   2.339   5.579
 9076SOL    HW128127   1.889   2.414   5.645
 9076SOL    HW228128   1.853   2.255   5.626
 9077SOL     OW28129   5.403   5.577   2.165
 9077SOL    HW128130   5.491   5.533   2.183
 9077SOL    HW228131   5.418   5.662   2.114
 9078SOL     OW28132   4.971   2.839   4.878
 9078SOL    HW128133   4.907   2.915   4.878
 9078SOL    HW228134   5.064   2.873   4.889
 9079SOL     OW28135   1.176   0.715   6.062
 9079SOL    HW128136   1.273   0.708   6.081
 9079SOL    HW228137   1.161   0.780   5.987
 9080SOL     OW28138   4.452   1.310   0.888
 9080SOL    HW128139   4.378   1.266   0.836
 9080SOL    HW228140   4.539   1.267   0.865
 9081SOL     OW28141   5.758   5.933   3.831
 9081SOL    HW128142   5.748   5.867   3.757
 9081SOL    HW228143   5.667   5.966   3.858
 9082SOL     OW28144   1.744   0.203   2.093
 9082SOL    HW128145   1.728   0.227   1.997
 9082SOL    HW228146   1.670   0.143   2.125
 9083SOL     OW28147   4.077   4.931   2.814
 9083SOL    HW128148   3.981   4.911   2.792
 9083SOL    HW228149   4.081   4.983   2.900
 9084SOL     OW28150   3.439   3.741   2.499
 9084SOL    HW128151   3.460   3.677   2.573
 9084SOL    HW228152   3.521   3.794   2.477
 9085SOL     OW28153   2.036   1.975   0.625
 9085SOL    HW128154   1.983   1.901   0.584
 9085SOL    HW228155   2.093   2.018   0.555
 9086SOL     OW28156   6.587   3.722   1.081
 9086SOL    HW128157   6.683   3.748   1.086
 9086SOL    HW228158   6.547   3.726   1.173
 9087SOL     OW28159   5.138   4.316   2.313
 9087SOL    HW128160   5.053   4.339   2.360
 9087SOL    HW228161   5.191   4.251   2.368
 9088SOL     OW28162   6.181   4.770   2.144
 9088SOL    HW128163   6.227   4.697   2.093
 9088SOL    HW228164   6.200   4.760   2.241
 9089SOL     OW28165   5.360   0.624   5.866
 9089SOL    HW128166   5.353   0.637   5.767
 9089SOL    HW228167   5.447   0.581   5.888
 9090SOL     OW28168   6.932   2.547   4.349
 9090SOL    HW128169   6.912   2.572   4.444
 9090SOL    HW228170   6.982   2.460   4.348
 9091SOL     OW28171   4.291   2.869   6.488
 9091SOL    HW128172   4.352   2.872   6.567
 9091SOL    HW228173   4.321   2.934   6.419
 9092SOL     OW28174   0.108   3.812   5.845
 9092SOL    HW128175   0.065   3.864   5.771
 9092SOL    HW228176   0.097   3.861   5.931
 9093SOL     OW28177   3.032   6.082   4.316
 9093SOL    HW128178   2.994   6.036   4.236
 9093SOL    HW228179   3.016   6.026   4.398
 9094SOL     OW28180   1.217   4.265   0.363
 9094SOL    HW128181   1.287   4.260   0.434
 9094SOL    HW228182   1.152   4.191   0.375
 9095SOL     OW28183   0.564   0.658   5.966
 9095SOL    HW128184   0.541   0.733   6.028
 9095SOL    HW228185   0.663   0.643   5.966
 9096SOL     OW28186   6.630   4.874   4.408
 9096SOL    HW128187   6.594   4.919   4.327
 9096SOL    HW228188   6.592   4.781   4.414
 9097SOL     OW28189   0.635   4.082   1.374
 9097SOL    HW128190   0.557   4.060   1.316
 9097SOL    HW228191   0.625   4.036   1.463
 9098SOL     OW28192   1.919   5.677   4.390
 9098SOL    HW128193   1.970   5.598   4.426
 9098SOL    HW228194   1.945   5.694   4.296
 9099SOL     OW28195   1.495   0.675   6.380
 9099SOL    HW128196   1.571   0.729   6.415
 9099SOL    HW228197   1.480   0.697   6.283
 9100SOL     OW28198   1.279   5.170   4.434
 9100SOL    HW128199   1.212   5.134   4.499
 9100SOL    HW228200   1.371   5.142   4.461
 9101SOL     OW28201   5.780   2.331   1.287
 9101SOL    HW128202   5.873   2.297   1.276
 9101SOL    HW228203   5.717   2.274   1.235
 9102SOL     OW28204   3.756   1.053   3.246
 9102SOL    HW128205   3.669   1.099   3.228
 9102SOL    HW228206   3.802   1.097   3.323
 9103SOL     OW28207   5.576   1.126   1.369
 9103SOL    HW128208   5.625   1.039   1.364
 9103SOL    HW228209   5.518   1.127   1.450
 9104SOL     OW28210   5.116   3.141   5.931
 9104SOL    HW128211   5.042   3.083   5.966
 9104SOL    HW228212   5.145   3.108   5.842
 9105SOL     OW28213   2.803   0.649   0.235
 9105SOL    HW128214   2.893   0.644   0.279
 9105SOL    HW228215   2.759   0.560   0.241
 9106SOL     OW28216   2.630   2.455   6.242
 9106SOL    HW128217   2.610   2.373   6.187
 9106SOL    HW228218   2.698   2.510   6.195
 9107SOL     OW28219   4.141   0.471   1.138
 9107SOL    HW128220   4.175   0.541   1.200
 9107SOL    HW228221   4.183   0.483   1.048
 9108SOL     OW28222   5.830   6.808   4.941
 9108SOL    HW128223   5.874   6.809   4.852
 9108SOL    HW228224   5.896   6.781   5.011
 9109SOL     OW28225   5.398   3.609   2.871
 9109SOL    HW128226   5.370   3.703   2.890
 9109SOL    HW228227   5.378   3.586   2.776
 9110SOL     OW28228   0.806   5.870   1.805
 9110SOL    HW128229   0.898   5.907   1.820
 9110SOL    HW228230   0.769   5.838   1.892
 9111SOL     OW28231   4.968   3.621   5.621
 9111SOL    HW128232   4.991   3.576   5.707
 9111SOL    HW228233   5.043   3.606   5.555
 9112SOL     OW28234   0.579   4.794   1.453
 9112SOL    HW128235   0.538   4.716   1.500
 9112SOL    HW228236   0.580   4.777   1.355
 9113SOL     OW28237   5.117   6.576   4.720
 9113SOL    HW128238   5.126   6.548   4.624
 9113SOL    HW228239   5.183   6.648   4.740
 9114SOL     OW28240   6.803   1.353   6.135
 9114SOL    HW128241   6.781   1.304   6.050
 9114SOL    HW228242   6.840   1.443   6.113
 9115SOL     OW28243   4.952   3.536   4.545
 9115SOL    HW128244   4.943   3.537   4.644
 9115SOL    HW228245   5.041   3.575   4.520
 9116SOL     OW28246   0.260   5.486   3.024
 9116SOL    HW128247   0.180   5.485   3.084
 9116SOL    HW228248   0.325   5.416   3.054
 9117SOL     OW28249   1.546   6.958   6.960
 9117SOL    HW128250   1.641   6.931   6.977
 9117SOL    HW228251   1.486   6.914   0.003
 9118SOL     OW28252   0.655   4.888   0.973
 9118SOL    HW128253   0.677   4.838   0.890
 9118SOL    HW228254   0.556   4.891   0.986
 9119SOL     OW28255   3.719   2.303   0.873
 9119SOL    HW128256   3.688   2.397   0.860
 9119SOL    HW228257   3.644   2.248   0.910
 9120SOL     OW28258   6.856   4.819   4.802
 9120SOL    HW128259   6.847   4.795   4.899
 9120SOL    HW228260   6.765   4.832   4.763
 9121SOL     OW28261   4.382   1.440   5.502
 9121SOL    HW128262   4.322   1.518   5.485
 9121SOL    HW228263   4.444   1.428   5.424
 9122SOL     OW28264   0.363   1.689   2.267
 9122SOL    HW128265   0.411   1.769   2.230
 9122SOL    HW228266   0.306   1.717   2.343
 9123SOL     OW28267   1.069   6.700   4.579
 9123SOL    HW128268   1.068   6.612   4.626
 9123SOL    HW228269   1.148   6.703   4.518
 9124SOL     OW28270   2.400   5.364   6.903
 9124SOL    HW128271   2.499   5.380   6.901
 9124SOL    HW228272   2.383   5.266   6.893
 9125SOL     OW28273   4.502   6.892   1.735
 9125SOL    HW128274   4.466   6.930   1.820
 9125SOL    HW228275   4.461   6.802   1.719
 9126SOL     OW28276   3.294   6.312   6.560
 9126SOL    HW128277   3.324   6.357   6.644
 9126SOL    HW228278   3.200   6.340   6.539
 9127SOL     OW28279   6.300   3.616   6.465
 9127SOL    HW128280   6.359   3.550   6.418
 9127SOL    HW228281   6.206   3.583   6.464
 9128SOL     OW28282   5.223   3.014   6.739
 9128SOL    HW128283   5.226   2.942   6.809
 9128SOL    HW228284   5.183   2.977   6.655
 9129SOL     OW28285   0.691   2.170   1.690
 9129SOL    HW128286   0.746   2.252   1.677
 9129SOL    HW228287   0.744   2.102   1.740
 9130SOL     OW28288   3.430   4.020   6.602
 9130SOL    HW128289   3.523   4.044   6.633
 9130SOL    HW228290   3.416   4.056   6.510
 9131SOL     OW28291   6.106   3.232   1.405
 9131SOL    HW128292   6.028   3.182   1.367
 9131SOL    HW228293   6.149   3.286   1.333
 9132SOL     OW28294   0.779   4.820   3.877
 9132SOL    HW128295   0.716   4.839   3.952
 9132SOL    HW228296   0.842   4.897   3.866
 9133SOL     OW28297   5.583   6.726   0.157
 9133SOL    HW128298   5.592   6.686   0.066
 9133SOL    HW228299   5.635   6.811   0.162
 9134SOL     OW28300   4.734   4.073   6.429
 9134SOL    HW128301   4.661   4.005   6.416
 9134SOL    HW228302   4.713   4.128   6.509
 9135SOL     OW28303   6.984   5.057   2.241
 9135SOL    HW128304   6.888   5.061   2.214
 9135SOL    HW228305   0.005   4.977   2.198
 9136SOL     OW28306   6.902   5.227   0.142
 9136SOL    HW128307   6.939   5.190   0.227
 9136SOL    HW228308   6.966   5.294   0.105
 9137SOL     OW28309   5.778   5.464   6.975
 9137SOL    HW128310   5.804   5.369   6.988
 9137SOL    HW228311   5.859   5.522   6.982
 9138SOL     OW28312   1.853   3.945   5.329
 9138SOL    HW128313   1.831   4.042   5.319
 9138SOL    HW228314   1.951   3.932   5.317
 9139SOL     OW28315   0.863   0.110   1.251
 9139SOL    HW128316   0.808   0.182   1.209
 9139SOL    HW228317   0.880   0.037   1.184
 9140SOL     OW28318   0.272   4.246   2.577
 9140SOL    HW128319   0.222   4.171   2.619
 9140SOL    HW228320   0.261   4.243   2.477
 9141SOL     OW28321   7.008   5.758   4.069
 9141SOL    HW128322   0.040   5.674   4.069
 9141SOL    HW228323   7.008   5.798   3.977
 9142SOL     OW28324   2.212   5.576   2.984
 9142SOL    HW128325   2.136   5.551   3.045
 9142SOL    HW228326   2.227   5.674   2.989
 9143SOL     OW28327   5.234   3.493   2.660
 9143SOL    HW128328   5.182   3.549   2.596
 9143SOL    HW228329   5.177   3.416   2.691
 9144SOL     OW28330   2.568   4.951   5.255
 9144SOL    HW128331   2.528   4.973   5.343
 9144SOL    HW228332   2.597   4.855   5.254
 9145SOL     OW28333   2.758   5.655   5.992
 9145SOL    HW128334   2.756   5.667   6.091
 9145SOL    HW228335   2.758   5.744   5.947
 9146SOL     OW28336   5.226   1.081   4.684
 9146SOL    HW128337   5.260   1.052   4.595
 9146SOL    HW228338   5.129   1.055   4.692
 9147SOL     OW28339   3.858   6.985   6.639
 9147SOL    HW128340   3.932   6.920   6.623
 9147SOL    HW228341   3.851   0.025   6.561
 9148SOL     OW28342   3.045   6.038   1.804
 9148SOL    HW128343   3.045   5.997   1.895
 9148SOL    HW228344   3.102   6.120   1.805
 9149SOL     OW28345   1.130   3.844   2.111
 9149SOL    HW128346   1.111   3.940   2.131
 9149SOL    HW228347   1.212   3.816   2.161
 9150SOL     OW28348   3.993   3.132   0.521
 9150SOL    HW128349   4.092   3.125   0.535
 9150SOL    HW228350   3.973   3.207   0.458
 9151SOL     OW28351   2.344   4.835   3.714
 9151SOL    HW128352   2.429   4.784   3.728
 9151SOL    HW228353   2.321   4.836   3.617
 9152SOL     OW28354   1.516   5.025   2.651
 9152SOL    HW128355   1.503   5.122   2.674
 9152SOL    HW228356   1.503   5.012   2.553
 9153SOL     OW28357   0.628   3.012   1.139
 9153SOL    HW128358   0.560   3.070   1.094
 9153SOL    HW228359   0.691   3.069   1.190
 9154SOL     OW28360   4.180   5.442   2.058
 9154SOL    HW128361   4.205   5.345   2.057
 9154SOL    HW228362   4.159   5.470   2.151
 9155SOL     OW28363   0.127   0.058   2.160
 9155SOL    HW128364   0.168   0.015   2.079
 9155SOL    HW228365   0.028   0.046   2.157
 9156SOL     OW28366   0.103   4.688   5.361
 9156SOL    HW128367   0.157   4.607   5.383
 9156SOL    HW228368   0.091   4.695   5.262
 9157SOL     OW28369   2.224   4.841   4.949
 9157SOL    HW128370   2.247   4.766   4.887
 9157SOL    HW228371   2.307   4.889   4.976
 9158SOL     OW28372   6.931   2.509   3.680
 9158SOL    HW128373   6.860   2.464   3.734
 9158SOL    HW228374   6.977   2.441   3.622
 9159SOL     OW28375   1.850   0.409   3.301
 9159SOL    HW128376   1.929   0.375   3.352
 9159SOL    HW228377   1.790   0.333   3.277
 9160SOL     OW28378   0.130   3.263   0.064
 9160SOL    HW128379   0.177   3.183   0.101
 9160SOL    HW228380   0.041   3.273   0.108
 9161SOL     OW28381   6.152   3.427   3.711
 9161SOL    HW128382   6.216   3.391   3.779
 9161SOL    HW228383   6.187   3.514   3.676
 9162SOL     OW28384   5.825   2.570   2.194
 9162SOL    HW128385   5.845   2.605   2.286
 9162SOL    HW228386   5.861   2.477   2.185
 9163SOL     OW28387   0.201   3.463   2.806
 9163SOL    HW128388   0.126   3.529   2.813
 9163SOL    HW228389   0.251   3.478   2.721
 9164SOL     OW28390   4.295   0.973   1.064
 9164SOL    HW128391   4.377   1.015   1.101
 9164SOL    HW228392   4.291   0.988   0.965
 9165SOL     OW28393   6.629   6.877   0.208
 9165SOL    HW128394   6.653   6.785   0.237
 9165SOL    HW228395   6.628   6.938   0.288
 9166SOL     OW28396   3.997   5.522   1.429
 9166SOL    HW128397   4.091   5.554   1.423
 9166SOL    HW228398   3.996   5.422   1.441
 9167SOL     OW28399   0.405   3.434   5.277
 9167SOL    HW128400   0.375   3.405   5.186
 9167SOL    HW228401   0.492   3.389   5.299
 9168SOL     OW28402   6.162   6.835   5.068
 9168SOL    HW128403   6.215   6.911   5.106
 9168SOL    HW228404   6.206   6.748   5.093
 9169SOL     OW28405   5.871   5.195   0.349
 9169SOL    HW128406   5.788   5.226   0.393
 9169SOL    HW228407   5.950   5.242   0.388
 9170SOL     OW28408   0.740   6.492   4.102
 9170SOL    HW128409   0.689   6.437   4.036
 9170SOL    HW228410   0.838   6.482   4.084
 9171SOL     OW28411   4.269   5.491   6.472
 9171SOL    HW128412   4.198   5.515   6.406
 9171SOL    HW228413   4.238   5.515   6.564
 9172SOL     OW28414   5.369   6.736   6.207
 9172SOL    HW128415   5.271   6.731   6.188
 9172SOL    HW228416   5.417   6.771   6.126
 9173SOL     OW28417   5.929   4.157   6.975
 9173SOL    HW128418   5.868   4.204   6.911
 9173SOL    HW228419   6.008   4.121   6.926
 9174SOL     OW28420   5.387   5.328   0.379
 9174SOL    HW128421   5.337   5.386   0.315
 9174SOL    HW228422   5.344   5.238   0.383
 9175SOL     OW28423   2.365   0.529   1.584
 9175SOL    HW128424   2.379   0.473   1.666
 9175SOL    HW228425   2.294   0.487   1.526
 9176SOL     OW28426   1.278   6.735   2.208
 9176SOL    HW128427   1.193   6.784   2.224
 9176SOL    HW228428   1.314   6.702   2.295
 9177SOL     OW28429   0.154   5.882   3.286
 9177SOL    HW128430   0.197   5.877   3.376
 9177SOL    HW228431   0.221   5.859   3.215
 9178SOL     OW28432   0.861   2.724   1.015
 9178SOL    HW128433   0.857   2.652   1.085
 9178SOL    HW228434   0.955   2.732   0.982
 9179SOL     OW28435   3.877   6.422   2.676
 9179SOL    HW128436   3.869   6.457   2.583
 9179SOL    HW228437   3.973   6.398   2.695
 9180SOL     OW28438   0.674   1.242   3.915
 9180SOL    HW128439   0.746   1.172   3.919
 9180SOL    HW228440   0.623   1.242   4.001
 9181SOL     OW28441   3.341   1.797   2.375
 9181SOL    HW128442   3.377   1.844   2.295
 9181SOL    HW228443   3.411   1.794   2.446
 9182SOL     OW28444   6.069   0.425   2.621
 9182SOL    HW128445   5.985   0.474   2.601
 9182SOL    HW228446   6.138   0.449   2.553
 9183SOL     OW28447   2.468   1.552   6.146
 9183SOL    HW128448   2.441   1.473   6.091
 9183SOL    HW228449   2.461   1.635   6.090
 9184SOL     OW28450   3.021   6.310   7.011
 9184SOL    HW128451   2.937   6.279   6.968
 9184SOL    HW228452   3.013   6.302   0.088
 9185SOL     OW28453   0.581   1.338   4.852
 9185SOL    HW128454   0.488   1.328   4.888
 9185SOL    HW228455   0.646   1.313   4.923
 9186SOL     OW28456   5.017   6.405   6.351
 9186SOL    HW128457   4.985   6.369   6.439
 9186SOL    HW228458   5.014   6.333   6.282
 9187SOL     OW28459   4.286   3.097   1.336
 9187SOL    HW128460   4.291   3.116   1.237
 9187SOL    HW228461   4.377   3.107   1.376
 9188SOL     OW28462   1.621   0.722   2.633
 9188SOL    HW128463   1.655   0.646   2.690
 9188SOL    HW228464   1.521   0.718   2.628
 9189SOL     OW28465   3.019   0.353   0.309
 9189SOL    HW128466   2.954   0.278   0.295
 9189SOL    HW228467   3.055   0.349   0.402
 9190SOL     OW28468   3.159   1.013   6.053
 9190SOL    HW128469   3.204   0.977   6.135
 9190SOL    HW228470   3.069   1.049   6.077
 9191SOL     OW28471   5.701   0.178   1.693
 9191SOL    HW128472   5.756   0.252   1.653
 9191SOL    HW228473   5.674   0.204   1.786
 9192SOL     OW28474   4.270   4.777   3.137
 9192SOL    HW128475   4.233   4.747   3.049
 9192SOL    HW228476   4.195   4.798   3.200
 9193SOL     OW28477   3.659   3.680   1.874
 9193SOL    HW128478   3.583   3.663   1.937
 9193SOL    HW228479   3.622   3.699   1.783
 9194SOL     OW28480   2.700   4.993   2.801
 9194SOL    HW128481   2.735   5.013   2.892
 9194SOL    HW228482   2.742   5.054   2.734
 9195SOL     OW28483   0.616   3.795   3.255
 9195SOL    HW128484   0.617   3.707   3.302
 9195SOL    HW228485   0.675   3.859   3.304
 9196SOL     OW28486   5.867   5.536   3.116
 9196SOL    HW128487   5.845   5.555   3.021
 9196SOL    HW228488   5.965   5.549   3.131
 9197SOL     OW28489   4.933   2.210   6.280
 9197SOL    HW128490   4.926   2.111   6.266
 9197SOL    HW228491   4.848   2.243   6.322
 9198SOL     OW28492   6.655   3.819   4.840
 9198SOL    HW128493   6.739   3.798   4.889
 9198SOL    HW228494   6.576   3.797   4.898
 9199SOL     OW28495   0.346   3.429   6.959
 9199SOL    HW128496   0.375   3.333   6.966
 9199SOL    HW228497   0.261   3.442   7.011
 9200SOL     OW28498   4.285   6.129   2.228
 9200SOL    HW128499   4.275   6.032   2.207
 9200SOL    HW228500   4.206   6.161   2.280
 9201SOL     OW28501   0.636   2.806   2.090
 9201SOL    HW128502   0.620   2.893   2.137
 9201SOL    HW228503   0.613   2.816   1.994
 9202SOL     OW28504   1.969   6.111   2.970
 9202SOL    HW128505   1.990   6.144   2.878
 9202SOL    HW228506   1.907   6.032   2.963
 9203SOL     OW28507   5.926   2.331   0.178
 9203SOL    HW128508   5.960   2.266   0.110
 9203SOL    HW228509   5.996   2.347   0.248
 9204SOL     OW28510   5.298   4.071   1.737
 9204SOL    HW128511   5.274   3.982   1.775
 9204SOL    HW228512   5.337   4.059   1.646
 9205SOL     OW28513   4.900   2.698   0.524
 9205SOL    HW128514   4.972   2.749   0.570
 9205SOL    HW228515   4.815   2.751   0.524
 9206SOL     OW28516   0.332   0.880   4.627
 9206SOL    HW128517   0.331   0.884   4.727
 9206SOL    HW228518   0.331   0.973   4.590
 9207SOL     OW28519   5.837   6.351   0.150
 9207SOL    HW128520   5.925   6.331   0.193
 9207SOL    HW228521   5.784   6.412   0.208
 9208SOL     OW28522   5.923   3.765   1.663
 9208SOL    HW128523   5.882   3.845   1.619
 9208SOL    HW228524   5.852   3.705   1.698
 9209SOL     OW28525   4.784   0.357   4.505
 9209SOL    HW128526   4.839   0.398   4.577
 9209SOL    HW228527   4.829   0.273   4.472
 9210SOL     OW28528   1.529   6.574   0.447
 9210SOL    HW128529   1.575   6.541   0.529
 9210SOL    HW228530   1.586   6.642   0.401
 9211SOL     OW28531   4.564   1.170   6.381
 9211SOL    HW128532   4.571   1.269   6.366
 9211SOL    HW228533   4.472   1.139   6.357
 9212SOL     OW28534   5.827   3.223   6.023
 9212SOL    HW128535   5.891   3.224   5.946
 9212SOL    HW228536   5.826   3.313   6.067
 9213SOL     OW28537   0.403   7.003   2.909
 9213SOL    HW128538   0.445   6.952   2.984
 9213SOL    HW228539   0.462   0.057   2.884
 9214SOL     OW28540   1.636   1.283   4.980
 9214SOL    HW128541   1.606   1.210   4.919
 9214SOL    HW228542   1.731   1.307   4.960
 9215SOL     OW28543   6.700   4.371   3.759
 9215SOL    HW128544   6.652   4.295   3.716
 9215SOL    HW228545   6.796   4.346   3.773
 9216SOL     OW28546   1.929   6.687   3.166
 9216SOL    HW128547   1.879   6.726   3.244
 9216SOL    HW228548   1.960   6.761   3.106
 9217SOL     OW28549   4.141   1.943   0.607
 9217SOL    HW128550   4.051   1.945   0.563
 9217SOL    HW228551   4.170   1.848   0.620
 9218SOL     OW28552   5.463   5.795   6.176
 9218SOL    HW128553   5.399   5.730   6.216
 9218SOL    HW228554   5.432   5.888   6.198
 9219SOL     OW28555   3.828   3.013   5.085
 9219SOL    HW128556   3.802   2.920   5.112
 9219SOL    HW228557   3.892   3.050   5.153
 9220SOL     OW28558   6.922   6.739   3.372
 9220SOL    HW128559   7.016   6.713   3.354
 9220SOL    HW228560   6.868   6.657   3.394
 9221SOL     OW28561   2.812   1.136   2.201
 9221SOL    HW128562   2.844   1.084   2.122
 9221SOL    HW228563   2.775   1.073   2.269
 9222SOL     OW28564   2.325   6.309   2.919
 9222SOL    HW128565   2.252   6.305   2.987
 9222SOL    HW228566   2.312   6.238   2.851
 9223SOL     OW28567   5.727   3.049   5.052
 9223SOL    HW128568   5.651   2.995   5.089
 9223SOL    HW228569   5.739   3.131   5.107
 9224SOL     OW28570   2.233   5.635   2.497
 9224SOL    HW128571   2.229   5.565   2.426
 9224SOL    HW228572   2.169   5.613   2.570
 9225SOL     OW28573   0.340   6.169   5.407
 9225SOL    HW128574   0.406   6.143   5.479
 9225SOL    HW228575   0.322   6.267   5.413
 9226SOL     OW28576   0.036   6.086   5.135
 9226SOL    HW128577   0.053   6.183   5.147
 9226SOL    HW228578   0.056   6.037   5.219
 9227SOL     OW28579   4.730   2.751   0.821
 9227SOL    HW128580   4.737   2.757   0.921
 9227SOL    HW228581   4.651   2.804   0.790
 9228SOL     OW28582   3.189   3.644   4.081
 9228SOL    HW128583   3.115   3.668   4.019
 9228SOL    HW228584   3.240   3.566   4.044
 9229SOL     OW28585   6.990   5.742   1.732
 9229SOL    HW128586   6.910   5.692   1.765
 9229SOL    HW228587   6.973   5.841   1.742
 9230SOL     OW28588   2.693   6.374   5.022
 9230SOL    HW128589   2.762   6.389   4.951
 9230SOL    HW228590   2.704   6.282   5.060
 9231SOL     OW28591   4.761   5.245   1.832
 9231SOL    HW128592   4.844   5.292   1.802
 9231SOL    HW228593   4.706   5.307   1.888
 9232SOL     OW28594   1.209   4.935   1.656
 9232SOL    HW128595   1.211   4.856   1.594
 9232SOL    HW228596   1.137   4.922   1.724
 9233SOL     OW28597   1.030   1.030   6.604
 9233SOL    HW128598   1.019   0.943   6.557
 9233SOL    HW228599   1.127   1.049   6.617
 9234SOL     OW28600   2.609   3.828   0.934
 9234SOL    HW128601   2.648   3.783   1.014
 9234SOL    HW228602   2.554   3.906   0.962
 9235SOL     OW28603   0.597   2.142   3.114
 9235SOL    HW128604   0.594   2.121   3.211
 9235SOL    HW228605   0.609   2.058   3.062
 9236SOL     OW28606   2.613   2.857   6.505
 9236SOL    HW128607   2.641   2.768   6.469
 9236SOL    HW228608   2.548   2.899   6.441
 9237SOL     OW28609   6.601   5.796   3.815
 9237SOL    HW128610   6.559   5.707   3.797
 9237SOL    HW228611   6.700   5.788   3.810
 9238SOL     OW28612   2.267   1.806   5.617
 9238SOL    HW128613   2.331   1.854   5.557
 9238SOL    HW228614   2.192   1.769   5.563
 9239SOL     OW28615   1.943   6.211   6.592
 9239SOL    HW128616   1.845   6.207   6.611
 9239SOL    HW228617   1.992   6.233   6.676
 9240SOL     OW28618   3.648   1.585   5.474
 9240SOL    HW128619   3.588   1.634   5.537
 9240SOL    HW228620   3.656   1.636   5.388
 9241SOL     OW28621   5.594   5.458   0.178
 9241SOL    HW128622   5.509   5.511   0.174
 9241SOL    HW228623   5.643   5.467   0.091
 9242SOL     OW28624   1.851   3.427   0.217
 9242SOL    HW128625   1.811   3.352   0.270
 9242SOL    HW228626   1.829   3.416   0.121
 9243SOL     OW28627   1.770   6.759   6.722
 9243SOL    HW128628   1.840   6.756   6.652
 9243SOL    HW228629   1.705   6.832   6.702
 9244SOL     OW28630   3.383   6.340   6.295
 9244SOL    HW128631   3.463   6.280   6.281
 9244SOL    HW228632   3.363   6.346   6.392
 9245SOL     OW28633   0.685   4.222   3.421
 9245SOL    HW128634   0.603   4.200   3.472
 9245SOL    HW228635   0.760   4.243   3.484
 9246SOL     OW28636   4.484   2.132   0.079
 9246SOL    HW128637   4.546   2.169   0.011
 9246SOL    HW228638   4.529   2.133   0.169
 9247SOL     OW28639   3.262   6.154   2.217
 9247SOL    HW128640   3.310   6.217   2.155
 9247SOL    HW228641   3.164   6.159   2.199
 9248SOL     OW28642   2.680   0.318   6.692
 9248SOL    HW128643   2.686   0.251   6.618
 9248SOL    HW228644   2.740   0.290   6.767
 9249SOL     OW28645   2.821   1.779   6.971
 9249SOL    HW128646   2.882   1.702   6.989
 9249SOL    HW228647   2.780   1.811   0.034
 9250SOL     OW28648   0.649   3.746   1.825
 9250SOL    HW128649   0.656   3.791   1.915
 9250SOL    HW228650   0.619   3.652   1.837
 9251SOL     OW28651   3.527   1.838   0.959
 9251SOL    HW128652   3.603   1.801   1.013
 9251SOL    HW228653   3.446   1.781   0.973
 9252SOL     OW28654   6.132   1.100   4.963
 9252SOL    HW128655   6.050   1.123   5.015
 9252SOL    HW228656   6.212   1.141   5.007
 9253SOL     OW28657   2.981   5.297   3.655
 9253SOL    HW128658   2.994   5.251   3.743
 9253SOL    HW228659   3.005   5.234   3.581
 9254SOL     OW28660   6.679   5.767   2.003
 9254SOL    HW128661   6.735   5.761   2.086
 9254SOL    HW228662   6.697   5.854   1.957
 9255SOL     OW28663   0.337   2.477   1.569
 9255SOL    HW128664   0.393   2.438   1.495
 9255SOL    HW228665   0.269   2.409   1.598
 9256SOL     OW28666   1.061   6.413   0.695
 9256SOL    HW128667   1.037   6.325   0.653
 9256SOL    HW228668   1.034   6.488   0.635
 9257SOL     OW28669   6.447   6.365   5.431
 9257SOL    HW128670   6.540   6.395   5.412
 9257SOL    HW228671   6.430   6.369   5.530
 9258SOL     OW28672   4.978   3.754   3.597
 9258SOL    HW128673   4.953   3.657   3.604
 9258SOL    HW228674   4.933   3.794   3.518
 9259SOL     OW28675   1.553   3.122   6.556
 9259SOL    HW128676   1.576   3.041   6.503
 9259SOL    HW228677   1.458   3.115   6.588
 9260SOL     OW28678   5.845   4.683   5.115
 9260SOL    HW128679   5.805   4.608   5.062
 9260SOL    HW228680   5.877   4.649   5.203
 9261SOL     OW28681   1.103   3.143   0.775
 9261SOL    HW128682   1.035   3.214   0.757
 9261SOL    HW228683   1.177   3.180   0.830
 9262SOL     OW28684   6.735   6.692   5.841
 9262SOL    HW128685   6.719   6.599   5.874
 9262SOL    HW228686   6.753   6.690   5.742
 9263SOL     OW28687   1.844   4.522   3.068
 9263SOL    HW128688   1.870   4.607   3.024
 9263SOL    HW228689   1.822   4.453   2.998
 9264SOL     OW28690   6.187   4.029   5.485
 9264SOL    HW128691   6.142   4.056   5.570
 9264SOL    HW228692   6.118   4.007   5.416
 9265SOL     OW28693   3.817   0.467   2.156
 9265SOL    HW128694   3.771   0.552   2.182
 9265SOL    HW228695   3.793   0.395   2.221
 9266SOL     OW28696   0.368   4.829   0.735
 9266SOL    HW128697   0.411   4.849   0.823
 9266SOL    HW228698   0.278   4.873   0.731
 9267SOL     OW28699   0.059   0.999   3.780
 9267SOL    HW128700   0.117   0.919   3.766
 9267SOL    HW228701   6.995   0.987   3.730
 9268SOL     OW28702   6.745   0.227   0.292
 9268SOL    HW128703   6.729   0.303   0.355
 9268SOL    HW228704   6.827   0.246   0.238
 9269SOL     OW28705   3.801   6.958   1.408
 9269SOL    HW128706   3.787   6.863   1.380
 9269SOL    HW228707   3.897   6.983   1.396
 9270SOL     OW28708   2.141   0.880   5.021
 9270SOL    HW128709   2.043   0.884   5.003
 9270SOL    HW228710   2.172   0.969   5.053
 9271SOL     OW28711   1.178   5.288   5.702
 9271SOL    HW128712   1.170   5.360   5.772
 9271SOL    HW228713   1.227   5.324   5.623
 9272SOL     OW28714   6.754   0.177   6.311
 9272SOL    HW128715   6.698   0.094   6.310
 9272SOL    HW228716   6.851   0.152   6.301
 9273SOL     OW28717   5.490   4.041   3.798
 9273SOL    HW128718   5.586   4.015   3.792
 9273SOL    HW228719   5.452   4.049   3.706
 9274SOL     OW28720   6.574   2.856   2.164
 9274SOL    HW128721   6.501   2.924   2.171
 9274SOL    HW228722   6.533   2.766   2.148
 9275SOL     OW28723   4.398   1.578   0.783
 9275SOL    HW128724   4.494   1.599   0.799
 9275SOL    HW228725   4.382   1.481   0.805
 9276SOL     OW28726   1.549   3.835   1.287
 9276SOL    HW128727   1.453   3.835   1.259
 9276SOL    HW228728   1.574   3.745   1.320
 9277SOL     OW28729   3.497   6.043   2.931
 9277SOL    HW128730   3.528   6.030   2.837
 9277SOL    HW228731   3.398   6.055   2.932
 9278SOL     OW28732   1.142   0.084   4.873
 9278SOL    HW128733   1.145   0.045   4.781
 9278SOL    HW228734   1.201   0.030   4.933
 9279SOL     OW28735   4.167   5.517   2.670
 9279SOL    HW128736   4.189   5.611   2.643
 9279SOL    HW228737   4.068   5.506   2.675
 9280SOL     OW28738   1.360   4.224   2.498
 9280SOL    HW128739   1.270   4.181   2.507
 9280SOL    HW228740   1.374   4.252   2.403
 9281SOL     OW28741   1.477   5.386   0.517
 9281SOL    HW128742   1.398   5.424   0.566
 9281SOL    HW228743   1.448   5.355   0.427
 9282SOL     OW28744   1.846   0.287   3.629
 9282SOL    HW128745   1.905   0.338   3.567
 9282SOL    HW228746   1.817   0.202   3.585
 9283SOL     OW28747   5.257   4.943   6.233
 9283SOL    HW128748   5.188   4.924   6.303
 9283SOL    HW228749   5.277   4.859   6.182
 9284SOL     OW28750   3.603   6.099   0.935
 9284SOL    HW128751   3.526   6.162   0.934
 9284SOL    HW228752   3.570   6.006   0.919
 9285SOL     OW28753   6.705   6.118   3.331
 9285SOL    HW128754   6.623   6.135   3.275
 9285SOL    HW228755   6.754   6.039   3.295
 9286SOL     OW28756   5.161   5.494   2.004
 9286SOL    HW128757   5.257   5.506   2.028
 9286SOL    HW228758   5.114   5.442   2.076
 9287SOL     OW28759   4.292   4.631   6.789
 9287SOL    HW128760   4.314   4.540   6.754
 9287SOL    HW228761   4.366   4.694   6.767
 9288SOL     OW28762   3.197   0.916   4.319
 9288SOL    HW128763   3.264   0.934   4.246
 9288SOL    HW228764   3.147   0.999   4.340
 9289SOL     OW28765   4.554   6.219   2.286
 9289SOL    HW128766   4.484   6.160   2.246
 9289SOL    HW228767   4.515   6.270   2.363
 9290SOL     OW28768   5.587   0.785   3.423
 9290SOL    HW128769   5.678   0.749   3.442
 9290SOL    HW228770   5.522   0.749   3.490
 9291SOL     OW28771   0.242   5.440   5.389
 9291SOL    HW128772   0.229   5.507   5.316
 9291SOL    HW228773   0.176   5.456   5.462
 9292SOL     OW28774   2.493   1.386   0.639
 9292SOL    HW128775   2.435   1.396   0.720
 9292SOL    HW228776   2.589   1.394   0.666
 9293SOL     OW28777   3.583   1.366   6.195
 9293SOL    HW128778   3.682   1.362   6.196
 9293SOL    HW228779   3.549   1.376   6.289
 9294SOL     OW28780   5.583   6.111   6.428
 9294SOL    HW128781   5.583   6.150   6.336
 9294SOL    HW228782   5.674   6.076   6.450
 9295SOL     OW28783   6.259   0.949   2.846
 9295SOL    HW128784   6.218   0.935   2.936
 9295SOL    HW228785   6.236   0.872   2.787
 9296SOL     OW28786   2.105   2.687   5.519
 9296SOL    HW128787   2.100   2.785   5.502
 9296SOL    HW228788   2.123   2.639   5.432
 9297SOL     OW28789   0.197   5.275   1.837
 9297SOL    HW128790   0.199   5.290   1.738
 9297SOL    HW228791   0.284   5.304   1.877
 9298SOL     OW28792   6.234   3.796   0.624
 9298SOL    HW128793   6.302   3.725   0.610
 9298SOL    HW228794   6.155   3.778   0.565
 9299SOL     OW28795   4.117   2.044   3.867
 9299SOL    HW128796   4.157   1.959   3.901
 9299SOL    HW228797   4.156   2.122   3.917
 9300SOL     OW28798   2.690   6.216   5.306
 9300SOL    HW128799   2.656   6.160   5.381
 9300SOL    HW228800   2.633   6.297   5.296
 9301SOL     OW28801   0.831   3.419   3.973
 9301SOL    HW128802   0.804   3.494   4.034
 9301SOL    HW228803   0.749   3.373   3.939
 9302SOL     OW28804   3.524   6.187   3.644
 9302SOL    HW128805   3.495   6.091   3.641
 9302SOL    HW228806   3.488   6.235   3.564
 9303SOL     OW28807   2.952   3.735   0.652
 9303SOL    HW128808   3.033   3.793   0.662
 9303SOL    HW228809   2.874   3.779   0.696
 9304SOL     OW28810   6.045   5.539   6.975
 9304SOL    HW128811   6.041   5.631   6.937
 9304SOL    HW228812   6.067   5.544   0.050
 9305SOL     OW28813   2.485   1.679   1.647
 9305SOL    HW128814   2.418   1.607   1.659
 9305SOL    HW228815   2.440   1.760   1.610
 9306SOL     OW28816   6.388   6.819   3.186
 9306SOL    HW128817   6.296   6.783   3.172
 9306SOL    HW228818   6.452   6.743   3.198
 9307SOL     OW28819   2.225   3.340   0.762
 9307SOL    HW128820   2.230   3.439   0.748
 9307SOL    HW228821   2.162   3.300   0.696
 9308SOL     OW28822   2.608   3.137   0.813
 9308SOL    HW128823   2.562   3.162   0.728
 9308SOL    HW228824   2.544   3.142   0.889
 9309SOL     OW28825   3.439   5.215   6.310
 9309SOL    HW128826   3.465   5.163   6.392
 9309SOL    HW228827   3.340   5.212   6.299
 9310SOL     OW28828   6.172   0.151   5.749
 9310SOL    HW128829   6.125   0.206   5.818
 9310SOL    HW228830   6.246   0.100   5.792
 9311SOL     OW28831   5.119   4.357   0.327
 9311SOL    HW128832   5.145   4.296   0.252
 9311SOL    HW228833   5.069   4.435   0.291
 9312SOL     OW28834   6.445   2.961   4.197
 9312SOL    HW128835   6.445   2.882   4.259
 9312SOL    HW228836   6.351   2.983   4.170
 9313SOL     OW28837   7.006   0.242   1.915
 9313SOL    HW128838   6.989   0.179   1.990
 9313SOL    HW228839   6.925   0.248   1.856
 9314SOL     OW28840   5.605   4.034   2.202
 9314SOL    HW128841   5.573   4.111   2.256
 9314SOL    HW228842   5.533   4.005   2.138
 9315SOL     OW28843   5.206   5.231   5.058
 9315SOL    HW128844   5.184   5.282   5.141
 9315SOL    HW228845   5.287   5.272   5.014
 9316SOL     OW28846   5.263   6.044   6.880
 9316SOL    HW128847   5.294   6.129   6.925
 9316SOL    HW228848   5.338   5.978   6.880
 9317SOL     OW28849   2.937   6.126   3.370
 9317SOL    HW128850   2.967   6.210   3.415
 9317SOL    HW228851   2.854   6.092   3.415
 9318SOL     OW28852   3.435   6.896   4.055
 9318SOL    HW128853   3.375   6.864   3.982
 9318SOL    HW228854   3.393   6.974   4.101
 9319SOL     OW28855   3.747   2.470   0.511
 9319SOL    HW128856   3.702   2.387   0.544
 9319SOL    HW228857   3.700   2.551   0.549
 9320SOL     OW28858   6.693   0.862   6.404
 9320SOL    HW128859   6.648   0.871   6.315
 9320SOL    HW228860   6.688   0.767   6.434
 9321SOL     OW28861   1.269   2.423   4.232
 9321SOL    HW128862   1.356   2.442   4.187
 9321SOL    HW228863   1.227   2.509   4.261
 9322SOL     OW28864   5.261   3.533   0.650
 9322SOL    HW128865   5.227   3.448   0.610
 9322SOL    HW228866   5.193   3.605   0.637
 9323SOL     OW28867   0.183   3.089   4.936
 9323SOL    HW128868   0.136   3.078   5.024
 9323SOL    HW228869   0.281   3.071   4.948
 9324SOL     OW28870   0.360   3.853   1.542
 9324SOL    HW128871   0.419   3.786   1.497
 9324SOL    HW228872   0.355   3.935   1.485
 9325SOL     OW28873   6.859   3.126   2.887
 9325SOL    HW128874   6.867   3.072   2.804
 9325SOL    HW228875   6.949   3.161   2.913
 9326SOL     OW28876   3.928   4.745   1.043
 9326SOL    HW128877   3.946   4.841   1.064
 9326SOL    HW228878   4.003   4.689   1.078
 9327SOL     OW28879   1.979   2.309   3.143
 9327SOL    HW128880   1.955   2.218   3.177
 9327SOL    HW228881   2.005   2.303   3.046
 9328SOL     OW28882   0.960   0.441   3.747
 9328SOL    HW128883   0.941   0.362   3.689
 9328SOL    HW228884   1.006   0.512   3.694
 9329SOL     OW28885   1.527   5.569   6.279
 9329SOL    HW128886   1.582   5.611   6.351
 9329SOL    HW228887   1.484   5.640   6.224
 9330SOL     OW28888   0.723   6.467   0.727
 9330SOL    HW128889   0.712   6.562   0.697
 9330SOL    HW228890   0.632   6.426   0.741
 9331SOL     OW28891   2.941   5.669   4.875
 9331SOL    HW128892   2.976   5.693   4.784
 9331SOL    HW228893   2.956   5.746   4.938
 9332SOL     OW28894   6.415   6.475   0.702
 9332SOL    HW128895   6.350   6.409   0.741
 9332SOL    HW228896   6.386   6.500   0.610
 9333SOL     OW28897   0.595   5.791   1.468
 9333SOL    HW128898   0.573   5.838   1.383
 9333SOL    HW228899   0.637   5.702   1.448
 9334SOL     OW28900   0.429   5.929   6.663
 9334SOL    HW128901   0.401   5.887   6.749
 9334SOL    HW228902   0.512   5.982   6.677
 9335SOL     OW28903   6.856   3.773   1.100
 9335SOL    HW128904   6.923   3.700   1.107
 9335SOL    HW228905   6.896   3.859   1.133
 9336SOL     OW28906   4.568   5.591   5.658
 9336SOL    HW128907   4.645   5.531   5.639
 9336SOL    HW228908   4.489   5.565   5.601
 9337SOL     OW28909   3.325   1.828   4.950
 9337SOL    HW128910   3.257   1.837   5.023
 9337SOL    HW228911   3.343   1.918   4.911
 9338SOL     OW28912   4.375   0.325   1.996
 9338SOL    HW128913   4.279   0.297   2.006
 9338SOL    HW228914   4.388   0.366   1.906
 9339SOL     OW28915   0.222   3.500   4.178
 9339SOL    HW128916   0.189   3.580   4.128
 9339SOL    HW228917   0.303   3.525   4.231
 9340SOL     OW28918   2.978   4.846   1.963
 9340SOL    HW128919   2.929   4.764   1.993
 9340SOL    HW228920   3.074   4.839   1.992
 9341SOL     OW28921   5.027   5.397   1.740
 9341SOL    HW128922   5.087   5.330   1.783
 9341SOL    HW228923   5.050   5.489   1.773
 9342SOL     OW28924   2.947   0.983   4.756
 9342SOL    HW128925   3.046   0.992   4.744
 9342SOL    HW228926   2.920   0.888   4.743
 9343SOL     OW28927   5.578   3.853   1.142
 9343SOL    HW128928   5.627   3.939   1.123
 9343SOL    HW228929   5.631   3.799   1.207
 9344SOL     OW28930   5.423   5.978   5.125
 9344SOL    HW128931   5.393   5.883   5.135
 9344SOL    HW228932   5.502   5.982   5.064
 9345SOL     OW28933   0.026   4.910   6.871
 9345SOL    HW128934   0.095   4.876   6.935
 9345SOL    HW228935   0.018   5.009   6.879
 9346SOL     OW28936   5.504   0.399   2.342
 9346SOL    HW128937   5.598   0.369   2.357
 9346SOL    HW228938   5.460   0.416   2.430
 9347SOL     OW28939   5.409   0.340   1.887
 9347SOL    HW128940   5.361   0.278   1.825
 9347SOL    HW228941   5.385   0.318   1.982
 9348SOL     OW28942   2.250   4.760   2.417
 9348SOL    HW128943   2.314   4.827   2.379
 9348SOL    HW228944   2.277   4.668   2.388
 9349SOL     OW28945   1.430   4.385   1.521
 9349SOL    HW128946   1.350   4.333   1.490
 9349SOL    HW228947   1.475   4.335   1.595
 9350SOL     OW28948   6.652   0.462   6.905
 9350SOL    HW128949   6.589   0.503   6.971
 9350SOL    HW228950   6.609   0.382   6.863
 9351SOL     OW28951   3.861   4.477   6.337
 9351SOL    HW128952   3.866   4.423   6.253
 9351SOL    HW228953   3.799   4.433   6.402
 9352SOL     OW28954   2.423   1.617   6.735
 9352SOL    HW128955   2.406   1.552   6.809
 9352SOL    HW228956   2.508   1.666   6.753
 9353SOL     OW28957   1.432   3.114   2.369
 9353SOL    HW128958   1.468   3.195   2.321
 9353SOL    HW228959   1.438   3.128   2.467
 9354SOL     OW28960   5.506   2.217   2.536
 9354SOL    HW128961   5.501   2.117   2.545
 9354SOL    HW228962   5.446   2.260   2.603
 9355SOL     OW28963   0.876   2.636   2.161
 9355SOL    HW128964   0.787   2.680   2.157
 9355SOL    HW228965   0.875   2.563   2.230
 9356SOL     OW28966   4.547   2.574   1.880
 9356SOL    HW128967   4.526   2.660   1.834
 9356SOL    HW228968   4.575   2.591   1.974
 9357SOL     OW28969   1.686   4.054   6.854
 9357SOL    HW128970   1.636   3.991   6.796
 9357SOL    HW228971   1.685   4.145   6.813
 9358SOL     OW28972   5.088   4.913   3.598
 9358SOL    HW128973   5.176   4.958   3.584
 9358SOL    HW228974   5.092   4.859   3.683
 9359SOL     OW28975   4.030   5.841   5.742
 9359SOL    HW128976   4.112   5.790   5.718
 9359SOL    HW228977   4.009   5.825   5.838
 9360SOL     OW28978   0.620   0.627   5.475
 9360SOL    HW128979   0.655   0.629   5.381
 9360SOL    HW228980   0.525   0.598   5.475
 9361SOL     OW28981   1.779   1.082   2.610
 9361SOL    HW128982   1.798   1.171   2.569
 9361SOL    HW228983   1.839   1.013   2.569
 9362SOL     OW28984   1.741   2.086   2.825
 9362SOL    HW128985   1.827   2.110   2.779
 9362SOL    HW228986   1.760   2.027   2.903
 9363SOL     OW28987   0.481   6.431   2.379
 9363SOL    HW128988   0.522   6.340   2.383
 9363SOL    HW228989   0.382   6.423   2.375
 9364SOL     OW28990   5.524   4.121   0.977
 9364SOL    HW128991   5.587   4.145   1.050
 9364SOL    HW228992   5.571   4.060   0.912
 9365SOL     OW28993   3.057   1.133   4.384
 9365SOL    HW128994   2.977   1.172   4.429
 9365SOL    HW228995   3.048   1.143   4.285
 9366SOL     OW28996   2.451   1.603   1.232
 9366SOL    HW128997   2.368   1.655   1.250
 9366SOL    HW228998   2.521   1.628   1.299
 9367SOL     OW28999   4.713   6.463   4.283
 9367SOL    HW129000   4.616   6.437   4.279
 9367SOL    HW229001   4.764   6.411   4.215
 9368SOL     OW29002   6.029   3.170   1.023
 9368SOL    HW129003   6.105   3.143   1.082
 9368SOL    HW229004   6.057   3.247   0.966
 9369SOL     OW29005   0.622   2.958   5.987
 9369SOL    HW129006   0.684   2.913   5.922
 9369SOL    HW229007   0.527   2.937   5.962
 9370SOL     OW29008   5.961   5.386   2.438
 9370SOL    HW129009   5.966   5.395   2.538
 9370SOL    HW229010   6.003   5.300   2.410
 9371SOL     OW29011   1.291   0.069   0.503
 9371SOL    HW129012   1.285   0.069   0.403
 9371SOL    HW229013   1.386   0.062   0.530
 9372SOL     OW29014   5.108   5.502   0.785
 9372SOL    HW129015   5.059   5.589   0.788
 9372SOL    HW229016   5.077   5.449   0.706
 9373SOL     OW29017   4.814   3.043   4.902
 9373SOL    HW129018   4.835   3.095   4.984
 9373SOL    HW229019   4.805   3.105   4.824
 9374SOL     OW29020   4.673   4.642   6.509
 9374SOL    HW129021   4.727   4.713   6.554
 9374SOL    HW229022   4.635   4.581   6.578
 9375SOL     OW29023   6.446   6.012   3.747
 9375SOL    HW129024   6.503   6.077   3.697
 9375SOL    HW229025   6.504   5.941   3.788
 9376SOL     OW29026   2.602   3.331   1.761
 9376SOL    HW129027   2.661   3.320   1.840
 9376SOL    HW229028   2.516   3.373   1.789
 9377SOL     OW29029   6.842   4.342   3.445
 9377SOL    HW129030   6.748   4.355   3.414
 9377SOL    HW229031   6.901   4.323   3.367
 9378SOL     OW29032   3.757   5.517   1.693
 9378SOL    HW129033   3.710   5.602   1.670
 9378SOL    HW229034   3.855   5.535   1.705
 9379SOL     OW29035   4.394   4.711   5.249
 9379SOL    HW129036   4.406   4.661   5.163
 9379SOL    HW229037   4.368   4.647   5.321
 9380SOL     OW29038   0.104   5.434   6.232
 9380SOL    HW129039   0.068   5.438   6.139
 9380SOL    HW229040   0.097   5.340   6.266
 9381SOL     OW29041   0.622   0.874   0.089
 9381SOL    HW129042   0.577   0.924   0.015
 9381SOL    HW229043   0.597   0.914   0.177
 9382SOL     OW29044   6.398   2.699   2.403
 9382SOL    HW129045   6.369   2.794   2.405
 9382SOL    HW229046   6.364   2.655   2.320
 9383SOL     OW29047   0.379   4.893   1.004
 9383SOL    HW129048   0.375   4.989   0.975
 9383SOL    HW229049   0.298   4.872   1.059
 9384SOL     OW29050   2.995   6.679   2.058
 9384SOL    HW129051   2.906   6.708   2.023
 9384SOL    HW229052   3.059   6.756   2.053
 9385SOL     OW29053   4.274   0.027   3.574
 9385SOL    HW129054   4.335   0.001   3.499
 9385SOL    HW229055   4.181   7.017   3.554
 9386SOL     OW29056   3.788   0.039   4.541
 9386SOL    HW129057   3.694   0.022   4.571
 9386SOL    HW229058   3.787   0.093   4.457
 9387SOL     OW29059   4.518   5.845   0.809
 9387SOL    HW129060   4.517   5.914   0.882
 9387SOL    HW229061   4.595   5.863   0.748
 9388SOL     OW29062   6.732   0.073   1.241
 9388SOL    HW129063   6.728   0.060   1.340
 9388SOL    HW229064   6.645   0.110   1.209
 9389SOL     OW29065   3.160   1.208   0.828
 9389SOL    HW129066   3.227   1.134   0.830
 9389SOL    HW229067   3.119   1.218   0.918
 9390SOL     OW29068   4.158   6.482   0.978
 9390SOL    HW129069   4.108   6.554   0.929
 9390SOL    HW229070   4.109   6.459   1.063
 9391SOL     OW29071   5.367   0.303   3.750
 9391SOL    HW129072   5.340   0.357   3.830
 9391SOL    HW229073   5.308   0.327   3.673
 9392SOL     OW29074   0.665   0.320   4.839
 9392SOL    HW129075   0.726   0.374   4.897
 9392SOL    HW229076   0.632   0.378   4.763
 9393SOL     OW29077   5.162   1.999   4.975
 9393SOL    HW129078   5.133   2.051   5.055
 9393SOL    HW229079   5.094   2.009   4.902
 9394SOL     OW29080   6.373   1.580   2.417
 9394SOL    HW129081   6.467   1.601   2.390
 9394SOL    HW229082   6.374   1.512   2.489
 9395SOL     OW29083   1.556   3.097   0.331
 9395SOL    HW129084   1.457   3.082   0.334
 9395SOL    HW229085   1.600   3.020   0.286
 9396SOL     OW29086   0.790   1.304   5.028
 9396SOL    HW129087   0.795   1.399   5.058
 9396SOL    HW229088   0.800   1.244   5.107
 9397SOL     OW29089   1.950   1.835   1.266
 9397SOL    HW129090   1.979   1.898   1.193
 9397SOL    HW229091   1.906   1.755   1.225
 9398SOL     OW29092   2.681   1.904   1.511
 9398SOL    HW129093   2.755   1.941   1.567
 9398SOL    HW229094   2.593   1.937   1.545
 9399SOL     OW29095   0.514   0.780   5.715
 9399SOL    HW129096   0.507   0.691   5.670
 9399SOL    HW229097   0.520   0.768   5.814
 9400SOL     OW29098   4.625   1.470   4.341
 9400SOL    HW129099   4.531   1.440   4.325
 9400SOL    HW229100   4.625   1.540   4.413
 9401SOL     OW29101   4.431   0.140   4.350
 9401SOL    HW129102   4.477   0.178   4.431
 9401SOL    HW229103   4.350   0.194   4.329
 9402SOL     OW29104   2.455   4.340   6.251
 9402SOL    HW129105   2.362   4.356   6.286
 9402SOL    HW229106   2.479   4.412   6.186
 9403SOL     OW29107   6.502   0.079   3.586
 9403SOL    HW129108   6.512   0.145   3.660
 9403SOL    HW229109   6.578   0.089   3.522
 9404SOL     OW29110   2.444   4.475   4.504
 9404SOL    HW129111   2.378   4.548   4.486
 9404SOL    HW229112   2.493   4.495   4.589
 9405SOL     OW29113   0.393   0.507   0.968
 9405SOL    HW129114   0.444   0.586   1.002
 9405SOL    HW229115   0.446   0.424   0.983
 9406SOL     OW29116   6.420   1.862   5.606
 9406SOL    HW129117   6.441   1.849   5.703
 9406SOL    HW229118   6.483   1.807   5.551
 9407SOL     OW29119   3.479   5.419   3.613
 9407SOL    HW129120   3.449   5.458   3.700
 9407SOL    HW229121   3.541   5.483   3.568
 9408SOL     OW29122   3.628   1.557   0.248
 9408SOL    HW129123   3.677   1.634   0.208
 9408SOL    HW229124   3.654   1.473   0.200
 9409SOL     OW29125   6.283   3.916   3.741
 9409SOL    HW129126   6.229   3.931   3.824
 9409SOL    HW229127   6.284   3.999   3.686
 9410SOL     OW29128   4.429   6.798   1.329
 9410SOL    HW129129   4.468   6.829   1.416
 9410SOL    HW229130   4.426   6.698   1.327
 9411SOL     OW29131   5.336   4.382   2.655
 9411SOL    HW129132   5.400   4.457   2.638
 9411SOL    HW229133   5.245   4.419   2.675
 9412SOL     OW29134   6.903   1.511   3.017
 9412SOL    HW129135   6.818   1.505   3.069
 9412SOL    HW229136   6.906   1.436   2.950
 9413SOL     OW29137   4.258   5.466   3.802
 9413SOL    HW129138   4.189   5.424   3.862
 9413SOL    HW229139   4.239   5.441   3.707
 9414SOL     OW29140   2.465   0.219   1.456
 9414SOL    HW129141   2.475   0.180   1.365
 9414SOL    HW229142   2.383   0.276   1.458
 9415SOL     OW29143   1.009   6.425   1.697
 9415SOL    HW129144   0.992   6.449   1.601
 9415SOL    HW229145   1.108   6.421   1.713
 9416SOL     OW29146   1.472   2.042   2.319
 9416SOL    HW129147   1.536   2.068   2.391
 9416SOL    HW229148   1.381   2.028   2.357
 9417SOL     OW29149   0.953   0.766   4.139
 9417SOL    HW129150   0.942   0.770   4.238
 9417SOL    HW229151   0.865   0.782   4.094
 9418SOL     OW29152   4.031   4.359   0.549
 9418SOL    HW129153   4.000   4.440   0.501
 9418SOL    HW229154   4.001   4.363   0.644
 9419SOL     OW29155   3.005   6.055   3.081
 9419SOL    HW129156   2.976   6.094   3.169
 9419SOL    HW229157   2.971   5.961   3.075
 9420SOL     OW29158   1.357   0.692   2.541
 9420SOL    HW129159   1.356   0.774   2.483
 9420SOL    HW229160   1.352   0.611   2.483
 9421SOL     OW29161   1.870   4.522   5.036
 9421SOL    HW129162   1.932   4.583   5.086
 9421SOL    HW229163   1.896   4.427   5.053
 9422SOL     OW29164   3.332   1.104   2.520
 9422SOL    HW129165   3.417   1.142   2.557
 9422SOL    HW229166   3.307   1.154   2.437
 9423SOL     OW29167   4.817   0.016   5.858
 9423SOL    HW129168   4.834   6.986   5.941
 9423SOL    HW229169   4.853   6.989   5.778
 9424SOL     OW29170   3.748   5.828   3.747
 9424SOL    HW129171   3.755   5.746   3.804
 9424SOL    HW229172   3.688   5.809   3.669
 9425SOL     OW29173   0.223   5.627   2.314
 9425SOL    HW129174   0.141   5.660   2.361
 9425SOL    HW229175   0.241   5.684   2.234
 9426SOL     OW29176   3.509   6.366   0.692
 9426SOL    HW129177   3.439   6.371   0.620
 9426SOL    HW229178   3.488   6.289   0.753
 9427SOL     OW29179   3.806   4.902   4.611
 9427SOL    HW129180   3.900   4.903   4.645
 9427SOL    HW229181   3.754   4.833   4.660
 9428SOL     OW29182   4.243   6.772   1.880
 9428SOL    HW129183   4.146   6.753   1.895
 9428SOL    HW229184   4.278   6.713   1.808
 9429SOL     OW29185   0.369   3.097   2.811
 9429SOL    HW129186   0.406   3.014   2.770
 9429SOL    HW229187   0.420   3.176   2.776
 9430SOL     OW29188   6.176   6.811   1.741
 9430SOL    HW129189   6.268   6.774   1.728
 9430SOL    HW229190   6.152   6.811   1.838
 9431SOL     OW29191   5.743   4.515   0.845
 9431SOL    HW129192   5.786   4.462   0.772
 9431SOL    HW229193   5.778   4.608   0.843
 9432SOL     OW29194   6.253   6.290   2.687
 9432SOL    HW129195   6.275   6.214   2.627
 9432SOL    HW229196   6.318   6.365   2.672
 9433SOL     OW29197   2.276   5.241   4.528
 9433SOL    HW129198   2.328   5.257   4.444
 9433SOL    HW229199   2.256   5.329   4.572
 9434SOL     OW29200   5.640   4.669   3.957
 9434SOL    HW129201   5.731   4.628   3.953
 9434SOL    HW229202   5.592   4.653   3.871
 9435SOL     OW29203   3.259   2.710   5.715
 9435SOL    HW129204   3.300   2.620   5.724
 9435SOL    HW229205   3.164   2.701   5.685
 9436SOL     OW29206   3.693   2.245   5.328
 9436SOL    HW129207   3.606   2.293   5.341
 9436SOL    HW229208   3.734   2.224   5.417
 9437SOL     OW29209   0.514   6.237   4.484
 9437SOL    HW129210   0.449   6.255   4.558
 9437SOL    HW229211   0.468   6.185   4.412
 9438SOL     OW29212   0.334   6.583   1.493
 9438SOL    HW129213   0.242   6.602   1.457
 9438SOL    HW229214   0.376   6.668   1.523
 9439SOL     OW29215   1.661   2.526   1.819
 9439SOL    HW129216   1.726   2.519   1.896
 9439SOL    HW229217   1.603   2.445   1.818
 9440SOL     OW29218   3.475   6.281   3.410
 9440SOL    HW129219   3.391   6.322   3.375
 9440SOL    HW229220   3.509   6.213   3.344
 9441SOL     OW29221   1.137   5.461   5.901
 9441SOL    HW129222   1.079   5.396   5.950
 9441SOL    HW229223   1.113   5.554   5.928
 9442SOL     OW29224   1.736   1.918   2.035
 9442SOL    HW129225   1.752   1.953   1.942
 9442SOL    HW229226   1.644   1.880   2.041
 9443SOL     OW29227   0.849   1.853   1.334
 9443SOL    HW129228   0.837   1.951   1.317
 9443SOL    HW229229   0.924   1.818   1.278
 9444SOL     OW29230   1.600   4.554   4.983
 9444SOL    HW129231   1.550   4.535   5.067
 9444SOL    HW229232   1.698   4.544   5.000
 9445SOL     OW29233   5.458   1.938   2.566
 9445SOL    HW129234   5.382   1.904   2.510
 9445SOL    HW229235   5.543   1.896   2.535
 9446SOL     OW29236   4.864   5.206   0.576
 9446SOL    HW129237   4.813   5.175   0.496
 9446SOL    HW229238   4.903   5.127   0.624
 9447SOL     OW29239   5.813   1.281   1.771
 9447SOL    HW129240   5.732   1.267   1.828
 9447SOL    HW229241   5.791   1.262   1.675
 9448SOL     OW29242   6.824   6.706   0.675
 9448SOL    HW129243   6.823   6.704   0.775
 9448SOL    HW229244   6.914   6.676   0.642
 9449SOL     OW29245   6.073   5.273   5.038
 9449SOL    HW129246   6.151   5.210   5.037
 9449SOL    HW229247   6.102   5.361   5.076
 9450SOL     OW29248   1.311   6.492   4.261
 9450SOL    HW129249   1.381   6.421   4.265
 9450SOL    HW229250   1.305   6.538   4.349
 9451SOL     OW29251   4.051   3.361   4.538
 9451SOL    HW129252   3.986   3.435   4.520
 9451SOL    HW229253   4.097   3.378   4.626
 9452SOL     OW29254   3.316   4.409   0.920
 9452SOL    HW129255   3.264   4.427   0.836
 9452SOL    HW229256   3.252   4.395   0.996
 9453SOL     OW29257   2.802   6.451   1.109
 9453SOL    HW129258   2.746   6.390   1.054
 9453SOL    HW229259   2.805   6.541   1.067
 9454SOL     OW29260   2.250   1.951   6.237
 9454SOL    HW129261   2.205   2.006   6.308
 9454SOL    HW229262   2.225   1.855   6.249
 9455SOL     OW29263   1.443   1.745   1.308
 9455SOL    HW129264   1.392   1.813   1.361
 9455SOL    HW229265   1.515   1.791   1.256
 9456SOL     OW29266   1.291   2.973   0.342
 9456SOL    HW129267   1.238   3.002   0.262
 9456SOL    HW229268   1.275   2.876   0.359
 9457SOL     OW29269   6.165   3.677   0.225
 9457SOL    HW129270   6.119   3.727   0.299
 9457SOL    HW229271   6.259   3.655   0.254
 9458SOL     OW29272   1.669   5.899   4.074
 9458SOL    HW129273   1.704   5.830   4.011
 9458SOL    HW229274   1.742   5.929   4.136
 9459SOL     OW29275   3.712   5.816   0.881
 9459SOL    HW129276   3.623   5.793   0.842
 9459SOL    HW229277   3.700   5.887   0.951
 9460SOL     OW29278   1.161   3.354   5.222
 9460SOL    HW129279   1.217   3.272   5.239
 9460SOL    HW229280   1.164   3.376   5.125
 9461SOL     OW29281   1.126   0.219   2.196
 9461SOL    HW129282   1.056   0.234   2.125
 9461SOL    HW229283   1.091   0.248   2.285
 9462SOL     OW29284   0.185   3.102   3.530
 9462SOL    HW129285   0.159   3.106   3.627
 9462SOL    HW229286   0.257   3.169   3.512
 9463SOL     OW29287   5.411   1.993   5.713
 9463SOL    HW129288   5.327   2.039   5.741
 9463SOL    HW229289   5.420   1.997   5.613
 9464SOL     OW29290   3.695   6.933   6.262
 9464SOL    HW129291   3.782   6.982   6.265
 9464SOL    HW229292   3.622   6.997   6.241
 9465SOL     OW29293   4.681   0.130   4.204
 9465SOL    HW129294   4.712   0.055   4.146
 9465SOL    HW229295   4.598   0.102   4.252
 9466SOL     OW29296   3.452   2.117   0.432
 9466SOL    HW129297   3.435   2.206   0.391
 9466SOL    HW229298   3.366   2.075   0.460
 9467SOL     OW29299   0.853   3.241   2.459
 9467SOL    HW129300   0.941   3.246   2.507
 9467SOL    HW229301   0.817   3.148   2.465
 9468SOL     OW29302   0.759   3.034   6.375
 9468SOL    HW129303   0.667   3.036   6.335
 9468SOL    HW229304   0.821   3.089   6.320
 9469SOL     OW29305   0.800   3.982   2.469
 9469SOL    HW129306   0.735   4.057   2.479
 9469SOL    HW229307   0.796   3.947   2.375
 9470SOL     OW29308   5.850   3.586   1.864
 9470SOL    HW129309   5.851   3.555   1.959
 9470SOL    HW229310   5.931   3.552   1.816
 9471SOL     OW29311   0.379   2.287   5.936
 9471SOL    HW129312   0.441   2.215   5.967
 9471SOL    HW229313   0.343   2.336   6.015
 9472SOL     OW29314   6.102   2.053   5.163
 9472SOL    HW129315   6.090   1.984   5.091
 9472SOL    HW229316   6.097   2.009   5.252
 9473SOL     OW29317   2.669   4.650   5.275
 9473SOL    HW129318   2.754   4.603   5.252
 9473SOL    HW229319   2.638   4.620   5.365
 9474SOL     OW29320   3.778   5.527   4.476
 9474SOL    HW129321   3.738   5.439   4.453
 9474SOL    HW229322   3.711   5.583   4.524
 9475SOL     OW29323   2.735   3.276   1.535
 9475SOL    HW129324   2.687   3.308   1.617
 9475SOL    HW229325   2.819   3.329   1.522
 9476SOL     OW29326   2.773   3.214   5.613
 9476SOL    HW129327   2.868   3.185   5.624
 9476SOL    HW229328   2.747   3.207   5.516
 9477SOL     OW29329   0.845   2.248   0.934
 9477SOL    HW129330   0.892   2.333   0.956
 9477SOL    HW229331   0.750   2.268   0.911
 9478SOL     OW29332   5.554   3.787   6.427
 9478SOL    HW129333   5.574   3.869   6.372
 9478SOL    HW229334   5.637   3.756   6.472
 9479SOL     OW29335   5.698   4.900   5.219
 9479SOL    HW129336   5.599   4.891   5.235
 9479SOL    HW229337   5.732   4.818   5.174
 9480SOL     OW29338   0.130   3.691   6.195
 9480SOL    HW129339   0.145   3.605   6.245
 9480SOL    HW229340   0.197   3.698   6.120
 9481SOL     OW29341   1.088   2.680   3.646
 9481SOL    HW129342   1.069   2.588   3.682
 9481SOL    HW229343   1.077   2.680   3.547
 9482SOL     OW29344   4.296   1.856   1.885
 9482SOL    HW129345   4.274   1.827   1.792
 9482SOL    HW229346   4.212   1.885   1.932
 9483SOL     OW29347   1.562   1.165   0.735
 9483SOL    HW129348   1.521   1.255   0.730
 9483SOL    HW229349   1.651   1.171   0.781
 9484SOL     OW29350   6.800   0.286   3.657
 9484SOL    HW129351   6.801   0.255   3.752
 9484SOL    HW229352   6.777   0.383   3.653
 9485SOL     OW29353   6.400   0.541   2.846
 9485SOL    HW129354   6.362   0.450   2.827
 9485SOL    HW229355   6.483   0.554   2.794
 9486SOL     OW29356   2.497   6.670   1.148
 9486SOL    HW129357   2.583   6.707   1.111
 9486SOL    HW229358   2.509   6.649   1.245
 9487SOL     OW29359   3.811   2.947   3.320
 9487SOL    HW129360   3.806   2.982   3.414
 9487SOL    HW229361   3.774   2.855   3.317
 9488SOL     OW29362   1.891   0.033   1.370
 9488SOL    HW129363   1.964   6.995   1.340
 9488SOL    HW229364   1.816   7.002   1.408
 9489SOL     OW29365   2.599   5.209   1.098
 9489SOL    HW129366   2.631   5.114   1.091
 9489SOL    HW229367   2.593   5.235   1.194
 9490SOL     OW29368   4.769   1.851   0.664
 9490SOL    HW129369   4.807   1.927   0.610
 9490SOL    HW229370   4.838   1.779   0.672
 9491SOL     OW29371   5.549   5.597   6.817
 9491SOL    HW129372   5.481   5.523   6.817
 9491SOL    HW229373   5.625   5.573   6.879
 9492SOL     OW29374   2.996   5.887   1.345
 9492SOL    HW129375   2.916   5.936   1.382
 9492SOL    HW229376   2.999   5.899   1.246
 9493SOL     OW29377   4.601   5.862   2.680
 9493SOL    HW129378   4.681   5.884   2.737
 9493SOL    HW229379   4.591   5.763   2.675
 9494SOL     OW29380   3.585   2.601   6.885
 9494SOL    HW129381   3.638   2.620   6.967
 9494SOL    HW229382   3.535   2.683   6.858
 9495SOL     OW29383   5.231   2.498   4.138
 9495SOL    HW129384   5.241   2.429   4.066
 9495SOL    HW229385   5.308   2.491   4.201
 9496SOL     OW29386   0.446   4.637   6.653
 9496SOL    HW129387   0.400   4.683   6.729
 9496SOL    HW229388   0.439   4.538   6.665
 9497SOL     OW29389   0.865   6.464   6.153
 9497SOL    HW129390   0.941   6.499   6.099
 9497SOL    HW229391   0.799   6.538   6.169
 9498SOL     OW29392   4.239   6.500   6.700
 9498SOL    HW129393   4.334   6.531   6.693
 9498SOL    HW229394   4.228   6.416   6.648
 9499SOL     OW29395   4.873   3.798   5.248
 9499SOL    HW129396   4.821   3.735   5.190
 9499SOL    HW229397   4.840   3.792   5.342
 9500SOL     OW29398   3.889   5.667   1.054
 9500SOL    HW129399   3.822   5.695   0.985
 9500SOL    HW229400   3.841   5.636   1.136
 9501SOL     OW29401   3.546   1.676   4.930
 9501SOL    HW129402   3.464   1.733   4.928
 9501SOL    HW229403   3.612   1.711   4.864
 9502SOL     OW29404   4.323   3.020   6.019
 9502SOL    HW129405   4.365   3.110   6.011
 9502SOL    HW229406   4.316   2.995   6.116
 9503SOL     OW29407   0.758   6.665   1.044
 9503SOL    HW129408   0.815   6.605   0.987
 9503SOL    HW229409   0.680   6.698   0.990
 9504SOL     OW29410   6.998   3.031   0.828
 9504SOL    HW129411   0.017   3.044   0.919
 9504SOL    HW229412   0.041   2.984   0.769
 9505SOL     OW29413   5.276   3.226   3.123
 9505SOL    HW129414   5.319   3.167   3.055
 9505SOL    HW229415   5.236   3.306   3.077
 9506SOL     OW29416   6.945   2.030   1.017
 9506SOL    HW129417   6.900   1.973   1.086
 9506SOL    HW229418   6.923   1.995   0.926
 9507SOL     OW29419   1.475   3.391   5.427
 9507SOL    HW129420   1.387   3.397   5.473
 9507SOL    HW229421   1.506   3.296   5.426
 9508SOL     OW29422   3.842   1.362   5.737
 9508SOL    HW129423   3.750   1.337   5.770
 9508SOL    HW229424   3.851   1.334   5.642
 9509SOL     OW29425   3.059   6.539   5.804
 9509SOL    HW129426   2.967   6.571   5.781
 9509SOL    HW229427   3.080   6.563   5.899
 9510SOL     OW29428   6.778   4.046   2.518
 9510SOL    HW129429   6.786   3.989   2.600
 9510SOL    HW229430   6.845   4.016   2.450
 9511SOL     OW29431   2.208   1.751   1.493
 9511SOL    HW129432   2.120   1.792   1.518
 9511SOL    HW229433   2.258   1.814   1.434
 9512SOL     OW29434   1.554   3.671   5.551
 9512SOL    HW129435   1.469   3.621   5.570
 9512SOL    HW229436   1.545   3.721   5.465
 9513SOL     OW29437   3.279   4.885   3.579
 9513SOL    HW129438   3.248   4.869   3.485
 9513SOL    HW229439   3.369   4.930   3.577
 9514SOL     OW29440   3.139   3.549   6.054
 9514SOL    HW129441   3.092   3.534   5.967
 9514SOL    HW229442   3.086   3.508   6.129
 9515SOL     OW29443   1.655   6.006   5.469
 9515SOL    HW129444   1.750   5.975   5.481
 9515SOL    HW229445   1.634   6.075   5.539
 9516SOL     OW29446   6.659   4.311   4.733
 9516SOL    HW129447   6.574   4.363   4.728
 9516SOL    HW229448   6.698   4.319   4.825
 9517SOL     OW29449   0.412   5.430   2.310
 9517SOL    HW129450   0.423   5.383   2.398
 9517SOL    HW229451   0.353   5.510   2.321
 9518SOL     OW29452   0.646   3.278   5.343
 9518SOL    HW129453   0.721   3.330   5.302
 9518SOL    HW229454   0.677   3.186   5.366
 9519SOL     OW29455   3.299   3.084   3.439
 9519SOL    HW129456   3.227   3.041   3.385
 9519SOL    HW229457   3.340   3.017   3.500
 9520SOL     OW29458   4.478   1.228   6.067
 9520SOL    HW129459   4.549   1.169   6.106
 9520SOL    HW229460   4.469   1.209   5.970
 9521SOL     OW29461   3.703   1.237   1.286
 9521SOL    HW129462   3.674   1.218   1.192
 9521SOL    HW229463   3.662   1.323   1.316
 9522SOL     OW29464   4.024   6.364   1.214
 9522SOL    HW129465   3.957   6.340   1.285
 9522SOL    HW229466   4.030   6.289   1.148
 9523SOL     OW29467   2.423   4.490   4.801
 9523SOL    HW129468   2.476   4.545   4.865
 9523SOL    HW229469   2.367   4.425   4.851
 9524SOL     OW29470   1.639   3.522   1.312
 9524SOL    HW129471   1.711   3.498   1.248
 9524SOL    HW229472   1.554   3.476   1.286
 9525SOL     OW29473   2.326   2.319   6.282
 9525SOL    HW129474   2.366   2.404   6.247
 9525SOL    HW229475   2.231   2.312   6.252
 9526SOL     OW29476   5.305   4.351   6.413
 9526SOL    HW129477   5.346   4.263   6.438
 9526SOL    HW229478   5.377   4.417   6.392
 9527SOL     OW29479   4.464   5.653   5.041
 9527SOL    HW129480   4.390   5.630   4.978
 9527SOL    HW229481   4.499   5.745   5.019
 9528SOL     OW29482   5.136   2.074   1.012
 9528SOL    HW129483   5.061   2.112   0.959
 9528SOL    HW229484   5.189   2.148   1.052
 9529SOL     OW29485   5.881   0.370   1.549
 9529SOL    HW129486   5.909   0.433   1.622
 9529SOL    HW229487   5.961   0.338   1.500
 9530SOL     OW29488   1.008   5.992   3.478
 9530SOL    HW129489   1.009   5.908   3.532
 9530SOL    HW229490   1.031   5.972   3.383
 9531SOL     OW29491   3.585   6.005   2.043
 9531SOL    HW129492   3.641   6.031   2.121
 9531SOL    HW229493   3.624   5.924   1.998
 9532SOL     OW29494   6.995   5.330   4.167
 9532SOL    HW129495   0.007   5.252   4.220
 9532SOL    HW229496   6.967   5.403   4.230
 9533SOL     OW29497   0.958   4.641   4.269
 9533SOL    HW129498   0.916   4.600   4.350
 9533SOL    HW229499   0.923   4.734   4.257
 9534SOL     OW29500   4.544   6.009   4.373
 9534SOL    HW129501   4.544   5.914   4.341
 9534SOL    HW229502   4.533   6.071   4.296
 9535SOL     OW29503   0.321   1.398   4.328
 9535SOL    HW129504   0.355   1.368   4.239
 9535SOL    HW229505   0.397   1.433   4.382
 9536SOL     OW29506   3.377   3.510   5.895
 9536SOL    HW129507   3.433   3.506   5.978
 9536SOL    HW229508   3.289   3.467   5.912
 9537SOL     OW29509   0.022   1.103   4.728
 9537SOL    HW129510   0.035   1.067   4.636
 9537SOL    HW229511   0.097   1.164   4.751
 9538SOL     OW29512   5.773   0.247   5.408
 9538SOL    HW129513   5.709   0.263   5.333
 9538SOL    HW229514   5.735   0.282   5.493
 9539SOL     OW29515   3.795   4.137   1.819
 9539SOL    HW129516   3.728   4.211   1.810
 9539SOL    HW229517   3.796   4.105   1.914
 9540SOL     OW29518   4.157   5.191   2.733
 9540SOL    HW129519   4.127   5.096   2.743
 9540SOL    HW229520   4.253   5.198   2.760
 9541SOL     OW29521   1.884   5.738   5.934
 9541SOL    HW129522   1.810   5.701   5.878
 9541SOL    HW229523   1.971   5.697   5.906
 9542SOL     OW29524   6.107   3.772   3.407
 9542SOL    HW129525   6.105   3.867   3.376
 9542SOL    HW229526   6.200   3.747   3.433
 9543SOL     OW29527   1.926   0.806   5.834
 9543SOL    HW129528   1.910   0.858   5.750
 9543SOL    HW229529   2.024   0.800   5.851
 9544SOL     OW29530   6.183   2.909   4.770
 9544SOL    HW129531   6.121   2.857   4.711
 9544SOL    HW229532   6.130   2.962   4.836
 9545SOL     OW29533   6.389   4.063   1.651
 9545SOL    HW129534   6.310   4.004   1.667
 9545SOL    HW229535   6.442   4.071   1.735
 9546SOL     OW29536   3.360   2.708   0.260
 9546SOL    HW129537   3.301   2.780   0.223
 9546SOL    HW229538   3.455   2.728   0.238
 9547SOL     OW29539   4.132   0.514   3.494
 9547SOL    HW129540   4.085   0.568   3.564
 9547SOL    HW229541   4.068   0.491   3.421
 9548SOL     OW29542   0.829   5.153   5.523
 9548SOL    HW129543   0.871   5.069   5.489
 9548SOL    HW229544   0.737   5.161   5.485
 9549SOL     OW29545   4.728   1.369   1.538
 9549SOL    HW129546   4.782   1.359   1.621
 9549SOL    HW229547   4.760   1.302   1.470
 9550SOL     OW29548   0.486   1.893   2.160
 9550SOL    HW129549   0.503   1.914   2.063
 9550SOL    HW229550   0.532   1.962   2.217
 9551SOL     OW29551   6.478   3.331   6.626
 9551SOL    HW129552   6.540   3.348   6.549
 9551SOL    HW229553   6.465   3.415   6.678
 9552SOL     OW29554   3.461   1.781   0.536
 9552SOL    HW129555   3.417   1.842   0.602
 9552SOL    HW229556   3.435   1.809   0.443
 9553SOL     OW29557   5.253   1.424   0.009
 9553SOL    HW129558   5.153   1.424   0.015
 9553SOL    HW229559   5.290   1.481   0.081
 9554SOL     OW29560   2.663   0.823   4.372
 9554SOL    HW129561   2.616   0.905   4.406
 9554SOL    HW229562   2.596   0.750   4.357
 9555SOL     OW29563   0.362   6.495   2.634
 9555SOL    HW129564   0.430   6.498   2.560
 9555SOL    HW229565   0.403   6.534   2.717
 9556SOL     OW29566   2.507   4.603   6.441
 9556SOL    HW129567   2.495   4.621   6.538
 9556SOL    HW229568   2.518   4.505   6.425
 9557SOL     OW29569   5.368   1.135   0.261
 9557SOL    HW129570   5.283   1.148   0.210
 9557SOL    HW229571   5.349   1.144   0.359
 9558SOL     OW29572   6.052   5.712   5.333
 9558SOL    HW129573   5.962   5.712   5.289
 9558SOL    HW229574   6.111   5.645   5.288
 9559SOL     OW29575   2.593   4.163   6.940
 9559SOL    HW129576   2.526   4.142   7.012
 9559SOL    HW229577   2.557   4.133   6.852
 9560SOL     OW29578   2.084   6.870   1.230
 9560SOL    HW129579   2.167   6.925   1.241
 9560SOL    HW229580   2.030   6.905   1.154
 9561SOL     OW29581   6.826   1.073   6.525
 9561SOL    HW129582   6.781   0.996   6.480
 9561SOL    HW229583   6.893   1.038   6.590
 9562SOL     OW29584   1.845   5.876   2.903
 9562SOL    HW129585   1.906   5.800   2.884
 9562SOL    HW229586   1.820   5.921   2.817
 9563SOL     OW29587   0.307   5.159   0.555
 9563SOL    HW129588   0.257   5.111   0.627
 9563SOL    HW229589   0.369   5.226   0.597
 9564SOL     OW29590   0.537   1.624   0.146
 9564SOL    HW129591   0.612   1.688   0.130
 9564SOL    HW229592   0.523   1.568   0.065
 9565SOL     OW29593   2.697   2.152   4.912
 9565SOL    HW129594   2.718   2.188   4.821
 9565SOL    HW229595   2.783   2.124   4.957
 9566SOL     OW29596   3.606   0.196   6.751
 9566SOL    HW129597   3.667   0.171   6.676
 9566SOL    HW229598   3.512   0.200   6.716
 9567SOL     OW29599   6.719   4.361   0.808
 9567SOL    HW129600   6.720   4.347   0.709
 9567SOL    HW229601   6.789   4.428   0.834
 9568SOL     OW29602   4.772   2.384   5.403
 9568SOL    HW129603   4.853   2.422   5.447
 9568SOL    HW229604   4.690   2.424   5.444
 9569SOL     OW29605   5.761   0.284   2.422
 9569SOL    HW129606   5.785   0.189   2.445
 9569SOL    HW229607   5.814   0.313   2.342
 9570SOL     OW29608   0.817   3.866   2.213
 9570SOL    HW129609   0.862   3.781   2.241
 9570SOL    HW229610   0.876   3.915   2.148
 9571SOL     OW29611   1.389   0.874   6.876
 9571SOL    HW129612   1.297   0.911   6.892
 9571SOL    HW229613   1.457   0.937   6.914
 9572SOL     OW29614   2.911   4.907   4.873
 9572SOL    HW129615   2.906   4.816   4.914
 9572SOL    HW229616   2.845   4.914   4.798
 9573SOL     OW29617   5.553   6.623   4.392
 9573SOL    HW129618   5.637   6.660   4.433
 9573SOL    HW229619   5.473   6.659   4.440
 9574SOL     OW29620   4.775   2.447   1.086
 9574SOL    HW129621   4.736   2.539   1.082
 9574SOL    HW229622   4.828   2.437   1.171
 9575SOL     OW29623   5.098   1.146   1.500
 9575SOL    HW129624   5.158   1.174   1.575
 9575SOL    HW229625   5.151   1.143   1.415
 9576SOL     OW29626   1.609   1.896   5.824
 9576SOL    HW129627   1.525   1.894   5.770
 9576SOL    HW229628   1.685   1.862   5.769
 9577SOL     OW29629   0.087   5.207   2.749
 9577SOL    HW129630   0.088   5.202   2.649
 9577SOL    HW229631   0.176   5.179   2.785
 9578SOL     OW29632   1.957   3.313   2.720
 9578SOL    HW129633   2.012   3.377   2.774
 9578SOL    HW229634   2.004   3.294   2.634
 9579SOL     OW29635   5.397   5.504   2.816
 9579SOL    HW129636   5.414   5.406   2.815
 9579SOL    HW229637   5.383   5.535   2.910
 9580SOL     OW29638   4.779   4.139   4.049
 9580SOL    HW129639   4.786   4.061   4.111
 9580SOL    HW229640   4.704   4.198   4.078
 9581SOL     OW29641   4.905   1.950   6.272
 9581SOL    HW129642   4.880   1.919   6.180
 9581SOL    HW229643   4.931   1.872   6.328
 9582SOL     OW29644   4.649   6.300   5.542
 9582SOL    HW129645   4.555   6.311   5.574
 9582SOL    HW229646   4.684   6.210   5.570
 9583SOL     OW29647   2.602   4.656   1.461
 9583SOL    HW129648   2.510   4.669   1.498
 9583SOL    HW229649   2.661   4.619   1.532
 9584SOL     OW29650   2.207   5.569   4.248
 9584SOL    HW129651   2.212   5.565   4.348
 9584SOL    HW229652   2.293   5.604   4.212
 9585SOL     OW29653   4.633   6.786   0.414
 9585SOL    HW129654   4.591   6.701   0.445
 9585SOL    HW229655   4.606   6.803   0.319
 9586SOL     OW29656   3.788   5.101   3.432
 9586SOL    HW129657   3.796   5.193   3.469
 9586SOL    HW229658   3.847   5.039   3.484
 9587SOL     OW29659   3.863   6.359   0.302
 9587SOL    HW129660   3.869   6.303   0.384
 9587SOL    HW229661   3.807   6.312   0.234
 9588SOL     OW29662   6.480   5.993   1.293
 9588SOL    HW129663   6.403   5.989   1.357
 9588SOL    HW229664   6.565   6.003   1.345
 9589SOL     OW29665   1.154   1.864   5.498
 9589SOL    HW129666   1.214   1.868   5.419
 9589SOL    HW229667   1.100   1.780   5.495
 9590SOL     OW29668   5.327   0.668   0.073
 9590SOL    HW129669   5.294   0.578   0.046
 9590SOL    HW229670   5.427   0.669   0.073
 9591SOL     OW29671   4.912   0.945   6.404
 9591SOL    HW129672   4.880   0.934   6.498
 9591SOL    HW229673   4.897   1.039   6.375
 9592SOL     OW29674   1.971   6.186   5.408
 9592SOL    HW129675   1.926   6.234   5.483
 9592SOL    HW229676   1.954   6.088   5.415
 9593SOL     OW29677   2.831   2.227   4.659
 9593SOL    HW129678   2.778   2.200   4.578
 9593SOL    HW229679   2.909   2.166   4.669
 9594SOL     OW29680   0.486   6.306   3.589
 9594SOL    HW129681   0.469   6.404   3.589
 9594SOL    HW229682   0.548   6.283   3.515
 9595SOL     OW29683   0.536   4.833   3.708
 9595SOL    HW129684   0.616   4.867   3.757
 9595SOL    HW229685   0.554   4.741   3.674
 9596SOL     OW29686   1.434   6.337   0.983
 9596SOL    HW129687   1.343   6.295   0.987
 9596SOL    HW229688   1.424   6.437   0.977
 9597SOL     OW29689   0.831   3.534   1.921
 9597SOL    HW129690   0.767   3.466   1.885
 9597SOL    HW229691   0.924   3.512   1.891
 9598SOL     OW29692   2.554   4.859   3.411
 9598SOL    HW129693   2.517   4.949   3.435
 9598SOL    HW229694   2.541   4.796   3.488
 9599SOL     OW29695   4.694   0.250   5.874
 9599SOL    HW129696   4.725   0.155   5.870
 9599SOL    HW229697   4.693   0.288   5.781
 9600SOL     OW29698   3.825   1.410   0.460
 9600SOL    HW129699   3.856   1.346   0.389
 9600SOL    HW229700   3.725   1.418   0.456
 9601SOL     OW29701   1.054   3.859   0.627
 9601SOL    HW129702   1.028   3.954   0.645
 9601SOL    HW229703   1.151   3.854   0.602
 9602SOL     OW29704   3.580   4.601   5.844
 9602SOL    HW129705   3.665   4.548   5.848
 9602SOL    HW229706   3.523   4.579   5.923
 9603SOL     OW29707   5.834   6.497   5.695
 9603SOL    HW129708   5.929   6.522   5.680
 9603SOL    HW229709   5.809   6.514   5.791
 9604SOL     OW29710   4.352   6.432   1.469
 9604SOL    HW129711   4.369   6.336   1.444
 9604SOL    HW229712   4.292   6.474   1.401
 9605SOL     OW29713   4.854   4.963   1.879
 9605SOL    HW129714   4.920   4.951   1.805
 9605SOL    HW229715   4.824   5.059   1.881
 9606SOL     OW29716   1.971   1.584   6.897
 9606SOL    HW129717   2.007   1.665   6.944
 9606SOL    HW229718   1.877   1.567   6.927
 9607SOL     OW29719   1.544   2.332   6.856
 9607SOL    HW129720   1.589   2.345   6.768
 9607SOL    HW229721   1.604   2.366   6.929
 9608SOL     OW29722   6.594   2.370   4.483
 9608SOL    HW129723   6.528   2.443   4.499
 9608SOL    HW229724   6.546   2.284   4.470
 9609SOL     OW29725   4.833   3.467   0.646
 9609SOL    HW129726   4.897   3.401   0.686
 9609SOL    HW229727   4.760   3.486   0.711
 9610SOL     OW29728   1.163   4.929   2.771
 9610SOL    HW129729   1.071   4.900   2.795
 9610SOL    HW229730   1.209   4.856   2.720
 9611SOL     OW29731   2.470   0.270   6.863
 9611SOL    HW129732   2.517   0.284   6.776
 9611SOL    HW229733   2.482   0.352   6.921
 9612SOL     OW29734   0.300   1.930   3.678
 9612SOL    HW129735   0.273   2.003   3.740
 9612SOL    HW229736   0.221   1.900   3.625
 9613SOL     OW29737   6.081   4.507   4.303
 9613SOL    HW129738   6.118   4.417   4.323
 9613SOL    HW229739   6.089   4.565   4.385
 9614SOL     OW29740   4.188   1.249   3.350
 9614SOL    HW129741   4.161   1.227   3.256
 9614SOL    HW229742   4.288   1.242   3.358
 9615SOL     OW29743   1.741   3.578   1.565
 9615SOL    HW129744   1.692   3.564   1.479
 9615SOL    HW229745   1.837   3.600   1.546
 9616SOL     OW29746   3.477   3.732   5.779
 9616SOL    HW129747   3.435   3.651   5.820
 9616SOL    HW229748   3.517   3.708   5.691
 9617SOL     OW29749   0.664   3.010   2.782
 9617SOL    HW129750   0.681   2.992   2.685
 9617SOL    HW229751   0.752   3.021   2.829
 9618SOL     OW29752   2.173   2.505   0.590
 9618SOL    HW129753   2.210   2.586   0.635
 9618SOL    HW229754   2.236   2.474   0.520
 9619SOL     OW29755   2.005   6.903   6.818
 9619SOL    HW129756   1.918   6.852   6.816
 9619SOL    HW229757   2.075   6.847   6.861
 9620SOL     OW29758   5.476   0.636   4.872
 9620SOL    HW129759   5.480   0.612   4.969
 9620SOL    HW229760   5.513   0.728   4.859
 9621SOL     OW29761   1.588   4.011   3.895
 9621SOL    HW129762   1.570   3.937   3.831
 9621SOL    HW229763   1.661   3.983   3.958
 9622SOL     OW29764   4.507   6.831   0.165
 9622SOL    HW129765   4.415   6.870   0.156
 9622SOL    HW229766   4.518   6.757   0.098
 9623SOL     OW29767   0.859   3.462   6.297
 9623SOL    HW129768   0.835   3.490   6.390
 9623SOL    HW229769   0.851   3.540   6.236
 9624SOL     OW29770   6.549   3.391   3.985
 9624SOL    HW129771   6.591   3.312   4.029
 9624SOL    HW229772   6.489   3.361   3.912
 9625SOL     OW29773   5.510   6.069   1.882
 9625SOL    HW129774   5.437   6.136   1.896
 9625SOL    HW229775   5.581   6.109   1.823
 9626SOL     OW29776   3.712   0.588   0.176
 9626SOL    HW129777   3.622   0.580   0.135
 9626SOL    HW229778   3.781   0.549   0.115
 9627SOL     OW29779   0.716   0.302   0.528
 9627SOL    HW129780   0.671   0.215   0.548
 9627SOL    HW229781   0.758   0.298   0.438
 9628SOL     OW29782   3.065   6.872   1.815
 9628SOL    HW129783   3.158   6.901   1.792
 9628SOL    HW229784   3.006   6.952   1.823
 9629SOL     OW29785   2.484   0.281   0.353
 9629SOL    HW129786   2.463   0.341   0.430
 9629SOL    HW229787   2.409   0.216   0.340
 9630SOL     OW29788   0.803   2.436   6.630
 9630SOL    HW129789   0.788   2.510   6.564
 9630SOL    HW229790   0.782   2.348   6.586
 9631SOL     OW29791   6.346   5.713   0.811
 9631SOL    HW129792   6.346   5.809   0.839
 9631SOL    HW229793   6.421   5.665   0.855
 9632SOL     OW29794   2.039   5.590   2.702
 9632SOL    HW129795   1.961   5.607   2.642
 9632SOL    HW229796   2.027   5.502   2.748
 9633SOL     OW29797   0.568   4.599   0.404
 9633SOL    HW129798   0.661   4.635   0.397
 9633SOL    HW229799   0.507   4.669   0.440
 9634SOL     OW29800   6.722   5.974   5.973
 9634SOL    HW129801   6.664   5.899   5.940
 9634SOL    HW229802   6.735   5.965   6.072
 9635SOL     OW29803   6.340   5.719   6.290
 9635SOL    HW129804   6.315   5.775   6.212
 9635SOL    HW229805   6.421   5.664   6.268
 9636SOL     OW29806   3.389   1.429   0.263
 9636SOL    HW129807   3.457   1.501   0.246
 9636SOL    HW229808   3.369   1.426   0.361
 9637SOL     OW29809   2.689   1.686   0.208
 9637SOL    HW129810   2.631   1.662   0.286
 9637SOL    HW229811   2.776   1.638   0.216
 9638SOL     OW29812   6.779   2.504   6.316
 9638SOL    HW129813   6.683   2.501   6.286
 9638SOL    HW229814   6.837   2.529   6.239
 9639SOL     OW29815   3.229   0.127   2.352
 9639SOL    HW129816   3.279   0.082   2.426
 9639SOL    HW229817   3.136   0.092   2.349
 9640SOL     OW29818   2.563   1.858   2.747
 9640SOL    HW129819   2.506   1.830   2.670
 9640SOL    HW229820   2.563   1.786   2.817
 9641SOL     OW29821   4.966   5.725   6.674
 9641SOL    HW129822   5.016   5.782   6.609
 9641SOL    HW229823   5.014   5.725   6.762
 9642SOL     OW29824   3.193   6.751   2.594
 9642SOL    HW129825   3.142   6.706   2.521
 9642SOL    HW229826   3.129   6.781   2.665
 9643SOL     OW29827   3.904   4.886   2.277
 9643SOL    HW129828   3.852   4.816   2.228
 9643SOL    HW229829   3.868   4.977   2.252
 9644SOL     OW29830   2.494   0.763   0.122
 9644SOL    HW129831   2.497   0.819   0.205
 9644SOL    HW229832   2.586   0.755   0.084
 9645SOL     OW29833   3.147   5.138   5.319
 9645SOL    HW129834   3.200   5.205   5.265
 9645SOL    HW229835   3.209   5.068   5.354
 9646SOL     OW29836   3.490   4.963   4.362
 9646SOL    HW129837   3.582   4.931   4.341
 9646SOL    HW229838   3.484   4.989   4.458
 9647SOL     OW29839   5.794   3.292   5.712
 9647SOL    HW129840   5.777   3.347   5.631
 9647SOL    HW229841   5.733   3.320   5.786
 9648SOL     OW29842   4.262   4.117   1.077
 9648SOL    HW129843   4.228   4.099   1.169
 9648SOL    HW229844   4.352   4.160   1.082
 9649SOL     OW29845   1.791   4.331   0.571
 9649SOL    HW129846   1.840   4.262   0.518
 9649SOL    HW229847   1.852   4.368   0.641
 9650SOL     OW29848   1.685   0.587   1.257
 9650SOL    HW129849   1.722   0.526   1.187
 9650SOL    HW229850   1.706   0.682   1.232
 9651SOL     OW29851   0.909   2.266   0.263
 9651SOL    HW129852   0.892   2.311   0.351
 9651SOL    HW229853   0.956   2.329   0.202
 9652SOL     OW29854   1.836   4.520   1.350
 9652SOL    HW129855   1.832   4.519   1.450
 9652SOL    HW229856   1.744   4.523   1.312
 9653SOL     OW29857   6.714   6.736   4.326
 9653SOL    HW129858   6.626   6.712   4.367
 9653SOL    HW229859   6.706   6.734   4.227
 9654SOL     OW29860   2.115   2.476   2.186
 9654SOL    HW129861   2.177   2.410   2.228
 9654SOL    HW229862   2.100   2.452   2.090
 9655SOL     OW29863   6.143   3.066   0.538
 9655SOL    HW129864   6.194   3.039   0.456
 9655SOL    HW229865   6.118   2.985   0.591
 9656SOL     OW29866   2.736   2.061   2.438
 9656SOL    HW129867   2.787   2.146   2.427
 9656SOL    HW229868   2.657   2.077   2.498
 9657SOL     OW29869   0.692   0.502   4.317
 9657SOL    HW129870   0.664   0.562   4.392
 9657SOL    HW229871   0.792   0.499   4.312
 9658SOL     OW29872   6.162   0.578   3.395
 9658SOL    HW129873   6.097   0.651   3.374
 9658SOL    HW229874   6.250   0.598   3.351
 9659SOL     OW29875   1.888   5.441   6.690
 9659SOL    HW129876   1.876   5.527   6.641
 9659SOL    HW229877   1.799   5.404   6.715
 9660SOL     OW29878   1.128   3.920   0.227
 9660SOL    HW129879   1.035   3.899   0.255
 9660SOL    HW229880   1.190   3.908   0.304
 9661SOL     OW29881   4.056   1.084   1.117
 9661SOL    HW129882   4.155   1.075   1.106
 9661SOL    HW229883   4.023   1.160   1.062
 9662SOL     OW29884   4.749   2.345   4.175
 9662SOL    HW129885   4.738   2.266   4.236
 9662SOL    HW229886   4.661   2.392   4.166
 9663SOL     OW29887   3.596   5.799   3.058
 9663SOL    HW129888   3.548   5.881   3.026
 9663SOL    HW229889   3.675   5.782   2.999
 9664SOL     OW29890   2.245   5.663   1.237
 9664SOL    HW129891   2.285   5.637   1.325
 9664SOL    HW229892   2.218   5.760   1.240
 9665SOL     OW29893   5.721   4.771   3.477
 9665SOL    HW129894   5.657   4.699   3.504
 9665SOL    HW229895   5.815   4.740   3.491
 9666SOL     OW29896   5.407   5.206   4.676
 9666SOL    HW129897   5.355   5.121   4.684
 9666SOL    HW229898   5.447   5.213   4.585
 9667SOL     OW29899   3.141   3.455   2.917
 9667SOL    HW129900   3.149   3.472   3.016
 9667SOL    HW229901   3.206   3.384   2.890
 9668SOL     OW29902   0.308   1.869   4.597
 9668SOL    HW129903   0.351   1.778   4.594
 9668SOL    HW229904   0.267   1.883   4.687
 9669SOL     OW29905   0.686   6.756   7.018
 9669SOL    HW129906   0.775   6.710   7.013
 9669SOL    HW229907   0.614   6.694   6.985
 9670SOL     OW29908   6.437   3.575   6.743
 9670SOL    HW129909   6.392   3.577   6.654
 9670SOL    HW229910   6.385   3.630   6.808
 9671SOL     OW29911   6.504   1.382   6.762
 9671SOL    HW129912   6.521   1.421   6.853
 9671SOL    HW229913   6.573   1.416   6.698
 9672SOL     OW29914   0.467   0.187   5.233
 9672SOL    HW129915   0.564   0.170   5.253
 9672SOL    HW229916   0.430   0.111   5.180
 9673SOL     OW29917   2.150   2.196   5.998
 9673SOL    HW129918   2.094   2.116   5.978
 9673SOL    HW229919   2.167   2.246   5.913
 9674SOL     OW29920   2.561   6.217   2.529
 9674SOL    HW129921   2.645   6.262   2.499
 9674SOL    HW229922   2.499   6.284   2.569
 9675SOL     OW29923   0.285   2.273   2.551
 9675SOL    HW129924   0.296   2.223   2.465
 9675SOL    HW229925   0.201   2.328   2.548
 9676SOL     OW29926   6.439   2.718   4.316
 9676SOL    HW129927   6.409   2.642   4.259
 9676SOL    HW229928   6.469   2.683   4.405
 9677SOL     OW29929   1.737   3.876   6.105
 9677SOL    HW129930   1.729   3.934   6.024
 9677SOL    HW229931   1.716   3.930   6.187
 9678SOL     OW29932   3.446   3.331   3.414
 9678SOL    HW129933   3.541   3.300   3.411
 9678SOL    HW229934   3.385   3.251   3.418
 9679SOL     OW29935   0.405   3.379   1.953
 9679SOL    HW129936   0.318   3.371   2.002
 9679SOL    HW229937   0.386   3.395   1.856
 9680SOL     OW29938   4.622   5.603   2.711
 9680SOL    HW129939   4.614   5.537   2.636
 9680SOL    HW229940   4.719   5.615   2.734
 9681SOL     OW29941   0.910   1.065   3.898
 9681SOL    HW129942   0.922   1.101   3.990
 9681SOL    HW229943   0.997   1.068   3.849
 9682SOL     OW29944   0.539   4.385   2.241
 9682SOL    HW129945   0.453   4.430   2.218
 9682SOL    HW229946   0.601   4.389   2.163
 9683SOL     OW29947   4.638   6.820   4.773
 9683SOL    HW129948   4.721   6.780   4.734
 9683SOL    HW229949   4.627   6.789   4.867
 9684SOL     OW29950   1.845   4.102   3.131
 9684SOL    HW129951   1.914   4.170   3.106
 9684SOL    HW229952   1.784   4.140   3.200
 9685SOL     OW29953   1.600   1.338   6.725
 9685SOL    HW129954   1.644   1.318   6.813
 9685SOL    HW229955   1.504   1.312   6.729
 9686SOL     OW29956   6.527   2.775   3.165
 9686SOL    HW129957   6.578   2.856   3.136
 9686SOL    HW229958   6.582   2.693   3.147
 9687SOL     OW29959   2.926   1.316   5.321
 9687SOL    HW129960   2.917   1.230   5.271
 9687SOL    HW229961   2.974   1.300   5.407
 9688SOL     OW29962   5.874   2.349   4.618
 9688SOL    HW129963   5.840   2.307   4.701
 9688SOL    HW229964   5.964   2.311   4.595
 9689SOL     OW29965   3.064   5.361   5.450
 9689SOL    HW129966   3.041   5.280   5.395
 9689SOL    HW229967   3.115   5.333   5.531
 9690SOL     OW29968   5.782   3.512   6.829
 9690SOL    HW129969   5.723   3.591   6.812
 9690SOL    HW229970   5.726   3.429   6.836
 9691SOL     OW29971   1.154   4.451   0.875
 9691SOL    HW129972   1.237   4.502   0.900
 9691SOL    HW229973   1.141   4.375   0.938
 9692SOL     OW29974   2.819   5.433   0.255
 9692SOL    HW129975   2.893   5.428   0.322
 9692SOL    HW229976   2.787   5.528   0.248
 9693SOL     OW29977   5.922   5.721   1.588
 9693SOL    HW129978   5.986   5.744   1.514
 9693SOL    HW229979   5.973   5.700   1.671
 9694SOL     OW29980   0.846   0.682   0.194
 9694SOL    HW129981   0.775   0.729   0.142
 9694SOL    HW229982   0.839   0.583   0.179
 9695SOL     OW29983   5.584   4.635   0.319
 9695SOL    HW129984   5.585   4.610   0.416
 9695SOL    HW229985   5.619   4.558   0.265
 9696SOL     OW29986   3.896   4.133   6.936
 9696SOL    HW129987   3.955   4.054   6.957
 9696SOL    HW229988   3.953   4.213   6.921
 9697SOL     OW29989   0.266   5.833   6.918
 9697SOL    HW129990   0.197   5.900   6.889
 9697SOL    HW229991   0.265   5.755   6.856
 9698SOL     OW29992   4.817   1.478   5.446
 9698SOL    HW129993   4.796   1.570   5.479
 9698SOL    HW229994   4.846   1.420   5.523
 9699SOL     OW29995   1.592   2.195   6.419
 9699SOL    HW129996   1.608   2.261   6.492
 9699SOL    HW229997   1.613   2.103   6.452
 9700SOL     OW29998   4.045   3.127   3.366
 9700SOL    HW129999   4.015   3.147   3.459
 9700SOL    HW230000   4.013   3.035   3.340
 9701SOL     OW30001   4.105   5.041   4.351
 9701SOL    HW130002   4.069   5.068   4.440
 9701SOL    HW230003   4.163   5.115   4.314
 9702SOL     OW30004   5.214   0.528   6.660
 9702SOL    HW130005   5.130   0.475   6.667
 9702SOL    HW230006   5.261   0.527   6.748
 9703SOL     OW30007   1.846   5.929   4.282
 9703SOL    HW130008   1.944   5.918   4.267
 9703SOL    HW230009   1.819   5.875   4.362
 9704SOL     OW30010   3.216   1.482   4.394
 9704SOL    HW130011   3.126   1.495   4.353
 9704SOL    HW230012   3.269   1.418   4.339
 9705SOL     OW30013   2.432   4.027   0.969
 9705SOL    HW130014   2.336   4.020   0.943
 9705SOL    HW230015   2.475   4.100   0.915
 9706SOL     OW30016   6.918   1.982   3.631
 9706SOL    HW130017   6.978   1.920   3.581
 9706SOL    HW230018   6.947   1.986   3.726
 9707SOL     OW30019   2.250   5.822   1.620
 9707SOL    HW130020   2.298   5.894   1.670
 9707SOL    HW230021   2.283   5.733   1.650
 9708SOL     OW30022   1.329   2.032   1.892
 9708SOL    HW130023   1.381   1.948   1.904
 9708SOL    HW230024   1.356   2.076   1.807
 9709SOL     OW30025   1.806   6.486   3.593
 9709SOL    HW130026   1.768   6.575   3.618
 9709SOL    HW230027   1.811   6.428   3.674
 9710SOL     OW30028   1.540   6.830   3.851
 9710SOL    HW130029   1.477   6.771   3.900
 9710SOL    HW230030   1.552   6.916   3.901
 9711SOL     OW30031   1.956   2.934   6.366
 9711SOL    HW130032   1.989   2.987   6.288
 9711SOL    HW230033   1.915   2.849   6.334
 9712SOL     OW30034   5.269   3.896   4.583
 9712SOL    HW130035   5.180   3.852   4.598
 9712SOL    HW230036   5.273   3.982   4.634
 9713SOL     OW30037   1.190   5.656   3.379
 9713SOL    HW130038   1.130   5.659   3.459
 9713SOL    HW230039   1.256   5.732   3.384
 9714SOL     OW30040   2.531   1.821   2.267
 9714SOL    HW130041   2.616   1.799   2.316
 9714SOL    HW230042   2.454   1.778   2.313
 9715SOL     OW30043   5.973   5.421   5.925
 9715SOL    HW130044   5.946   5.350   5.861
 9715SOL    HW230045   5.938   5.400   6.016
 9716SOL     OW30046   3.471   0.831   5.836
 9716SOL    HW130047   3.466   0.859   5.740
 9716SOL    HW230048   3.429   0.741   5.847
 9717SOL     OW30049   6.141   5.227   3.357
 9717SOL    HW130050   6.187   5.255   3.272
 9717SOL    HW230051   6.207   5.224   3.431
 9718SOL     OW30052   5.941   2.662   2.420
 9718SOL    HW130053   5.889   2.704   2.494
 9718SOL    HW230054   5.986   2.733   2.366
 9719SOL     OW30055   0.414   1.077   7.021
 9719SOL    HW130056   0.464   1.140   0.057
 9719SOL    HW230057   0.343   1.126   6.971
 9720SOL     OW30058   0.284   1.437   0.818
 9720SOL    HW130059   0.258   1.468   0.909
 9720SOL    HW230060   0.352   1.364   0.824
 9721SOL     OW30061   0.782   2.469   3.723
 9721SOL    HW130062   0.856   2.425   3.673
 9721SOL    HW230063   0.718   2.399   3.756
 9722SOL     OW30064   6.884   6.986   4.627
 9722SOL    HW130065   6.860   6.910   4.687
 9722SOL    HW230066   6.952   0.022   4.672
 9723SOL     OW30067   6.072   0.568   4.822
 9723SOL    HW130068   6.002   0.567   4.893
 9723SOL    HW230069   6.030   0.583   4.733
 9724SOL     OW30070   3.982   2.451   1.251
 9724SOL    HW130071   3.999   2.480   1.157
 9724SOL    HW230072   3.967   2.353   1.253
 9725SOL     OW30073   4.307   2.888   5.758
 9725SOL    HW130074   4.395   2.912   5.717
 9725SOL    HW230075   4.305   2.919   5.853
 9726SOL     OW30076   5.178   5.920   5.428
 9726SOL    HW130077   5.225   5.833   5.443
 9726SOL    HW230078   5.224   5.970   5.355
 9727SOL     OW30079   0.622   1.000   6.800
 9727SOL    HW130080   0.560   0.923   6.817
 9727SOL    HW230081   0.577   1.085   6.826
 9728SOL     OW30082   2.392   5.648   5.897
 9728SOL    HW130083   2.458   5.653   5.822
 9728SOL    HW230084   2.408   5.566   5.950
 9729SOL     OW30085   3.465   5.897   2.502
 9729SOL    HW130086   3.370   5.908   2.528
 9729SOL    HW230087   3.471   5.837   2.422
 9730SOL     OW30088   5.052   3.782   2.779
 9730SOL    HW130089   5.040   3.731   2.864
 9730SOL    HW230090   4.964   3.820   2.750
 9731SOL     OW30091   5.358   4.279   0.690
 9731SOL    HW130092   5.288   4.337   0.730
 9731SOL    HW230093   5.400   4.222   0.761
 9732SOL     OW30094   5.206   6.158   4.325
 9732SOL    HW130095   5.162   6.134   4.411
 9732SOL    HW230096   5.234   6.075   4.277
 9733SOL     OW30097   4.640   4.340   4.096
 9733SOL    HW130098   4.620   4.366   4.001
 9733SOL    HW230099   4.568   4.377   4.156
 9734SOL     OW30100   6.300   2.428   6.507
 9734SOL    HW130101   6.321   2.458   6.600
 9734SOL    HW230102   6.251   2.341   6.509
 9735SOL     OW30103   3.613   4.831   1.378
 9735SOL    HW130104   3.539   4.764   1.385
 9735SOL    HW230105   3.666   4.812   1.296
 9736SOL     OW30106   3.830   2.003   2.122
 9736SOL    HW130107   3.776   2.072   2.073
 9736SOL    HW230108   3.864   2.042   2.208
 9737SOL     OW30109   4.978   1.513   4.687
 9737SOL    HW130110   4.935   1.587   4.738
 9737SOL    HW230111   5.015   1.549   4.601
 9738SOL     OW30112   2.509   0.109   2.064
 9738SOL    HW130113   2.415   0.097   2.032
 9738SOL    HW230114   2.569   0.047   2.015
 9739SOL     OW30115   4.902   4.352   2.450
 9739SOL    HW130116   4.893   4.376   2.547
 9739SOL    HW230117   4.815   4.368   2.404
 9740SOL     OW30118   6.563   3.426   3.634
 9740SOL    HW130119   6.571   3.389   3.542
 9740SOL    HW230120   6.518   3.515   3.631
 9741SOL     OW30121   3.751   1.554   2.961
 9741SOL    HW130122   3.682   1.497   2.915
 9741SOL    HW230123   3.790   1.503   3.037
 9742SOL     OW30124   3.778   0.979   2.456
 9742SOL    HW130125   3.704   1.028   2.503
 9742SOL    HW230126   3.866   1.018   2.484
 9743SOL     OW30127   1.665   1.181   6.098
 9743SOL    HW130128   1.718   1.117   6.042
 9743SOL    HW230129   1.584   1.210   6.047
 9744SOL     OW30130   2.578   0.324   0.845
 9744SOL    HW130131   2.640   0.300   0.770
 9744SOL    HW230132   2.504   0.381   0.811
 9745SOL     OW30133   0.438   1.101   4.110
 9745SOL    HW130134   0.454   1.198   4.096
 9745SOL    HW230135   0.343   1.086   4.138
 9746SOL     OW30136   5.845   6.631   4.526
 9746SOL    HW130137   5.781   6.705   4.552
 9746SOL    HW230138   5.938   6.666   4.528
 9747SOL     OW30139   0.093   0.398   5.460
 9747SOL    HW130140   0.146   0.361   5.383
 9747SOL    HW230141   0.001   0.359   5.459
 9748SOL     OW30142   1.218   4.676   4.385
 9748SOL    HW130143   1.192   4.672   4.481
 9748SOL    HW230144   1.148   4.632   4.329
 9749SOL     OW30145   0.888   5.397   4.940
 9749SOL    HW130146   0.907   5.487   4.902
 9749SOL    HW230147   0.872   5.404   5.039
 9750SOL     OW30148   2.850   5.616   2.241
 9750SOL    HW130149   2.913   5.612   2.164
 9750SOL    HW230150   2.875   5.692   2.301
 9751SOL     OW30151   1.322   1.802   0.871
 9751SOL    HW130152   1.404   1.799   0.928
 9751SOL    HW230153   1.349   1.804   0.775
 9752SOL     OW30154   2.842   6.930   5.990
 9752SOL    HW130155   2.938   6.947   5.966
 9752SOL    HW230156   2.795   6.887   5.912
 9753SOL     OW30157   0.333   0.619   6.706
 9753SOL    HW130158   0.254   0.576   6.749
 9753SOL    HW230159   0.319   0.623   6.607
 9754SOL     OW30160   0.046   2.910   6.194
 9754SOL    HW130161   0.112   2.836   6.183
 9754SOL    HW230162   6.978   2.878   6.167
 9755SOL     OW30163   4.404   5.700   4.679
 9755SOL    HW130164   4.498   5.703   4.645
 9755SOL    HW230165   4.373   5.793   4.699
 9756SOL     OW30166   4.457   2.907   6.714
 9756SOL    HW130167   4.421   2.960   6.791
 9756SOL    HW230168   4.557   2.906   6.719
 9757SOL     OW30169   5.700   0.617   4.048
 9757SOL    HW130170   5.661   0.581   4.133
 9757SOL    HW230171   5.628   0.655   3.991
 9758SOL     OW30172   3.267   0.330   0.137
 9758SOL    HW130173   3.167   0.334   0.148
 9758SOL    HW230174   3.310   0.323   0.227
 9759SOL     OW30175   2.510   6.611   1.408
 9759SOL    HW130176   2.433   6.593   1.469
 9759SOL    HW230177   2.573   6.534   1.410
 9760SOL     OW30178   4.951   3.725   6.136
 9760SOL    HW130179   4.922   3.814   6.172
 9760SOL    HW230180   4.930   3.720   6.038
 9761SOL     OW30181   5.313   5.540   3.088
 9761SOL    HW130182   5.383   5.555   3.157
 9761SOL    HW230183   5.227   5.514   3.132
 9762SOL     OW30184   3.236   0.985   2.022
 9762SOL    HW130185   3.250   0.953   2.116
 9762SOL    HW230186   3.261   1.082   2.016
 9763SOL     OW30187   2.401   2.055   1.860
 9763SOL    HW130188   2.479   2.045   1.923
 9763SOL    HW230189   2.316   2.046   1.911
 9764SOL     OW30190   1.393   3.102   4.290
 9764SOL    HW130191   1.365   3.198   4.294
 9764SOL    HW230192   1.485   3.092   4.328
 9765SOL     OW30193   0.083   1.858   5.745
 9765SOL    HW130194   0.066   1.765   5.713
 9765SOL    HW230195   0.074   1.923   5.669
 9766SOL     OW30196   2.910   0.104   1.800
 9766SOL    HW130197   2.946   0.149   1.719
 9766SOL    HW230198   2.879   0.172   1.866
 9767SOL     OW30199   4.463   0.602   4.967
 9767SOL    HW130200   4.366   0.578   4.973
 9767SOL    HW230201   4.480   0.685   5.021
 9768SOL     OW30202   4.370   1.886   3.159
 9768SOL    HW130203   4.424   1.873   3.075
 9768SOL    HW230204   4.285   1.934   3.136
 9769SOL     OW30205   0.174   2.729   0.045
 9769SOL    HW130206   0.094   2.789   0.057
 9769SOL    HW230207   0.178   2.665   0.122
 9770SOL     OW30208   0.482   3.071   4.933
 9770SOL    HW130209   0.531   3.148   4.891
 9770SOL    HW230210   0.488   2.991   4.872
 9771SOL     OW30211   1.786   6.807   4.216
 9771SOL    HW130212   1.689   6.821   4.199
 9771SOL    HW230213   1.810   6.844   4.306
 9772SOL     OW30214   5.789   6.260   0.945
 9772SOL    HW130215   5.871   6.283   0.892
 9772SOL    HW230216   5.721   6.333   0.934
 9773SOL     OW30217   4.966   5.055   3.281
 9773SOL    HW130218   4.984   5.083   3.376
 9773SOL    HW230219   5.011   4.968   3.263
 9774SOL     OW30220   6.007   5.919   3.940
 9774SOL    HW130221   6.000   5.936   4.038
 9774SOL    HW230222   5.918   5.933   3.897
 9775SOL     OW30223   2.911   1.385   4.083
 9775SOL    HW130224   2.977   1.460   4.076
 9775SOL    HW230225   2.961   1.299   4.099
 9776SOL     OW30226   0.611   4.297   4.688
 9776SOL    HW130227   0.613   4.203   4.656
 9776SOL    HW230228   0.592   4.358   4.611
 9777SOL     OW30229   5.268   5.610   6.242
 9777SOL    HW130230   5.242   5.530   6.189
 9777SOL    HW230231   5.222   5.608   6.331
 9778SOL     OW30232   3.783   0.202   4.327
 9778SOL    HW130233   3.853   0.260   4.286
 9778SOL    HW230234   3.735   0.151   4.255
 9779SOL     OW30235   3.123   2.289   0.142
 9779SOL    HW130236   3.205   2.344   0.127
 9779SOL    HW230237   3.148   2.193   0.152
 9780SOL     OW30238   1.240   3.047   1.157
 9780SOL    HW130239   1.312   3.089   1.102
 9780SOL    HW230240   1.244   3.083   1.250
 9781SOL     OW30241   6.851   0.284   4.590
 9781SOL    HW130242   6.886   0.296   4.497
 9781SOL    HW230243   6.776   0.218   4.588
 9782SOL     OW30244   5.593   0.190   0.242
 9782SOL    HW130245   5.501   0.211   0.207
 9782SOL    HW230246   5.587   0.112   0.304
 9783SOL     OW30247   6.140   6.863   4.270
 9783SOL    HW130248   6.166   6.834   4.178
 9783SOL    HW230249   6.202   6.936   4.301
 9784SOL     OW30250   4.870   0.781   5.177
 9784SOL    HW130251   4.843   0.713   5.109
 9784SOL    HW230252   4.894   0.736   5.263
 9785SOL     OW30253   1.150   2.287   0.933
 9785SOL    HW130254   1.234   2.251   0.892
 9785SOL    HW230255   1.141   2.254   1.027
 9786SOL     OW30256   1.122   6.894   3.341
 9786SOL    HW130257   1.125   6.868   3.438
 9786SOL    HW230258   1.070   6.979   3.331
 9787SOL     OW30259   5.748   4.124   1.165
 9787SOL    HW130260   5.762   4.165   1.256
 9787SOL    HW230261   5.800   4.040   1.157
 9788SOL     OW30262   6.933   0.401   6.197
 9788SOL    HW130263   6.875   0.332   6.154
 9788SOL    HW230264   6.991   0.358   6.266
 9789SOL     OW30265   2.543   4.516   4.047
 9789SOL    HW130266   2.502   4.472   3.967
 9789SOL    HW230267   2.506   4.475   4.131
 9790SOL     OW30268   0.547   1.377   3.317
 9790SOL    HW130269   0.572   1.291   3.271
 9790SOL    HW230270   0.522   1.445   3.248
 9791SOL     OW30271   1.443   2.365   0.676
 9791SOL    HW130272   1.389   2.292   0.719
 9791SOL    HW230273   1.468   2.433   0.745
 9792SOL     OW30274   4.817   5.865   2.846
 9792SOL    HW130275   4.873   5.785   2.827
 9792SOL    HW230276   4.870   5.948   2.825
 9793SOL     OW30277   4.740   5.669   1.762
 9793SOL    HW130278   4.832   5.694   1.789
 9793SOL    HW230279   4.741   5.577   1.721
 9794SOL     OW30280   3.398   4.528   0.313
 9794SOL    HW130281   3.316   4.546   0.367
 9794SOL    HW230282   3.406   4.597   0.241
 9795SOL     OW30283   1.827   5.550   2.531
 9795SOL    HW130284   1.774   5.626   2.494
 9795SOL    HW230285   1.880   5.508   2.458
 9796SOL     OW30286   4.065   5.116   6.358
 9796SOL    HW130287   4.122   5.058   6.416
 9796SOL    HW230288   4.031   5.063   6.280
 9797SOL     OW30289   6.587   3.439   5.076
 9797SOL    HW130290   6.648   3.363   5.097
 9797SOL    HW230291   6.642   3.519   5.051
 9798SOL     OW30292   3.152   1.731   1.540
 9798SOL    HW130293   3.098   1.749   1.622
 9798SOL    HW230294   3.238   1.782   1.544
 9799SOL     OW30295   4.132   3.575   3.124
 9799SOL    HW130296   4.192   3.537   3.194
 9799SOL    HW230297   4.050   3.519   3.115
 9800SOL     OW30298   4.286   6.003   0.616
 9800SOL    HW130299   4.281   5.908   0.648
 9800SOL    HW230300   4.204   6.052   0.644
 9801SOL     OW30301   5.841   5.095   1.656
 9801SOL    HW130302   5.759   5.101   1.599
 9801SOL    HW230303   5.900   5.022   1.621
 9802SOL     OW30304   0.992   6.348   2.322
 9802SOL    HW130305   1.027   6.365   2.230
 9802SOL    HW230306   0.959   6.254   2.328
 9803SOL     OW30307   5.749   6.811   5.611
 9803SOL    HW130308   5.849   6.814   5.616
 9803SOL    HW230309   5.721   6.758   5.531
 9804SOL     OW30310   5.513   6.282   3.860
 9804SOL    HW130311   5.611   6.294   3.876
 9804SOL    HW230312   5.475   6.367   3.822
 9805SOL     OW30313   2.675   4.949   1.017
 9805SOL    HW130314   2.654   4.866   1.068
 9805SOL    HW230315   2.727   4.925   0.935
 9806SOL     OW30316   1.093   0.938   2.975
 9806SOL    HW130317   1.093   0.863   3.041
 9806SOL    HW230318   1.180   0.987   2.980
 9807SOL     OW30319   2.181   4.022   0.847
 9807SOL    HW130320   2.150   4.118   0.848
 9807SOL    HW230321   2.253   4.012   0.779
 9808SOL     OW30322   2.121   2.222   3.373
 9808SOL    HW130323   2.074   2.304   3.339
 9808SOL    HW230324   2.059   2.170   3.431
 9809SOL     OW30325   0.385   0.072   4.150
 9809SOL    HW130326   0.298   0.122   4.153
 9809SOL    HW230327   0.461   0.136   4.157
 9810SOL     OW30328   5.063   1.928   2.662
 9810SOL    HW130329   5.121   1.857   2.622
 9810SOL    HW230330   5.035   1.901   2.754
 9811SOL     OW30331   1.618   0.109   2.920
 9811SOL    HW130332   1.682   0.171   2.966
 9811SOL    HW230333   1.530   0.155   2.908
 9812SOL     OW30334   5.880   2.839   0.058
 9812SOL    HW130335   5.787   2.875   0.049
 9812SOL    HW230336   5.891   2.796   0.147
 9813SOL     OW30337   6.127   4.645   0.361
 9813SOL    HW130338   6.142   4.557   0.407
 9813SOL    HW230339   6.118   4.630   0.263
 9814SOL     OW30340   6.664   1.266   5.453
 9814SOL    HW130341   6.699   1.300   5.366
 9814SOL    HW230342   6.586   1.321   5.482
 9815SOL     OW30343   0.031   5.196   2.473
 9815SOL    HW130344   0.057   5.202   2.377
 9815SOL    HW230345   6.964   5.241   2.487
 9816SOL     OW30346   6.676   2.500   5.334
 9816SOL    HW130347   6.735   2.580   5.339
 9816SOL    HW230348   6.615   2.498   5.414
 9817SOL     OW30349   2.255   1.817   0.320
 9817SOL    HW130350   2.214   1.736   0.362
 9817SOL    HW230351   2.355   1.813   0.329
 9818SOL     OW30352   0.033   0.742   2.387
 9818SOL    HW130353   0.051   0.814   2.454
 9818SOL    HW230354   0.095   0.665   2.403
 9819SOL     OW30355   6.080   0.825   5.323
 9819SOL    HW130356   6.129   0.760   5.265
 9819SOL    HW230357   6.146   0.881   5.374
 9820SOL     OW30358   3.372   0.926   6.238
 9820SOL    HW130359   3.449   0.935   6.302
 9820SOL    HW230360   3.321   0.843   6.259
 9821SOL     OW30361   4.282   3.874   6.066
 9821SOL    HW130362   4.358   3.932   6.095
 9821SOL    HW230363   4.240   3.832   6.146
 9822SOL     OW30364   2.978   6.838   3.748
 9822SOL    HW130365   2.882   6.817   3.767
 9822SOL    HW230366   2.983   6.920   3.690
 9823SOL     OW30367   3.997   6.768   2.335
 9823SOL    HW130368   4.096   6.778   2.321
 9823SOL    HW230369   3.956   6.726   2.254
 9824SOL     OW30370   1.675   6.541   5.115
 9824SOL    HW130371   1.612   6.468   5.143
 9824SOL    HW230372   1.638   6.629   5.143
 9825SOL     OW30373   0.534   6.747   4.820
 9825SOL    HW130374   0.515   6.653   4.791
 9825SOL    HW230375   0.472   6.772   4.894
 9826SOL     OW30376   1.601   6.787   5.007
 9826SOL    HW130377   1.687   6.779   4.956
 9826SOL    HW230378   1.593   6.880   5.044
 9827SOL     OW30379   2.035   4.723   1.205
 9827SOL    HW130380   2.069   4.631   1.229
 9827SOL    HW230381   1.955   4.714   1.146
 9828SOL     OW30382   5.010   1.921   4.402
 9828SOL    HW130383   5.008   1.840   4.343
 9828SOL    HW230384   5.100   1.963   4.397
 9829SOL     OW30385   5.723   4.113   5.805
 9829SOL    HW130386   5.640   4.088   5.754
 9829SOL    HW230387   5.780   4.032   5.818
 9830SOL     OW30388   6.042   0.118   3.414
 9830SOL    HW130389   6.003   0.093   3.326
 9830SOL    HW230390   6.032   0.041   3.478
 9831SOL     OW30391   1.288   4.735   1.460
 9831SOL    HW130392   1.375   4.707   1.502
 9831SOL    HW230393   1.250   4.658   1.409
 9832SOL     OW30394   6.171   5.583   4.790
 9832SOL    HW130395   6.198   5.599   4.695
 9832SOL    HW230396   6.160   5.670   4.836
 9833SOL     OW30397   3.913   3.117   4.161
 9833SOL    HW130398   3.869   3.199   4.124
 9833SOL    HW230399   4.000   3.141   4.202
 9834SOL     OW30400   2.741   5.950   5.880
 9834SOL    HW130401   2.763   6.047   5.887
 9834SOL    HW230402   2.807   5.905   5.820
 9835SOL     OW30403   3.977   3.233   3.611
 9835SOL    HW130404   4.022   3.316   3.644
 9835SOL    HW230405   3.972   3.167   3.686
 9836SOL     OW30406   0.080   3.366   6.462
 9836SOL    HW130407   0.129   3.350   6.377
 9836SOL    HW230408   0.091   3.286   6.522
 9837SOL     OW30409   6.425   0.529   5.550
 9837SOL    HW130410   6.483   0.607   5.528
 9837SOL    HW230411   6.457   0.486   5.635
 9838SOL     OW30412   0.298   5.623   1.426
 9838SOL    HW130413   0.235   5.692   1.389
 9838SOL    HW230414   0.337   5.657   1.511
 9839SOL     OW30415   4.069   6.936   3.380
 9839SOL    HW130416   4.111   6.988   3.306
 9839SOL    HW230417   3.998   6.990   3.423
 9840SOL     OW30418   6.169   1.806   5.478
 9840SOL    HW130419   6.252   1.791   5.531
 9840SOL    HW230420   6.155   1.729   5.416
 9841SOL     OW30421   6.983   5.325   2.247
 9841SOL    HW130422   7.015   5.369   2.163
 9841SOL    HW230423   6.991   5.226   2.237
 9842SOL     OW30424   4.037   0.802   0.912
 9842SOL    HW130425   4.004   0.854   0.834
 9842SOL    HW230426   4.065   0.865   0.985
 9843SOL     OW30427   0.473   0.313   0.719
 9843SOL    HW130428   0.420   0.309   0.634
 9843SOL    HW230429   0.545   0.382   0.711
 9844SOL     OW30430   5.635   0.744   4.374
 9844SOL    HW130431   5.598   0.653   4.357
 9844SOL    HW230432   5.725   0.753   4.331
 9845SOL     OW30433   0.557   3.328   2.675
 9845SOL    HW130434   0.653   3.303   2.660
 9845SOL    HW230435   0.548   3.428   2.670
 9846SOL     OW30436   5.763   1.930   3.064
 9846SOL    HW130437   5.802   1.949   3.154
 9846SOL    HW230438   5.824   1.964   2.993
 9847SOL     OW30439   4.435   3.511   0.302
 9847SOL    HW130440   4.382   3.488   0.220
 9847SOL    HW230441   4.382   3.572   0.360
 9848SOL     OW30442   3.341   3.471   6.347
 9848SOL    HW130443   3.337   3.473   6.447
 9848SOL    HW230444   3.303   3.385   6.313
 9849SOL     OW30445   2.109   2.207   2.312
 9849SOL    HW130446   2.086   2.239   2.220
 9849SOL    HW230447   2.209   2.200   2.321
 9850SOL     OW30448   2.535   0.117   3.710
 9850SOL    HW130449   2.611   0.176   3.738
 9850SOL    HW230450   2.550   0.086   3.616
 9851SOL     OW30451   3.890   6.362   3.343
 9851SOL    HW130452   3.814   6.359   3.279
 9851SOL    HW230453   3.858   6.336   3.434
 9852SOL     OW30454   2.349   0.914   6.502
 9852SOL    HW130455   2.264   0.871   6.471
 9852SOL    HW230456   2.392   0.857   6.572
 9853SOL     OW30457   0.072   3.695   4.029
 9853SOL    HW130458   0.083   3.656   3.938
 9853SOL    HW230459   6.998   3.699   4.053
 9854SOL     OW30460   6.426   3.970   6.783
 9854SOL    HW130461   6.452   3.921   6.866
 9854SOL    HW230462   6.495   4.039   6.762
 9855SOL     OW30463   0.485   6.325   0.712
 9855SOL    HW130464   0.493   6.227   0.725
 9855SOL    HW230465   0.426   6.344   0.633
 9856SOL     OW30466   4.389   4.798   3.545
 9856SOL    HW130467   4.346   4.793   3.635
 9856SOL    HW230468   4.448   4.718   3.532
 9857SOL     OW30469   4.104   6.586   5.684
 9857SOL    HW130470   4.074   6.659   5.622
 9857SOL    HW230471   4.185   6.542   5.646
 9858SOL     OW30472   6.181   5.106   2.689
 9858SOL    HW130473   6.168   5.033   2.756
 9858SOL    HW230474   6.266   5.155   2.711
 9859SOL     OW30475   6.950   6.733   3.015
 9859SOL    HW130476   6.850   6.728   3.006
 9859SOL    HW230477   6.982   6.821   2.979
 9860SOL     OW30478   1.171   3.832   3.486
 9860SOL    HW130479   1.143   3.743   3.522
 9860SOL    HW230480   1.181   3.825   3.386
 9861SOL     OW30481   4.091   1.970   4.242
 9861SOL    HW130482   4.181   2.003   4.213
 9861SOL    HW230483   4.024   2.043   4.235
 9862SOL     OW30484   1.211   3.272   6.291
 9862SOL    HW130485   1.190   3.258   6.194
 9862SOL    HW230486   1.235   3.184   6.333
 9863SOL     OW30487   3.674   5.754   1.964
 9863SOL    HW130488   3.730   5.678   1.998
 9863SOL    HW230489   3.615   5.721   1.890
 9864SOL     OW30490   3.499   6.312   4.982
 9864SOL    HW130491   3.545   6.401   4.978
 9864SOL    HW230492   3.568   6.239   4.982
 9865SOL     OW30493   2.539   4.548   5.966
 9865SOL    HW130494   2.632   4.578   5.986
 9865SOL    HW230495   2.473   4.613   6.004
 9866SOL     OW30496   0.964   5.672   4.897
 9866SOL    HW130497   0.875   5.693   4.937
 9866SOL    HW230498   1.035   5.726   4.942
 9867SOL     OW30499   5.130   1.044   2.978
 9867SOL    HW130500   5.059   1.033   2.909
 9867SOL    HW230501   5.195   0.968   2.971
 9868SOL     OW30502   2.391   5.362   2.960
 9868SOL    HW130503   2.429   5.329   3.046
 9868SOL    HW230504   2.339   5.446   2.976
 9869SOL     OW30505   6.374   1.742   3.004
 9869SOL    HW130506   6.457   1.687   2.993
 9869SOL    HW230507   6.384   1.828   2.955
 9870SOL     OW30508   2.202   3.263   3.550
 9870SOL    HW130509   2.150   3.348   3.547
 9870SOL    HW230510   2.251   3.250   3.464
 9871SOL     OW30511   5.153   5.244   2.559
 9871SOL    HW130512   5.177   5.162   2.611
 9871SOL    HW230513   5.225   5.312   2.569
 9872SOL     OW30514   0.310   6.288   4.725
 9872SOL    HW130515   0.253   6.369   4.714
 9872SOL    HW230516   0.278   6.217   4.661
 9873SOL     OW30517   0.902   0.777   4.407
 9873SOL    HW130518   0.930   0.681   4.403
 9873SOL    HW230519   0.810   0.783   4.446
 9874SOL     OW30520   0.142   2.653   4.657
 9874SOL    HW130521   0.049   2.619   4.649
 9874SOL    HW230522   0.141   2.752   4.674
 9875SOL     OW30523   5.404   5.396   0.942
 9875SOL    HW130524   5.311   5.360   0.950
 9875SOL    HW230525   5.421   5.458   1.018
 9876SOL     OW30526   0.795   6.915   2.969
 9876SOL    HW130527   0.812   6.948   2.876
 9876SOL    HW230528   0.881   6.913   3.020
 9877SOL     OW30529   1.625   5.830   4.910
 9877SOL    HW130530   1.701   5.808   4.971
 9877SOL    HW230531   1.579   5.913   4.942
 9878SOL     OW30532   4.797   4.139   0.032
 9878SOL    HW130533   4.723   4.183   0.084
 9878SOL    HW230534   4.757   4.085   6.980
 9879SOL     OW30535   6.163   4.852   4.489
 9879SOL    HW130536   6.167   4.941   4.535
 9879SOL    HW230537   6.068   4.828   4.469
 9880SOL     OW30538   2.876   1.497   0.963
 9880SOL    HW130539   2.947   1.430   0.980
 9880SOL    HW230540   2.799   1.482   1.025
 9881SOL     OW30541   6.247   0.325   2.793
 9881SOL    HW130542   6.179   0.375   2.740
 9881SOL    HW230543   6.242   0.228   2.771
 9882SOL     OW30544   3.005   4.026   4.929
 9882SOL    HW130545   3.102   4.002   4.923
 9882SOL    HW230546   2.955   3.975   4.859
 9883SOL     OW30547   0.321   5.058   2.740
 9883SOL    HW130548   0.358   4.994   2.807
 9883SOL    HW230549   0.395   5.116   2.705
 9884SOL     OW30550   3.591   2.830   5.132
 9884SOL    HW130551   3.521   2.893   5.163
 9884SOL    HW230552   3.577   2.810   5.035
 9885SOL     OW30553   4.676   2.358   5.136
 9885SOL    HW130554   4.674   2.450   5.095
 9885SOL    HW230555   4.710   2.364   5.230
 9886SOL     OW30556   2.147   5.910   1.258
 9886SOL    HW130557   2.092   5.931   1.178
 9886SOL    HW230558   2.134   5.981   1.327
 9887SOL     OW30559   3.235   1.578   6.844
 9887SOL    HW130560   3.327   1.544   6.865
 9887SOL    HW230561   3.233   1.613   6.751
 9888SOL     OW30562   6.676   6.921   3.818
 9888SOL    HW130563   6.705   6.906   3.724
 9888SOL    HW230564   6.705   7.011   3.849
 9889SOL     OW30565   6.474   5.666   2.263
 9889SOL    HW130566   6.412   5.599   2.305
 9889SOL    HW230567   6.554   5.618   2.226
 9890SOL     OW30568   1.685   3.313   3.298
 9890SOL    HW130569   1.715   3.255   3.222
 9890SOL    HW230570   1.659   3.403   3.263
 9891SOL     OW30571   3.462   0.319   1.230
 9891SOL    HW130572   3.541   0.257   1.229
 9891SOL    HW230573   3.471   0.383   1.306
 9892SOL     OW30574   2.266   5.863   2.989
 9892SOL    HW130575   2.246   5.879   2.893
 9892SOL    HW230576   2.300   5.947   3.031
 9893SOL     OW30577   5.529   4.849   4.535
 9893SOL    HW130578   5.534   4.767   4.478
 9893SOL    HW230579   5.613   4.902   4.525
 9894SOL     OW30580   4.668   3.445   5.884
 9894SOL    HW130581   4.597   3.377   5.865
 9894SOL    HW230582   4.694   3.439   5.980
 9895SOL     OW30583   5.416   2.779   6.159
 9895SOL    HW130584   5.339   2.798   6.097
 9895SOL    HW230585   5.407   2.835   6.241
 9896SOL     OW30586   3.209   4.045   6.150
 9896SOL    HW130587   3.246   3.955   6.129
 9896SOL    HW230588   3.196   4.096   6.064
 9897SOL     OW30589   0.978   1.259   3.020
 9897SOL    HW130590   0.944   1.336   2.966
 9897SOL    HW230591   0.915   1.182   3.012
 9898SOL     OW30592   0.391   5.418   7.009
 9898SOL    HW130593   0.412   5.461   6.921
 9898SOL    HW230594   0.418   5.322   7.007
 9899SOL     OW30595   3.598   4.957   0.524
 9899SOL    HW130596   3.522   4.938   0.587
 9899SOL    HW230597   3.685   4.940   0.571
 9900SOL     OW30598   2.610   5.279   3.121
 9900SOL    HW130599   2.643   5.284   3.215
 9900SOL    HW230600   2.654   5.202   3.075
 9901SOL     OW30601   2.900   1.712   5.887
 9901SOL    HW130602   2.903   1.649   5.963
 9901SOL    HW230603   2.805   1.733   5.864
 9902SOL     OW30604   3.727   4.338   6.626
 9902SOL    HW130605   3.719   4.390   6.711
 9902SOL    HW230606   3.811   4.284   6.627
 9903SOL     OW30607   3.329   1.377   0.541
 9903SOL    HW130608   3.422   1.387   0.575
 9903SOL    HW230609   3.270   1.447   0.582
 9904SOL     OW30610   7.006   6.296   1.956
 9904SOL    HW130611   0.015   6.214   2.003
 9904SOL    HW230612   0.049   6.321   1.885
 9905SOL     OW30613   2.210   6.691   6.636
 9905SOL    HW130614   2.240   6.748   6.560
 9905SOL    HW230615   2.262   6.606   6.638
 9906SOL     OW30616   2.947   3.620   6.787
 9906SOL    HW130617   2.956   3.628   6.687
 9906SOL    HW230618   2.919   3.527   6.811
 9907SOL     OW30619   0.727   6.714   3.671
 9907SOL    HW130620   0.736   6.785   3.602
 9907SOL    HW230621   0.814   6.668   3.684
 9908SOL     OW30622   0.178   3.351   6.215
 9908SOL    HW130623   0.193   3.378   6.120
 9908SOL    HW230624   0.208   3.257   6.228
 9909SOL     OW30625   2.562   5.578   2.218
 9909SOL    HW130626   2.524   5.522   2.144
 9909SOL    HW230627   2.661   5.575   2.214
 9910SOL     OW30628   1.146   5.439   0.548
 9910SOL    HW130629   1.083   5.468   0.620
 9910SOL    HW230630   1.144   5.505   0.473
 9911SOL     OW30631   3.126   4.637   1.776
 9911SOL    HW130632   3.180   4.560   1.741
 9911SOL    HW230633   3.040   4.602   1.814
 9912SOL     OW30634   6.449   6.462   0.013
 9912SOL    HW130635   6.544   6.444   7.009
 9912SOL    HW230636   6.419   6.394   0.080
 9913SOL     OW30637   6.196   2.543   1.053
 9913SOL    HW130638   6.258   2.554   1.131
 9913SOL    HW230639   6.228   2.468   0.995
 9914SOL     OW30640   2.347   5.145   3.680
 9914SOL    HW130641   2.430   5.116   3.729
 9914SOL    HW230642   2.295   5.064   3.653
 9915SOL     OW30643   5.970   4.822   4.779
 9915SOL    HW130644   5.988   4.867   4.867
 9915SOL    HW230645   5.945   4.890   4.711
 9916SOL     OW30646   1.452   2.792   0.683
 9916SOL    HW130647   1.400   2.876   0.667
 9916SOL    HW230648   1.422   2.750   0.769
 9917SOL     OW30649   1.653   4.739   4.543
 9917SOL    HW130650   1.636   4.836   4.525
 9917SOL    HW230651   1.577   4.702   4.596
 9918SOL     OW30652   3.063   2.051   3.936
 9918SOL    HW130653   3.121   2.100   3.871
 9918SOL    HW230654   2.990   2.002   3.887
 9919SOL     OW30655   0.683   6.022   1.602
 9919SOL    HW130656   0.729   5.988   1.685
 9919SOL    HW230657   0.649   5.945   1.549
 9920SOL     OW30658   3.545   0.225   2.464
 9920SOL    HW130659   3.524   0.162   2.539
 9920SOL    HW230660   3.473   0.220   2.395
 9921SOL     OW30661   4.640   0.642   2.656
 9921SOL    HW130662   4.551   0.683   2.677
 9921SOL    HW230663   4.630   0.579   2.579
 9922SOL     OW30664   6.134   2.191   2.779
 9922SOL    HW130665   6.223   2.235   2.788
 9922SOL    HW230666   6.072   2.251   2.728
 9923SOL     OW30667   5.163   6.729   5.965
 9923SOL    HW130668   5.257   6.698   5.981
 9923SOL    HW230669   5.120   6.674   5.894
 9924SOL     OW30670   6.183   6.482   4.031
 9924SOL    HW130671   6.251   6.423   3.988
 9924SOL    HW230672   6.100   6.484   3.975
 9925SOL     OW30673   3.911   2.145   5.585
 9925SOL    HW130674   3.955   2.218   5.636
 9925SOL    HW230675   3.962   2.127   5.501
 9926SOL     OW30676   1.579   1.075   6.346
 9926SOL    HW130677   1.641   1.110   6.417
 9926SOL    HW230678   1.609   1.108   6.257
 9927SOL     OW30679   2.267   4.134   4.281
 9927SOL    HW130680   2.263   4.038   4.309
 9927SOL    HW230681   2.193   4.185   4.326
 9928SOL     OW30682   6.385   3.690   3.420
 9928SOL    HW130683   6.436   3.740   3.350
 9928SOL    HW230684   6.427   3.707   3.509
 9929SOL     OW30685   1.623   5.363   5.241
 9929SOL    HW130686   1.699   5.386   5.302
 9929SOL    HW230687   1.554   5.435   5.245
 9930SOL     OW30688   0.120   6.478   0.221
 9930SOL    HW130689   0.174   6.546   0.270
 9930SOL    HW230690   0.177   6.397   0.203
 9931SOL     OW30691   1.019   3.816   6.825
 9931SOL    HW130692   1.007   3.854   6.734
 9931SOL    HW230693   1.051   3.721   6.818
 9932SOL     OW30694   2.137   1.595   1.302
 9932SOL    HW130695   2.048   1.559   1.328
 9932SOL    HW230696   2.173   1.654   1.374
 9933SOL     OW30697   2.232   1.746   2.937
 9933SOL    HW130698   2.212   1.843   2.924
 9933SOL    HW230699   2.202   1.695   2.856
 9934SOL     OW30700   4.982   1.355   5.636
 9934SOL    HW130701   5.051   1.284   5.615
 9934SOL    HW230702   4.955   1.348   5.732
 9935SOL     OW30703   3.358   2.288   6.865
 9935SOL    HW130704   3.270   2.259   6.826
 9935SOL    HW230705   3.429   2.282   6.795
 9936SOL     OW30706   4.754   6.286   0.712
 9936SOL    HW130707   4.719   6.266   0.803
 9936SOL    HW230708   4.713   6.224   0.646
 9937SOL     OW30709   1.055   0.362   5.681
 9937SOL    HW130710   1.145   0.348   5.721
 9937SOL    HW230711   1.028   0.281   5.629
 9938SOL     OW30712   1.597   1.741   3.954
 9938SOL    HW130713   1.670   1.784   3.901
 9938SOL    HW230714   1.509   1.771   3.918
 9939SOL     OW30715   3.091   3.485   0.600
 9939SOL    HW130716   3.049   3.545   0.668
 9939SOL    HW230717   3.120   3.400   0.644
 9940SOL     OW30718   5.924   1.005   2.850
 9940SOL    HW130719   5.940   0.928   2.911
 9940SOL    HW230720   5.970   0.989   2.763
 9941SOL     OW30721   6.138   3.391   0.869
 9941SOL    HW130722   6.055   3.404   0.814
 9941SOL    HW230723   6.219   3.406   0.813
 9942SOL     OW30724   5.598   4.538   2.642
 9942SOL    HW130725   5.574   4.629   2.676
 9942SOL    HW230726   5.562   4.528   2.549
 9943SOL     OW30727   1.151   4.984   4.614
 9943SOL    HW130728   1.191   4.893   4.625
 9943SOL    HW230729   1.061   4.975   4.571
 9944SOL     OW30730   2.362   5.290   6.277
 9944SOL    HW130731   2.398   5.202   6.246
 9944SOL    HW230732   2.362   5.293   6.377
 9945SOL     OW30733   6.160   3.156   5.055
 9945SOL    HW130734   6.186   3.122   5.145
 9945SOL    HW230735   6.243   3.173   5.001
 9946SOL     OW30736   5.464   1.824   1.745
 9946SOL    HW130737   5.531   1.810   1.672
 9946SOL    HW230738   5.372   1.804   1.711
 9947SOL     OW30739   0.009   0.852   3.377
 9947SOL    HW130740   0.054   0.784   3.435
 9947SOL    HW230741   6.954   0.811   3.330
 9948SOL     OW30742   4.801   1.486   5.176
 9948SOL    HW130743   4.804   1.466   5.274
 9948SOL    HW230744   4.787   1.402   5.125
 9949SOL     OW30745   6.883   3.436   2.886
 9949SOL    HW130746   6.969   3.401   2.924
 9949SOL    HW230747   6.811   3.427   2.955
 9950SOL     OW30748   5.152   4.840   5.764
 9950SOL    HW130749   5.123   4.930   5.733
 9950SOL    HW230750   5.075   4.791   5.804
 9951SOL     OW30751   0.178   2.433   2.306
 9951SOL    HW130752   0.226   2.499   2.249
 9951SOL    HW230753   0.087   2.417   2.269
 9952SOL     OW30754   1.754   4.659   1.602
 9952SOL    HW130755   1.656   4.640   1.616
 9952SOL    HW230756   1.808   4.606   1.667
 9953SOL     OW30757   6.227   3.632   5.665
 9953SOL    HW130758   6.276   3.646   5.750
 9953SOL    HW230759   6.273   3.680   5.591
 9954SOL     OW30760   4.953   2.666   1.840
 9954SOL    HW130761   5.033   2.701   1.888
 9954SOL    HW230762   4.885   2.739   1.831
 9955SOL     OW30763   5.861   4.870   2.553
 9955SOL    HW130764   5.861   4.886   2.455
 9955SOL    HW230765   5.906   4.783   2.573
 9956SOL     OW30766   1.837   4.844   3.197
 9956SOL    HW130767   1.814   4.927   3.145
 9956SOL    HW230768   1.797   4.765   3.151
 9957SOL     OW30769   5.882   6.436   0.617
 9957SOL    HW130770   5.790   6.452   0.581
 9957SOL    HW230771   5.948   6.487   0.562
 9958SOL     OW30772   6.592   6.160   5.770
 9958SOL    HW130773   6.673   6.184   5.824
 9958SOL    HW230774   6.544   6.084   5.814
 9959SOL     OW30775   5.876   5.217   0.067
 9959SOL    HW130776   5.855   5.123   0.040
 9959SOL    HW230777   5.884   5.223   0.166
 9960SOL     OW30778   6.023   0.711   6.090
 9960SOL    HW130779   6.111   0.668   6.069
 9960SOL    HW230780   5.971   0.651   6.152
 9961SOL     OW30781   2.983   6.709   0.144
 9961SOL    HW130782   3.009   6.783   0.207
 9961SOL    HW230783   2.910   6.741   0.084
 9962SOL     OW30784   4.402   1.106   1.825
 9962SOL    HW130785   4.385   1.203   1.839
 9962SOL    HW230786   4.409   1.087   1.727
 9963SOL     OW30787   0.369   0.340   6.473
 9963SOL    HW130788   0.304   0.411   6.444
 9963SOL    HW230789   0.444   0.383   6.523
 9964SOL     OW30790   4.686   5.322   5.660
 9964SOL    HW130791   4.713   5.339   5.755
 9964SOL    HW230792   4.587   5.307   5.656
 9965SOL     OW30793   2.316   5.344   5.503
 9965SOL    HW130794   2.279   5.333   5.595
 9965SOL    HW230795   2.402   5.294   5.495
 9966SOL     OW30796   1.773   4.193   2.158
 9966SOL    HW130797   1.744   4.247   2.237
 9966SOL    HW230798   1.764   4.249   2.075
 9967SOL     OW30799   6.382   0.996   2.404
 9967SOL    HW130800   6.397   1.013   2.306
 9967SOL    HW230801   6.332   1.072   2.443
 9968SOL     OW30802   4.675   6.428   6.417
 9968SOL    HW130803   4.703   6.359   6.350
 9968SOL    HW230804   4.716   6.516   6.393
 9969SOL     OW30805   0.931   6.704   3.323
 9969SOL    HW130806   0.857   6.733   3.384
 9969SOL    HW230807   1.003   6.773   3.322
 9970SOL     OW30808   0.537   2.795   1.264
 9970SOL    HW130809   0.576   2.864   1.203
 9970SOL    HW230810   0.551   2.822   1.359
 9971SOL     OW30811   6.797   5.685   5.748
 9971SOL    HW130812   6.828   5.653   5.838
 9971SOL    HW230813   6.706   5.647   5.729
 9972SOL     OW30814   3.126   4.770   5.511
 9972SOL    HW130815   3.033   4.807   5.507
 9972SOL    HW230816   3.142   4.712   5.432
 9973SOL     OW30817   3.194   1.836   2.783
 9973SOL    HW130818   3.224   1.741   2.792
 9973SOL    HW230819   3.142   1.847   2.699
 9974SOL     OW30820   0.163   4.741   3.443
 9974SOL    HW130821   0.167   4.836   3.474
 9974SOL    HW230822   0.224   4.729   3.364
 9975SOL     OW30823   1.472   4.817   6.832
 9975SOL    HW130824   1.421   4.824   6.746
 9975SOL    HW230825   1.422   4.865   6.904
 9976SOL     OW30826   4.388   5.449   4.762
 9976SOL    HW130827   4.370   5.546   4.748
 9976SOL    HW230828   4.487   5.433   4.763
 9977SOL     OW30829   3.259   0.138   5.968
 9977SOL    HW130830   3.273   0.043   5.995
 9977SOL    HW230831   3.203   0.185   6.037
 9978SOL     OW30832   0.067   3.266   6.814
 9978SOL    HW130833   0.093   3.239   6.907
 9978SOL    HW230834   0.083   3.190   6.751
 9979SOL     OW30835   3.340   3.853   3.822
 9979SOL    HW130836   3.388   3.841   3.735
 9979SOL    HW230837   3.384   3.798   3.892
 9980SOL     OW30838   0.731   6.669   6.419
 9980SOL    HW130839   0.666   6.608   6.375
 9980SOL    HW230840   0.783   6.720   6.350
 9981SOL     OW30841   5.654   2.105   1.700
 9981SOL    HW130842   5.726   2.109   1.631
 9981SOL    HW230843   5.673   2.030   1.764
 9982SOL     OW30844   2.591   1.120   5.218
 9982SOL    HW130845   2.612   1.193   5.153
 9982SOL    HW230846   2.671   1.062   5.231
 9983SOL     OW30847   0.427   2.333   1.893
 9983SOL    HW130848   0.480   2.284   1.963
 9983SOL    HW230849   0.422   2.277   1.810
 9984SOL     OW30850   1.345   4.696   0.944
 9984SOL    HW130851   1.421   4.720   1.005
 9984SOL    HW230852   1.261   4.741   0.975
 9985SOL     OW30853   5.976   4.973   6.198
 9985SOL    HW130854   5.899   5.032   6.174
 9985SOL    HW230855   6.061   5.013   6.164
 9986SOL     OW30856   5.388   4.252   0.417
 9986SOL    HW130857   5.304   4.301   0.394
 9986SOL    HW230858   5.394   4.241   0.516
 9987SOL     OW30859   5.576   1.650   0.692
 9987SOL    HW130860   5.490   1.605   0.719
 9987SOL    HW230861   5.589   1.732   0.748
 9988SOL     OW30862   5.344   6.970   4.223
 9988SOL    HW130863   5.271   7.010   4.169
 9988SOL    HW230864   5.306   6.903   4.286
 9989SOL     OW30865   6.844   5.217   1.408
 9989SOL    HW130866   6.759   5.190   1.364
 9989SOL    HW230867   6.883   5.138   1.455
 9990SOL     OW30868   0.783   6.579   2.862
 9990SOL    HW130869   0.854   6.615   2.800
 9990SOL    HW230870   0.825   6.553   2.949
 9991SOL     OW30871   2.083   2.984   2.107
 9991SOL    HW130872   2.110   3.029   2.193
 9991SOL    HW230873   2.086   3.051   2.033
 9992SOL     OW30874   1.307   3.871   0.423
 9992SOL    HW130875   1.342   3.845   0.513
 9992SOL    HW230876   1.379   3.918   0.372
 9993SOL     OW30877   4.090   7.012   4.368
 9993SOL    HW130878   4.140   0.073   4.392
 9993SOL    HW230879   4.061   7.016   4.273
 9994SOL     OW30880   5.640   5.161   5.352
 9994SOL    HW130881   5.590   5.151   5.438
 9994SOL    HW230882   5.675   5.072   5.323
 9995SOL     OW30883   4.038   2.447   6.330
 9995SOL    HW130884   4.120   2.493   6.364
 9995SOL    HW230885   4.028   2.467   6.232
 9996SOL     OW30886   2.857   4.137   1.559
 9996SOL    HW130887   2.889   4.160   1.467
 9996SOL    HW230888   2.887   4.207   1.623
 9997SOL     OW30889   5.631   0.092   3.443
 9997SOL    HW130890   5.642   0.124   3.349
 9997SOL    HW230891   5.671   0.159   3.506
 9998SOL     OW30892   6.070   3.544   2.886
 9998SOL    HW130893   6.000   3.614   2.903
 9998SOL    HW230894   6.065   3.515   2.791
 9999SOL     OW30895   0.975   0.526   4.385
 9999SOL    HW130896   0.999   0.446   4.329
 9999SOL    HW230897   0.976   0.500   4.482
10000SOL     OW30898   4.292   3.395   1.532
10000SOL    HW130899   4.213   3.402   1.593
10000SOL    HW230900   4.292   3.472   1.468
10001SOL     OW30901   3.650   5.427   1.426
10001SOL    HW130902   3.735   5.414   1.478
10001SOL    HW230903   3.572   5.421   1.487
10002SOL     OW30904   2.407   6.420   2.652
10002SOL    HW130905   2.399   6.393   2.748
10002SOL    HW230906   2.431   6.517   2.647
10003SOL     OW30907   0.967   1.540   2.931
10003SOL    HW130908   1.051   1.503   2.971
10003SOL    HW230909   0.933   1.614   2.988
10004SOL     OW30910   0.727   2.566   2.734
10004SOL    HW130911   0.761   2.483   2.777
10004SOL    HW230912   0.802   2.632   2.726
10005SOL     OW30913   2.011   6.001   2.546
10005SOL    HW130914   2.012   6.077   2.481
10005SOL    HW230915   1.928   6.006   2.602
10006SOL     OW30916   5.049   2.017   6.566
10006SOL    HW130917   5.037   2.095   6.505
10006SOL    HW230918   5.138   1.975   6.552
10007SOL     OW30919   1.768   5.192   2.827
10007SOL    HW130920   1.732   5.265   2.885
10007SOL    HW230921   1.806   5.232   2.744
10008SOL     OW30922   2.842   0.627   5.577
10008SOL    HW130923   2.878   0.569   5.504
10008SOL    HW230924   2.786   0.572   5.638
10009SOL     OW30925   1.032   4.881   1.846
10009SOL    HW130926   0.940   4.852   1.818
10009SOL    HW230927   1.034   4.981   1.857
10010SOL     OW30928   2.145   4.221   0.573
10010SOL    HW130929   2.068   4.222   0.508
10010SOL    HW230930   2.204   4.300   0.556
10011SOL     OW30931   3.194   3.389   6.920
10011SOL    HW130932   3.115   3.391   6.859
10011SOL    HW230933   3.208   3.479   6.960
10012SOL     OW30934   5.422   2.012   3.237
10012SOL    HW130935   5.433   1.970   3.147
10012SOL    HW230936   5.459   1.951   3.307
10013SOL     OW30937   0.391   6.338   5.790
10013SOL    HW130938   0.465   6.387   5.743
10013SOL    HW230939   0.318   6.402   5.813
10014SOL     OW30940   1.280   1.538   2.578
10014SOL    HW130941   1.276   1.530   2.479
10014SOL    HW230942   1.235   1.622   2.607
10015SOL     OW30943   4.092   0.782   0.292
10015SOL    HW130944   4.002   0.821   0.310
10015SOL    HW230945   4.084   0.684   0.277
10016SOL     OW30946   2.989   1.580   5.266
10016SOL    HW130947   3.075   1.597   5.312
10016SOL    HW230948   2.964   1.483   5.275
10017SOL     OW30949   2.883   2.154   3.271
10017SOL    HW130950   2.904   2.226   3.337
10017SOL    HW230951   2.936   2.072   3.293
10018SOL     OW30952   0.237   4.425   5.548
10018SOL    HW130953   0.258   4.473   5.633
10018SOL    HW230954   0.197   4.335   5.569
10019SOL     OW30955   0.424   1.861   3.160
10019SOL    HW130956   0.442   1.845   3.257
10019SOL    HW230957   0.339   1.912   3.149
10020SOL     OW30958   6.709   0.637   3.398
10020SOL    HW130959   6.634   0.699   3.372
10020SOL    HW230960   6.682   0.543   3.379
10021SOL     OW30961   2.172   4.108   1.890
10021SOL    HW130962   2.207   4.159   1.968
10021SOL    HW230963   2.155   4.013   1.917
10022SOL     OW30964   0.768   6.288   5.972
10022SOL    HW130965   0.817   6.201   5.973
10022SOL    HW230966   0.801   6.346   6.046
10023SOL     OW30967   1.358   1.023   4.480
10023SOL    HW130968   1.453   1.047   4.461
10023SOL    HW230969   1.347   0.924   4.480
10024SOL     OW30970   1.930   3.485   3.151
10024SOL    HW130971   1.852   3.530   3.107
10024SOL    HW230972   1.975   3.550   3.213
10025SOL     OW30973   0.049   1.589   1.675
10025SOL    HW130974   0.025   1.587   1.772
10025SOL    HW230975   0.143   1.557   1.664
10026SOL     OW30976   6.931   1.406   5.007
10026SOL    HW130977   6.898   1.494   4.974
10026SOL    HW230978   6.859   1.337   4.997
10027SOL     OW30979   3.468   1.679   5.665
10027SOL    HW130980   3.428   1.628   5.741
10027SOL    HW230981   3.415   1.762   5.648
10028SOL     OW30982   3.995   6.227   1.936
10028SOL    HW130983   3.900   6.237   1.906
10028SOL    HW230984   4.044   6.313   1.921
10029SOL     OW30985   6.820   5.363   3.314
10029SOL    HW130986   6.848   5.366   3.410
10029SOL    HW230987   6.841   5.273   3.276
10030SOL     OW30988   3.281   6.803   3.857
10030SOL    HW130989   3.215   6.837   3.790
10030SOL    HW230990   3.362   6.769   3.810
10031SOL     OW30991   2.144   6.290   3.100
10031SOL    HW130992   2.104   6.361   3.157
10031SOL    HW230993   2.072   6.225   3.074
10032SOL     OW30994   2.162   5.513   4.577
10032SOL    HW130995   2.150   5.531   4.675
10032SOL    HW230996   2.233   5.573   4.540
10033SOL     OW30997   2.292   1.575   4.206
10033SOL    HW130998   2.259   1.669   4.204
10033SOL    HW230999   2.331   1.556   4.296
10034SOL     OW31000   2.670   0.718   1.300
10034SOL    HW131001   2.699   0.622   1.296
10034SOL    HW231002   2.586   0.724   1.354
10035SOL     OW31003   0.151   2.854   2.215
10035SOL    HW131004   0.155   2.891   2.308
10035SOL    HW231005   0.175   2.925   2.149
10036SOL     OW31006   0.298   1.605   0.302
10036SOL    HW131007   0.207   1.621   0.263
10036SOL    HW231008   0.363   1.583   0.229
10037SOL     OW31009   6.356   0.694   6.605
10037SOL    HW131010   6.277   0.664   6.553
10037SOL    HW231011   6.343   0.789   6.633
10038SOL     OW31012   4.037   0.464   0.206
10038SOL    HW131013   4.074   0.371   0.205
10038SOL    HW231014   3.954   0.466   0.261
10039SOL     OW31015   0.081   4.261   0.652
10039SOL    HW131016   0.033   4.343   0.621
10039SOL    HW231017   0.063   4.247   0.749
10040SOL     OW31018   3.216   0.606   0.859
10040SOL    HW131019   3.271   0.556   0.926
10040SOL    HW231020   3.271   0.626   0.778
10041SOL     OW31021   5.728   4.915   5.864
10041SOL    HW131022   5.634   4.882   5.852
10041SOL    HW231023   5.782   4.846   5.912
10042SOL     OW31024   5.738   0.021   4.850
10042SOL    HW131025   5.745   0.099   4.911
10042SOL    HW231026   5.763   6.960   4.899
10043SOL     OW31027   0.631   0.271   3.142
10043SOL    HW131028   0.623   0.255   3.044
10043SOL    HW231029   0.651   0.185   3.189
10044SOL     OW31030   2.535   2.236   6.932
10044SOL    HW131031   2.611   2.171   6.937
10044SOL    HW231032   2.563   2.323   6.972
10045SOL     OW31033   3.955   6.603   4.675
10045SOL    HW131034   4.035   6.547   4.655
10045SOL    HW231035   3.955   6.683   4.614
10046SOL     OW31036   6.705   1.409   0.537
10046SOL    HW131037   6.706   1.309   0.528
10046SOL    HW231038   6.684   1.450   0.449
10047SOL     OW31039   1.276   2.107   3.876
10047SOL    HW131040   1.239   2.181   3.931
10047SOL    HW231041   1.340   2.144   3.809
10048SOL     OW31042   3.153   2.346   1.739
10048SOL    HW131043   3.075   2.380   1.792
10048SOL    HW231044   3.226   2.318   1.801
10049SOL     OW31045   0.964   4.654   5.090
10049SOL    HW131046   0.906   4.722   5.135
10049SOL    HW231047   0.941   4.650   4.992
10050SOL     OW31048   6.213   1.421   5.093
10050SOL    HW131049   6.256   1.360   5.159
10050SOL    HW231050   6.274   1.434   5.014
10051SOL     OW31051   6.057   1.747   1.014
10051SOL    HW131052   6.084   1.675   0.951
10051SOL    HW231053   6.047   1.709   1.106
10052SOL     OW31054   2.113   5.523   0.530
10052SOL    HW131055   2.077   5.542   0.622
10052SOL    HW231056   2.086   5.431   0.502
10053SOL     OW31057   3.445   6.990   3.181
10053SOL    HW131058   3.392   6.905   3.187
10053SOL    HW231059   3.541   6.972   3.202
10054SOL     OW31060   5.432   4.399   4.069
10054SOL    HW131061   5.450   4.373   3.974
10054SOL    HW231062   5.337   4.427   4.079
10055SOL     OW31063   4.938   2.329   6.789
10055SOL    HW131064   5.007   2.387   6.746
10055SOL    HW231065   4.864   2.311   6.723
10056SOL     OW31066   5.036   4.109   2.810
10056SOL    HW131067   5.087   4.160   2.879
10056SOL    HW231068   4.955   4.068   2.851
10057SOL     OW31069   2.163   3.046   3.242
10057SOL    HW131070   2.140   3.085   3.332
10057SOL    HW231071   2.134   3.109   3.170
10058SOL     OW31072   1.306   5.341   3.731
10058SOL    HW131073   1.212   5.364   3.755
10058SOL    HW231074   1.307   5.261   3.671
10059SOL     OW31075   4.105   6.145   1.559
10059SOL    HW131076   4.083   6.233   1.601
10059SOL    HW231077   4.042   6.075   1.594
10060SOL     OW31078   2.311   2.726   2.525
10060SOL    HW131079   2.268   2.815   2.505
10060SOL    HW231080   2.331   2.720   2.623
10061SOL     OW31081   0.361   1.818   5.728
10061SOL    HW131082   0.391   1.835   5.634
10061SOL    HW231083   0.263   1.838   5.736
10062SOL     OW31084   6.037   5.677   2.390
10062SOL    HW131085   5.953   5.622   2.393
10062SOL    HW231086   6.090   5.661   2.474
10063SOL     OW31087   1.028   2.911   2.525
10063SOL    HW131088   1.089   2.926   2.446
10063SOL    HW231089   0.933   2.917   2.495
10064SOL     OW31090   4.965   4.693   5.288
10064SOL    HW131091   4.960   4.786   5.250
10064SOL    HW231092   4.984   4.698   5.386
10065SOL     OW31093   0.248   0.195   2.529
10065SOL    HW131094   0.189   0.230   2.456
10065SOL    HW231095   0.322   0.259   2.546
10066SOL     OW31096   6.465   0.263   4.389
10066SOL    HW131097   6.491   0.346   4.439
10066SOL    HW231098   6.545   0.227   4.341
10067SOL     OW31099   4.768   6.626   2.489
10067SOL    HW131100   4.752   6.714   2.534
10067SOL    HW231101   4.691   6.605   2.429
10068SOL     OW31102   5.471   3.304   5.517
10068SOL    HW131103   5.554   3.340   5.475
10068SOL    HW231104   5.493   3.223   5.570
10069SOL     OW31105   4.983   1.040   4.754
10069SOL    HW131106   5.032   0.968   4.804
10069SOL    HW231107   4.930   1.095   4.818
10070SOL     OW31108   0.552   0.292   4.284
10070SOL    HW131109   0.609   0.216   4.313
10070SOL    HW231110   0.606   0.377   4.287
10071SOL     OW31111   4.581   4.389   5.097
10071SOL    HW131112   4.631   4.432   5.173
10071SOL    HW231113   4.487   4.424   5.096
10072SOL     OW31114   0.261   6.230   4.380
10072SOL    HW131115   0.303   6.307   4.333
10072SOL    HW231116   0.179   6.202   4.330
10073SOL     OW31117   6.929   6.905   6.784
10073SOL    HW131118   6.965   6.988   6.826
10073SOL    HW231119   6.835   6.891   6.814
10074SOL     OW31120   1.900   6.203   4.607
10074SOL    HW131121   1.945   6.205   4.518
10074SOL    HW231122   1.801   6.199   4.594
10075SOL     OW31123   1.334   2.398   4.570
10075SOL    HW131124   1.356   2.302   4.558
10075SOL    HW231125   1.269   2.427   4.500
10076SOL     OW31126   5.767   6.875   3.441
10076SOL    HW131127   5.763   6.858   3.540
10076SOL    HW231128   5.711   6.955   3.419
10077SOL     OW31129   2.441   1.120   5.659
10077SOL    HW131130   2.475   1.197   5.714
10077SOL    HW231131   2.416   1.152   5.568
10078SOL     OW31132   5.632   6.113   4.976
10078SOL    HW131133   5.593   6.177   5.041
10078SOL    HW231134   5.661   6.162   4.893
10079SOL     OW31135   0.840   3.400   5.888
10079SOL    HW131136   0.834   3.331   5.960
10079SOL    HW231137   0.757   3.455   5.888
10080SOL     OW31138   1.474   2.206   5.136
10080SOL    HW131139   1.437   2.294   5.107
10080SOL    HW231140   1.523   2.163   5.060
10081SOL     OW31141   0.586   0.919   0.875
10081SOL    HW131142   0.653   0.869   0.821
10081SOL    HW231143   0.554   0.861   0.950
10082SOL     OW31144   6.927   0.857   0.287
10082SOL    HW131145   6.840   0.900   0.263
10082SOL    HW231146   6.934   0.768   0.243
10083SOL     OW31147   5.287   1.360   4.587
10083SOL    HW131148   5.210   1.380   4.526
10083SOL    HW231149   5.265   1.280   4.643
10084SOL     OW31150   2.986   0.521   6.998
10084SOL    HW131151   3.014   0.614   7.022
10084SOL    HW231152   3.060   0.475   6.950
10085SOL     OW31153   0.663   5.554   2.758
10085SOL    HW131154   0.573   5.513   2.741
10085SOL    HW231155   0.715   5.496   2.820
10086SOL     OW31156   6.922   1.850   2.514
10086SOL    HW131157   6.962   1.889   2.597
10086SOL    HW231158   6.985   1.784   2.474
10087SOL     OW31159   1.591   0.265   3.322
10087SOL    HW131160   1.494   0.243   3.323
10087SOL    HW231161   1.641   0.204   3.383
10088SOL     OW31162   5.698   6.883   4.525
10088SOL    HW131163   5.713   6.951   4.596
10088SOL    HW231164   5.656   6.926   4.445
10089SOL     OW31165   2.345   2.319   2.227
10089SOL    HW131166   2.384   2.381   2.158
10089SOL    HW231167   2.360   2.224   2.200
10090SOL     OW31168   0.516   5.835   2.258
10090SOL    HW131169   0.505   5.779   2.340
10090SOL    HW231170   0.430   5.836   2.206
10091SOL     OW31171   0.944   1.609   4.018
10091SOL    HW131172   0.938   1.680   4.088
10091SOL    HW231173   1.040   1.590   3.997
10092SOL     OW31174   2.732   2.644   5.347
10092SOL    HW131175   2.695   2.567   5.398
10092SOL    HW231176   2.659   2.708   5.325
10093SOL     OW31177   6.726   6.907   5.348
10093SOL    HW131178   6.765   6.979   5.291
10093SOL    HW231179   6.627   6.917   5.351
10094SOL     OW31180   1.160   0.409   1.800
10094SOL    HW131181   1.238   0.441   1.853
10094SOL    HW231182   1.189   0.337   1.737
10095SOL     OW31183   0.640   2.695   4.893
10095SOL    HW131184   0.699   2.749   4.953
10095SOL    HW231185   0.674   2.702   4.799
10096SOL     OW31186   6.551   5.804   2.899
10096SOL    HW131187   6.460   5.808   2.859
10096SOL    HW231188   6.604   5.883   2.870
10097SOL     OW31189   2.103   1.985   5.757
10097SOL    HW131190   2.148   2.073   5.769
10097SOL    HW231191   2.169   1.918   5.721
10098SOL     OW31192   2.887   4.620   6.417
10098SOL    HW131193   2.904   4.718   6.408
10098SOL    HW231194   2.906   4.574   6.331
10099SOL     OW31195   1.172   3.567   4.197
10099SOL    HW131196   1.212   3.659   4.202
10099SOL    HW231197   1.106   3.556   4.270
10100SOL     OW31198   4.425   0.596   6.153
10100SOL    HW131199   4.523   0.580   6.166
10100SOL    HW231200   4.373   0.525   6.200
10101SOL     OW31201   0.732   3.496   2.414
10101SOL    HW131202   0.763   3.400   2.414
10101SOL    HW231203   0.804   3.554   2.451
10102SOL     OW31204   4.192   0.899   4.338
10102SOL    HW131205   4.152   0.980   4.380
10102SOL    HW231206   4.162   0.817   4.388
10103SOL     OW31207   6.814   2.928   0.660
10103SOL    HW131208   6.895   2.960   0.708
10103SOL    HW231209   6.837   2.908   0.564
10104SOL     OW31210   1.954   5.278   6.038
10104SOL    HW131211   1.929   5.298   5.944
10104SOL    HW231212   1.983   5.182   6.046
10105SOL     OW31213   3.881   0.531   6.987
10105SOL    HW131214   3.949   0.501   0.031
10105SOL    HW231215   3.896   0.628   6.966
10106SOL     OW31216   4.745   5.915   0.661
10106SOL    HW131217   4.792   6.003   0.658
10106SOL    HW231218   4.811   5.842   0.681
10107SOL     OW31219   5.603   2.086   5.895
10107SOL    HW131220   5.540   2.067   5.819
10107SOL    HW231221   5.697   2.072   5.864
10108SOL     OW31222   4.970   6.018   6.456
10108SOL    HW131223   4.878   6.023   6.494
10108SOL    HW231224   5.037   6.031   6.530
10109SOL     OW31225   5.327   6.330   4.111
10109SOL    HW131226   5.323   6.316   4.209
10109SOL    HW231227   5.385   6.259   4.070
10110SOL     OW31228   3.613   2.403   6.341
10110SOL    HW131229   3.617   2.390   6.241
10110SOL    HW231230   3.524   2.440   6.366
10111SOL     OW31231   6.774   2.409   1.730
10111SOL    HW131232   6.713   2.488   1.737
10111SOL    HW231233   6.858   2.437   1.683
10112SOL     OW31234   4.765   4.086   5.670
10112SOL    HW131235   4.707   4.056   5.746
10112SOL    HW231236   4.861   4.079   5.696
10113SOL     OW31237   3.652   7.013   0.995
10113SOL    HW131238   3.655   0.058   1.069
10113SOL    HW231239   3.609   6.929   1.029
10114SOL     OW31240   4.484   1.624   1.941
10114SOL    HW131241   4.552   1.628   1.867
10114SOL    HW231242   4.439   1.713   1.950
10115SOL     OW31243   1.644   1.127   4.486
10115SOL    HW131244   1.614   1.209   4.438
10115SOL    HW231245   1.743   1.120   4.483
10116SOL     OW31246   0.558   0.756   1.123
10116SOL    HW131247   0.600   0.678   1.077
10116SOL    HW231248   0.535   0.731   1.217
10117SOL     OW31249   3.933   0.038   6.261
10117SOL    HW131250   3.993   6.990   6.299
10117SOL    HW231251   3.946   0.043   6.162
10118SOL     OW31252   5.048   5.139   3.045
10118SOL    HW131253   4.996   5.125   3.129
10118SOL    HW231254   5.095   5.054   3.020
10119SOL     OW31255   2.000   0.268   5.769
10119SOL    HW131256   2.075   0.269   5.703
10119SOL    HW231257   1.969   0.174   5.784
10120SOL     OW31258   5.657   3.228   3.849
10120SOL    HW131259   5.636   3.266   3.759
10120SOL    HW231260   5.670   3.129   3.841
10121SOL     OW31261   5.991   4.595   4.564
10121SOL    HW131262   5.897   4.585   4.532
10121SOL    HW231263   5.996   4.672   4.628
10122SOL     OW31264   5.247   2.235   1.183
10122SOL    HW131265   5.278   2.188   1.265
10122SOL    HW231266   5.272   2.331   1.188
10123SOL     OW31267   0.351   6.009   0.602
10123SOL    HW131268   0.268   6.063   0.620
10123SOL    HW231269   0.332   5.912   0.618
10124SOL     OW31270   3.539   3.965   0.775
10124SOL    HW131271   3.615   3.937   0.834
10124SOL    HW231272   3.534   3.905   0.696
10125SOL     OW31273   2.419   0.942   6.939
10125SOL    HW131274   2.473   1.026   6.933
10125SOL    HW231275   2.459   0.882   7.009
10126SOL     OW31276   6.022   5.124   6.546
10126SOL    HW131277   6.054   5.218   6.559
10126SOL    HW231278   6.100   5.065   6.526
10127SOL     OW31279   4.002   5.000   5.114
10127SOL    HW131280   4.046   4.992   5.204
10127SOL    HW231281   4.038   4.930   5.053
10128SOL     OW31282   0.830   1.642   0.938
10128SOL    HW131283   0.790   1.554   0.915
10128SOL    HW231284   0.863   1.687   0.854
10129SOL     OW31285   5.656   2.510   2.811
10129SOL    HW131286   5.643   2.411   2.826
10129SOL    HW231287   5.586   2.543   2.747
10130SOL     OW31288   6.146   5.618   1.735
10130SOL    HW131289   6.171   5.675   1.813
10130SOL    HW231290   6.154   5.522   1.761
10131SOL     OW31291   0.434   0.732   0.380
10131SOL    HW131292   0.481   0.808   0.335
10131SOL    HW231293   0.490   0.650   0.374
10132SOL     OW31294   2.207   6.275   2.517
10132SOL    HW131295   2.254   6.343   2.573
10132SOL    HW231296   2.246   6.274   2.425
10133SOL     OW31297   5.985   4.631   2.565
10133SOL    HW131298   5.921   4.574   2.617
10133SOL    HW231299   6.079   4.608   2.591
10134SOL     OW31300   0.835   1.948   1.888
10134SOL    HW131301   0.919   1.919   1.936
10134SOL    HW231302   0.766   1.877   1.898
10135SOL     OW31303   2.986   6.751   1.424
10135SOL    HW131304   3.036   6.671   1.391
10135SOL    HW231305   3.051   6.824   1.445
10136SOL     OW31306   6.094   6.522   2.817
10136SOL    HW131307   6.053   6.475   2.895
10136SOL    HW231308   6.070   6.473   2.733
10137SOL     OW31309   5.744   4.533   4.459
10137SOL    HW131310   5.683   4.515   4.536
10137SOL    HW231311   5.707   4.492   4.376
10138SOL     OW31312   5.787   3.028   6.470
10138SOL    HW131313   5.868   3.032   6.529
10138SOL    HW231314   5.725   2.958   6.505
10139SOL     OW31315   3.913   3.030   3.081
10139SOL    HW131316   3.890   3.009   3.176
10139SOL    HW231317   3.872   2.962   3.020
10140SOL     OW31318   1.234   4.825   5.023
10140SOL    HW131319   1.302   4.820   4.950
10140SOL    HW231320   1.205   4.733   5.048
10141SOL     OW31321   1.678   0.568   3.483
10141SOL    HW131322   1.723   0.491   3.439
10141SOL    HW231323   1.742   0.612   3.547
10142SOL     OW31324   5.450   5.319   3.990
10142SOL    HW131325   5.410   5.258   4.059
10142SOL    HW231326   5.376   5.365   3.940
10143SOL     OW31327   3.800   6.056   1.440
10143SOL    HW131328   3.815   6.154   1.456
10143SOL    HW231329   3.770   6.013   1.525
10144SOL     OW31330   3.287   4.946   2.282
10144SOL    HW131331   3.254   5.028   2.235
10144SOL    HW231332   3.328   4.973   2.369
10145SOL     OW31333   2.116   0.528   5.836
10145SOL    HW131334   2.057   0.450   5.818
10145SOL    HW231335   2.161   0.556   5.751
10146SOL     OW31336   4.489   4.680   3.929
10146SOL    HW131337   4.508   4.595   3.881
10146SOL    HW231338   4.575   4.720   3.961
10147SOL     OW31339   5.389   5.479   4.684
10147SOL    HW131340   5.302   5.519   4.656
10147SOL    HW231341   5.381   5.379   4.686
10148SOL     OW31342   5.933   6.045   1.317
10148SOL    HW131343   5.976   6.130   1.289
10148SOL    HW231344   5.905   6.051   1.413
10149SOL     OW31345   3.950   2.602   1.647
10149SOL    HW131346   3.907   2.521   1.686
10149SOL    HW231347   3.910   2.684   1.689
10150SOL     OW31348   5.067   4.352   0.925
10150SOL    HW131349   5.101   4.273   0.976
10150SOL    HW231350   5.058   4.430   0.987
10151SOL     OW31351   0.319   5.219   6.102
10151SOL    HW131352   0.238   5.162   6.114
10151SOL    HW231353   0.328   5.245   6.006
10152SOL     OW31354   0.377   6.135   4.127
10152SOL    HW131355   0.366   6.103   4.221
10152SOL    HW231356   0.467   6.106   4.093
10153SOL     OW31357   5.161   5.407   3.911
10153SOL    HW131358   5.110   5.480   3.956
10153SOL    HW231359   5.175   5.431   3.815
10154SOL     OW31360   6.262   5.621   5.626
10154SOL    HW131361   6.176   5.578   5.598
10154SOL    HW231362   6.306   5.663   5.547
10155SOL     OW31363   3.989   1.833   5.780
10155SOL    HW131364   3.987   1.809   5.682
10155SOL    HW231365   3.905   1.881   5.804
10156SOL     OW31366   5.451   6.980   1.948
10156SOL    HW131367   5.502   0.042   1.929
10156SOL    HW231368   5.400   6.991   2.033
10157SOL     OW31369   4.833   6.876   3.035
10157SOL    HW131370   4.863   6.893   3.129
10157SOL    HW231371   4.763   6.804   3.035
10158SOL     OW31372   4.872   3.701   5.866
10158SOL    HW131373   4.781   3.731   5.894
10158SOL    HW231374   4.874   3.684   5.768
10159SOL     OW31375   0.758   0.658   6.619
10159SOL    HW131376   0.754   0.731   6.551
10159SOL    HW231377   0.853   0.642   6.646
10160SOL     OW31378   0.413   6.937   3.821
10160SOL    HW131379   0.502   6.908   3.855
10160SOL    HW231380   0.400   0.012   3.841
10161SOL     OW31381   2.880   5.519   5.291
10161SOL    HW131382   2.923   5.485   5.208
10161SOL    HW231383   2.916   5.470   5.370
10162SOL     OW31384   2.720   2.429   5.793
10162SOL    HW131385   2.819   2.414   5.798
10162SOL    HW231386   2.692   2.429   5.697
10163SOL     OW31387   0.670   3.815   5.058
10163SOL    HW131388   0.670   3.799   5.156
10163SOL    HW231389   0.664   3.913   5.039
10164SOL     OW31390   1.904   3.123   6.784
10164SOL    HW131391   1.937   3.034   6.753
10164SOL    HW231392   1.804   3.121   6.791
10165SOL     OW31393   0.232   1.619   3.404
10165SOL    HW131394   0.195   1.568   3.327
10165SOL    HW231395   0.304   1.565   3.448
10166SOL     OW31396   0.579   0.984   2.286
10166SOL    HW131397   0.582   1.029   2.375
10166SOL    HW231398   0.597   1.052   2.214
10167SOL     OW31399   4.800   0.757   0.346
10167SOL    HW131400   4.724   0.759   0.281
10167SOL    HW231401   4.812   0.664   0.381
10168SOL     OW31402   6.566   4.748   5.840
10168SOL    HW131403   6.548   4.781   5.748
10168SOL    HW231404   6.608   4.657   5.835
10169SOL     OW31405   6.927   4.270   5.172
10169SOL    HW131406   6.887   4.261   5.263
10169SOL    HW231407   7.022   4.239   5.174
10170SOL     OW31408   1.684   4.832   4.943
10170SOL    HW131409   1.641   4.745   4.966
10170SOL    HW231410   1.747   4.817   4.866
10171SOL     OW31411   6.534   2.718   5.710
10171SOL    HW131412   6.452   2.771   5.733
10171SOL    HW231413   6.508   2.624   5.689
10172SOL     OW31414   4.984   0.317   5.065
10172SOL    HW131415   5.045   0.253   5.019
10172SOL    HW231416   4.889   0.295   5.043
10173SOL     OW31417   2.014   2.792   2.455
10173SOL    HW131418   1.927   2.822   2.416
10173SOL    HW231419   1.997   2.732   2.533
10174SOL     OW31420   6.294   5.143   1.121
10174SOL    HW131421   6.350   5.226   1.117
10174SOL    HW231422   6.311   5.089   1.039
10175SOL     OW31423   5.596   2.233   5.307
10175SOL    HW131424   5.657   2.163   5.270
10175SOL    HW231425   5.649   2.298   5.361
10176SOL     OW31426   2.872   3.079   0.701
10176SOL    HW131427   2.783   3.103   0.740
10176SOL    HW231428   2.939   3.067   0.774
10177SOL     OW31429   0.773   6.874   5.827
10177SOL    HW131430   0.749   6.914   5.739
10177SOL    HW231431   0.768   6.944   5.898
10178SOL     OW31432   4.930   3.133   5.137
10178SOL    HW131433   4.958   3.229   5.141
10178SOL    HW231434   5.009   3.075   5.156
10179SOL     OW31435   6.801   2.977   0.386
10179SOL    HW131436   6.801   3.070   0.349
10179SOL    HW231437   6.762   2.914   0.319
10180SOL     OW31438   1.720   6.450   6.635
10180SOL    HW131439   1.775   6.526   6.671
10180SOL    HW231440   1.625   6.480   6.626
10181SOL     OW31441   5.952   3.163   2.671
10181SOL    HW131442   5.956   3.084   2.732
10181SOL    HW231443   5.858   3.173   2.636
10182SOL     OW31444   3.920   1.609   1.161
10182SOL    HW131445   3.841   1.597   1.221
10182SOL    HW231446   3.889   1.624   1.067
10183SOL     OW31447   1.619   1.508   6.219
10183SOL    HW131448   1.613   1.504   6.319
10183SOL    HW231449   1.656   1.597   6.192
10184SOL     OW31450   4.692   0.032   0.483
10184SOL    HW131451   4.665   6.959   0.469
10184SOL    HW231452   4.698   0.051   0.581
10185SOL     OW31453   4.617   1.142   0.543
10185SOL    HW131454   4.520   1.126   0.525
10185SOL    HW231455   4.639   1.238   0.526
10186SOL     OW31456   4.881   2.482   2.531
10186SOL    HW131457   4.956   2.532   2.488
10186SOL    HW231458   4.912   2.391   2.557
10187SOL     OW31459   0.303   2.626   2.159
10187SOL    HW131460   0.273   2.720   2.175
10187SOL    HW231461   0.352   2.620   2.072
10188SOL     OW31462   3.860   6.186   0.881
10188SOL    HW131463   3.774   6.160   0.924
10188SOL    HW231464   3.935   6.176   0.947
10189SOL     OW31465   0.161   6.714   4.809
10189SOL    HW131466   0.062   6.719   4.809
10189SOL    HW231467   0.190   6.631   4.761
10190SOL     OW31468   5.679   3.064   0.361
10190SOL    HW131469   5.698   3.135   0.293
10190SOL    HW231470   5.680   2.974   0.317
10191SOL     OW31471   6.766   4.601   0.250
10191SOL    HW131472   6.838   4.532   0.260
10191SOL    HW231473   6.694   4.566   0.191
10192SOL     OW31474   3.933   1.718   0.698
10192SOL    HW131475   4.032   1.729   0.693
10192SOL    HW231476   3.894   1.731   0.607
10193SOL     OW31477   5.019   4.760   1.259
10193SOL    HW131478   4.979   4.850   1.240
10193SOL    HW231479   5.087   4.769   1.332
10194SOL     OW31480   4.781   2.739   5.070
10194SOL    HW131481   4.723   2.794   5.129
10194SOL    HW231482   4.824   2.798   5.001
10195SOL     OW31483   5.682   5.559   2.636
10195SOL    HW131484   5.739   5.509   2.701
10195SOL    HW231485   5.621   5.621   2.685
10196SOL     OW31486   0.832   1.262   4.461
10196SOL    HW131487   0.850   1.344   4.516
10196SOL    HW231488   0.826   1.182   4.522
10197SOL     OW31489   4.697   0.543   6.691
10197SOL    HW131490   4.782   0.567   6.643
10197SOL    HW231491   4.630   0.616   6.677
10198SOL     OW31492   5.017   0.205   1.658
10198SOL    HW131493   5.000   0.122   1.604
10198SOL    HW231494   5.065   0.181   1.742
10199SOL     OW31495   0.512   2.441   5.769
10199SOL    HW131496   0.524   2.423   5.672
10199SOL    HW231497   0.456   2.369   5.810
10200SOL     OW31498   5.171   2.508   2.651
10200SOL    HW131499   5.100   2.522   2.721
10200SOL    HW231500   5.147   2.559   2.569
10201SOL     OW31501   2.027   3.241   0.612
10201SOL    HW131502   1.929   3.243   0.635
10201SOL    HW231503   2.040   3.188   0.529
10202SOL     OW31504   4.949   6.798   2.800
10202SOL    HW131505   4.926   6.819   2.895
10202SOL    HW231506   4.865   6.799   2.745
10203SOL     OW31507   0.318   3.594   5.468
10203SOL    HW131508   0.236   3.637   5.429
10203SOL    HW231509   0.361   3.536   5.398
10204SOL     OW31510   4.391   4.845   6.086
10204SOL    HW131511   4.296   4.815   6.088
10204SOL    HW231512   4.447   4.781   6.139
10205SOL     OW31513   6.996   1.478   0.045
10205SOL    HW131514   7.009   1.514   0.137
10205SOL    HW231515   6.923   1.528   7.022
10206SOL     OW31516   2.741   2.152   4.425
10206SOL    HW131517   2.708   2.198   4.342
10206SOL    HW231518   2.707   2.058   4.427
10207SOL     OW31519   2.129   2.845   6.109
10207SOL    HW131520   2.108   2.754   6.073
10207SOL    HW231521   2.130   2.841   6.209
10208SOL     OW31522   6.638   0.689   5.510
10208SOL    HW131523   6.687   0.774   5.490
10208SOL    HW231524   6.687   0.613   5.469
10209SOL     OW31525   7.020   6.334   5.730
10209SOL    HW131526   0.059   6.255   5.721
10209SOL    HW231527   7.020   6.365   5.825
10210SOL     OW31528   3.796   0.469   1.869
10210SOL    HW131529   3.839   0.552   1.833
10210SOL    HW231530   3.803   0.469   1.969
10211SOL     OW31531   5.543   5.470   6.341
10211SOL    HW131532   5.517   5.487   6.246
10211SOL    HW231533   5.461   5.451   6.395
10212SOL     OW31534   0.275   0.536   0.525
10212SOL    HW131535   0.359   0.585   0.502
10212SOL    HW231536   0.287   0.439   0.507
10213SOL     OW31537   6.624   2.917   1.839
10213SOL    HW131538   6.654   2.833   1.794
10213SOL    HW231539   6.563   2.894   1.915
10214SOL     OW31540   1.193   2.451   1.587
10214SOL    HW131541   1.205   2.409   1.677
10214SOL    HW231542   1.221   2.547   1.590
10215SOL     OW31543   4.042   3.408   1.942
10215SOL    HW131544   3.942   3.416   1.949
10215SOL    HW231545   4.079   3.385   2.032
10216SOL     OW31546   0.737   6.412   2.082
10216SOL    HW131547   0.736   6.499   2.032
10216SOL    HW231548   0.646   6.371   2.079
10217SOL     OW31549   3.472   1.651   5.222
10217SOL    HW131550   3.470   1.749   5.243
10217SOL    HW231551   3.487   1.638   5.124
10218SOL     OW31552   0.531   2.773   2.842
10218SOL    HW131553   0.592   2.852   2.845
10218SOL    HW231554   0.576   2.699   2.792
10219SOL     OW31555   0.117   6.503   2.982
10219SOL    HW131556   0.111   6.456   2.894
10219SOL    HW231557   0.041   6.566   2.992
10220SOL     OW31558   3.763   3.264   6.807
10220SOL    HW131559   3.702   3.328   6.854
10220SOL    HW231560   3.773   3.181   6.860
10221SOL     OW31561   1.170   5.709   2.930
10221SOL    HW131562   1.071   5.698   2.936
10221SOL    HW231563   1.196   5.801   2.959
10222SOL     OW31564   2.951   3.387   3.363
10222SOL    HW131565   2.997   3.444   3.432
10222SOL    HW231566   2.852   3.392   3.376
10223SOL     OW31567   3.309   6.830   0.788
10223SOL    HW131568   3.362   6.760   0.741
10223SOL    HW231569   3.266   6.891   0.721
10224SOL     OW31570   6.842   3.729   4.104
10224SOL    HW131571   6.814   3.824   4.114
10224SOL    HW231572   6.776   3.681   4.046
10225SOL     OW31573   1.727   3.854   5.705
10225SOL    HW131574   1.636   3.817   5.684
10225SOL    HW231575   1.788   3.840   5.627
10226SOL     OW31576   4.042   5.398   6.333
10226SOL    HW131577   4.045   5.298   6.336
10226SOL    HW231578   3.951   5.428   6.304
10227SOL     OW31579   5.247   4.120   1.030
10227SOL    HW131580   5.343   4.147   1.032
10227SOL    HW231581   5.235   4.037   1.085
10228SOL     OW31582   5.383   7.019   7.010
10228SOL    HW131583   5.336   0.075   6.969
10228SOL    HW231584   5.467   7.001   6.960
10229SOL     OW31585   0.158   2.130   5.199
10229SOL    HW131586   0.104   2.157   5.278
10229SOL    HW231587   0.228   2.065   5.228
10230SOL     OW31588   5.750   5.865   1.777
10230SOL    HW131589   5.781   5.960   1.777
10230SOL    HW231590   5.783   5.819   1.695
10231SOL     OW31591   0.098   3.702   2.042
10231SOL    HW131592   0.049   3.788   2.055
10231SOL    HW231593   0.079   3.641   2.118
10232SOL     OW31594   4.682   4.438   2.307
10232SOL    HW131595   4.610   4.499   2.273
10232SOL    HW231596   4.704   4.370   2.237
10233SOL     OW31597   3.628   3.032   5.421
10233SOL    HW131598   3.701   2.964   5.420
10233SOL    HW231599   3.665   3.121   5.395
10234SOL     OW31600   1.049   0.832   1.904
10234SOL    HW131601   1.129   0.881   1.936
10234SOL    HW231602   1.072   0.782   1.820
10235SOL     OW31603   0.894   0.461   2.647
10235SOL    HW131604   0.860   0.456   2.741
10235SOL    HW231605   0.972   0.525   2.643
10236SOL     OW31606   1.127   0.648   2.688
10236SOL    HW131607   1.098   0.737   2.722
10236SOL    HW231608   1.204   0.659   2.625
10237SOL     OW31609   0.465   4.199   5.819
10237SOL    HW131610   0.473   4.150   5.906
10237SOL    HW231611   0.369   4.202   5.790
10238SOL     OW31612   2.894   0.194   0.667
10238SOL    HW131613   2.819   0.189   0.602
10238SOL    HW231614   2.875   0.132   0.744
10239SOL     OW31615   0.913   2.780   5.014
10239SOL    HW131616   0.984   2.752   4.949
10239SOL    HW231617   0.878   2.869   4.988
10240SOL     OW31618   1.123   6.532   1.180
10240SOL    HW131619   1.055   6.491   1.120
10240SOL    HW231620   1.090   6.622   1.210
10241SOL     OW31621   4.594   3.945   1.721
10241SOL    HW131622   4.559   4.027   1.676
10241SOL    HW231623   4.533   3.868   1.702
10242SOL     OW31624   0.948   3.428   1.480
10242SOL    HW131625   0.928   3.507   1.538
10242SOL    HW231626   0.905   3.440   1.391
10243SOL     OW31627   3.936   5.280   2.090
10243SOL    HW131628   3.922   5.283   1.991
10243SOL    HW231629   3.871   5.215   2.130
10244SOL     OW31630   1.790   5.805   1.525
10244SOL    HW131631   1.814   5.881   1.586
10244SOL    HW231632   1.873   5.766   1.486
10245SOL     OW31633   6.259   4.087   1.044
10245SOL    HW131634   6.239   4.179   1.012
10245SOL    HW231635   6.335   4.049   0.991
10246SOL     OW31636   3.433   3.489   3.633
10246SOL    HW131637   3.491   3.570   3.619
10246SOL    HW231638   3.433   3.433   3.550
10247SOL     OW31639   0.708   3.506   4.783
10247SOL    HW131640   0.637   3.536   4.719
10247SOL    HW231641   0.742   3.585   4.834
10248SOL     OW31642   0.693   1.264   4.230
10248SOL    HW131643   0.723   1.264   4.326
10248SOL    HW231644   0.703   1.355   4.192
10249SOL     OW31645   2.794   4.818   6.187
10249SOL    HW131646   2.886   4.849   6.211
10249SOL    HW231647   2.798   4.762   6.104
10250SOL     OW31648   2.930   2.930   0.271
10250SOL    HW131649   2.873   3.007   0.241
10250SOL    HW231650   2.874   2.847   0.273
10251SOL     OW31651   0.988   0.889   4.983
10251SOL    HW131652   0.971   0.972   5.035
10251SOL    HW231653   0.907   0.866   4.928
10252SOL     OW31654   5.551   3.888   6.052
10252SOL    HW131655   5.497   3.910   5.971
10252SOL    HW231656   5.646   3.872   6.026
10253SOL     OW31657   3.813   5.263   0.688
10253SOL    HW131658   3.830   5.317   0.605
10253SOL    HW231659   3.726   5.215   0.679
10254SOL     OW31660   6.686   1.703   6.490
10254SOL    HW131661   6.673   1.795   6.525
10254SOL    HW231662   6.654   1.637   6.558
10255SOL     OW31663   4.264   4.113   1.665
10255SOL    HW131664   4.287   4.158   1.579
10255SOL    HW231665   4.322   4.149   1.739
10256SOL     OW31666   2.134   0.432   3.983
10256SOL    HW131667   2.090   0.465   3.899
10256SOL    HW231668   2.117   0.333   3.992
10257SOL     OW31669   3.698   6.342   3.148
10257SOL    HW131670   3.696   6.362   3.050
10257SOL    HW231671   3.607   6.312   3.178
10258SOL     OW31672   3.469   1.619   2.216
10258SOL    HW131673   3.373   1.640   2.235
10258SOL    HW231674   3.499   1.672   2.136
10259SOL     OW31675   2.160   3.918   3.521
10259SOL    HW131676   2.060   3.920   3.530
10259SOL    HW231677   2.185   3.946   3.428
10260SOL     OW31678   0.397   0.386   3.998
10260SOL    HW131679   0.419   0.480   4.023
10260SOL    HW231680   0.311   0.359   4.041
10261SOL     OW31681   6.151   3.571   1.748
10261SOL    HW131682   6.212   3.525   1.684
10261SOL    HW231683   6.093   3.637   1.699
10262SOL     OW31684   4.485   1.261   6.652
10262SOL    HW131685   4.389   1.248   6.627
10262SOL    HW231686   4.536   1.298   6.574
10263SOL     OW31687   5.503   0.156   2.696
10263SOL    HW131688   5.574   0.225   2.685
10263SOL    HW231689   5.417   0.200   2.722
10264SOL     OW31690   6.710   1.282   6.394
10264SOL    HW131691   6.765   1.207   6.432
10264SOL    HW231692   6.748   1.309   6.305
10265SOL     OW31693   1.538   1.147   2.478
10265SOL    HW131694   1.606   1.106   2.538
10265SOL    HW231695   1.546   1.107   2.386
10266SOL     OW31696   2.679   3.806   1.605
10266SOL    HW131697   2.580   3.805   1.598
10266SOL    HW231698   2.708   3.748   1.681
10267SOL     OW31699   6.008   0.759   0.371
10267SOL    HW131700   6.015   0.704   0.454
10267SOL    HW231701   5.912   0.770   0.346
10268SOL     OW31702   4.070   5.682   2.979
10268SOL    HW131703   4.114   5.772   2.981
10268SOL    HW231704   4.136   5.613   2.949
10269SOL     OW31705   2.703   1.483   6.273
10269SOL    HW131706   2.633   1.490   6.203
10269SOL    HW231707   2.659   1.472   6.363
10270SOL     OW31708   2.926   0.082   3.590
10270SOL    HW131709   2.857   0.112   3.656
10270SOL    HW231710   2.993   0.155   3.576
10271SOL     OW31711   2.029   1.178   0.051
10271SOL    HW131712   2.085   1.234   0.112
10271SOL    HW231713   2.088   1.138   7.003
10272SOL     OW31714   5.597   6.338   5.176
10272SOL    HW131715   5.585   6.329   5.275
10272SOL    HW231716   5.689   6.374   5.157
10273SOL     OW31717   1.903   5.415   2.323
10273SOL    HW131718   1.968   5.348   2.287
10273SOL    HW231719   1.810   5.378   2.317
10274SOL     OW31720   0.557   4.365   5.015
10274SOL    HW131721   0.582   4.418   5.096
10274SOL    HW231722   0.552   4.426   4.935
10275SOL     OW31723   0.045   1.041   1.736
10275SOL    HW131724   7.015   1.119   1.702
10275SOL    HW231725   0.058   0.975   1.662
10276SOL     OW31726   3.580   4.839   5.404
10276SOL    HW131727   3.568   4.740   5.395
10276SOL    HW231728   3.492   4.885   5.389
10277SOL     OW31729   0.394   5.499   3.464
10277SOL    HW131730   0.327   5.437   3.422
10277SOL    HW231731   0.454   5.447   3.525
10278SOL     OW31732   5.947   0.560   3.945
10278SOL    HW131733   6.020   0.585   4.009
10278SOL    HW231734   5.860   0.594   3.979
10279SOL     OW31735   0.985   5.111   4.404
10279SOL    HW131736   1.013   5.159   4.487
10279SOL    HW231737   1.034   5.148   4.326
10280SOL     OW31738   6.098   5.923   0.766
10280SOL    HW131739   6.181   5.938   0.713
10280SOL    HW231740   6.099   5.981   0.847
10281SOL     OW31741   6.107   6.722   4.516
10281SOL    HW131742   6.117   6.747   4.420
10281SOL    HW231743   6.181   6.662   4.544
10282SOL     OW31744   5.075   2.269   3.321
10282SOL    HW131745   5.132   2.267   3.239
10282SOL    HW231746   5.057   2.363   3.347
10283SOL     OW31747   0.198   2.407   1.037
10283SOL    HW131748   0.254   2.326   1.022
10283SOL    HW231749   0.177   2.416   1.134
10284SOL     OW31750   1.221   5.322   5.243
10284SOL    HW131751   1.287   5.263   5.197
10284SOL    HW231752   1.192   5.394   5.181
10285SOL     OW31753   0.245   7.015   5.916
10285SOL    HW131754   0.205   0.074   5.873
10285SOL    HW231755   0.310   6.972   5.854
10286SOL     OW31756   3.451   0.800   1.549
10286SOL    HW131757   3.355   0.773   1.553
10286SOL    HW231758   3.509   0.720   1.568
10287SOL     OW31759   0.542   6.035   3.264
10287SOL    HW131760   0.513   5.965   3.330
10287SOL    HW231761   0.465   6.059   3.205
10288SOL     OW31762   3.689   6.330   4.755
10288SOL    HW131763   3.754   6.329   4.831
10288SOL    HW231764   3.702   6.413   4.701
10289SOL     OW31765   3.680   6.588   6.400
10289SOL    HW131766   3.649   6.552   6.312
10289SOL    HW231767   3.652   6.684   6.409
10290SOL     OW31768   3.660   3.115   2.718
10290SOL    HW131769   3.735   3.180   2.703
10290SOL    HW231770   3.574   3.165   2.729
10291SOL     OW31771   3.240   2.087   1.640
10291SOL    HW131772   3.259   2.133   1.727
10291SOL    HW231773   3.142   2.070   1.633
10292SOL     OW31774   0.371   0.869   5.983
10292SOL    HW131775   0.457   0.908   6.017
10292SOL    HW231776   0.306   0.943   5.963
10293SOL     OW31777   1.575   2.888   5.729
10293SOL    HW131778   1.673   2.905   5.724
10293SOL    HW231779   1.530   2.966   5.772
10294SOL     OW31780   0.897   6.864   1.838
10294SOL    HW131781   0.896   6.813   1.752
10294SOL    HW231782   0.886   6.962   1.819
10295SOL     OW31783   2.366   1.030   0.943
10295SOL    HW131784   2.446   0.970   0.948
10295SOL    HW231785   2.381   1.110   1.001
10296SOL     OW31786   6.986   3.168   4.759
10296SOL    HW131787   7.010   3.152   4.855
10296SOL    HW231788   6.955   3.083   4.717
10297SOL     OW31789   3.814   1.699   0.938
10297SOL    HW131790   3.835   1.791   0.971
10297SOL    HW231791   3.838   1.692   0.841
10298SOL     OW31792   1.641   0.478   1.671
10298SOL    HW131793   1.561   0.530   1.641
10298SOL    HW231794   1.627   0.446   1.765
10299SOL     OW31795   5.327   0.005   2.545
10299SOL    HW131796   5.243   6.993   2.588
10299SOL    HW231797   5.389   0.039   2.615
10300SOL     OW31798   0.799   4.282   1.654
10300SOL    HW131799   0.837   4.214   1.591
10300SOL    HW231800   0.756   4.236   1.732
10301SOL     OW31801   4.561   1.362   0.102
10301SOL    HW131802   4.570   1.271   0.061
10301SOL    HW231803   4.618   1.367   0.184
10302SOL     OW31804   2.958   6.146   5.201
10302SOL    HW131805   2.875   6.155   5.256
10302SOL    HW231806   2.945   6.193   5.114
10303SOL     OW31807   0.688   4.936   5.816
10303SOL    HW131808   0.669   4.996   5.894
10303SOL    HW231809   0.787   4.925   5.806
10304SOL     OW31810   4.788   5.367   0.767
10304SOL    HW131811   4.810   5.316   0.684
10304SOL    HW231812   4.827   5.321   0.846
10305SOL     OW31813   2.889   3.356   4.734
10305SOL    HW131814   2.880   3.386   4.639
10305SOL    HW231815   2.803   3.313   4.763
10306SOL     OW31816   3.591   0.947   1.791
10306SOL    HW131817   3.634   0.908   1.710
10306SOL    HW231818   3.570   0.873   1.856
10307SOL     OW31819   1.637   6.120   4.647
10307SOL    HW131820   1.695   6.127   4.728
10307SOL    HW231821   1.556   6.066   4.669
10308SOL     OW31822   2.349   4.524   2.305
10308SOL    HW131823   2.263   4.473   2.306
10308SOL    HW231824   2.397   4.510   2.392
10309SOL     OW31825   0.332   1.139   4.509
10309SOL    HW131826   0.425   1.136   4.543
10309SOL    HW231827   0.333   1.137   4.409
10310SOL     OW31828   2.774   4.138   6.537
10310SOL    HW131829   2.744   4.160   6.444
10310SOL    HW231830   2.872   4.119   6.537
10311SOL     OW31831   5.377   6.260   7.007
10311SOL    HW131832   5.346   6.355   7.013
10311SOL    HW231833   5.451   6.245   0.050
10312SOL     OW31834   2.224   6.638   1.110
10312SOL    HW131835   2.318   6.615   1.134
10312SOL    HW231836   2.201   6.728   1.148
10313SOL     OW31837   4.675   6.649   3.099
10313SOL    HW131838   4.627   6.605   3.023
10313SOL    HW231839   4.608   6.687   3.163
10314SOL     OW31840   0.375   6.684   0.596
10314SOL    HW131841   0.446   6.752   0.610
10314SOL    HW231842   0.365   6.628   0.679
10315SOL     OW31843   5.187   4.751   4.106
10315SOL    HW131844   5.192   4.766   4.205
10315SOL    HW231845   5.279   4.758   4.067
10316SOL     OW31846   1.486   2.019   0.298
10316SOL    HW131847   1.523   2.091   0.357
10316SOL    HW231848   1.519   2.032   0.204
10317SOL     OW31849   4.209   5.601   4.464
10317SOL    HW131850   4.294   5.586   4.415
10317SOL    HW231851   4.229   5.636   4.556
10318SOL     OW31852   6.072   6.939   6.985
10318SOL    HW131853   6.006   7.014   6.988
10318SOL    HW231854   6.041   6.870   6.921
10319SOL     OW31855   1.188   4.403   4.598
10319SOL    HW131856   1.190   4.503   4.603
10319SOL    HW231857   1.281   4.369   4.584
10320SOL     OW31858   6.647   6.741   3.063
10320SOL    HW131859   6.680   6.648   3.080
10320SOL    HW231860   6.683   6.803   3.132
10321SOL     OW31861   5.583   2.305   3.944
10321SOL    HW131862   5.614   2.385   3.994
10321SOL    HW231863   5.596   2.223   4.000
10322SOL     OW31864   4.587   4.580   4.870
10322SOL    HW131865   4.508   4.536   4.912
10322SOL    HW231866   4.635   4.635   4.938
10323SOL     OW31867   0.722   5.129   6.035
10323SOL    HW131868   0.777   5.062   6.084
10323SOL    HW231869   0.652   5.166   6.096
10324SOL     OW31870   3.376   3.210   2.728
10324SOL    HW131871   3.371   3.253   2.818
10324SOL    HW231872   3.301   3.242   2.671
10325SOL     OW31873   6.128   5.964   5.422
10325SOL    HW131874   6.044   6.015   5.406
10325SOL    HW231875   6.118   5.871   5.386
10326SOL     OW31876   5.050   3.797   6.453
10326SOL    HW131877   4.985   3.795   6.377
10326SOL    HW231878   5.032   3.877   6.510
10327SOL     OW31879   1.575   5.631   7.001
10327SOL    HW131880   1.535   5.720   0.000
10327SOL    HW231881   1.501   5.564   6.989
10328SOL     OW31882   6.449   2.185   3.624
10328SOL    HW131883   6.535   2.134   3.615
10328SOL    HW231884   6.373   2.126   3.596
10329SOL     OW31885   3.591   2.035   1.819
10329SOL    HW131886   3.596   2.126   1.860
10329SOL    HW231887   3.598   1.965   1.890
10330SOL     OW31888   5.286   6.239   1.888
10330SOL    HW131889   5.293   6.221   1.790
10330SOL    HW231890   5.205   6.193   1.924
10331SOL     OW31891   5.363   5.466   5.682
10331SOL    HW131892   5.286   5.527   5.702
10331SOL    HW231893   5.418   5.453   5.764
10332SOL     OW31894   1.760   0.953   6.656
10332SOL    HW131895   1.754   1.043   6.613
10332SOL    HW231896   1.853   0.937   6.689
10333SOL     OW31897   1.572   3.680   3.856
10333SOL    HW131898   1.616   3.713   3.773
10333SOL    HW231899   1.566   3.580   3.853
10334SOL     OW31900   3.991   1.442   4.269
10334SOL    HW131901   4.038   1.381   4.205
10334SOL    HW231902   4.008   1.537   4.243
10335SOL     OW31903   2.172   3.830   4.007
10335SOL    HW131904   2.100   3.876   4.058
10335SOL    HW231905   2.209   3.756   4.062
10336SOL     OW31906   6.062   6.407   3.250
10336SOL    HW131907   6.033   6.497   3.216
10336SOL    HW231908   5.996   6.338   3.222
10337SOL     OW31909   5.907   6.233   6.547
10337SOL    HW131910   5.837   6.303   6.549
10337SOL    HW231911   5.867   6.144   6.568
10338SOL     OW31912   0.467   5.853   1.898
10338SOL    HW131913   0.545   5.914   1.910
10338SOL    HW231914   0.458   5.794   1.979
10339SOL     OW31915   5.314   2.403   5.819
10339SOL    HW131916   5.394   2.397   5.760
10339SOL    HW231917   5.343   2.411   5.914
10340SOL     OW31918   3.442   3.164   6.545
10340SOL    HW131919   3.508   3.089   6.544
10340SOL    HW231920   3.408   3.180   6.452
10341SOL     OW31921   3.994   4.929   3.215
10341SOL    HW131922   4.058   4.997   3.179
10341SOL    HW231923   4.043   4.868   3.278
10342SOL     OW31924   0.778   1.754   3.869
10342SOL    HW131925   0.835   1.703   3.933
10342SOL    HW231926   0.751   1.841   3.909
10343SOL     OW31927   4.295   5.066   1.255
10343SOL    HW131928   4.364   5.113   1.310
10343SOL    HW231929   4.204   5.087   1.292
10344SOL     OW31930   5.143   6.902   6.880
10344SOL    HW131931   5.061   6.954   6.906
10344SOL    HW231932   5.221   6.932   6.935
10345SOL     OW31933   0.604   4.836   4.775
10345SOL    HW131934   0.582   4.797   4.864
10345SOL    HW231935   0.524   4.831   4.715
10346SOL     OW31936   1.022   5.202   0.843
10346SOL    HW131937   0.944   5.262   0.823
10346SOL    HW231938   1.005   5.152   0.928
10347SOL     OW31939   0.380   2.040   5.353
10347SOL    HW131940   0.442   2.088   5.290
10347SOL    HW231941   0.432   1.977   5.410
10348SOL     OW31942   0.203   5.346   1.101
10348SOL    HW131943   0.158   5.345   1.011
10348SOL    HW231944   0.136   5.371   1.171
10349SOL     OW31945   6.515   6.965   6.776
10349SOL    HW131946   6.585   6.912   6.823
10349SOL    HW231947   6.463   6.906   6.714
10350SOL     OW31948   4.023   0.205   0.018
10350SOL    HW131949   3.975   0.186   0.104
10350SOL    HW231950   4.022   0.124   6.983
10351SOL     OW31951   4.268   5.730   6.268
10351SOL    HW131952   4.196   5.791   6.302
10351SOL    HW231953   4.228   5.659   6.210
10352SOL     OW31954   4.060   4.932   5.803
10352SOL    HW131955   4.076   4.899   5.896
10352SOL    HW231956   4.095   5.026   5.795
10353SOL     OW31957   0.425   3.252   4.597
10353SOL    HW131958   0.479   3.193   4.537
10353SOL    HW231959   0.328   3.238   4.577
10354SOL     OW31960   5.371   1.125   1.016
10354SOL    HW131961   5.405   1.031   1.007
10354SOL    HW231962   5.441   1.189   0.983
10355SOL     OW31963   0.633   4.517   2.710
10355SOL    HW131964   0.656   4.422   2.689
10355SOL    HW231965   0.536   4.532   2.692
10356SOL     OW31966   0.896   3.137   4.752
10356SOL    HW131967   0.852   3.070   4.691
10356SOL    HW231968   0.943   3.206   4.697
10357SOL     OW31969   3.036   2.905   6.593
10357SOL    HW131970   3.090   2.972   6.542
10357SOL    HW231971   3.016   2.942   6.684
10358SOL     OW31972   0.499   0.379   2.151
10358SOL    HW131973   0.553   0.407   2.071
10358SOL    HW231974   0.518   0.440   2.227
10359SOL     OW31975   1.900   1.770   0.541
10359SOL    HW131976   1.938   1.678   0.553
10359SOL    HW231977   1.806   1.772   0.574
10360SOL     OW31978   0.677   4.150   3.782
10360SOL    HW131979   0.696   4.240   3.819
10360SOL    HW231980   0.646   4.090   3.856
10361SOL     OW31981   3.256   6.039   0.291
10361SOL    HW131982   3.181   5.980   0.323
10361SOL    HW231983   3.343   5.995   0.310
10362SOL     OW31984   0.584   4.933   5.370
10362SOL    HW131985   0.531   4.856   5.334
10362SOL    HW231986   0.555   4.953   5.463
10363SOL     OW31987   5.444   0.542   5.128
10363SOL    HW131988   5.359   0.589   5.153
10363SOL    HW231989   5.422   0.459   5.077
10364SOL     OW31990   1.053   3.831   0.909
10364SOL    HW131991   0.955   3.829   0.927
10364SOL    HW231992   1.071   3.806   0.814
10365SOL     OW31993   5.842   4.938   6.959
10365SOL    HW131994   5.812   4.882   6.882
10365SOL    HW231995   5.923   4.897   7.001
10366SOL     OW31996   4.859   6.911   3.660
10366SOL    HW131997   4.866   6.963   3.745
10366SOL    HW231998   4.919   6.953   3.591
10367SOL     OW31999   5.962   1.287   3.423
10367SOL    HW132000   6.054   1.276   3.459
10367SOL    HW232001   5.956   1.372   3.371
10368SOL     OW32002   2.109   6.849   0.849
10368SOL    HW132003   2.085   6.946   0.847
10368SOL    HW232004   2.045   6.797   0.793
10369SOL     OW32005   4.718   3.145   6.202
10369SOL    HW132006   4.734   3.224   6.143
10369SOL    HW232007   4.716   3.174   6.298
10370SOL     OW32008   2.560   0.439   4.862
10370SOL    HW132009   2.617   0.515   4.892
10370SOL    HW232010   2.595   0.403   4.776
10371SOL     OW32011   4.795   6.033   5.715
10371SOL    HW132012   4.886   6.058   5.750
10371SOL    HW232013   4.768   5.945   5.753
10372SOL     OW32014   0.031   1.369   4.392
10372SOL    HW132015   0.120   1.347   4.352
10372SOL    HW232016   6.994   1.288   4.387
10373SOL     OW32017   1.276   6.784   5.333
10373SOL    HW132018   1.348   6.834   5.382
10373SOL    HW232019   1.190   6.794   5.382
10374SOL     OW32020   3.864   1.127   3.478
10374SOL    HW132021   3.837   1.186   3.554
10374SOL    HW232022   3.958   1.094   3.493
10375SOL     OW32023   6.819   2.719   1.148
10375SOL    HW132024   6.814   2.673   1.237
10375SOL    HW232025   6.911   2.706   1.110
10376SOL     OW32026   5.626   0.027   4.014
10376SOL    HW132027   5.580   7.007   3.935
10376SOL    HW232028   5.619   0.126   4.007
10377SOL     OW32029   6.196   6.366   3.737
10377SOL    HW132030   6.265   6.361   3.809
10377SOL    HW232031   6.123   6.301   3.756
10378SOL     OW32032   6.790   6.748   5.581
10378SOL    HW132033   6.886   6.770   5.563
10378SOL    HW232034   6.733   6.786   5.507
10379SOL     OW32035   4.086   1.288   5.282
10379SOL    HW132036   4.004   1.266   5.335
10379SOL    HW232037   4.162   1.233   5.314
10380SOL     OW32038   3.350   0.833   4.553
10380SOL    HW132039   3.449   0.822   4.544
10380SOL    HW232040   3.313   0.876   4.471
10381SOL     OW32041   3.256   5.578   5.140
10381SOL    HW132042   3.170   5.558   5.093
10381SOL    HW232043   3.326   5.601   5.072
10382SOL     OW32044   0.169   4.978   1.296
10382SOL    HW132045   0.093   5.014   1.241
10382SOL    HW232046   0.239   5.049   1.306
10383SOL     OW32047   5.483   3.564   1.181
10383SOL    HW132048   5.467   3.470   1.150
10383SOL    HW232049   5.520   3.563   1.274
10384SOL     OW32050   4.977   1.456   0.077
10384SOL    HW132051   4.916   1.456   7.020
10384SOL    HW232052   4.931   1.499   0.155
10385SOL     OW32053   6.733   3.068   6.512
10385SOL    HW132054   6.807   3.133   6.497
10385SOL    HW232055   6.771   2.978   6.532
10386SOL     OW32056   0.147   1.635   6.361
10386SOL    HW132057   0.213   1.637   6.286
10386SOL    HW232058   0.163   1.713   6.422
10387SOL     OW32059   1.339   3.902   3.203
10387SOL    HW132060   1.391   3.975   3.159
10387SOL    HW232061   1.246   3.934   3.222
10388SOL     OW32062   2.257   4.237   2.119
10388SOL    HW132063   2.178   4.297   2.125
10388SOL    HW232064   2.290   4.216   2.211
10389SOL     OW32065   1.838   5.726   3.207
10389SOL    HW132066   1.789   5.761   3.287
10389SOL    HW232067   1.775   5.673   3.150
10390SOL     OW32068   2.081   3.497   3.563
10390SOL    HW132069   2.101   3.571   3.498
10390SOL    HW232070   2.098   3.529   3.656
10391SOL     OW32071   3.484   5.395   4.113
10391SOL    HW132072   3.583   5.407   4.105
10391SOL    HW232073   3.450   5.451   4.189
10392SOL     OW32074   7.003   5.599   0.249
10392SOL    HW132075   6.907   5.584   0.272
10392SOL    HW232076   7.014   5.689   0.207
10393SOL     OW32077   1.620   1.450   4.622
10393SOL    HW132078   1.635   1.442   4.523
10393SOL    HW232079   1.703   1.486   4.665
10394SOL     OW32080   3.396   6.643   0.637
10394SOL    HW132081   3.474   6.600   0.592
10394SOL    HW232082   3.325   6.661   0.569
10395SOL     OW32083   1.203   0.170   3.664
10395SOL    HW132084   1.123   0.117   3.692
10395SOL    HW232085   1.218   0.244   3.730
10396SOL     OW32086   0.449   0.817   4.299
10396SOL    HW132087   0.496   0.897   4.262
10396SOL    HW232088   0.355   0.842   4.322
10397SOL     OW32089   4.629   2.573   2.598
10397SOL    HW132090   4.643   2.632   2.518
10397SOL    HW232091   4.684   2.490   2.588
10398SOL     OW32092   0.993   2.719   2.737
10398SOL    HW132093   0.985   2.790   2.667
10398SOL    HW232094   1.070   2.659   2.714
10399SOL     OW32095   6.936   2.869   5.702
10399SOL    HW132096   6.907   2.818   5.783
10399SOL    HW232097   6.872   2.851   5.627
10400SOL     OW32098   1.796   5.111   2.474
10400SOL    HW132099   1.706   5.070   2.489
10400SOL    HW232100   1.857   5.043   2.433
10401SOL     OW32101   0.780   5.976   1.247
10401SOL    HW132102   0.691   6.021   1.261
10401SOL    HW232103   0.853   6.042   1.267
10402SOL     OW32104   1.115   2.658   4.850
10402SOL    HW132105   1.105   2.694   4.757
10402SOL    HW232106   1.208   2.623   4.863
10403SOL     OW32107   5.593   0.790   3.150
10403SOL    HW132108   5.575   0.778   3.247
10403SOL    HW232109   5.609   0.886   3.130
10404SOL     OW32110   6.412   0.183   4.969
10404SOL    HW132111   6.480   0.225   4.908
10404SOL    HW232112   6.333   0.154   4.915
10405SOL     OW32113   3.840   0.396   6.695
10405SOL    HW132114   3.821   0.426   6.602
10405SOL    HW232115   3.843   0.476   6.755
10406SOL     OW32116   1.301   6.468   4.715
10406SOL    HW132117   1.384   6.418   4.740
10406SOL    HW232118   1.229   6.403   4.692
10407SOL     OW32119   3.624   0.859   6.885
10407SOL    HW132120   3.579   0.770   6.886
10407SOL    HW232121   3.613   0.900   6.794
10408SOL     OW32122   2.836   0.069   2.458
10408SOL    HW132123   2.838   0.112   2.368
10408SOL    HW232124   2.896   7.012   2.459
10409SOL     OW32125   0.111   4.473   2.035
10409SOL    HW132126   0.075   4.534   1.964
10409SOL    HW232127   0.182   4.415   1.996
10410SOL     OW32128   5.364   4.961   0.594
10410SOL    HW132129   5.408   4.871   0.585
10410SOL    HW232130   5.326   4.970   0.686
10411SOL     OW32131   2.460   5.141   1.977
10411SOL    HW132132   2.535   5.088   2.018
10411SOL    HW232133   2.485   5.167   1.884
10412SOL     OW32134   1.028   4.072   5.988
10412SOL    HW132135   1.016   4.076   6.087
10412SOL    HW232136   1.081   4.151   5.957
10413SOL     OW32137   0.162   0.961   5.445
10413SOL    HW132138   0.079   1.016   5.452
10413SOL    HW232139   0.219   0.977   5.525
10414SOL     OW32140   5.441   5.314   4.945
10414SOL    HW132141   5.476   5.407   4.936
10414SOL    HW232142   5.447   5.267   4.857
10415SOL     OW32143   7.015   4.286   3.228
10415SOL    HW132144   0.053   4.242   3.161
10415SOL    HW232145   6.981   4.372   3.190
10416SOL     OW32146   4.992   1.044   0.008
10416SOL    HW132147   5.004   0.950   0.039
10416SOL    HW232148   5.035   1.107   0.072
10417SOL     OW32149   5.056   4.182   4.459
10417SOL    HW132150   5.134   4.150   4.512
10417SOL    HW232151   5.079   4.180   4.361
10418SOL     OW32152   6.169   2.991   0.197
10418SOL    HW132153   6.149   3.086   0.218
10418SOL    HW232154   6.093   2.933   0.225
10419SOL     OW32155   1.010   0.262   4.682
10419SOL    HW132156   0.930   0.230   4.631
10419SOL    HW232157   0.985   0.280   4.777
10420SOL     OW32158   6.372   3.805   4.424
10420SOL    HW132159   6.276   3.816   4.451
10420SOL    HW232160   6.422   3.759   4.497
10421SOL     OW32161   0.394   3.611   3.953
10421SOL    HW132162   0.401   3.666   4.036
10421SOL    HW232163   0.307   3.630   3.907
10422SOL     OW32164   5.707   3.017   6.163
10422SOL    HW132165   5.734   3.019   6.259
10422SOL    HW232166   5.745   3.098   6.116
10423SOL     OW32167   2.522   5.988   1.770
10423SOL    HW132168   2.474   6.047   1.704
10423SOL    HW232169   2.599   6.038   1.810
10424SOL     OW32170   5.269   0.603   2.913
10424SOL    HW132171   5.182   0.587   2.865
10424SOL    HW232172   5.280   0.535   2.985
10425SOL     OW32173   0.641   4.708   0.753
10425SOL    HW132174   0.653   4.609   0.742
10425SOL    HW232175   0.544   4.730   0.747
10426SOL     OW32176   6.612   3.089   6.900
10426SOL    HW132177   6.531   3.132   6.940
10426SOL    HW232178   6.685   3.157   6.892
10427SOL     OW32179   6.174   0.873   3.612
10427SOL    HW132180   6.257   0.819   3.620
10427SOL    HW232181   6.122   0.842   3.532
10428SOL     OW32182   1.634   0.614   5.218
10428SOL    HW132183   1.617   0.672   5.139
10428SOL    HW232184   1.602   0.660   5.301
10429SOL     OW32185   1.956   4.765   1.975
10429SOL    HW132186   2.049   4.729   1.976
10429SOL    HW232187   1.924   4.770   1.880
10430SOL     OW32188   3.792   1.777   4.796
10430SOL    HW132189   3.854   1.788   4.874
10430SOL    HW232190   3.845   1.748   4.715
10431SOL     OW32191   4.415   1.819   3.924
10431SOL    HW132192   4.506   1.849   3.897
10431SOL    HW232193   4.359   1.806   3.842
10432SOL     OW32194   1.387   4.879   1.271
10432SOL    HW132195   1.305   4.922   1.234
10432SOL    HW232196   1.367   4.841   1.361
10433SOL     OW32197   3.583   6.327   3.866
10433SOL    HW132198   3.579   6.254   3.798
10433SOL    HW232199   3.679   6.347   3.886
10434SOL     OW32200   4.883   2.013   0.884
10434SOL    HW132201   4.865   1.987   0.979
10434SOL    HW232202   4.830   1.954   0.823
10435SOL     OW32203   2.751   1.029   1.328
10435SOL    HW132204   2.719   1.018   1.233
10435SOL    HW232205   2.824   1.098   1.330
10436SOL     OW32206   1.707   4.251   5.335
10436SOL    HW132207   1.795   4.294   5.313
10436SOL    HW232208   1.653   4.313   5.392
10437SOL     OW32209   6.897   0.078   5.217
10437SOL    HW132210   6.825   0.148   5.220
10437SOL    HW232211   6.945   0.085   5.129
10438SOL     OW32212   6.763   6.313   6.916
10438SOL    HW132213   6.766   6.305   6.816
10438SOL    HW232214   6.849   6.280   6.955
10439SOL     OW32215   6.252   5.184   5.801
10439SOL    HW132216   6.265   5.227   5.712
10439SOL    HW232217   6.154   5.176   5.820
10440SOL     OW32218   5.431   2.701   2.229
10440SOL    HW132219   5.378   2.619   2.210
10440SOL    HW232220   5.524   2.676   2.256
10441SOL     OW32221   5.050   1.625   5.766
10441SOL    HW132222   5.135   1.648   5.814
10441SOL    HW232223   5.066   1.549   5.704
10442SOL     OW32224   2.857   0.571   5.894
10442SOL    HW132225   2.914   0.651   5.914
10442SOL    HW232226   2.869   0.503   5.967
10443SOL     OW32227   1.114   1.474   0.095
10443SOL    HW132228   1.135   1.553   0.039
10443SOL    HW232229   1.194   1.451   0.152
10444SOL     OW32230   4.538   5.948   3.338
10444SOL    HW132231   4.615   5.886   3.323
10444SOL    HW232232   4.504   5.936   3.432
10445SOL     OW32233   1.264   3.362   3.250
10445SOL    HW132234   1.294   3.312   3.332
10445SOL    HW232235   1.333   3.352   3.179
10446SOL     OW32236   2.909   4.854   5.175
10446SOL    HW132237   2.895   4.766   5.130
10446SOL    HW232238   2.851   4.923   5.131
10447SOL     OW32239   1.660   2.798   3.269
10447SOL    HW132240   1.690   2.715   3.221
10447SOL    HW232241   1.729   2.869   3.258
10448SOL     OW32242   0.453   5.012   1.569
10448SOL    HW132243   0.460   5.052   1.661
10448SOL    HW232244   0.514   4.934   1.562
10449SOL     OW32245   3.826   5.878   4.640
10449SOL    HW132246   3.836   5.978   4.638
10449SOL    HW232247   3.749   5.853   4.698
10450SOL     OW32248   0.664   2.610   4.581
10450SOL    HW132249   0.633   2.598   4.486
10450SOL    HW232250   0.590   2.583   4.643
10451SOL     OW32251   2.101   2.114   5.349
10451SOL    HW132252   2.036   2.122   5.273
10451SOL    HW232253   2.166   2.040   5.329
10452SOL     OW32254   0.157   2.913   4.737
10452SOL    HW132255   0.248   2.872   4.734
10452SOL    HW232256   0.160   2.996   4.794
10453SOL     OW32257   3.139   5.496   3.800
10453SOL    HW132258   3.082   5.466   3.877
10453SOL    HW232259   3.099   5.463   3.714
10454SOL     OW32260   6.892   2.598   6.560
10454SOL    HW132261   6.852   2.572   6.472
10454SOL    HW232262   6.948   2.524   6.595
10455SOL     OW32263   0.760   6.141   2.865
10455SOL    HW132264   0.791   6.158   2.959
10455SOL    HW232265   0.661   6.128   2.865
10456SOL     OW32266   1.118   6.138   5.828
10456SOL    HW132267   1.081   6.097   5.745
10456SOL    HW232268   1.203   6.092   5.853
10457SOL     OW32269   4.399   1.937   1.342
10457SOL    HW132270   4.398   1.994   1.424
10457SOL    HW232271   4.376   1.843   1.366
10458SOL     OW32272   2.023   6.505   6.722
10458SOL    HW132273   2.078   6.423   6.704
10458SOL    HW232274   2.071   6.586   6.690
10459SOL     OW32275   5.198   6.297   1.587
10459SOL    HW132276   5.167   6.288   1.492
10459SOL    HW232277   5.292   6.334   1.587
10460SOL     OW32278   5.875   1.457   6.312
10460SOL    HW132279   5.905   1.363   6.324
10460SOL    HW232280   5.799   1.459   6.247
10461SOL     OW32281   6.958   4.206   5.639
10461SOL    HW132282   6.905   4.146   5.699
10461SOL    HW232283   6.931   4.301   5.655
10462SOL     OW32284   4.351   3.950   0.045
10462SOL    HW132285   4.422   3.940   0.115
10462SOL    HW232286   4.287   4.022   0.072
10463SOL     OW32287   4.320   2.579   5.393
10463SOL    HW132288   4.242   2.548   5.339
10463SOL    HW232289   4.292   2.592   5.488
10464SOL     OW32290   6.137   4.631   1.453
10464SOL    HW132291   6.121   4.547   1.403
10464SOL    HW232292   6.234   4.653   1.452
10465SOL     OW32293   4.919   4.171   0.428
10465SOL    HW132294   4.997   4.234   0.418
10465SOL    HW232295   4.840   4.209   0.379
10466SOL     OW32296   6.492   3.867   5.699
10466SOL    HW132297   6.440   3.916   5.769
10466SOL    HW232298   6.588   3.894   5.704
10467SOL     OW32299   0.411   4.074   6.612
10467SOL    HW132300   0.470   4.052   6.534
10467SOL    HW232301   0.315   4.065   6.585
10468SOL     OW32302   1.635   4.587   3.654
10468SOL    HW132303   1.713   4.597   3.715
10468SOL    HW232304   1.565   4.654   3.678
10469SOL     OW32305   1.877   0.902   4.657
10469SOL    HW132306   1.900   0.999   4.665
10469SOL    HW232307   1.815   0.890   4.580
10470SOL     OW32308   2.523   4.116   1.664
10470SOL    HW132309   2.619   4.092   1.655
10470SOL    HW232310   2.514   4.215   1.677
10471SOL     OW32311   1.459   4.713   5.999
10471SOL    HW132312   1.534   4.646   6.000
10471SOL    HW232313   1.473   4.777   5.924
10472SOL     OW32314   4.126   5.553   6.094
10472SOL    HW132315   4.102   5.527   6.000
10472SOL    HW232316   4.069   5.503   6.159
10473SOL     OW32317   5.922   5.556   0.667
10473SOL    HW132318   5.854   5.484   0.683
10473SOL    HW232319   5.922   5.618   0.746
10474SOL     OW32320   6.019   5.455   5.577
10474SOL    HW132321   6.011   5.375   5.636
10474SOL    HW232322   5.960   5.443   5.497
10475SOL     OW32323   6.598   6.130   1.974
10475SOL    HW132324   6.671   6.078   1.931
10475SOL    HW232325   6.565   6.081   2.055
10476SOL     OW32326   5.411   6.166   1.120
10476SOL    HW132327   5.408   6.252   1.068
10476SOL    HW232328   5.425   6.090   1.057
10477SOL     OW32329   7.017   5.768   3.516
10477SOL    HW132330   0.017   5.851   3.567
10477SOL    HW232331   0.017   5.688   3.572
10478SOL     OW32332   0.042   1.352   0.372
10478SOL    HW132333   0.046   1.255   0.393
10478SOL    HW232334   0.065   1.405   0.454
10479SOL     OW32335   0.008   4.496   2.969
10479SOL    HW132336   0.105   4.520   2.957
10479SOL    HW232337   6.978   4.579   2.986
10480SOL     OW32338   2.743   1.730   3.810
10480SOL    HW132339   2.785   1.652   3.764
10480SOL    HW232340   2.643   1.720   3.807
10481SOL     OW32341   6.179   0.302   1.836
10481SOL    HW132342   6.229   0.372   1.887
10481SOL    HW232343   6.150   0.340   1.747
10482SOL     OW32344   4.652   4.394   4.499
10482SOL    HW132345   4.565   4.444   4.508
10482SOL    HW232346   4.702   4.431   4.420
10483SOL     OW32347   5.608   1.966   6.401
10483SOL    HW132348   5.580   1.894   6.465
10483SOL    HW232349   5.616   1.927   6.309
10484SOL     OW32350   5.625   0.399   1.193
10484SOL    HW132351   5.537   0.377   1.150
10484SOL    HW232352   5.691   0.426   1.122
10485SOL     OW32353   5.824   3.248   5.235
10485SOL    HW132354   5.781   3.186   5.301
10485SOL    HW232355   5.912   3.278   5.271
10486SOL     OW32356   6.296   3.385   3.341
10486SOL    HW132357   6.309   3.473   3.295
10486SOL    HW232358   6.204   3.351   3.322
10487SOL     OW32359   3.338   0.338   2.171
10487SOL    HW132360   3.285   0.284   2.237
10487SOL    HW232361   3.304   0.321   2.079
10488SOL     OW32362   4.065   3.918   7.007
10488SOL    HW132363   4.014   3.943   0.067
10488SOL    HW232364   4.153   3.878   0.011
10489SOL     OW32365   1.387   4.804   5.485
10489SOL    HW132366   1.331   4.722   5.493
10489SOL    HW232367   1.364   4.852   5.400
10490SOL     OW32368   6.286   6.543   4.301
10490SOL    HW132369   6.249   6.536   4.209
10490SOL    HW232370   6.223   6.500   4.366
10491SOL     OW32371   6.850   5.832   4.466
10491SOL    HW132372   6.785   5.840   4.542
10491SOL    HW232373   6.830   5.903   4.398
10492SOL     OW32374   4.621   3.779   5.906
10492SOL    HW132375   4.559   3.788   5.828
10492SOL    HW232376   4.567   3.767   5.990
10493SOL     OW32377   3.491   1.562   6.935
10493SOL    HW132378   3.534   1.513   7.011
10493SOL    HW232379   3.561   1.593   6.871
10494SOL     OW32380   5.930   1.214   5.159
10494SOL    HW132381   5.837   1.250   5.167
10494SOL    HW232382   5.961   1.181   5.249
10495SOL     OW32383   0.670   0.638   6.884
10495SOL    HW132384   0.706   0.642   6.790
10495SOL    HW232385   0.603   0.711   6.897
10496SOL     OW32386   0.188   0.262   5.233
10496SOL    HW132387   0.146   0.206   5.161
10496SOL    HW232388   0.284   0.237   5.243
10497SOL     OW32389   2.272   1.090   5.996
10497SOL    HW132390   2.297   1.005   6.042
10497SOL    HW232391   2.239   1.070   5.904
10498SOL     OW32392   2.480   5.531   5.317
10498SOL    HW132393   2.403   5.549   5.379
10498SOL    HW232394   2.544   5.468   5.362
10499SOL     OW32395   3.195   6.623   1.751
10499SOL    HW132396   3.245   6.621   1.664
10499SOL    HW232397   3.146   6.710   1.759
10500SOL     OW32398   1.675   0.983   6.894
10500SOL    HW132399   1.729   0.903   6.921
10500SOL    HW232400   1.669   0.987   6.794
10501SOL     OW32401   1.440   3.530   3.484
10501SOL    HW132402   1.461   3.434   3.467
10501SOL    HW232403   1.377   3.564   3.413
10502SOL     OW32404   3.603   6.720   4.456
10502SOL    HW132405   3.641   6.741   4.366
10502SOL    HW232406   3.519   6.773   4.470
10503SOL     OW32407   2.345   3.566   6.812
10503SOL    HW132408   2.326   3.651   6.763
10503SOL    HW232409   2.276   3.498   6.789
10504SOL     OW32410   1.998   2.734   0.420
10504SOL    HW132411   2.096   2.754   0.428
10504SOL    HW232412   1.952   2.758   0.506
10505SOL     OW32413   0.813   5.223   0.221
10505SOL    HW132414   0.727   5.273   0.224
10505SOL    HW232415   0.805   5.148   0.155
10506SOL     OW32416   6.709   5.932   6.270
10506SOL    HW132417   6.623   5.882   6.254
10506SOL    HW232418   6.703   5.981   6.357
10507SOL     OW32419   2.763   0.306   4.196
10507SOL    HW132420   2.789   0.219   4.237
10507SOL    HW232421   2.753   0.375   4.267
10508SOL     OW32422   5.684   5.499   3.318
10508SOL    HW132423   5.738   5.528   3.239
10508SOL    HW232424   5.597   5.547   3.319
10509SOL     OW32425   2.342   1.617   4.779
10509SOL    HW132426   2.298   1.528   4.769
10509SOL    HW232427   2.330   1.649   4.873
10510SOL     OW32428   5.392   0.437   6.505
10510SOL    HW132429   5.327   0.479   6.568
10510SOL    HW232430   5.400   0.339   6.525
10511SOL     OW32431   6.797   2.409   2.481
10511SOL    HW132432   6.753   2.487   2.524
10511SOL    HW232433   6.858   2.441   2.408
10512SOL     OW32434   1.831   6.938   0.067
10512SOL    HW132435   1.803   6.849   0.032
10512SOL    HW232436   1.867   6.994   7.014
10513SOL     OW32437   6.570   2.772   1.105
10513SOL    HW132438   6.517   2.736   1.182
10513SOL    HW232439   6.667   2.757   1.121
10514SOL     OW32440   1.800   2.586   1.492
10514SOL    HW132441   1.849   2.596   1.579
10514SOL    HW232442   1.862   2.605   1.416
10515SOL     OW32443   0.505   4.351   4.116
10515SOL    HW132444   0.500   4.444   4.079
10515SOL    HW232445   0.592   4.339   4.164
10516SOL     OW32446   2.705   6.233   0.235
10516SOL    HW132447   2.677   6.238   0.139
10516SOL    HW232448   2.692   6.139   0.268
10517SOL     OW32449   0.423   2.329   3.886
10517SOL    HW132450   0.502   2.291   3.933
10517SOL    HW232451   0.436   2.428   3.874
10518SOL     OW32452   1.280   6.133   3.601
10518SOL    HW132453   1.225   6.172   3.527
10518SOL    HW232454   1.252   6.039   3.617
10519SOL     OW32455   3.158   3.433   5.599
10519SOL    HW132456   3.236   3.397   5.548
10519SOL    HW232457   3.159   3.533   5.595
10520SOL     OW32458   2.533   4.814   6.764
10520SOL    HW132459   2.461   4.745   6.762
10520SOL    HW232460   2.536   4.855   6.856
10521SOL     OW32461   0.284   6.078   1.839
10521SOL    HW132462   0.287   6.165   1.790
10521SOL    HW232463   0.373   6.034   1.835
10522SOL     OW32464   5.803   6.374   2.451
10522SOL    HW132465   5.825   6.313   2.375
10522SOL    HW232466   5.886   6.422   2.481
10523SOL     OW32467   6.136   5.817   6.483
10523SOL    HW132468   6.177   5.813   6.391
10523SOL    HW232469   6.149   5.909   6.520
10524SOL     OW32470   5.172   0.836   4.858
10524SOL    HW132471   5.184   0.813   4.954
10524SOL    HW232472   5.159   0.752   4.805
10525SOL     OW32473   2.207   0.252   5.579
10525SOL    HW132474   2.183   0.319   5.509
10525SOL    HW232475   2.230   0.165   5.535
10526SOL     OW32476   4.265   5.437   2.919
10526SOL    HW132477   4.357   5.475   2.928
10526SOL    HW232478   4.232   5.451   2.826
10527SOL     OW32479   2.253   2.577   4.313
10527SOL    HW132480   2.309   2.643   4.265
10527SOL    HW232481   2.295   2.554   4.401
10528SOL     OW32482   5.400   4.103   6.454
10528SOL    HW132483   5.484   4.091   6.402
10528SOL    HW232484   5.363   4.014   6.480
10529SOL     OW32485   6.956   5.739   5.233
10529SOL    HW132486   0.027   5.704   5.220
10529SOL    HW232487   6.928   5.789   5.151
10530SOL     OW32488   1.140   1.348   4.540
10530SOL    HW132489   1.213   1.320   4.603
10530SOL    HW232490   1.140   1.287   4.460
10531SOL     OW32491   3.193   2.083   4.375
10531SOL    HW132492   3.094   2.092   4.364
10531SOL    HW232493   3.214   2.047   4.466
10532SOL     OW32494   3.289   4.033   4.174
10532SOL    HW132495   3.296   3.934   4.159
10532SOL    HW232496   3.214   4.052   4.237
10533SOL     OW32497   3.481   1.617   6.501
10533SOL    HW132498   3.507   1.668   6.419
10533SOL    HW232499   3.481   1.519   6.482
10534SOL     OW32500   5.599   4.781   2.359
10534SOL    HW132501   5.532   4.777   2.433
10534SOL    HW232502   5.631   4.689   2.337
10535SOL     OW32503   6.564   1.675   1.598
10535SOL    HW132504   6.553   1.758   1.652
10535SOL    HW232505   6.572   1.596   1.659
10536SOL     OW32506   6.208   6.103   2.236
10536SOL    HW132507   6.168   6.146   2.155
10536SOL    HW232508   6.230   6.008   2.216
10537SOL     OW32509   6.329   4.783   1.140
10537SOL    HW132510   6.381   4.825   1.215
10537SOL    HW232511   6.316   4.850   1.067
10538SOL     OW32512   4.862   3.456   6.474
10538SOL    HW132513   4.836   3.360   6.470
10538SOL    HW232514   4.912   3.481   6.391
10539SOL     OW32515   1.926   2.901   4.812
10539SOL    HW132516   1.994   2.828   4.816
10539SOL    HW232517   1.941   2.957   4.731
10540SOL     OW32518   3.622   1.079   0.678
10540SOL    HW132519   3.705   1.023   0.677
10540SOL    HW232520   3.634   1.155   0.741
10541SOL     OW32521   3.321   2.576   1.745
10541SOL    HW132522   3.283   2.484   1.735
10541SOL    HW232523   3.421   2.572   1.740
10542SOL     OW32524   1.762   2.917   0.251
10542SOL    HW132525   1.837   2.941   0.188
10542SOL    HW232526   1.785   2.833   0.299
10543SOL     OW32527   2.939   0.335   3.972
10543SOL    HW132528   2.859   0.343   4.031
10543SOL    HW232529   2.909   0.317   3.878
10544SOL     OW32530   6.993   1.649   1.389
10544SOL    HW132531   6.895   1.657   1.369
10544SOL    HW232532   7.007   1.649   1.488
10545SOL     OW32533   3.269   0.595   3.153
10545SOL    HW132534   3.340   0.661   3.126
10545SOL    HW232535   3.218   0.566   3.072
10546SOL     OW32536   4.407   1.038   4.810
10546SOL    HW132537   4.412   1.136   4.790
10546SOL    HW232538   4.500   1.001   4.820
10547SOL     OW32539   4.472   5.732   1.821
10547SOL    HW132540   4.572   5.729   1.808
10547SOL    HW232541   4.437   5.639   1.833
10548SOL     OW32542   4.479   4.202   5.840
10548SOL    HW132543   4.428   4.136   5.785
10548SOL    HW232544   4.429   4.221   5.924
10549SOL     OW32545   6.623   1.660   2.337
10549SOL    HW132546   6.629   1.675   2.239
10549SOL    HW232547   6.642   1.745   2.385
10550SOL     OW32548   4.591   6.690   5.305
10550SOL    HW132549   4.595   6.782   5.268
10550SOL    HW232550   4.501   6.674   5.345
10551SOL     OW32551   1.877   2.877   5.723
10551SOL    HW132552   1.893   2.911   5.630
10551SOL    HW232553   1.895   2.779   5.726
10552SOL     OW32554   3.636   0.826   5.443
10552SOL    HW132555   3.684   0.748   5.402
10552SOL    HW232556   3.541   0.800   5.462
10553SOL     OW32557   3.032   4.459   6.781
10553SOL    HW132558   2.948   4.432   6.734
10553SOL    HW232559   3.084   4.521   6.721
10554SOL     OW32560   6.442   3.958   6.139
10554SOL    HW132561   6.499   3.892   6.187
10554SOL    HW232562   6.440   4.044   6.189
10555SOL     OW32563   3.274   3.030   0.423
10555SOL    HW132564   3.186   2.992   0.450
10555SOL    HW232565   3.348   2.975   0.462
10556SOL     OW32566   2.937   4.946   4.238
10556SOL    HW132567   3.034   4.958   4.259
10556SOL    HW232568   2.905   4.861   4.278
10557SOL     OW32569   5.538   1.473   3.020
10557SOL    HW132570   5.463   1.486   2.955
10557SOL    HW232571   5.624   1.462   2.969
10558SOL     OW32572   5.879   5.492   6.669
10558SOL    HW132573   5.846   5.460   6.758
10558SOL    HW232574   5.967   5.450   6.649
10559SOL     OW32575   4.047   3.088   1.532
10559SOL    HW132576   4.104   3.023   1.583
10559SOL    HW232577   4.101   3.131   1.460
10560SOL     OW32578   6.850   1.879   4.078
10560SOL    HW132579   6.904   1.891   3.995
10560SOL    HW232580   6.764   1.931   4.071
10561SOL     OW32581   1.485   4.329   6.220
10561SOL    HW132582   1.505   4.253   6.158
10561SOL    HW232583   1.448   4.293   6.305
10562SOL     OW32584   4.380   2.104   1.151
10562SOL    HW132585   4.374   2.020   1.206
10562SOL    HW232586   4.475   2.135   1.149
10563SOL     OW32587   2.113   1.919   2.236
10563SOL    HW132588   2.150   1.847   2.296
10563SOL    HW232589   2.077   1.877   2.153
10564SOL     OW32590   0.684   1.686   2.791
10564SOL    HW132591   0.647   1.764   2.842
10564SOL    HW232592   0.745   1.718   2.719
10565SOL     OW32593   5.270   2.304   4.920
10565SOL    HW132594   5.173   2.309   4.944
10565SOL    HW232595   5.287   2.222   4.865
10566SOL     OW32596   4.898   5.834   0.291
10566SOL    HW132597   4.854   5.886   0.218
10566SOL    HW232598   4.828   5.792   0.348
10567SOL     OW32599   1.760   6.167   4.914
10567SOL    HW132600   1.759   6.093   4.981
10567SOL    HW232601   1.687   6.232   4.936
10568SOL     OW32602   3.988   0.366   4.182
10568SOL    HW132603   3.987   0.464   4.162
10568SOL    HW232604   4.032   0.318   4.106
10569SOL     OW32605   6.648   1.548   3.863
10569SOL    HW132606   6.564   1.505   3.832
10569SOL    HW232607   6.648   1.645   3.838
10570SOL     OW32608   0.859   2.380   1.780
10570SOL    HW132609   0.897   2.367   1.688
10570SOL    HW232610   0.865   2.476   1.806
10571SOL     OW32611   6.562   6.787   5.029
10571SOL    HW132612   6.654   6.751   5.046
10571SOL    HW232613   6.535   6.767   4.935
10572SOL     OW32614   6.271   3.819   3.107
10572SOL    HW132615   6.367   3.840   3.124
10572SOL    HW232616   6.226   3.899   3.067
10573SOL     OW32617   6.769   4.959   5.736
10573SOL    HW132618   6.744   5.050   5.703
10573SOL    HW232619   6.836   4.919   5.673
10574SOL     OW32620   0.326   2.491   3.214
10574SOL    HW132621   0.270   2.420   3.171
10574SOL    HW232622   0.365   2.550   3.143
10575SOL     OW32623   0.122   0.239   5.910
10575SOL    HW132624   0.064   0.203   5.983
10575SOL    HW232625   0.067   0.296   5.849
10576SOL     OW32626   0.527   5.914   3.554
10576SOL    HW132627   0.465   5.978   3.598
10576SOL    HW232628   0.621   5.933   3.584
10577SOL     OW32629   0.348   3.142   5.303
10577SOL    HW132630   0.357   3.235   5.267
10577SOL    HW232631   0.408   3.131   5.382
10578SOL     OW32632   5.844   0.565   5.796
10578SOL    HW132633   5.835   0.665   5.798
10578SOL    HW232634   5.933   0.541   5.759
10579SOL     OW32635   5.681   5.986   0.954
10579SOL    HW132636   5.702   6.078   0.986
10579SOL    HW232637   5.582   5.975   0.945
10580SOL     OW32638   0.912   4.968   1.310
10580SOL    HW132639   0.890   4.895   1.374
10580SOL    HW232640   0.835   5.033   1.306
10581SOL     OW32641   4.079   1.868   3.157
10581SOL    HW132642   4.104   1.948   3.212
10581SOL    HW232643   4.053   1.793   3.218
10582SOL     OW32644   3.447   4.235   6.877
10582SOL    HW132645   3.388   4.155   6.883
10582SOL    HW232646   3.439   4.276   6.786
10583SOL     OW32647   4.745   0.804   1.529
10583SOL    HW132648   4.766   0.714   1.493
10583SOL    HW232649   4.690   0.855   1.463
10584SOL     OW32650   5.873   6.309   1.953
10584SOL    HW132651   5.913   6.294   2.044
10584SOL    HW232652   5.938   6.359   1.896
10585SOL     OW32653   3.326   4.148   6.381
10585SOL    HW132654   3.354   4.242   6.359
10585SOL    HW232655   3.315   4.096   6.296
10586SOL     OW32656   5.343   2.047   1.942
10586SOL    HW132657   5.301   2.132   1.910
10586SOL    HW232658   5.373   1.993   1.863
10587SOL     OW32659   0.042   3.551   0.839
10587SOL    HW132660   7.009   3.468   0.832
10587SOL    HW232661   0.067   3.581   0.747
10588SOL     OW32662   1.821   5.372   3.927
10588SOL    HW132663   1.749   5.352   3.862
10588SOL    HW232664   1.815   5.468   3.956
10589SOL     OW32665   5.494   0.487   4.644
10589SOL    HW132666   5.570   0.546   4.617
10589SOL    HW232667   5.424   0.540   4.691
10590SOL     OW32668   0.965   0.077   4.431
10590SOL    HW132669   0.934   0.032   4.347
10590SOL    HW232670   0.892   0.075   4.499
10591SOL     OW32671   1.552   2.359   1.192
10591SOL    HW132672   1.621   2.389   1.127
10591SOL    HW232673   1.558   2.414   1.275
10592SOL     OW32674   4.975   1.685   6.378
10592SOL    HW132675   5.008   1.630   6.456
10592SOL    HW232676   4.989   1.633   6.294
10593SOL     OW32677   1.301   3.887   2.818
10593SOL    HW132678   1.306   3.796   2.860
10593SOL    HW232679   1.216   3.932   2.846
10594SOL     OW32680   1.776   1.233   3.861
10594SOL    HW132681   1.705   1.163   3.848
10594SOL    HW232682   1.862   1.200   3.821
10595SOL     OW32683   1.462   6.049   5.003
10595SOL    HW132684   1.430   6.118   4.939
10595SOL    HW232685   1.383   6.005   5.047
10596SOL     OW32686   2.351   1.434   0.881
10596SOL    HW132687   2.386   1.361   0.941
10596SOL    HW232688   2.300   1.499   0.937
10597SOL     OW32689   2.195   0.579   3.532
10597SOL    HW132690   2.293   0.580   3.553
10597SOL    HW232691   2.165   0.672   3.513
10598SOL     OW32692   2.933   1.190   0.660
10598SOL    HW132693   2.996   1.161   0.732
10598SOL    HW232694   2.873   1.114   0.635
10599SOL     OW32695   4.889   6.851   6.064
10599SOL    HW132696   4.953   6.786   6.022
10599SOL    HW232697   4.935   6.902   6.136
10600SOL     OW32698   1.785   3.499   5.419
10600SOL    HW132699   1.761   3.421   5.361
10600SOL    HW232700   1.702   3.539   5.457
10601SOL     OW32701   4.444   5.966   5.343
10601SOL    HW132702   4.498   5.882   5.356
10601SOL    HW232703   4.507   6.043   5.330
10602SOL     OW32704   4.489   2.388   2.191
10602SOL    HW132705   4.586   2.388   2.216
10602SOL    HW232706   4.478   2.343   2.103
10603SOL     OW32707   0.753   5.814   5.035
10603SOL    HW132708   0.723   5.832   5.128
10603SOL    HW232709   0.685   5.758   4.988
10604SOL     OW32710   1.073   4.769   6.473
10604SOL    HW132711   1.063   4.680   6.427
10604SOL    HW232712   0.987   4.795   6.515
10605SOL     OW32713   1.660   5.036   0.079
10605SOL    HW132714   1.625   4.970   0.146
10605SOL    HW232715   1.700   4.987   0.002
10606SOL     OW32716   1.145   0.666   1.682
10606SOL    HW132717   1.082   0.657   1.604
10606SOL    HW232718   1.147   0.580   1.732
10607SOL     OW32719   5.275   4.264   0.014
10607SOL    HW132720   5.224   4.192   0.062
10607SOL    HW232721   5.364   4.228   7.009
10608SOL     OW32722   5.114   6.421   2.090
10608SOL    HW132723   5.178   6.466   2.027
10608SOL    HW232724   5.024   6.464   2.083
10609SOL     OW32725   3.735   6.665   3.379
10609SOL    HW132726   3.686   6.616   3.307
10609SOL    HW232727   3.679   6.740   3.413
10610SOL     OW32728   2.046   4.721   5.137
10610SOL    HW132729   2.094   4.750   5.054
10610SOL    HW232730   1.979   4.790   5.164
10611SOL     OW32731   5.167   1.855   6.077
10611SOL    HW132732   5.225   1.787   6.031
10611SOL    HW232733   5.217   1.942   6.083
10612SOL     OW32734   1.394   0.552   1.572
10612SOL    HW132735   1.408   0.571   1.475
10612SOL    HW232736   1.326   0.616   1.610
10613SOL     OW32737   1.732   6.669   6.992
10613SOL    HW132738   1.670   6.598   0.003
10613SOL    HW232739   1.714   6.687   6.896
10614SOL     OW32740   0.913   0.612   3.077
10614SOL    HW132741   0.879   0.624   2.983
10614SOL    HW232742   0.848   0.556   3.129
10615SOL     OW32743   0.818   6.151   5.457
10615SOL    HW132744   0.743   6.144   5.524
10615SOL    HW232745   0.901   6.112   5.497
10616SOL     OW32746   3.483   5.627   1.772
10616SOL    HW132747   3.425   5.631   1.853
10616SOL    HW232748   3.480   5.535   1.733
10617SOL     OW32749   6.169   2.094   6.569
10617SOL    HW132750   6.114   2.157   6.624
10617SOL    HW232751   6.136   2.094   6.475
10618SOL     OW32752   6.746   3.865   1.435
10618SOL    HW132753   6.790   3.778   1.413
10618SOL    HW232754   6.659   3.871   1.386
10619SOL     OW32755   0.299   3.348   3.931
10619SOL    HW132756   0.364   3.419   3.907
10619SOL    HW232757   0.276   3.354   4.028
10620SOL     OW32758   1.777   5.196   3.668
10620SOL    HW132759   1.870   5.197   3.704
10620SOL    HW232760   1.756   5.105   3.632
10621SOL     OW32761   3.654   1.180   0.416
10621SOL    HW132762   3.567   1.151   0.378
10621SOL    HW232763   3.655   1.163   0.515
10622SOL     OW32764   4.595   2.503   0.763
10622SOL    HW132765   4.535   2.512   0.842
10622SOL    HW232766   4.659   2.580   0.760
10623SOL     OW32767   6.339   1.545   4.138
10623SOL    HW132768   6.330   1.460   4.085
10623SOL    HW232769   6.276   1.541   4.216
10624SOL     OW32770   3.090   1.353   3.219
10624SOL    HW132771   3.012   1.368   3.280
10624SOL    HW232772   3.131   1.264   3.239
10625SOL     OW32773   0.568   2.585   1.681
10625SOL    HW132774   0.488   2.552   1.631
10625SOL    HW232775   0.626   2.507   1.705
10626SOL     OW32776   6.668   1.519   2.715
10626SOL    HW132777   6.637   1.600   2.666
10626SOL    HW232778   6.699   1.449   2.650
10627SOL     OW32779   2.961   5.201   4.564
10627SOL    HW132780   2.868   5.201   4.525
10627SOL    HW232781   2.990   5.107   4.580
10628SOL     OW32782   0.386   0.536   4.938
10628SOL    HW132783   0.416   0.615   4.991
10628SOL    HW232784   0.417   0.452   4.983
10629SOL     OW32785   3.548   3.780   6.444
10629SOL    HW132786   3.470   3.798   6.504
10629SOL    HW232787   3.587   3.690   6.465
10630SOL     OW32788   5.291   1.155   1.285
10630SOL    HW132789   5.279   1.107   1.197
10630SOL    HW232790   5.379   1.130   1.325
10631SOL     OW32791   1.522   6.829   4.177
10631SOL    HW132792   1.477   6.918   4.171
10631SOL    HW232793   1.458   6.757   4.149
10632SOL     OW32794   6.603   3.114   0.677
10632SOL    HW132795   6.634   3.161   0.594
10632SOL    HW232796   6.651   3.027   0.685
10633SOL     OW32797   1.793   4.894   5.852
10633SOL    HW132798   1.753   4.954   5.783
10633SOL    HW232799   1.832   4.814   5.808
10634SOL     OW32800   3.374   6.544   2.629
10634SOL    HW132801   3.332   6.634   2.643
10634SOL    HW232802   3.348   6.510   2.538
10635SOL     OW32803   0.622   0.477   1.457
10635SOL    HW132804   0.564   0.557   1.440
10635SOL    HW232805   0.621   0.456   1.555
10636SOL     OW32806   5.323   1.911   6.567
10636SOL    HW132807   5.355   1.892   6.474
10636SOL    HW232808   5.305   1.825   6.614
10637SOL     OW32809   3.683   3.589   6.902
10637SOL    HW132810   3.717   3.607   6.809
10637SOL    HW232811   3.759   3.596   6.967
10638SOL     OW32812   6.487   1.727   5.858
10638SOL    HW132813   6.389   1.743   5.868
10638SOL    HW232814   6.503   1.632   5.829
10639SOL     OW32815   3.499   1.318   3.519
10639SOL    HW132816   3.416   1.360   3.556
10639SOL    HW232817   3.474   1.255   3.446
10640SOL     OW32818   4.814   6.414   0.477
10640SOL    HW132819   4.744   6.398   0.407
10640SOL    HW232820   4.777   6.390   0.567
10641SOL     OW32821   3.539   6.986   0.371
10641SOL    HW132822   3.575   0.005   0.287
10641SOL    HW232823   3.601   7.005   0.447
10642SOL     OW32824   0.561   6.208   2.130
10642SOL    HW132825   0.492   6.175   2.194
10642SOL    HW232826   0.651   6.206   2.173
10643SOL     OW32827   3.856   3.802   5.626
10643SOL    HW132828   3.873   3.796   5.725
10643SOL    HW232829   3.943   3.795   5.578
10644SOL     OW32830   4.242   1.676   5.516
10644SOL    HW132831   4.145   1.683   5.539
10644SOL    HW232832   4.258   1.719   5.427
10645SOL     OW32833   1.762   1.369   2.956
10645SOL    HW132834   1.667   1.395   2.942
10645SOL    HW232835   1.773   1.329   3.048
10646SOL     OW32836   6.931   4.360   0.301
10646SOL    HW132837   0.006   4.340   0.307
10646SOL    HW232838   6.884   4.284   0.257
10647SOL     OW32839   6.381   6.297   1.546
10647SOL    HW132840   6.373   6.396   1.546
10647SOL    HW232841   6.478   6.271   1.552
10648SOL     OW32842   4.458   3.888   5.717
10648SOL    HW132843   4.362   3.869   5.736
10648SOL    HW232844   4.467   3.938   5.631
10649SOL     OW32845   6.653   4.492   5.958
10649SOL    HW132846   6.627   4.474   6.053
10649SOL    HW232847   6.734   4.552   5.957
10650SOL     OW32848   1.928   1.338   5.455
10650SOL    HW132849   1.953   1.265   5.519
10650SOL    HW232850   1.858   1.396   5.495
10651SOL     OW32851   1.398   0.988   5.549
10651SOL    HW132852   1.433   1.048   5.478
10651SOL    HW232853   1.301   0.970   5.533
10652SOL     OW32854   4.527   0.574   0.673
10652SOL    HW132855   4.508   0.497   0.733
10652SOL    HW232856   4.534   0.542   0.578
10653SOL     OW32857   5.696   4.511   3.257
10653SOL    HW132858   5.764   4.443   3.283
10653SOL    HW232859   5.739   4.582   3.201
10654SOL     OW32860   5.051   6.865   1.173
10654SOL    HW132861   4.960   6.824   1.179
10654SOL    HW232862   5.085   6.884   1.265
10655SOL     OW32863   3.836   6.128   0.481
10655SOL    HW132864   3.901   6.165   0.548
10655SOL    HW232865   3.858   6.032   0.462
10656SOL     OW32866   0.580   3.508   5.927
10656SOL    HW132867   0.576   3.549   5.836
10656SOL    HW232868   0.511   3.436   5.934
10657SOL     OW32869   6.176   0.563   6.435
10657SOL    HW132870   6.196   0.473   6.474
10657SOL    HW232871   6.114   0.553   6.358
10658SOL     OW32872   0.032   6.037   3.633
10658SOL    HW132873   0.132   6.037   3.632
10658SOL    HW232874   7.021   6.130   3.616
10659SOL     OW32875   5.910   1.436   2.350
10659SOL    HW132876   5.892   1.390   2.437
10659SOL    HW232877   6.008   1.456   2.343
10660SOL     OW32878   4.731   4.715   5.060
10660SOL    HW132879   4.777   4.797   5.095
10660SOL    HW232880   4.744   4.640   5.124
10661SOL     OW32881   6.447   1.061   1.861
10661SOL    HW132882   6.428   1.094   1.768
10661SOL    HW232883   6.530   1.105   1.895
10662SOL     OW32884   0.718   2.062   0.670
10662SOL    HW132885   0.641   2.017   0.623
10662SOL    HW232886   0.684   2.115   0.747
10663SOL     OW32887   0.936   2.762   2.994
10663SOL    HW132888   0.991   2.739   2.914
10663SOL    HW232889   0.875   2.685   3.016
10664SOL     OW32890   2.109   5.364   6.301
10664SOL    HW132891   2.206   5.341   6.300
10664SOL    HW232892   2.065   5.329   6.218
10665SOL     OW32893   5.974   2.315   6.583
10665SOL    HW132894   6.027   2.323   6.499
10665SOL    HW232895   5.887   2.272   6.563
10666SOL     OW32896   0.291   6.070   1.054
10666SOL    HW132897   0.278   5.990   1.112
10666SOL    HW232898   0.389   6.079   1.032
10667SOL     OW32899   3.381   2.454   5.759
10667SOL    HW132900   3.435   2.530   5.796
10667SOL    HW232901   3.389   2.375   5.820
10668SOL     OW32902   1.546   0.011   6.451
10668SOL    HW132903   1.637   0.048   6.433
10668SOL    HW232904   1.491   0.081   6.497
10669SOL     OW32905   1.829   5.227   6.363
10669SOL    HW132906   1.879   5.219   6.449
10669SOL    HW232907   1.891   5.256   6.290
10670SOL     OW32908   5.984   4.000   5.276
10670SOL    HW132909   6.048   3.961   5.209
10670SOL    HW232910   5.904   3.940   5.284
10671SOL     OW32911   2.158   3.255   3.838
10671SOL    HW132912   2.184   3.283   3.746
10671SOL    HW232913   2.142   3.337   3.894
10672SOL     OW32914   6.364   2.635   0.715
10672SOL    HW132915   6.452   2.681   0.730
10672SOL    HW232916   6.366   2.545   0.757
10673SOL     OW32917   3.402   4.186   3.139
10673SOL    HW132918   3.310   4.200   3.176
10673SOL    HW232919   3.396   4.164   3.042
10674SOL     OW32920   3.052   1.848   2.551
10674SOL    HW132921   3.052   1.941   2.515
10674SOL    HW232922   3.083   1.784   2.481
10675SOL     OW32923   1.591   2.127   5.381
10675SOL    HW132924   1.593   2.217   5.425
10675SOL    HW232925   1.540   2.134   5.295
10676SOL     OW32926   6.468   0.652   0.012
10676SOL    HW132927   6.548   0.703   7.004
10676SOL    HW232928   6.427   0.697   0.091
10677SOL     OW32929   5.214   6.971   6.392
10677SOL    HW132930   5.275   6.899   6.360
10677SOL    HW232931   5.160   6.936   6.470
10678SOL     OW32932   1.888   5.987   3.763
10678SOL    HW132933   1.958   5.987   3.692
10678SOL    HW232934   1.798   6.002   3.721
10679SOL     OW32935   6.180   5.122   4.575
10679SOL    HW132936   6.107   5.152   4.636
10679SOL    HW232937   6.249   5.193   4.567
10680SOL     OW32938   0.413   2.269   3.598
10680SOL    HW132939   0.440   2.347   3.542
10680SOL    HW232940   0.426   2.291   3.695
10681SOL     OW32941   0.577   3.632   6.955
10681SOL    HW132942   0.509   3.568   6.917
10681SOL    HW232943   0.649   3.648   6.888
10682SOL     OW32944   6.482   2.419   3.731
10682SOL    HW132945   6.439   2.486   3.670
10682SOL    HW232946   6.466   2.327   3.696
10683SOL     OW32947   1.063   0.305   4.277
10683SOL    HW132948   1.076   0.268   4.185
10683SOL    HW232949   1.032   0.232   4.338
10684SOL     OW32950   5.371   6.262   0.775
10684SOL    HW132951   5.284   6.271   0.727
10684SOL    HW232952   5.379   6.333   0.845
10685SOL     OW32953   6.417   2.115   4.231
10685SOL    HW132954   6.359   2.191   4.201
10685SOL    HW232955   6.398   2.034   4.176
10686SOL     OW32956   5.328   3.720   1.529
10686SOL    HW132957   5.260   3.778   1.485
10686SOL    HW232958   5.411   3.717   1.473
10687SOL     OW32959   0.630   5.040   1.298
10687SOL    HW132960   0.538   5.079   1.298
10687SOL    HW232961   0.641   4.981   1.218
10688SOL     OW32962   1.698   5.329   1.523
10688SOL    HW132963   1.721   5.262   1.593
10688SOL    HW232964   1.782   5.368   1.485
10689SOL     OW32965   6.678   1.339   2.194
10689SOL    HW132966   6.707   1.251   2.229
10689SOL    HW232967   6.578   1.346   2.201
10690SOL     OW32968   3.750   0.712   2.345
10690SOL    HW132969   3.725   0.801   2.384
10690SOL    HW232970   3.798   0.658   2.415
10691SOL     OW32971   5.024   1.763   2.180
10691SOL    HW132972   4.964   1.802   2.250
10691SOL    HW232973   4.975   1.689   2.132
10692SOL     OW32974   5.582   6.351   4.324
10692SOL    HW132975   5.592   6.448   4.347
10692SOL    HW232976   5.596   6.296   4.406
10693SOL     OW32977   4.452   2.425   4.557
10693SOL    HW132978   4.542   2.462   4.531
10693SOL    HW232979   4.427   2.459   4.648
10694SOL     OW32980   3.575   6.715   0.305
10694SOL    HW132981   3.603   6.798   0.353
10694SOL    HW232982   3.595   6.635   0.362
10695SOL     OW32983   5.696   3.010   5.664
10695SOL    HW132984   5.639   2.975   5.739
10695SOL    HW232985   5.745   3.091   5.695
10696SOL     OW32986   6.319   0.676   0.775
10696SOL    HW132987   6.381   0.615   0.726
10696SOL    HW232988   6.370   0.753   0.811
10697SOL     OW32989   3.301   5.601   3.029
10697SOL    HW132990   3.396   5.633   3.018
10697SOL    HW232991   3.293   5.508   2.994
10698SOL     OW32992   3.855   6.991   3.548
10698SOL    HW132993   3.889   6.966   3.638
10698SOL    HW232994   3.763   6.954   3.535
10699SOL     OW32995   0.056   3.962   3.764
10699SOL    HW132996   7.022   4.031   3.719
10699SOL    HW232997   0.051   3.973   3.863
10700SOL     OW32998   0.227   2.563   3.469
10700SOL    HW132999   0.130   2.570   3.446
10700SOL    HW233000   0.280   2.552   3.385
10701SOL     OW33001   1.738   6.840   1.476
10701SOL    HW133002   1.787   6.843   1.563
10701SOL    HW233003   1.662   6.775   1.483
10702SOL     OW33004   4.810   1.967   1.144
10702SOL    HW133005   4.712   1.962   1.127
10702SOL    HW233006   4.835   2.060   1.171
10703SOL     OW33007   3.415   4.133   4.926
10703SOL    HW133008   3.514   4.125   4.932
10703SOL    HW233009   3.380   4.172   5.012
10704SOL     OW33010   5.524   5.465   1.820
10704SOL    HW133011   5.512   5.385   1.761
10704SOL    HW233012   5.514   5.548   1.766
10705SOL     OW33013   1.066   3.437   0.561
10705SOL    HW133014   1.059   3.367   0.490
10705SOL    HW233015   0.982   3.438   0.616
10706SOL     OW33016   3.279   3.869   0.399
10706SOL    HW133017   3.268   3.790   0.459
10706SOL    HW233018   3.324   3.841   0.314
10707SOL     OW33019   5.968   1.218   6.347
10707SOL    HW133020   5.946   1.161   6.268
10707SOL    HW233021   6.065   1.242   6.345
10708SOL     OW33022   4.388   3.460   1.022
10708SOL    HW133023   4.424   3.388   0.963
10708SOL    HW233024   4.445   3.467   1.104
10709SOL     OW33025   0.537   1.291   5.745
10709SOL    HW133026   0.617   1.350   5.733
10709SOL    HW233027   0.567   1.195   5.750
10710SOL     OW33028   6.764   6.897   3.560
10710SOL    HW133029   6.764   6.985   3.512
10710SOL    HW233030   6.809   6.828   3.502
10711SOL     OW33031   2.251   4.278   4.920
10711SOL    HW133032   2.152   4.268   4.911
10711SOL    HW233033   2.287   4.204   4.976
10712SOL     OW33034   3.667   2.270   5.676
10712SOL    HW133035   3.750   2.228   5.640
10712SOL    HW233036   3.605   2.294   5.601
10713SOL     OW33037   2.430   6.969   6.668
10713SOL    HW133038   2.510   7.015   6.630
10713SOL    HW233039   2.376   6.929   6.594
10714SOL     OW33040   5.698   5.058   4.583
10714SOL    HW133041   5.630   5.128   4.564
10714SOL    HW233042   5.736   5.071   4.674
10715SOL     OW33043   5.566   6.865   2.516
10715SOL    HW133044   5.497   6.937   2.523
10715SOL    HW233045   5.572   6.816   2.603
10716SOL     OW33046   6.470   2.038   2.917
10716SOL    HW133047   6.428   2.112   2.970
10716SOL    HW233048   6.566   2.030   2.941
10717SOL     OW33049   0.094   6.656   1.356
10717SOL    HW133050   0.147   6.645   1.271
10717SOL    HW233051   0.057   6.749   1.360
10718SOL     OW33052   0.378   4.795   5.539
10718SOL    HW133053   0.429   4.718   5.578
10718SOL    HW233054   0.310   4.760   5.474
10719SOL     OW33055   3.949   6.202   2.976
10719SOL    HW133056   3.871   6.256   3.007
10719SOL    HW233057   3.916   6.114   2.941
10720SOL     OW33058   1.304   3.599   5.631
10720SOL    HW133059   1.260   3.564   5.713
10720SOL    HW233060   1.250   3.573   5.550
10721SOL     OW33061   5.630   0.265   4.567
10721SOL    HW133062   5.613   0.225   4.477
10721SOL    HW233063   5.553   0.323   4.592
10722SOL     OW33064   0.917   5.000   1.037
10722SOL    HW133065   0.836   4.957   0.995
10722SOL    HW233066   0.911   4.991   1.137
10723SOL     OW33067   0.278   5.488   6.438
10723SOL    HW133068   0.353   5.438   6.482
10723SOL    HW233069   0.230   5.427   6.375
10724SOL     OW33070   3.456   6.749   5.926
10724SOL    HW133071   3.521   6.819   5.957
10724SOL    HW233072   3.484   6.660   5.961
10725SOL     OW33073   6.685   0.259   5.112
10725SOL    HW133074   6.681   0.358   5.097
10725SOL    HW233075   6.706   0.213   5.025
10726SOL     OW33076   0.196   1.212   3.672
10726SOL    HW133077   0.263   1.171   3.610
10726SOL    HW233078   0.141   1.139   3.713
10727SOL     OW33079   5.582   5.571   6.067
10727SOL    HW133080   5.507   5.628   6.102
10727SOL    HW233081   5.667   5.597   6.111
10728SOL     OW33082   5.219   5.775   4.893
10728SOL    HW133083   5.291   5.813   4.835
10728SOL    HW233084   5.257   5.706   4.953
10729SOL     OW33085   6.390   2.961   4.572
10729SOL    HW133086   6.350   3.003   4.491
10729SOL    HW233087   6.319   2.943   4.640
10730SOL     OW33088   0.774   5.883   4.139
10730SOL    HW133089   0.847   5.901   4.074
10730SOL    HW233090   0.729   5.969   4.164
10731SOL     OW33091   5.068   3.997   5.629
10731SOL    HW133092   5.125   4.076   5.654
10731SOL    HW233093   5.083   3.923   5.695
10732SOL     OW33094   5.866   5.285   1.845
10732SOL    HW133095   5.781   5.338   1.845
10732SOL    HW233096   5.862   5.215   1.775
10733SOL     OW33097   0.937   2.175   5.863
10733SOL    HW133098   0.959   2.269   5.889
10733SOL    HW233099   0.839   2.159   5.874
10734SOL     OW33100   0.717   1.501   4.116
10734SOL    HW133101   0.703   1.575   4.183
10734SOL    HW233102   0.801   1.518   4.065
10735SOL     OW33103   0.453   1.115   2.563
10735SOL    HW133104   0.421   1.180   2.494
10735SOL    HW233105   0.493   1.166   2.640
10736SOL     OW33106   5.204   6.013   4.045
10736SOL    HW133107   5.165   6.103   4.022
10736SOL    HW233108   5.144   5.941   4.010
10737SOL     OW33109   5.837   1.640   0.650
10737SOL    HW133110   5.740   1.641   0.674
10737SOL    HW233111   5.869   1.545   0.642
10738SOL     OW33112   0.886   6.605   2.380
10738SOL    HW133113   0.926   6.519   2.351
10738SOL    HW233114   0.788   6.605   2.359
10739SOL     OW33115   5.230   2.675   3.887
10739SOL    HW133116   5.237   2.660   3.788
10739SOL    HW233117   5.138   2.707   3.910
10740SOL     OW33118   3.056   1.211   6.753
10740SOL    HW133119   3.039   1.180   6.847
10740SOL    HW233120   2.979   1.266   6.721
10741SOL     OW33121   2.424   2.712   3.808
10741SOL    HW133122   2.370   2.682   3.730
10741SOL    HW233123   2.406   2.809   3.825
10742SOL     OW33124   6.308   0.502   2.464
10742SOL    HW133125   6.407   0.488   2.452
10742SOL    HW233126   6.283   0.592   2.428
10743SOL     OW33127   4.535   3.165   6.584
10743SOL    HW133128   4.524   3.247   6.640
10743SOL    HW233129   4.476   3.092   6.619
10744SOL     OW33130   1.826   1.518   1.131
10744SOL    HW133131   1.861   1.486   1.219
10744SOL    HW233132   1.730   1.491   1.123
10745SOL     OW33133   3.702   6.057   2.317
10745SOL    HW133134   3.782   6.116   2.318
10745SOL    HW233135   3.715   5.982   2.382
10746SOL     OW33136   2.672   5.645   4.756
10746SOL    HW133137   2.616   5.645   4.838
10746SOL    HW233138   2.767   5.666   4.781
10747SOL     OW33139   6.809   0.270   5.417
10747SOL    HW133140   6.720   0.225   5.412
10747SOL    HW233141   6.798   0.368   5.400
10748SOL     OW33142   3.158   6.340   1.799
10748SOL    HW133143   3.177   6.313   1.705
10748SOL    HW233144   3.192   6.433   1.814
10749SOL     OW33145   5.414   2.010   2.822
10749SOL    HW133146   5.426   1.962   2.735
10749SOL    HW233147   5.438   1.949   2.897
10750SOL     OW33148   3.471   2.098   3.797
10750SOL    HW133149   3.525   2.124   3.876
10750SOL    HW233150   3.531   2.089   3.717
10751SOL     OW33151   5.695   6.079   2.949
10751SOL    HW133152   5.620   6.116   2.894
10751SOL    HW233153   5.697   6.125   3.038
10752SOL     OW33154   6.947   6.275   6.707
10752SOL    HW133155   6.996   6.286   6.794
10752SOL    HW233156   6.911   6.364   6.678
10753SOL     OW33157   5.000   6.767   5.217
10753SOL    HW133158   4.979   6.673   5.192
10753SOL    HW233159   4.917   6.822   5.212
10754SOL     OW33160   6.292   5.504   2.000
10754SOL    HW133161   6.262   5.430   1.941
10754SOL    HW233162   6.215   5.564   2.020
10755SOL     OW33163   0.577   1.217   2.790
10755SOL    HW133164   0.640   1.282   2.831
10755SOL    HW233165   0.585   1.129   2.836
10756SOL     OW33166   0.819   6.331   0.000
10756SOL    HW133167   0.749   6.285   6.969
10756SOL    HW233168   0.848   6.414   6.975
10757SOL     OW33169   0.678   1.959   2.570
10757SOL    HW133170   0.696   1.862   2.552
10757SOL    HW233171   0.748   1.995   2.632
10758SOL     OW33172   0.554   1.332   1.024
10758SOL    HW133173   0.515   1.283   0.946
10758SOL    HW233174   0.651   1.350   1.007
10759SOL     OW33175   3.359   5.506   5.460
10759SOL    HW133176   3.416   5.426   5.443
10759SOL    HW233177   3.265   5.485   5.431
10760SOL     OW33178   1.139   4.931   6.732
10760SOL    HW133179   1.127   4.956   6.636
10760SOL    HW233180   1.051   4.941   6.779
10761SOL     OW33181   1.274   0.273   0.130
10761SOL    HW133182   1.353   0.290   0.071
10761SOL    HW233183   1.196   0.248   0.073
10762SOL     OW33184   1.609   5.332   0.915
10762SOL    HW133185   1.612   5.234   0.898
10762SOL    HW233186   1.553   5.351   0.996
10763SOL     OW33187   5.879   1.537   1.692
10763SOL    HW133188   5.973   1.567   1.710
10763SOL    HW233189   5.866   1.445   1.728
10764SOL     OW33190   5.064   0.039   3.523
10764SOL    HW133191   5.162   0.025   3.511
10764SOL    HW233192   5.048   0.124   3.574
10765SOL     OW33193   6.868   2.548   2.007
10765SOL    HW133194   6.785   2.588   1.968
10765SOL    HW233195   6.891   2.464   1.958
10766SOL     OW33196   3.528   6.330   0.145
10766SOL    HW133197   3.461   6.282   0.088
10766SOL    HW233198   3.528   6.291   0.237
10767SOL     OW33199   0.476   5.360   0.230
10767SOL    HW133200   0.430   5.412   0.159
10767SOL    HW233201   0.543   5.418   0.276
10768SOL     OW33202   6.883   6.232   0.491
10768SOL    HW133203   6.815   6.290   0.535
10768SOL    HW233204   6.838   6.157   0.442
10769SOL     OW33205   2.860   3.440   4.084
10769SOL    HW133206   2.843   3.356   4.134
10769SOL    HW233207   2.869   3.420   3.986
10770SOL     OW33208   4.568   0.952   5.335
10770SOL    HW133209   4.583   0.972   5.238
10770SOL    HW233210   4.627   1.011   5.391
10771SOL     OW33211   5.107   6.191   5.778
10771SOL    HW133212   5.198   6.230   5.793
10771SOL    HW233213   5.050   6.256   5.727
10772SOL     OW33214   5.366   3.099   4.008
10772SOL    HW133215   5.371   3.184   4.060
10772SOL    HW233216   5.272   3.083   3.978
10773SOL     OW33217   0.830   3.760   0.480
10773SOL    HW133218   0.912   3.775   0.535
10773SOL    HW233219   0.835   3.672   0.434
10774SOL     OW33220   6.312   2.861   1.880
10774SOL    HW133221   6.321   2.955   1.848
10774SOL    HW233222   6.298   2.800   1.801
10775SOL     OW33223   1.816   4.556   6.328
10775SOL    HW133224   1.746   4.563   6.257
10775SOL    HW233225   1.906   4.577   6.290
10776SOL     OW33226   0.168   3.600   3.793
10776SOL    HW133227   0.159   3.658   3.713
10776SOL    HW233228   0.144   3.506   3.769
10777SOL     OW33229   0.244   6.816   2.241
10777SOL    HW133230   0.213   6.904   2.206
10777SOL    HW233231   0.291   6.766   2.168
10778SOL     OW33232   4.340   6.563   3.247
10778SOL    HW133233   4.386   6.619   3.316
10778SOL    HW233234   4.279   6.498   3.291
10779SOL     OW33235   5.251   2.867   5.973
10779SOL    HW133236   5.273   2.823   5.886
10779SOL    HW233237   5.196   2.949   5.956
10780SOL     OW33238   1.059   5.831   4.376
10780SOL    HW133239   1.044   5.790   4.465
10780SOL    HW233240   1.047   5.762   4.304
10781SOL     OW33241   6.322   2.883   5.838
10781SOL    HW133242   6.286   2.824   5.765
10781SOL    HW233243   6.262   2.877   5.918
10782SOL     OW33244   1.485   3.553   4.724
10782SOL    HW133245   1.583   3.570   4.728
10782SOL    HW233246   1.435   3.637   4.749
10783SOL     OW33247   0.991   4.048   4.564
10783SOL    HW133248   1.059   4.097   4.619
10783SOL    HW233249   1.031   3.963   4.529
10784SOL     OW33250   5.049   6.036   3.381
10784SOL    HW133251   5.039   6.134   3.363
10784SOL    HW233252   5.077   6.022   3.476
10785SOL     OW33253   1.541   5.682   1.839
10785SOL    HW133254   1.583   5.656   1.752
10785SOL    HW233255   1.480   5.609   1.869
10786SOL     OW33256   4.561   1.717   2.546
10786SOL    HW133257   4.465   1.717   2.572
10786SOL    HW233258   4.571   1.686   2.452
10787SOL     OW33259   3.277   1.194   3.355
10787SOL    HW133260   3.311   1.109   3.314
10787SOL    HW233261   3.236   1.174   3.444
10788SOL     OW33262   1.412   2.989   6.974
10788SOL    HW133263   1.319   2.966   6.946
10788SOL    HW233264   1.453   2.911   7.021
10789SOL     OW33265   0.155   2.037   2.562
10789SOL    HW133266   0.208   2.109   2.606
10789SOL    HW233267   0.077   2.078   2.514
10790SOL     OW33268   6.890   2.951   4.649
10790SOL    HW133269   6.835   2.921   4.571
10790SOL    HW233270   6.984   2.918   4.637
10791SOL     OW33271   1.956   3.069   3.884
10791SOL    HW133272   2.009   2.992   3.919
10791SOL    HW233273   2.018   3.145   3.863
10792SOL     OW33274   2.968   0.545   1.486
10792SOL    HW133275   3.061   0.527   1.455
10792SOL    HW233276   2.905   0.543   1.408
10793SOL     OW33277   3.700   2.063   3.638
10793SOL    HW133278   3.699   2.078   3.539
10793SOL    HW233279   3.710   1.965   3.657
10794SOL     OW33280   5.075   2.935   0.613
10794SOL    HW133281   5.095   2.978   0.526
10794SOL    HW233282   5.161   2.905   0.656
10795SOL     OW33283   5.981   2.654   3.887
10795SOL    HW133284   6.032   2.578   3.847
10795SOL    HW233285   6.006   2.739   3.840
10796SOL     OW33286   6.846   1.641   6.896
10796SOL    HW133287   6.893   1.612   6.813
10796SOL    HW233288   6.781   1.570   6.924
10797SOL     OW33289   6.021   4.486   6.645
10797SOL    HW133290   5.922   4.491   6.628
10797SOL    HW233291   6.049   4.566   6.698
10798SOL     OW33292   3.451   5.867   0.801
10798SOL    HW133293   3.386   5.805   0.756
10798SOL    HW233294   3.429   5.961   0.776
10799SOL     OW33295   2.042   1.265   2.938
10799SOL    HW133296   1.953   1.302   2.911
10799SOL    HW233297   2.039   1.237   3.034
10800SOL     OW33298   0.955   0.774   5.250
10800SOL    HW133299   0.985   0.840   5.319
10800SOL    HW233300   0.975   0.810   5.159
10801SOL     OW33301   3.069   6.068   6.826
10801SOL    HW133302   3.067   6.091   6.728
10801SOL    HW233303   3.060   6.151   6.880
10802SOL     OW33304   1.050   5.031   3.061
10802SOL    HW133305   1.142   4.995   3.074
10802SOL    HW233306   1.054   5.112   3.002
10803SOL     OW33307   0.414   4.832   4.567
10803SOL    HW133308   0.328   4.796   4.602
10803SOL    HW233309   0.410   4.932   4.565
10804SOL     OW33310   5.190   5.111   6.022
10804SOL    HW133311   5.267   5.111   5.958
10804SOL    HW233312   5.216   5.062   6.106
10805SOL     OW33313   5.551   5.126   6.646
10805SOL    HW133314   5.556   5.114   6.745
10805SOL    HW233315   5.643   5.146   6.611
10806SOL     OW33316   0.011   2.899   5.423
10806SOL    HW133317   0.031   2.809   5.463
10806SOL    HW233318   6.989   2.957   5.491
10807SOL     OW33319   4.186   2.667   5.621
10807SOL    HW133320   4.090   2.663   5.650
10807SOL    HW233321   4.232   2.742   5.669
10808SOL     OW33322   0.143   2.629   0.904
10808SOL    HW133323   0.179   2.538   0.925
10808SOL    HW233324   0.113   2.673   0.988
10809SOL     OW33325   1.148   0.864   3.356
10809SOL    HW133326   1.130   0.962   3.357
10809SOL    HW233327   1.070   0.815   3.394
10810SOL     OW33328   1.828   1.657   6.099
10810SOL    HW133329   1.876   1.691   6.019
10810SOL    HW233330   1.840   1.558   6.106
10811SOL     OW33331   3.976   5.347   6.620
10811SOL    HW133332   3.914   5.273   6.597
10811SOL    HW233333   4.023   5.378   6.538
10812SOL     OW33334   6.371   3.044   2.127
10812SOL    HW133335   6.326   2.997   2.051
10812SOL    HW233336   6.413   3.129   2.094
10813SOL     OW33337   2.607   5.347   2.364
10813SOL    HW133338   2.563   5.424   2.317
10813SOL    HW233339   2.706   5.363   2.368
10814SOL     OW33340   1.505   5.794   4.274
10814SOL    HW133341   1.559   5.841   4.205
10814SOL    HW233342   1.560   5.720   4.314
10815SOL     OW33343   5.714   2.729   6.222
10815SOL    HW133344   5.631   2.693   6.179
10815SOL    HW233345   5.748   2.807   6.169
10816SOL     OW33346   2.261   2.089   1.390
10816SOL    HW133347   2.267   2.166   1.326
10816SOL    HW233348   2.196   2.111   1.462
10817SOL     OW33349   4.095   1.511   1.937
10817SOL    HW133350   4.011   1.503   1.990
10817SOL    HW233351   4.098   1.599   1.890
10818SOL     OW33352   4.520   3.592   5.681
10818SOL    HW133353   4.511   3.690   5.665
10818SOL    HW233354   4.574   3.577   5.764
10819SOL     OW33355   2.009   3.313   5.052
10819SOL    HW133356   2.065   3.245   5.004
10819SOL    HW233357   2.068   3.368   5.112
10820SOL     OW33358   0.947   6.383   4.637
10820SOL    HW133359   0.999   6.298   4.641
10820SOL    HW233360   0.898   6.388   4.549
10821SOL     OW33361   6.785   0.827   5.728
10821SOL    HW133362   6.758   0.741   5.771
10821SOL    HW233363   6.766   0.822   5.630
10822SOL     OW33364   0.701   5.951   6.196
10822SOL    HW133365   0.754   5.975   6.115
10822SOL    HW233366   0.633   5.882   6.171
10823SOL     OW33367   2.916   2.128   0.446
10823SOL    HW133368   2.931   2.150   0.543
10823SOL    HW233369   2.818   2.134   0.425
10824SOL     OW33370   5.085   1.518   4.418
10824SOL    HW133371   5.171   1.553   4.381
10824SOL    HW233372   5.020   1.504   4.343
10825SOL     OW33373   4.386   2.187   1.966
10825SOL    HW133374   4.302   2.158   1.920
10825SOL    HW233375   4.444   2.107   1.983
10826SOL     OW33376   6.739   3.473   0.628
10826SOL    HW133377   6.740   3.407   0.703
10826SOL    HW233378   6.737   3.565   0.666
10827SOL     OW33379   6.870   3.389   4.830
10827SOL    HW133380   6.902   3.298   4.804
10827SOL    HW233381   6.789   3.413   4.777
10828SOL     OW33382   2.899   4.531   0.071
10828SOL    HW133383   2.924   4.458   0.135
10828SOL    HW233384   2.853   4.491   7.014
10829SOL     OW33385   1.339   3.633   1.608
10829SOL    HW133386   1.380   3.722   1.625
10829SOL    HW233387   1.409   3.562   1.619
10830SOL     OW33388   6.342   0.475   3.697
10830SOL    HW133389   6.407   0.414   3.742
10830SOL    HW233390   6.256   0.426   3.680
10831SOL     OW33391   5.529   3.313   2.720
10831SOL    HW133392   5.449   3.372   2.728
10831SOL    HW233393   5.584   3.320   2.803
10832SOL     OW33394   1.785   2.884   2.359
10832SOL    HW133395   1.730   2.872   2.276
10832SOL    HW233396   1.800   2.981   2.375
10833SOL     OW33397   3.807   0.549   4.632
10833SOL    HW133398   3.713   0.525   4.656
10833SOL    HW233399   3.870   0.490   4.683
10834SOL     OW33400   0.234   2.158   6.272
10834SOL    HW133401   0.144   2.145   6.314
10834SOL    HW233402   0.242   2.101   6.191
10835SOL     OW33403   0.536   1.020   1.239
10835SOL    HW133404   0.472   1.050   1.310
10835SOL    HW233405   0.503   0.935   1.198
10836SOL     OW33406   6.382   1.174   1.622
10836SOL    HW133407   6.459   1.238   1.631
10836SOL    HW233408   6.312   1.214   1.564
10837SOL     OW33409   2.238   4.786   0.736
10837SOL    HW133410   2.295   4.842   0.797
10837SOL    HW233411   2.228   4.694   0.774
10838SOL     OW33412   6.272   6.684   1.225
10838SOL    HW133413   6.184   6.653   1.190
10838SOL    HW233414   6.271   6.784   1.234
10839SOL     OW33415   2.493   1.273   6.547
10839SOL    HW133416   2.406   1.239   6.510
10839SOL    HW233417   2.502   1.370   6.523
10840SOL     OW33418   1.109   0.737   3.698
10840SOL    HW133419   1.077   0.722   3.605
10840SOL    HW233420   1.207   0.716   3.703
10841SOL     OW33421   3.956   4.208   6.634
10841SOL    HW133422   4.018   4.284   6.656
10841SOL    HW233423   4.005   4.122   6.645
10842SOL     OW33424   6.048   2.282   2.462
10842SOL    HW133425   5.948   2.272   2.466
10842SOL    HW233426   6.073   2.376   2.485
10843SOL     OW33427   1.086   1.914   1.992
10843SOL    HW133428   1.115   1.900   2.087
10843SOL    HW233429   1.157   1.964   1.943
10844SOL     OW33430   4.144   6.344   3.234
10844SOL    HW133431   4.180   6.281   3.303
10844SOL    HW233432   4.048   6.361   3.252
10845SOL     OW33433   2.550   3.589   1.160
10845SOL    HW133434   2.563   3.498   1.201
10845SOL    HW233435   2.453   3.604   1.143
10846SOL     OW33436   3.310   1.253   2.004
10846SOL    HW133437   3.386   1.254   1.939
10846SOL    HW233438   3.253   1.333   1.990
10847SOL     OW33439   5.295   2.114   4.706
10847SOL    HW133440   5.284   2.016   4.719
10847SOL    HW233441   5.248   2.142   4.623
10848SOL     OW33442   2.138   0.553   6.103
10848SOL    HW133443   2.130   0.551   6.003
10848SOL    HW233444   2.052   0.584   6.143
10849SOL     OW33445   0.095   4.668   5.059
10849SOL    HW133446   0.109   4.735   4.987
10849SOL    HW233447   0.137   4.581   5.033
10850SOL     OW33448   6.137   0.533   4.128
10850SOL    HW133449   6.236   0.520   4.139
10850SOL    HW233450   6.093   0.522   4.217
10851SOL     OW33451   5.552   3.241   0.776
10851SOL    HW133452   5.503   3.278   0.856
10851SOL    HW233453   5.625   3.181   0.807
10852SOL     OW33454   5.555   1.646   5.488
10852SOL    HW133455   5.463   1.676   5.462
10852SOL    HW233456   5.571   1.554   5.451
10853SOL     OW33457   1.082   0.017   5.762
10853SOL    HW133458   1.064   0.059   5.673
10853SOL    HW233459   1.040   0.072   5.834
10854SOL     OW33460   6.021   6.031   6.868
10854SOL    HW133461   6.070   6.041   6.782
10854SOL    HW233462   5.965   6.113   6.885
10855SOL     OW33463   0.580   6.235   6.916
10855SOL    HW133464   0.604   6.172   6.842
10855SOL    HW233465   0.486   6.267   6.902
10856SOL     OW33466   4.224   6.770   6.843
10856SOL    HW133467   4.279   6.687   6.840
10856SOL    HW233468   4.151   6.759   6.911
10857SOL     OW33469   6.470   6.708   4.409
10857SOL    HW133470   6.400   6.652   4.364
10857SOL    HW233471   6.441   6.803   4.410
10858SOL     OW33472   1.347   2.688   1.475
10858SOL    HW133473   1.343   2.675   1.375
10858SOL    HW233474   1.442   2.696   1.503
10859SOL     OW33475   2.035   4.420   2.356
10859SOL    HW133476   2.078   4.330   2.362
10859SOL    HW233477   1.970   4.431   2.432
10860SOL     OW33478   5.284   0.929   2.596
10860SOL    HW133479   5.187   0.908   2.592
10860SOL    HW233480   5.319   0.943   2.504
10861SOL     OW33481   2.782   4.577   1.029
10861SOL    HW133482   2.697   4.617   1.062
10861SOL    HW233483   2.802   4.494   1.082
10862SOL     OW33484   3.348   4.386   5.895
10862SOL    HW133485   3.315   4.329   5.819
10862SOL    HW233486   3.441   4.359   5.918
10863SOL     OW33487   0.669   0.629   4.066
10863SOL    HW133488   0.684   0.593   4.158
10863SOL    HW233489   0.571   0.638   4.049
10864SOL     OW33490   2.947   3.322   2.206
10864SOL    HW133491   2.999   3.408   2.200
10864SOL    HW233492   2.944   3.291   2.301
10865SOL     OW33493   3.856   1.547   2.558
10865SOL    HW133494   3.844   1.556   2.460
10865SOL    HW233495   3.897   1.631   2.594
10866SOL     OW33496   0.291   3.333   5.034
10866SOL    HW133497   0.372   3.337   4.975
10866SOL    HW233498   0.231   3.258   5.004
10867SOL     OW33499   5.517   3.497   0.649
10867SOL    HW133500   5.548   3.411   0.689
10867SOL    HW233501   5.420   3.510   0.668
10868SOL     OW33502   6.945   0.339   5.750
10868SOL    HW133503   6.980   0.258   5.704
10868SOL    HW233504   6.886   0.310   5.826
10869NA      NA33505   6.317   1.548   6.755
10870NA      NA33506   4.753   4.480   4.723
10871NA      NA33507   1.231   4.461   3.047
10872NA      NA33508   5.968   3.548   3.835
10873NA      NA33509   4.208   2.289   5.208
10874NA      NA33510   2.626   3.710   6.788
10875NA      NA33511   1.950   5.090   0.441
10876NA      NA33512   4.373   4.785   2.081
10877NA      NA33513   5.397   3.739   1.040
10878NA      NA33514   3.785   2.162   0.698
10879NA      NA33515   4.823   6.136   1.691
10880NA      NA33516   3.122   6.400   3.896
10881NA      NA33517   3.969   5.571   3.175
10882NA      NA33518   4.661   4.825   5.666
   7.02239   7.02239   7.02239
