Generated by trjconv : CNT in water t= 600.00000
33518
    1C        C    1   2.850   2.778   4.749
    1C        C    2   2.899   2.723   4.869
    1C        C    3   2.847   2.779   4.987
    1C        C    4   2.851   2.778   4.260
    1C        C    5   2.902   2.729   4.383
    1C        C    6   2.848   2.776   4.505
    1C        C    7   3.020   2.651   4.627
    1C        C    8   2.902   2.729   4.627
    1C        C    9   3.084   2.613   4.747
    1C        C   10   3.010   2.636   4.864
    1C        C   11   3.179   2.488   4.978
    1C        C   12   3.062   2.564   4.973
    1C        C   13   2.853   2.772   3.773
    1C        C   14   2.904   2.729   3.897
    1C        C   15   2.851   2.779   4.018
    1C        C   16   3.019   2.646   4.138
    1C        C   17   2.905   2.730   4.139
    1C        C   18   3.083   2.620   4.261
    1C        C   19   3.022   2.655   4.383
    1C        C   20   3.214   2.564   4.506
    1C        C   21   3.084   2.620   4.505
    1C        C   22   3.283   2.538   4.627
    1C        C   23   3.215   2.558   4.750
    1C        C   24   3.413   2.485   4.868
    1C        C   25   3.271   2.505   4.869
    1C        C   26   3.492   2.475   4.984
    1C        C   27   2.856   2.775   3.283
    1C        C   28   2.910   2.732   3.407
    1C        C   29   2.858   2.781   3.529
    1C        C   30   3.025   2.650   3.650
    1C        C   31   2.908   2.730   3.650
    1C        C   32   3.083   2.612   3.774
    1C        C   33   3.018   2.646   3.895
    1C        C   34   3.212   2.557   4.017
    1C        C   35   3.081   2.610   4.017
    1C        C   36   3.280   2.537   4.139
    1C        C   37   3.214   2.565   4.261
    1C        C   38   3.418   2.513   4.382
    1C        C   39   3.279   2.540   4.383
    1C        C   40   3.487   2.502   4.505
    1C        C   41   3.419   2.500   4.629
    1C        C   42   3.633   2.481   4.746
    1C        C   43   3.491   2.480   4.749
    1C        C   44   3.707   2.485   4.867
    1C        C   45   3.631   2.470   4.983
    1C        C   46   2.840   2.754   2.794
    1C        C   47   2.899   2.717   2.918
    1C        C   48   2.847   2.766   3.040
    1C        C   49   3.024   2.647   3.163
    1C        C   50   2.907   2.726   3.161
    1C        C   51   3.084   2.610   3.285
    1C        C   52   3.024   2.650   3.407
    1C        C   53   3.216   2.557   3.529
    1C        C   54   3.089   2.618   3.528
    1C        C   55   3.282   2.531   3.651
    1C        C   56   3.212   2.555   3.771
    1C        C   57   3.418   2.512   3.894
    1C        C   58   3.279   2.537   3.894
    1C        C   59   3.486   2.498   4.017
    1C        C   60   3.418   2.506   4.140
    1C        C   61   3.631   2.497   4.261
    1C        C   62   3.490   2.502   4.262
    1C        C   63   3.703   2.503   4.383
    1C        C   64   3.628   2.495   4.502
    1C        C   65   3.835   2.538   4.624
    1C        C   66   3.700   2.498   4.623
    1C        C   67   3.904   2.565   4.744
    1C        C   68   3.840   2.531   4.865
    1C        C   69   4.052   2.585   4.976
    1C        C   70   3.923   2.531   4.978
    1C        C   71   2.826   2.736   2.310
    1C        C   72   2.885   2.694   2.431
    1C        C   73   2.833   2.745   2.552
    1C        C   74   3.011   2.627   2.672
    1C        C   75   2.892   2.703   2.673
    1C        C   76   3.073   2.594   2.794
    1C        C   77   3.017   2.640   2.916
    1C        C   78   3.209   2.552   3.039
    1C        C   79   3.082   2.613   3.038
    1C        C   80   3.278   2.529   3.160
    1C        C   81   3.214   2.553   3.283
    1C        C   82   3.418   2.499   3.403
    1C        C   83   3.280   2.530   3.406
    1C        C   84   3.488   2.491   3.526
    1C        C   85   3.420   2.499   3.650
    1C        C   86   3.631   2.495   3.770
    1C        C   87   3.490   2.500   3.773
    1C        C   88   3.698   2.503   3.894
    1C        C   89   3.627   2.503   4.017
    1C        C   90   3.837   2.542   4.135
    1C        C   91   3.699   2.511   4.138
    1C        C   92   3.904   2.560   4.257
    1C        C   93   3.840   2.539   4.381
    1C        C   94   4.030   2.629   4.499
    1C        C   95   3.906   2.561   4.504
    1C        C   96   4.093   2.667   4.620
    1C        C   97   4.031   2.629   4.741
    1C        C   98   4.189   2.770   4.862
    1C        C   99   4.098   2.660   4.863
    1C        C  100   4.213   2.845   4.978
    1C        C  101   2.823   2.732   2.072
    1C        C  102   2.992   2.592   2.189
    1C        C  103   2.881   2.682   2.190
    1C        C  104   3.063   2.568   2.310
    1C        C  105   3.005   2.618   2.428
    1C        C  106   3.200   2.534   2.550
    1C        C  107   3.070   2.588   2.550
    1C        C  108   3.271   2.521   2.671
    1C        C  109   3.204   2.540   2.794
    1C        C  110   3.413   2.503   2.915
    1C        C  111   3.273   2.525   2.916
    1C        C  112   3.486   2.496   3.035
    1C        C  113   3.417   2.506   3.158
    1C        C  114   3.628   2.496   3.279
    1C        C  115   3.487   2.493   3.280
    1C        C  116   3.697   2.504   3.402
    1C        C  117   3.629   2.494   3.526
    1C        C  118   3.837   2.536   3.646
    1C        C  119   3.700   2.500   3.647
    1C        C  120   3.901   2.564   3.769
    1C        C  121   3.835   2.537   3.891
    1C        C  122   4.026   2.632   4.016
    1C        C  123   3.904   2.562   4.012
    1C        C  124   4.086   2.674   4.137
    1C        C  125   4.028   2.628   4.258
    1C        C  126   4.192   2.767   4.378
    1C        C  127   4.088   2.672   4.378
    1C        C  128   4.242   2.820   4.499
    1C        C  129   4.192   2.768   4.621
    1C        C  130   4.322   2.941   4.741
    1C        C  131   4.237   2.827   4.741
    1C        C  132   4.360   3.004   4.862
    1C        C  133   4.282   2.965   4.972
    1C        C  134   3.178   2.475   2.080
    1C        C  135   3.042   2.511   2.082
    1C        C  136   3.264   2.478   2.190
    1C        C  137   3.196   2.517   2.308
    1C        C  138   3.407   2.484   2.428
    1C        C  139   3.267   2.505   2.429
    1C        C  140   3.481   2.485   2.549
    1C        C  141   3.410   2.495   2.670
    1C        C  142   3.623   2.499   2.791
    1C        C  143   3.482   2.492   2.792
    1C        C  144   3.695   2.501   2.913
    1C        C  145   3.627   2.489   3.036
    1C        C  146   3.836   2.533   3.156
    1C        C  147   3.699   2.497   3.157
    1C        C  148   3.900   2.563   3.278
    1C        C  149   3.834   2.539   3.401
    1C        C  150   4.027   2.625   3.524
    1C        C  151   3.903   2.557   3.523
    1C        C  152   4.085   2.666   3.647
    1C        C  153   4.026   2.630   3.770
    1C        C  154   4.192   2.762   3.891
    1C        C  155   4.082   2.673   3.893
    1C        C  156   4.242   2.814   4.012
    1C        C  157   4.191   2.768   4.136
    1C        C  158   4.334   2.927   4.254
    1C        C  159   4.244   2.818   4.257
    1C        C  160   4.376   2.986   4.375
    1C        C  161   4.330   2.931   4.497
    1C        C  162   4.429   3.121   4.617
    1C        C  163   4.362   2.997   4.618
    1C        C  164   4.458   3.190   4.737
    1C        C  165   4.434   3.124   4.859
    1C        C  166   4.515   3.323   4.976
    1C        C  167   4.480   3.189   4.974
    1C        C  168   3.481   2.434   2.073
    1C        C  169   3.403   2.453   2.188
    1C        C  170   3.620   2.466   2.307
    1C        C  171   3.477   2.464   2.307
    1C        C  172   3.693   2.478   2.427
    1C        C  173   3.622   2.480   2.550
    1C        C  174   3.833   2.526   2.665
    1C        C  175   3.695   2.498   2.670
    1C        C  176   3.897   2.556   2.788
    1C        C  177   3.832   2.535   2.911
    1C        C  178   4.029   2.616   3.035
    1C        C  179   3.901   2.557   3.033
    1C        C  180   4.090   2.656   3.156
    1C        C  181   4.027   2.624   3.278
    1C        C  182   4.194   2.752   3.397
    1C        C  183   4.085   2.661   3.401
    1C        C  184   4.240   2.805   3.520
    1C        C  185   4.192   2.757   3.644
    1C        C  186   4.330   2.917   3.766
    1C        C  187   4.242   2.807   3.766
    1C        C  188   4.368   2.982   3.885
    1C        C  189   4.330   2.924   4.008
    1C        C  190   4.437   3.108   4.129
    1C        C  191   4.370   2.984   4.130
    1C        C  192   4.463   3.176   4.250
    1C        C  193   4.439   3.112   4.374
    1C        C  194   4.507   3.316   4.492
    1C        C  195   4.463   3.182   4.494
    1C        C  196   4.523   3.388   4.613
    1C        C  197   4.509   3.323   4.737
    1C        C  198   4.559   3.536   4.850
    1C        C  199   4.532   3.396   4.857
    1C        C  200   4.581   3.618   4.965
    1C        C  201   3.620   2.412   2.073
    1C        C  202   3.828   2.511   2.183
    1C        C  203   3.693   2.461   2.185
    1C        C  204   3.900   2.536   2.303
    1C        C  205   3.829   2.514   2.423
    1C        C  206   4.022   2.615   2.544
    1C        C  207   3.899   2.544   2.542
    1C        C  208   4.081   2.658   2.665
    1C        C  209   4.025   2.617   2.788
    1C        C  210   4.191   2.747   2.909
    1C        C  211   4.084   2.654   2.910
    1C        C  212   4.246   2.799   3.029
    1C        C  213   4.197   2.749   3.151
    1C        C  214   4.332   2.910   3.273
    1C        C  215   4.247   2.797   3.274
    1C        C  216   4.363   2.972   3.396
    1C        C  217   4.323   2.920   3.521
    1C        C  218   4.426   3.104   3.640
    1C        C  219   4.366   2.976   3.643
    1C        C  220   4.454   3.174   3.760
    1C        C  221   4.431   3.109   3.883
    1C        C  222   4.498   3.309   4.001
    1C        C  223   4.461   3.173   4.006
    1C        C  224   4.513   3.379   4.123
    1C        C  225   4.501   3.312   4.247
    1C        C  226   4.523   3.524   4.365
    1C        C  227   4.520   3.383   4.368
    1C        C  228   4.526   3.598   4.485
    1C        C  229   4.532   3.529   4.608
    1C        C  230   4.504   3.743   4.726
    1C        C  231   4.538   3.605   4.727
    1C        C  232   4.493   3.817   4.845
    1C        C  233   4.540   3.752   4.961
    1C        C  234   4.019   2.605   2.064
    1C        C  235   3.898   2.536   2.065
    1C        C  236   4.089   2.644   2.179
    1C        C  237   4.023   2.607   2.298
    1C        C  238   4.194   2.735   2.419
    1C        C  239   4.077   2.653   2.420
    1C        C  240   4.247   2.784   2.540
    1C        C  241   4.193   2.744   2.664
    1C        C  242   4.328   2.907   2.786
    1C        C  243   4.242   2.795   2.786
    1C        C  244   4.369   2.968   2.907
    1C        C  245   4.331   2.912   3.031
    1C        C  246   4.438   3.096   3.152
    1C        C  247   4.373   2.970   3.152
    1C        C  248   4.462   3.162   3.274
    1C        C  249   4.429   3.097   3.395
    1C        C  250   4.492   3.303   3.516
    1C        C  251   4.454   3.167   3.516
    1C        C  252   4.510   3.376   3.635
    1C        C  253   4.496   3.309   3.759
    1C        C  254   4.525   3.520   3.878
    1C        C  255   4.514   3.379   3.880
    1C        C  256   4.521   3.592   4.000
    1C        C  257   4.524   3.520   4.121
    1C        C  258   4.497   3.732   4.241
    1C        C  259   4.521   3.593   4.242
    1C        C  260   4.479   3.805   4.361
    1C        C  261   4.498   3.736   4.484
    1C        C  262   4.424   3.939   4.604
    1C        C  263   4.478   3.809   4.603
    1C        C  264   4.398   4.008   4.725
    1C        C  265   4.437   3.946   4.846
    1C        C  266   4.323   4.133   4.959
    1C        C  267   4.399   4.016   4.962
    1C        C  268   4.263   2.779   2.064
    1C        C  269   4.201   2.731   2.180
    1C        C  270   4.343   2.893   2.300
    1C        C  271   4.252   2.784   2.300
    1C        C  272   4.380   2.954   2.423
    1C        C  273   4.336   2.894   2.543
    1C        C  274   4.440   3.083   2.660
    1C        C  275   4.374   2.959   2.663
    1C        C  276   4.470   3.150   2.781
    1C        C  277   4.441   3.089   2.905
    1C        C  278   4.501   3.292   3.024
    1C        C  279   4.466   3.156   3.027
    1C        C  280   4.511   3.364   3.146
    1C        C  281   4.504   3.297   3.270
    1C        C  282   4.520   3.509   3.390
    1C        C  283   4.507   3.369   3.392
    1C        C  284   4.523   3.585   3.509
    1C        C  285   4.522   3.517   3.633
    1C        C  286   4.494   3.726   3.753
    1C        C  287   4.524   3.588   3.755
    1C        C  288   4.476   3.795   3.875
    1C        C  289   4.499   3.732   3.999
    1C        C  290   4.438   3.936   4.117
    1C        C  291   4.486   3.803   4.120
    1C        C  292   4.400   4.000   4.237
    1C        C  293   4.428   3.937   4.361
    1C        C  294   4.324   4.124   4.481
    1C        C  295   4.396   4.003   4.481
    1C        C  296   4.285   4.187   4.601
    1C        C  297   4.330   4.133   4.724
    1C        C  298   4.201   4.314   4.840
    1C        C  299   4.286   4.199   4.842
    1C        C  300   4.168   4.402   4.948
    1C        C  301   4.350   2.887   2.060
    1C        C  302   4.465   3.072   2.176
    1C        C  303   4.393   2.948   2.179
    1C        C  304   4.481   3.143   2.299
    1C        C  305   4.450   3.077   2.420
    1C        C  306   4.508   3.285   2.536
    1C        C  307   4.474   3.148   2.539
    1C        C  308   4.517   3.357   2.658
    1C        C  309   4.507   3.287   2.780
    1C        C  310   4.522   3.500   2.899
    1C        C  311   4.520   3.358   2.901
    1C        C  312   4.518   3.573   3.020
    1C        C  313   4.518   3.505   3.144
    1C        C  314   4.491   3.716   3.263
    1C        C  315   4.513   3.576   3.266
    1C        C  316   4.481   3.788   3.384
    1C        C  317   4.504   3.725   3.508
    1C        C  318   4.432   3.926   3.628
    1C        C  319   4.482   3.794   3.629
    1C        C  320   4.400   3.990   3.750
    1C        C  321   4.429   3.928   3.873
    1C        C  322   4.320   4.112   3.989
    1C        C  323   4.400   3.996   3.994
    1C        C  324   4.280   4.168   4.112
    1C        C  325   4.327   4.120   4.236
    1C        C  326   4.183   4.278   4.354
    1C        C  327   4.285   4.180   4.357
    1C        C  328   4.135   4.334   4.474
    1C        C  329   4.193   4.294   4.597
    1C        C  330   4.026   4.433   4.713
    1C        C  331   4.138   4.346   4.716
    1C        C  332   3.972   4.493   4.829
    1C        C  333   4.049   4.476   4.944
    1C        C  334   4.557   3.269   2.062
    1C        C  335   4.533   3.131   2.065
    1C        C  336   4.540   3.351   2.174
    1C        C  337   4.515   3.281   2.293
    1C        C  338   4.527   3.495   2.412
    1C        C  339   4.520   3.354   2.414
    1C        C  340   4.522   3.567   2.533
    1C        C  341   4.520   3.498   2.656
    1C        C  342   4.494   3.710   2.773
    1C        C  343   4.520   3.571   2.778
    1C        C  344   4.478   3.782   2.894
    1C        C  345   4.496   3.713   3.016
    1C        C  346   4.427   3.914   3.138
    1C        C  347   4.476   3.781   3.138
    1C        C  348   4.391   3.978   3.259
    1C        C  349   4.428   3.919   3.382
    1C        C  350   4.323   4.104   3.500
    1C        C  351   4.399   3.985   3.503
    1C        C  352   4.279   4.163   3.620
    1C        C  353   4.322   4.107   3.743
    1C        C  354   4.180   4.266   3.864
    1C        C  355   4.278   4.165   3.864
    1C        C  356   4.126   4.312   3.987
    1C        C  357   4.179   4.267   4.109
    1C        C  358   4.010   4.397   4.230
    1C        C  359   4.128   4.319   4.231
    1C        C  360   3.950   4.440   4.350
    1C        C  361   4.018   4.412   4.471
    1C        C  362   3.829   4.513   4.592
    1C        C  363   3.960   4.460   4.591
    1C        C  364   3.762   4.543   4.713
    1C        C  365   3.838   4.538   4.832
    1C        C  366   3.631   4.588   4.951
    1C        C  367   3.769   4.571   4.950
    1C        C  368   4.514   3.567   2.055
    1C        C  369   4.534   3.492   2.172
    1C        C  370   4.499   3.707   2.292
    1C        C  371   4.523   3.568   2.290
    1C        C  372   4.491   3.782   2.411
    1C        C  373   4.507   3.708   2.530
    1C        C  374   4.426   3.908   2.649
    1C        C  375   4.478   3.777   2.650
    1C        C  376   4.395   3.975   2.770
    1C        C  377   4.428   3.914   2.893
    1C        C  378   4.323   4.096   3.012
    1C        C  379   4.401   3.978   3.016
    1C        C  380   4.276   4.154   3.132
    1C        C  381   4.313   4.096   3.255
    1C        C  382   4.174   4.254   3.376
    1C        C  383   4.275   4.156   3.377
    1C        C  384   4.118   4.301   3.497
    1C        C  385   4.174   4.257   3.619
    1C        C  386   4.003   4.381   3.744
    1C        C  387   4.122   4.305   3.741
    1C        C  388   3.943   4.419   3.866
    1C        C  389   4.007   4.388   3.988
    1C        C  390   3.821   4.494   4.109
    1C        C  391   3.949   4.436   4.108
    1C        C  392   3.752   4.517   4.230
    1C        C  393   3.822   4.499   4.352
    1C        C  394   3.615   4.547   4.476
    1C        C  395   3.755   4.527   4.473
    1C        C  396   3.547   4.566   4.598
    1C        C  397   3.623   4.564   4.717
    1C        C  398   3.410   4.554   4.842
    1C        C  399   3.550   4.575   4.838
    1C        C  400   3.341   4.522   4.959
    1C        C  401   4.505   3.706   2.053
    1C        C  402   4.457   3.916   2.168
    1C        C  403   4.494   3.780   2.171
    1C        C  404   4.419   3.983   2.286
    1C        C  405   4.445   3.916   2.408
    1C        C  406   4.322   4.093   2.525
    1C        C  407   4.401   3.975   2.528
    1C        C  408   4.280   4.152   2.647
    1C        C  409   4.317   4.092   2.769
    1C        C  410   4.170   4.245   2.888
    1C        C  411   4.275   4.151   2.891
    1C        C  412   4.120   4.294   3.010
    1C        C  413   4.175   4.253   3.133
    1C        C  414   4.001   4.378   3.251
    1C        C  415   4.120   4.301   3.254
    1C        C  416   3.941   4.413   3.374
    1C        C  417   4.000   4.379   3.498
    1C        C  418   3.812   4.471   3.621
    1C        C  419   3.941   4.413   3.621
    1C        C  420   3.747   4.502   3.742
    1C        C  421   3.814   4.478   3.864
    1C        C  422   3.612   4.534   3.988
    1C        C  423   3.751   4.508   3.987
    1C        C  424   3.540   4.536   4.110
    1C        C  425   3.613   4.541   4.230
    1C        C  426   3.403   4.549   4.358
    1C        C  427   3.544   4.551   4.353
    1C        C  428   3.333   4.547   4.481
    1C        C  429   3.406   4.556   4.602
    1C        C  430   3.195   4.519   4.724
    1C        C  431   3.335   4.544   4.723
    1C        C  432   3.126   4.497   4.846
    1C        C  433   3.205   4.493   4.962
    1C        C  434   4.383   4.123   2.052
    1C        C  435   4.446   3.997   2.054
    1C        C  436   4.300   4.159   2.162
    1C        C  437   4.335   4.097   2.286
    1C        C  438   4.177   4.248   2.402
    1C        C  439   4.279   4.150   2.404
    1C        C  440   4.125   4.296   2.524
    1C        C  441   4.182   4.254   2.646
    1C        C  442   4.007   4.380   2.765
    1C        C  443   4.120   4.295   2.766
    1C        C  444   3.944   4.414   2.887
    1C        C  445   4.006   4.379   3.009
    1C        C  446   3.811   4.470   3.131
    1C        C  447   3.939   4.411   3.129
    1C        C  448   3.746   4.495   3.254
    1C        C  449   3.812   4.470   3.376
    1C        C  450   3.609   4.531   3.498
    1C        C  451   3.745   4.493   3.498
    1C        C  452   3.541   4.541   3.621
    1C        C  453   3.610   4.534   3.744
    1C        C  454   3.399   4.543   3.867
    1C        C  455   3.541   4.543   3.867
    1C        C  456   3.330   4.535   3.990
    1C        C  457   3.398   4.534   4.113
    1C        C  458   3.194   4.512   4.236
    1C        C  459   3.331   4.544   4.237
    1C        C  460   3.128   4.492   4.359
    1C        C  461   3.195   4.517   4.481
    1C        C  462   3.000   4.434   4.605
    1C        C  463   3.127   4.494   4.603
    1C        C  464   2.932   4.402   4.725
    1C        C  465   2.992   4.445   4.846
    1C        C  466   2.798   4.343   4.960
    1C        C  467   2.903   4.436   4.958
    1C        C  468   4.126   4.290   2.042
    1C        C  469   4.191   4.252   2.160
    1C        C  470   4.009   4.375   2.278
    1C        C  471   4.129   4.299   2.279
    1C        C  472   3.940   4.399   2.399
    1C        C  473   4.007   4.374   2.521
    1C        C  474   3.813   4.463   2.643
    1C        C  475   3.945   4.411   2.642
    1C        C  476   3.744   4.486   2.764
    1C        C  477   3.811   4.462   2.886
    1C        C  478   3.606   4.520   3.010
    1C        C  479   3.745   4.492   3.007
    1C        C  480   3.536   4.532   3.132
    1C        C  481   3.609   4.527   3.254
    1C        C  482   3.397   4.535   3.378
    1C        C  483   3.538   4.539   3.375
    1C        C  484   3.328   4.530   3.502
    1C        C  485   3.400   4.542   3.623
    1C        C  486   3.192   4.502   3.745
    1C        C  487   3.328   4.539   3.745
    1C        C  488   3.129   4.478   3.870
    1C        C  489   3.191   4.508   3.994
    1C        C  490   3.001   4.417   4.117
    1C        C  491   3.124   4.487   4.116
    1C        C  492   2.940   4.386   4.241
    1C        C  493   3.002   4.428   4.360
    1C        C  494   2.834   4.300   4.486
    1C        C  495   2.943   4.391   4.483
    1C        C  496   2.776   4.254   4.606
    1C        C  497   2.821   4.314   4.726
    1C        C  498   2.668   4.164   4.845
    1C        C  499   2.755   4.275   4.845
    1C        C  500   2.601   4.115   4.958
    1C        C  501   4.004   4.357   2.041
    1C        C  502   3.815   4.466   2.157
    1C        C  503   3.941   4.403   2.157
    1C        C  504   3.744   4.482   2.278
    1C        C  505   3.808   4.447   2.399
    1C        C  506   3.606   4.508   2.521
    1C        C  507   3.744   4.477   2.521
    1C        C  508   3.536   4.519   2.643
    1C        C  509   3.606   4.515   2.766
    1C        C  510   3.394   4.529   2.886
    1C        C  511   3.536   4.527   2.888
    1C        C  512   3.325   4.524   3.009
    1C        C  513   3.395   4.531   3.132
    1C        C  514   3.188   4.500   3.256
    1C        C  515   3.327   4.528   3.256
    1C        C  516   3.124   4.470   3.378
    1C        C  517   3.192   4.492   3.500
    1C        C  518   3.001   4.410   3.626
    1C        C  519   3.125   4.477   3.623
    1C        C  520   2.945   4.371   3.750
    1C        C  521   3.005   4.412   3.871
    1C        C  522   2.842   4.279   3.998
    1C        C  523   2.948   4.372   3.994
    1C        C  524   2.793   4.232   4.122
    1C        C  525   2.834   4.293   4.242
    1C        C  526   2.699   4.132   4.366
    1C        C  527   2.786   4.244   4.366
    1C        C  528   2.653   4.076   4.487
    1C        C  529   2.692   4.141   4.606
    1C        C  530   2.588   3.957   4.732
    1C        C  531   2.644   4.088   4.728
    1C        C  532   2.542   3.904   4.855
    1C        C  533   2.523   3.999   4.961
    1C        C  534   3.617   4.556   2.042
    1C        C  535   3.750   4.511   2.041
    1C        C  536   3.535   4.536   2.157
    1C        C  537   3.604   4.508   2.278
    1C        C  538   3.393   4.517   2.400
    1C        C  539   3.535   4.523   2.400
    1C        C  540   3.320   4.513   2.521
    1C        C  541   3.395   4.515   2.641
    1C        C  542   3.187   4.487   2.764
    1C        C  543   3.326   4.516   2.764
    1C        C  544   3.124   4.465   2.889
    1C        C  545   3.188   4.491   3.012
    1C        C  546   3.000   4.398   3.134
    1C        C  547   3.122   4.469   3.135
    1C        C  548   2.942   4.362   3.258
    1C        C  549   3.000   4.402   3.381
    1C        C  550   2.835   4.275   3.506
    1C        C  551   2.941   4.369   3.505
    1C        C  552   2.784   4.229   3.629
    1C        C  553   2.835   4.283   3.750
    1C        C  554   2.710   4.117   3.876
    1C        C  555   2.793   4.231   3.874
    1C        C  556   2.669   4.059   3.998
    1C        C  557   2.704   4.122   4.120
    1C        C  558   2.599   3.944   4.247
    1C        C  559   2.665   4.069   4.245
    1C        C  560   2.568   3.879   4.369
    1C        C  561   2.592   3.948   4.490
    1C        C  562   2.529   3.748   4.618
    1C        C  563   2.564   3.885   4.613
    1C        C  564   2.512   3.682   4.742
    1C        C  565   2.523   3.762   4.859
    1C        C  566   2.528   3.547   4.977
    1C        C  567   2.522   3.686   4.977
    1C        C  568   3.327   4.480   2.041
    1C        C  569   3.394   4.517   2.158
    1C        C  570   3.183   4.475   2.280
    1C        C  571   3.321   4.512   2.279
    1C        C  572   3.115   4.460   2.402
    1C        C  573   3.181   4.487   2.524
    1C        C  574   2.986   4.405   2.648
    1C        C  575   3.112   4.469   2.646
    1C        C  576   2.933   4.360   2.771
    1C        C  577   2.999   4.399   2.889
    1C        C  578   2.834   4.268   3.017
    1C        C  579   2.941   4.360   3.012
    1C        C  580   2.785   4.215   3.138
    1C        C  581   2.835   4.269   3.259
    1C        C  582   2.696   4.115   3.386
    1C        C  583   2.786   4.225   3.383
    1C        C  584   2.659   4.055   3.508
    1C        C  585   2.701   4.115   3.629
    1C        C  586   2.604   3.933   3.757
    1C        C  587   2.668   4.059   3.754
    1C        C  588   2.575   3.870   3.880
    1C        C  589   2.607   3.932   4.003
    1C        C  590   2.536   3.737   4.128
    1C        C  591   2.576   3.873   4.127
    1C        C  592   2.523   3.671   4.252
    1C        C  593   2.534   3.742   4.373
    1C        C  594   2.509   3.535   4.500
    1C        C  595   2.521   3.675   4.497
    1C        C  596   2.510   3.464   4.623
    1C        C  597   2.505   3.540   4.741
    1C        C  598   2.525   3.327   4.864
    1C        C  599   2.515   3.468   4.862
    1C        C  600   2.532   3.247   4.979
    1C        C  601   3.197   4.433   2.046
    1C        C  602   2.980   4.393   2.161
    1C        C  603   3.116   4.437   2.161
    1C        C  604   2.923   4.359   2.287
    1C        C  605   2.987   4.401   2.406
    1C        C  606   2.820   4.271   2.527
    1C        C  607   2.925   4.365   2.527
    1C        C  608   2.775   4.218   2.651
    1C        C  609   2.827   4.267   2.773
    1C        C  610   2.691   4.107   2.895
    1C        C  611   2.782   4.215   2.897
    1C        C  612   2.656   4.049   3.019
    1C        C  613   2.691   4.110   3.142
    1C        C  614   2.594   3.927   3.268
    1C        C  615   2.650   4.056   3.266
    1C        C  616   2.571   3.860   3.390
    1C        C  617   2.601   3.926   3.512
    1C        C  618   2.531   3.731   3.640
    1C        C  619   2.576   3.864   3.637
    1C        C  620   2.515   3.662   3.763
    1C        C  621   2.531   3.735   3.883
    1C        C  622   2.511   3.526   4.009
    1C        C  623   2.524   3.667   4.006
    1C        C  624   2.511   3.458   4.133
    1C        C  625   2.512   3.530   4.255
    1C        C  626   2.533   3.323   4.381
    1C        C  627   2.509   3.463   4.379
    1C        C  628   2.550   3.252   4.502
    1C        C  629   2.533   3.324   4.622
    1C        C  630   2.595   3.121   4.744
    1C        C  631   2.548   3.256   4.745
    1C        C  632   2.615   3.047   4.863
    1C        C  633   2.563   3.110   4.981
    1C        C  634   2.774   4.307   2.056
    1C        C  635   2.888   4.389   2.052
    1C        C  636   2.742   4.234   2.171
    1C        C  637   2.809   4.274   2.288
    1C        C  638   2.674   4.109   2.412
    1C        C  639   2.758   4.224   2.410
    1C        C  640   2.639   4.049   2.535
    1C        C  641   2.689   4.107   2.653
    1C        C  642   2.584   3.921   2.777
    1C        C  643   2.650   4.045   2.775
    1C        C  644   2.560   3.858   2.902
    1C        C  645   2.595   3.922   3.023
    1C        C  646   2.529   3.723   3.149
    1C        C  647   2.568   3.859   3.147
    1C        C  648   2.514   3.654   3.271
    1C        C  649   2.527   3.726   3.393
    1C        C  650   2.510   3.520   3.519
    1C        C  651   2.518   3.661   3.518
    1C        C  652   2.507   3.451   3.642
    1C        C  653   2.506   3.521   3.765
    1C        C  654   2.527   3.313   3.888
    1C        C  655   2.507   3.453   3.889
    1C        C  656   2.542   3.247   4.012
    1C        C  657   2.530   3.318   4.134
    1C        C  658   2.598   3.122   4.259
    1C        C  659   2.548   3.254   4.259
    1C        C  660   2.635   3.058   4.379
    1C        C  661   2.601   3.121   4.501
    1C        C  662   2.706   2.937   4.624
    1C        C  663   2.631   3.056   4.623
    1C        C  664   2.752   2.881   4.746
    1C        C  665   2.695   2.928   4.867
    1C        C  666   2.753   2.882   4.985
    1C        C  667   2.687   4.025   2.056
    1C        C  668   2.684   4.105   2.171
    1C        C  669   2.584   3.915   2.291
    1C        C  670   2.641   4.045   2.291
    1C        C  671   2.559   3.850   2.414
    1C        C  672   2.582   3.920   2.535
    1C        C  673   2.523   3.715   2.659
    1C        C  674   2.557   3.852   2.657
    1C        C  675   2.510   3.649   2.783
    1C        C  676   2.521   3.722   2.904
    1C        C  677   2.503   3.513   3.028
    1C        C  678   2.513   3.654   3.027
    1C        C  679   2.507   3.443   3.151
    1C        C  680   2.506   3.513   3.274
    1C        C  681   2.527   3.307   3.401
    1C        C  682   2.510   3.447   3.398
    1C        C  683   2.547   3.239   3.523
    1C        C  684   2.532   3.312   3.643
    1C        C  685   2.600   3.113   3.773
    1C        C  686   2.550   3.245   3.766
    1C        C  687   2.630   3.049   3.895
    1C        C  688   2.597   3.117   4.015
    1C        C  689   2.712   2.941   4.138
    1C        C  690   2.630   3.056   4.138
    1C        C  691   2.757   2.884   4.259
    1C        C  692   2.716   2.942   4.382
    1C        C  693   2.753   2.881   4.503
    1C        C  694   2.628   3.898   2.056
    1C        C  695   2.529   3.706   2.175
    1C        C  696   2.582   3.836   2.174
    1C        C  697   2.510   3.638   2.297
    1C        C  698   2.525   3.713   2.416
    1C        C  699   2.489   3.505   2.540
    1C        C  700   2.504   3.645   2.537
    1C        C  701   2.498   3.438   2.664
    1C        C  702   2.500   3.509   2.786
    1C        C  703   2.530   3.299   2.912
    1C        C  704   2.501   3.438   2.908
    1C        C  705   2.551   3.233   3.035
    1C        C  706   2.535   3.305   3.156
    1C        C  707   2.591   3.103   3.279
    1C        C  708   2.546   3.237   3.279
    1C        C  709   2.627   3.044   3.402
    1C        C  710   2.600   3.108   3.526
    1C        C  711   2.710   2.932   3.651
    1C        C  712   2.633   3.051   3.650
    1C        C  713   2.758   2.877   3.772
    1C        C  714   2.715   2.937   3.893
    1C        C  715   2.756   2.884   4.017
    1C        C  716   2.442   3.502   2.066
    1C        C  717   2.489   3.634   2.061
    1C        C  718   2.468   3.422   2.182
    1C        C  719   2.484   3.498   2.301
    1C        C  720   2.517   3.290   2.424
    1C        C  721   2.480   3.427   2.422
    1C        C  722   2.536   3.225   2.548
    1C        C  723   2.521   3.298   2.667
    1C        C  724   2.588   3.097   2.788
    1C        C  725   2.540   3.230   2.789
    1C        C  726   2.624   3.036   2.910
    1C        C  727   2.597   3.100   3.033
    1C        C  728   2.707   2.924   3.160
    1C        C  729   2.623   3.038   3.157
    1C        C  730   2.756   2.875   3.283
    1C        C  731   2.709   2.929   3.405
    1C        C  732   2.756   2.879   3.528
    1C        C  733   2.487   3.196   2.073
    1C        C  734   2.492   3.281   2.183
    1C        C  735   2.581   3.084   2.305
    1C        C  736   2.526   3.215   2.305
    1C        C  737   2.615   3.023   2.428
    1C        C  738   2.586   3.093   2.547
    1C        C  739   2.701   2.913   2.672
    1C        C  740   2.619   3.028   2.668
    1C        C  741   2.742   2.855   2.794
    1C        C  742   2.703   2.919   2.914
    1C        C  743   2.748   2.867   3.037
    1C        C  744   2.550   3.072   2.070
    1C        C  745   2.686   2.898   2.187
    1C        C  746   2.607   3.015   2.185
    1C        C  747   2.732   2.843   2.308
    1C        C  748   2.691   2.904   2.429
    1C        C  749   2.740   2.852   2.551
    1C        C  750   2.734   2.838   2.069
    1C        C  751   3.674   2.300   1.993
    1C        O  752   3.658   2.184   2.041
    1C        O  753   3.645   2.297   1.856
    1C        C  754   4.641   3.052   2.002
    1C        O  755   4.634   3.010   1.883
    1C        O  756   4.755   3.001   2.065
    1C        C  757   4.460   4.223   1.975
    1C        O  758   4.527   4.310   2.037
    1C        O  759   4.398   4.283   1.865
    1C        C  760   3.589   4.674   1.957
    1C        O  761   3.580   4.784   2.018
    1C        O  762   3.608   4.682   1.818
    1C        C  763   2.877   4.502   1.957
    1C        O  764   2.932   4.492   1.844
    1C        O  765   2.779   4.602   1.951
    1C        C  766   2.330   3.463   1.977
    1C        O  767   2.365   3.456   1.857
    1C        O  768   2.204   3.519   1.997
    1C        C  769   4.694   3.591   5.056
    1C        O  770   4.688   3.537   5.169
    1C        O  771   4.824   3.612   5.007
    1C        C  772   4.276   4.486   5.003
    1C        O  773   4.283   4.498   5.129
    1C        O  774   4.379   4.554   4.936
    1C        C  775   4.157   2.517   5.056
    1C        O  776   4.202   2.401   5.041
    1C        O  777   4.217   2.576   5.168
    1C        C  778   2.883   4.559   5.038
    1C        O  779   2.780   4.630   5.023
    1C        O  780   2.944   4.556   5.164
    1C        C  781   2.492   3.028   5.081
    1C        O  782   2.382   2.974   5.052
    1C        O  783   2.528   3.018   5.215
    1C        C  784   2.400   4.006   5.042
    1C        O  785   2.288   4.049   5.002
    1C        O  786   2.397   3.974   5.179
    1C        C  787   2.954   2.428   1.998
    1C        O  788   2.933   2.463   1.879
    1C        O  789   2.876   2.326   2.050
    1C        C  790   3.178   2.362   5.055
    1C        O  791   3.192   2.248   5.004
    1C        O  792   3.206   2.354   5.192
    1C        H  793   4.252   3.039   5.043
    1C        H  794   4.166   2.823   5.072
    1C        H  795   4.493   3.128   5.061
    1C        H  796   4.553   3.364   5.068
    1C        H  797   4.576   3.816   5.038
    1C        H  798   4.414   3.970   5.057
    1C        H  799   4.314   4.183   5.053
    1C        H  800   4.018   4.514   5.039
    1C        H  801   3.818   4.571   5.045
    1C        H  802   3.589   4.648   5.029
    1C        H  803   3.397   4.489   5.044
    1C        H  804   3.169   4.450   5.053
    1C        H  805   3.883   2.515   5.077
    1C        H  806   3.681   2.429   5.068
    1C        H  807   3.008   2.575   5.065
    1C        H  808   3.446   2.433   5.071
    1C        H  809   2.865   2.730   5.080
    1C        H  810   2.710   2.915   5.078
    1C        H  811   2.546   3.297   5.072
    1C        H  812   2.524   3.502   5.074
    1C        H  813   2.549   3.740   5.066
    1C        H  814   2.606   4.182   5.041
    1C        H  815   2.745   4.337   5.052
    1C        H  816   2.657   2.831   1.995
    1C        H  817   2.846   2.683   1.980
    1C        H  818   3.209   2.417   1.995
    1C        H  819   3.430   2.404   1.985
    1C        H  820   3.884   2.467   1.984
    1C        H  821   4.039   2.662   1.976
    1C        H  822   4.292   2.699   1.999
    1C        H  823   4.349   2.936   1.965
    1C        H  824   4.550   3.315   1.965
    1C        H  825   4.474   3.521   1.967
    1C        H  826   4.473   3.747   1.959
    1C        H  827   3.806   4.535   1.953
    1C        H  828   3.963   4.378   1.944
    1C        H  829   4.173   4.286   1.946
    1C        H  830   4.518   3.973   1.979
    1C        H  831   2.591   3.868   1.961
    1C        H  832   2.751   4.047   1.973
    1C        H  833   2.731   4.275   1.963
    1C        H  834   3.347   4.541   1.955
    1C        H  835   3.178   4.358   1.972
    1C        H  836   2.533   3.011   1.984
    1C        H  837   2.478   3.239   1.975
    1C        H  838   2.484   3.680   1.965
    2V3OU   H29  839   2.794   3.546   6.566
    2V3OU   C27  840   2.779   3.506   6.669
    2V3OU   H27  841   2.723   3.568   6.744
    2V3OU   H28  842   2.730   3.405   6.662
    2V3OU   O11  843   2.906   3.477   6.727
    2V3OU   C15  844   2.919   3.406   6.846
    2V3OU   C13  845   3.049   3.381   6.893
    2V3OU   C14  846   3.077   3.273   6.978
    2V3OU   C16  847   2.974   3.188   7.017
    2V3OU    H6  848   2.994   3.101   0.057
    2V3OU   C12  849   3.218   3.240   7.004
    2V3OU    O2  850   3.242   3.131   0.037
    2V3OU   C10  851   3.324   3.311   6.930
    2V3OU    C8  852   3.456   3.275   6.954
    2V3OU   O10  853   3.490   3.156   7.009
    2V3OU   H26  854   3.406   3.119   0.017
    2V3OU    C6  855   3.565   3.352   6.900
    2V3OU    C5  856   3.536   3.469   6.830
    2V3OU    C4  857   3.702   3.296   6.886
    2V3OU    H4  858   3.726   3.230   6.974
    2V3OU    H5  859   3.709   3.231   6.794
    2V3OU    C2  860   3.814   3.401   6.889
    2V3OU    O6  861   3.801   3.469   7.014
    2V3OU   H21  862   3.763   3.557   7.000
    2V3OU    C3  863   3.781   3.495   6.774
    2V3OU    H2  864   3.862   3.573   6.772
    2V3OU    H3  865   3.783   3.438   6.677
    2V3OU   C25  866   3.946   3.326   6.871
    2V3OU    O7  867   3.991   3.292   6.761
    2V3OU   C26  868   4.025   3.282   6.993
    2V3OU   H22  869   4.064   3.376   0.015
    2V3OU   H23  870   4.111   3.218   6.961
    2V3OU    O8  871   3.957   3.205   0.065
    2V3OU   H24  872   3.924   3.265   0.134
    2V3OU    C1  873   3.646   3.562   6.790
    2V3OU    H1  874   3.625   3.619   6.695
    2V3OU    O3  875   3.658   3.656   6.897
    2V3OU   C19  876   3.625   3.795   6.881
    2V3OU    H9  877   3.528   3.801   6.824
    2V3OU    O4  878   3.715   3.849   6.786
    2V3OU   C20  879   3.845   3.879   6.838
    2V3OU   H10  880   3.900   3.788   6.876
    2V3OU   C24  881   3.606   3.863   7.016
    2V3OU   H16  882   3.543   3.796   0.056
    2V3OU   H17  883   3.559   3.961   6.990
    2V3OU   C23  884   3.750   3.876   0.043
    2V3OU   H15  885   3.789   3.769   0.047
    2V3OU    N1  886   3.736   3.956   0.163
    2V3OU   H19  887   3.806   3.920   0.225
    2V3OU   H20  888   3.650   3.933   0.208
    2V3OU   C21  889   3.846   3.953   6.972
    2V3OU   H11  890   3.946   3.928   7.020
    2V3OU    O5  891   3.831   4.094   6.979
    2V3OU   H18  892   3.782   4.106   0.038
    2V3OU   C22  893   3.911   3.955   6.725
    2V3OU   H12  894   3.856   4.052   6.710
    2V3OU   H13  895   3.908   3.893   6.631
    2V3OU   H14  896   4.020   3.966   6.748
    2V3OU   C11  897   3.157   3.472   6.852
    2V3OU    O1  898   3.126   3.585   6.809
    2V3OU    C9  899   3.298   3.428   6.855
    2V3OU    C7  900   3.400   3.505   6.800
    2V3OU    O9  901   3.385   3.622   6.729
    2V3OU   H25  902   3.288   3.627   6.731
    2V3OU   C17  903   2.818   3.318   6.890
    2V3OU    H7  904   2.715   3.346   6.867
    2V3OU   C18  905   2.844   3.209   6.972
    2V3OU    H8  906   2.760   3.152   7.016
    3SOL     OW  907   2.459   3.438   5.330
    3SOL    HW1  908   2.446   3.515   5.392
    3SOL    HW2  909   2.386   3.438   5.261
    4SOL     OW  910   1.030   0.550   0.887
    4SOL    HW1  911   1.095   0.475   0.897
    4SOL    HW2  912   1.004   0.558   0.791
    5SOL     OW  913   3.410   1.484   0.398
    5SOL    HW1  914   3.424   1.513   0.492
    5SOL    HW2  915   3.497   1.487   0.349
    6SOL     OW  916   2.832   2.198   1.801
    6SOL    HW1  917   2.851   2.263   1.874
    6SOL    HW2  918   2.894   2.214   1.725
    7SOL     OW  919   2.010   3.025   4.664
    7SOL    HW1  920   1.971   3.056   4.751
    7SOL    HW2  921   2.101   2.987   4.680
    8SOL     OW  922   1.113   1.370   6.029
    8SOL    HW1  923   1.051   1.291   6.028
    8SOL    HW2  924   1.127   1.400   6.123
    9SOL     OW  925   1.668   2.773   5.445
    9SOL    HW1  926   1.704   2.788   5.537
    9SOL    HW2  927   1.744   2.760   5.381
   10SOL     OW  928   6.196   5.201   0.650
   10SOL    HW1  929   6.223   5.107   0.632
   10SOL    HW2  930   6.253   5.238   0.724
   11SOL     OW  931   3.406   0.664   0.824
   11SOL    HW1  932   3.343   0.677   0.747
   11SOL    HW2  933   3.357   0.622   0.901
   12SOL     OW  934   5.995   5.084   0.993
   12SOL    HW1  935   5.984   5.147   0.915
   12SOL    HW2  936   5.924   5.102   1.061
   13SOL     OW  937   4.801   6.094   1.758
   13SOL    HW1  938   4.834   6.174   1.807
   13SOL    HW2  939   4.701   6.090   1.763
   14SOL     OW  940   4.769   5.490   1.573
   14SOL    HW1  941   4.834   5.513   1.500
   14SOL    HW2  942   4.784   5.395   1.601
   15SOL     OW  943   0.605   0.237   0.058
   15SOL    HW1  944   0.559   0.176   0.123
   15SOL    HW2  945   0.576   0.213   6.989
   16SOL     OW  946   1.915   4.725   5.227
   16SOL    HW1  947   1.994   4.665   5.242
   16SOL    HW2  948   1.893   4.727   5.129
   17SOL     OW  949   0.313   2.161   4.231
   17SOL    HW1  950   0.286   2.078   4.182
   17SOL    HW2  951   0.258   2.170   4.314
   18SOL     OW  952   2.959   6.840   4.951
   18SOL    HW1  953   2.938   6.912   5.017
   18SOL    HW2  954   3.058   6.822   4.952
   19SOL     OW  955   4.579   5.831   3.447
   19SOL    HW1  956   4.480   5.816   3.441
   19SOL    HW2  957   4.613   5.859   3.357
   20SOL     OW  958   0.046   1.873   4.635
   20SOL    HW1  959   0.107   1.796   4.616
   20SOL    HW2  960   0.082   1.925   4.713
   21SOL     OW  961   2.105   3.186   1.935
   21SOL    HW1  962   2.051   3.255   1.983
   21SOL    HW2  963   2.125   3.110   1.996
   22SOL     OW  964   0.258   0.307   0.420
   22SOL    HW1  965   0.251   0.392   0.474
   22SOL    HW2  966   0.216   0.321   0.331
   23SOL     OW  967   0.594   5.278   0.693
   23SOL    HW1  968   0.517   5.339   0.673
   23SOL    HW2  969   0.633   5.301   0.782
   24SOL     OW  970   4.916   0.851   5.684
   24SOL    HW1  971   4.836   0.794   5.705
   24SOL    HW2  972   4.895   0.909   5.605
   25SOL     OW  973   1.982   0.066   5.582
   25SOL    HW1  974   2.036   7.022   5.533
   25SOL    HW2  975   1.995   0.156   5.541
   26SOL     OW  976   2.462   6.609   5.716
   26SOL    HW1  977   2.417   6.675   5.776
   26SOL    HW2  978   2.519   6.547   5.771
   27SOL     OW  979   0.405   0.100   2.092
   27SOL    HW1  980   0.445   0.064   2.008
   27SOL    HW2  981   0.327   0.043   2.119
   28SOL     OW  982   2.418   0.325   5.238
   28SOL    HW1  983   2.500   0.380   5.256
   28SOL    HW2  984   2.338   0.384   5.230
   29SOL     OW  985   5.070   1.104   1.984
   29SOL    HW1  986   5.010   1.152   2.048
   29SOL    HW2  987   5.022   1.090   1.897
   30SOL     OW  988   4.192   6.715   4.888
   30SOL    HW1  989   4.117   6.665   4.844
   30SOL    HW2  990   4.204   6.679   4.981
   31SOL     OW  991   5.846   3.770   4.057
   31SOL    HW1  992   5.861   3.844   3.992
   31SOL    HW2  993   5.748   3.760   4.074
   32SOL     OW  994   3.955   0.992   1.535
   32SOL    HW1  995   3.932   0.924   1.466
   32SOL    HW2  996   3.875   1.011   1.592
   33SOL     OW  997   1.625   4.773   5.333
   33SOL    HW1  998   1.557   4.763   5.260
   33SOL    HW2  999   1.714   4.743   5.300
   34SOL     OW 1000   2.640   6.872   5.238
   34SOL    HW1 1001   2.598   6.865   5.328
   34SOL    HW2 1002   2.592   6.812   5.174
   35SOL     OW 1003   1.040   3.565   4.766
   35SOL    HW1 1004   1.122   3.617   4.743
   35SOL    HW2 1005   1.052   3.470   4.737
   36SOL     OW 1006   5.596   1.230   4.563
   36SOL    HW1 1007   5.675   1.177   4.534
   36SOL    HW2 1008   5.566   1.289   4.488
   37SOL     OW 1009   1.114   5.758   3.801
   37SOL    HW1 1010   1.180   5.697   3.758
   37SOL    HW2 1011   1.053   5.705   3.859
   38SOL     OW 1012   0.691   3.310   1.949
   38SOL    HW1 1013   0.731   3.233   1.899
   38SOL    HW2 1014   0.761   3.381   1.962
   39SOL     OW 1015   6.402   5.644   1.528
   39SOL    HW1 1016   6.352   5.558   1.523
   39SOL    HW2 1017   6.416   5.680   1.435
   40SOL     OW 1018   4.463   0.231   5.505
   40SOL    HW1 1019   4.461   0.131   5.497
   40SOL    HW2 1020   4.458   0.272   5.413
   41SOL     OW 1021   0.329   3.577   1.057
   41SOL    HW1 1022   0.312   3.590   0.959
   41SOL    HW2 1023   0.278   3.498   1.090
   42SOL     OW 1024   2.400   3.695   0.850
   42SOL    HW1 1025   2.429   3.696   0.945
   42SOL    HW2 1026   2.369   3.786   0.823
   43SOL     OW 1027   5.088   0.919   2.737
   43SOL    HW1 1028   5.000   0.872   2.729
   43SOL    HW2 1029   5.089   0.997   2.675
   44SOL     OW 1030   0.020   0.667   6.505
   44SOL    HW1 1031   0.002   0.733   6.577
   44SOL    HW2 1032   6.992   0.691   6.423
   45SOL     OW 1033   2.090   3.673   4.873
   45SOL    HW1 1034   2.051   3.662   4.782
   45SOL    HW2 1035   2.099   3.583   4.916
   46SOL     OW 1036   0.734   6.012   4.861
   46SOL    HW1 1037   0.731   5.954   4.780
   46SOL    HW2 1038   0.641   6.026   4.896
   47SOL     OW 1039   0.786   4.073   6.385
   47SOL    HW1 1040   0.883   4.072   6.405
   47SOL    HW2 1041   0.734   4.053   6.468
   48SOL     OW 1042   1.135   3.973   0.294
   48SOL    HW1 1043   1.190   4.038   0.346
   48SOL    HW2 1044   1.042   4.008   0.282
   49SOL     OW 1045   3.907   6.671   6.710
   49SOL    HW1 1046   3.828   6.723   6.742
   49SOL    HW2 1047   3.954   6.724   6.639
   50SOL     OW 1048   4.916   1.652   6.191
   50SOL    HW1 1049   4.991   1.718   6.188
   50SOL    HW2 1050   4.931   1.587   6.266
   51SOL     OW 1051   1.212   6.836   1.367
   51SOL    HW1 1052   1.169   6.880   1.446
   51SOL    HW2 1053   1.229   6.905   1.297
   52SOL     OW 1054   4.772   2.961   2.658
   52SOL    HW1 1055   4.799   3.037   2.598
   52SOL    HW2 1056   4.845   2.943   2.723
   53SOL     OW 1057   4.182   6.747   1.039
   53SOL    HW1 1058   4.264   6.790   1.001
   53SOL    HW2 1059   4.158   6.791   1.126
   54SOL     OW 1060   0.408   1.516   6.117
   54SOL    HW1 1061   0.427   1.422   6.086
   54SOL    HW2 1062   0.343   1.513   6.193
   55SOL     OW 1063   2.930   3.760   6.174
   55SOL    HW1 1064   2.852   3.756   6.237
   55SOL    HW2 1065   3.015   3.747   6.224
   56SOL     OW 1066   1.475   1.768   0.360
   56SOL    HW1 1067   1.443   1.706   0.288
   56SOL    HW2 1068   1.471   1.862   0.328
   57SOL     OW 1069   3.988   6.457   1.576
   57SOL    HW1 1070   4.040   6.372   1.587
   57SOL    HW2 1071   3.898   6.446   1.618
   58SOL     OW 1072   0.850   0.472   0.679
   58SOL    HW1 1073   0.883   0.558   0.638
   58SOL    HW2 1074   0.888   0.395   0.627
   59SOL     OW 1075   4.720   4.117   6.639
   59SOL    HW1 1076   4.727   4.217   6.633
   59SOL    HW2 1077   4.685   4.081   6.553
   60SOL     OW 1078   6.302   2.527   2.253
   60SOL    HW1 1079   6.296   2.538   2.352
   60SOL    HW2 1080   6.357   2.601   2.214
   61SOL     OW 1081   0.699   4.422   2.744
   61SOL    HW1 1082   0.685   4.520   2.755
   61SOL    HW2 1083   0.760   4.389   2.817
   62SOL     OW 1084   5.131   4.011   3.218
   62SOL    HW1 1085   5.124   4.098   3.267
   62SOL    HW2 1086   5.042   3.964   3.220
   63SOL     OW 1087   4.830   0.158   5.904
   63SOL    HW1 1088   4.898   0.185   5.836
   63SOL    HW2 1089   4.798   0.239   5.954
   64SOL     OW 1090   2.288   1.577   6.488
   64SOL    HW1 1091   2.277   1.513   6.563
   64SOL    HW2 1092   2.238   1.661   6.509
   65SOL     OW 1093   0.786   5.249   5.295
   65SOL    HW1 1094   0.788   5.335   5.243
   65SOL    HW2 1095   0.694   5.211   5.294
   66SOL     OW 1096   4.399   1.771   1.553
   66SOL    HW1 1097   4.370   1.843   1.490
   66SOL    HW2 1098   4.476   1.803   1.608
   67SOL     OW 1099   0.093   2.819   2.977
   67SOL    HW1 1100   0.093   2.722   3.002
   67SOL    HW2 1101   7.024   2.849   2.959
   68SOL     OW 1102   0.112   0.962   5.439
   68SOL    HW1 1103   0.014   0.942   5.439
   68SOL    HW2 1104   0.162   0.890   5.391
   69SOL     OW 1105   1.924   1.133   5.894
   69SOL    HW1 1106   1.957   1.080   5.973
   69SOL    HW2 1107   1.987   1.122   5.818
   70SOL     OW 1108   5.299   5.277   2.657
   70SOL    HW1 1109   5.291   5.347   2.728
   70SOL    HW2 1110   5.393   5.244   2.654
   71SOL     OW 1111   5.828   1.435   5.222
   71SOL    HW1 1112   5.786   1.431   5.131
   71SOL    HW2 1113   5.829   1.343   5.262
   72SOL     OW 1114   6.442   2.265   2.292
   72SOL    HW1 1115   6.415   2.356   2.262
   72SOL    HW2 1116   6.381   2.233   2.364
   73SOL     OW 1117   2.078   1.568   0.391
   73SOL    HW1 1118   2.039   1.551   0.482
   73SOL    HW2 1119   2.142   1.645   0.397
   74SOL     OW 1120   2.722   0.649   0.136
   74SOL    HW1 1121   2.708   0.735   0.185
   74SOL    HW2 1122   2.820   0.635   0.121
   75SOL     OW 1123   2.987   3.295   1.257
   75SOL    HW1 1124   2.936   3.373   1.221
   75SOL    HW2 1125   2.993   3.302   1.356
   76SOL     OW 1126   2.976   5.146   5.993
   76SOL    HW1 1127   2.905   5.131   5.924
   76SOL    HW2 1128   2.933   5.163   6.081
   77SOL     OW 1129   0.385   4.816   5.468
   77SOL    HW1 1130   0.316   4.748   5.492
   77SOL    HW2 1131   0.470   4.770   5.442
   78SOL     OW 1132   4.591   1.773   0.830
   78SOL    HW1 1133   4.551   1.802   0.743
   78SOL    HW2 1134   4.690   1.787   0.827
   79SOL     OW 1135   2.731   4.984   4.271
   79SOL    HW1 1136   2.716   4.972   4.369
   79SOL    HW2 1137   2.725   4.895   4.226
   80SOL     OW 1138   4.339   2.193   5.145
   80SOL    HW1 1139   4.272   2.138   5.095
   80SOL    HW2 1140   4.320   2.189   5.243
   81SOL     OW 1141   1.789   5.183   2.751
   81SOL    HW1 1142   1.864   5.231   2.704
   81SOL    HW2 1143   1.761   5.103   2.698
   82SOL     OW 1144   2.510   0.187   1.354
   82SOL    HW1 1145   2.569   0.267   1.341
   82SOL    HW2 1146   2.459   0.169   1.271
   83SOL     OW 1147   6.292   2.585   3.784
   83SOL    HW1 1148   6.220   2.548   3.725
   83SOL    HW2 1149   6.264   2.576   3.880
   84SOL     OW 1150   5.243   2.104   3.214
   84SOL    HW1 1151   5.226   2.198   3.243
   84SOL    HW2 1152   5.251   2.045   3.294
   85SOL     OW 1153   2.243   5.231   2.971
   85SOL    HW1 1154   2.171   5.252   3.037
   85SOL    HW2 1155   2.322   5.194   3.019
   86SOL     OW 1156   5.197   1.070   5.400
   86SOL    HW1 1157   5.192   1.032   5.308
   86SOL    HW2 1158   5.162   1.003   5.465
   87SOL     OW 1159   2.884   1.655   6.532
   87SOL    HW1 1160   2.787   1.666   6.552
   87SOL    HW2 1161   2.915   1.730   6.473
   88SOL     OW 1162   1.050   1.728   0.219
   88SOL    HW1 1163   1.035   1.769   0.309
   88SOL    HW2 1164   1.045   1.799   0.149
   89SOL     OW 1165   4.547   4.237   6.105
   89SOL    HW1 1166   4.574   4.141   6.094
   89SOL    HW2 1167   4.448   4.243   6.116
   90SOL     OW 1168   6.973   3.856   1.993
   90SOL    HW1 1169   6.928   3.774   1.958
   90SOL    HW2 1170   0.030   3.876   1.939
   91SOL     OW 1171   5.310   5.100   0.932
   91SOL    HW1 1172   5.408   5.104   0.914
   91SOL    HW2 1173   5.279   5.005   0.923
   92SOL     OW 1174   0.125   6.429   6.768
   92SOL    HW1 1175   0.199   6.471   6.821
   92SOL    HW2 1176   0.137   6.453   6.671
   93SOL     OW 1177   2.974   3.561   2.565
   93SOL    HW1 1178   3.048   3.494   2.560
   93SOL    HW2 1179   2.935   3.561   2.657
   94SOL     OW 1180   4.046   0.896   4.230
   94SOL    HW1 1181   4.014   0.954   4.155
   94SOL    HW2 1182   4.129   0.936   4.269
   95SOL     OW 1183   0.734   6.748   3.787
   95SOL    HW1 1184   0.712   6.657   3.822
   95SOL    HW2 1185   0.681   6.766   3.704
   96SOL     OW 1186   0.803   0.074   0.697
   96SOL    HW1 1187   0.840   0.117   0.615
   96SOL    HW2 1188   0.703   0.082   0.697
   97SOL     OW 1189   4.001   5.068   5.275
   97SOL    HW1 1190   4.084   5.106   5.235
   97SOL    HW2 1191   3.930   5.062   5.204
   98SOL     OW 1192   6.685   2.077   5.152
   98SOL    HW1 1193   6.645   2.064   5.061
   98SOL    HW2 1194   6.723   1.991   5.184
   99SOL     OW 1195   5.577   4.977   4.864
   99SOL    HW1 1196   5.654   4.918   4.888
   99SOL    HW2 1197   5.545   4.956   4.772
  100SOL     OW 1198   1.837   1.742   5.625
  100SOL    HW1 1199   1.827   1.841   5.627
  100SOL    HW2 1200   1.798   1.706   5.540
  101SOL     OW 1201   5.233   2.806   2.535
  101SOL    HW1 1202   5.239   2.796   2.436
  101SOL    HW2 1203   5.282   2.731   2.579
  102SOL     OW 1204   5.355   6.419   0.807
  102SOL    HW1 1205   5.302   6.465   0.737
  102SOL    HW2 1206   5.424   6.482   0.844
  103SOL     OW 1207   2.113   2.371   0.800
  103SOL    HW1 1208   2.134   2.291   0.743
  103SOL    HW2 1209   2.185   2.382   0.868
  104SOL     OW 1210   0.914   3.912   1.641
  104SOL    HW1 1211   0.922   3.998   1.691
  104SOL    HW2 1212   0.996   3.897   1.587
  105SOL     OW 1213   0.519   1.550   4.330
  105SOL    HW1 1214   0.525   1.536   4.429
  105SOL    HW2 1215   0.442   1.499   4.293
  106SOL     OW 1216   5.690   3.034   1.776
  106SOL    HW1 1217   5.678   3.132   1.786
  106SOL    HW2 1218   5.657   3.005   1.686
  107SOL     OW 1219   4.898   0.463   2.210
  107SOL    HW1 1220   4.841   0.428   2.136
  107SOL    HW2 1221   4.854   0.444   2.298
  108SOL     OW 1222   4.295   0.945   4.667
  108SOL    HW1 1223   4.377   0.901   4.704
  108SOL    HW2 1224   4.221   0.942   4.734
  109SOL     OW 1225   2.465   1.565   3.789
  109SOL    HW1 1226   2.522   1.501   3.738
  109SOL    HW2 1227   2.385   1.517   3.824
  110SOL     OW 1228   4.587   4.880   5.321
  110SOL    HW1 1229   4.518   4.942   5.360
  110SOL    HW2 1230   4.672   4.889   5.373
  111SOL     OW 1231   6.771   3.568   0.120
  111SOL    HW1 1232   6.805   3.548   0.029
  111SOL    HW2 1233   6.773   3.485   0.176
  112SOL     OW 1234   3.728   6.056   5.270
  112SOL    HW1 1235   3.645   6.029   5.320
  112SOL    HW2 1236   3.702   6.113   5.192
  113SOL     OW 1237   1.345   4.734   2.394
  113SOL    HW1 1238   1.275   4.673   2.357
  113SOL    HW2 1239   1.304   4.795   2.462
  114SOL     OW 1240   6.527   1.903   1.703
  114SOL    HW1 1241   6.542   1.884   1.800
  114SOL    HW2 1242   6.502   1.818   1.656
  115SOL     OW 1243   4.676   0.302   3.393
  115SOL    HW1 1244   4.669   0.401   3.403
  115SOL    HW2 1245   4.617   0.258   3.461
  116SOL     OW 1246   5.891   5.852   6.503
  116SOL    HW1 1247   5.973   5.814   6.545
  116SOL    HW2 1248   5.810   5.809   6.545
  117SOL     OW 1249   1.351   1.644   0.152
  117SOL    HW1 1250   1.269   1.596   0.184
  117SOL    HW2 1251   1.323   1.725   0.100
  118SOL     OW 1252   0.919   2.945   1.830
  118SOL    HW1 1253   0.897   2.855   1.867
  118SOL    HW2 1254   0.882   2.953   1.737
  119SOL     OW 1255   5.150   5.237   4.114
  119SOL    HW1 1256   5.065   5.218   4.162
  119SOL    HW2 1257   5.203   5.305   4.164
  120SOL     OW 1258   5.080   1.116   3.977
  120SOL    HW1 1259   5.118   1.206   3.958
  120SOL    HW2 1260   5.133   1.046   3.928
  121SOL     OW 1261   6.579   5.421   5.885
  121SOL    HW1 1262   6.649   5.380   5.943
  121SOL    HW2 1263   6.564   5.364   5.805
  122SOL     OW 1264   0.573   5.688   5.513
  122SOL    HW1 1265   0.609   5.729   5.429
  122SOL    HW2 1266   0.474   5.703   5.518
  123SOL     OW 1267   1.011   2.041   1.294
  123SOL    HW1 1268   0.954   1.959   1.304
  123SOL    HW2 1269   0.956   2.122   1.311
  124SOL     OW 1270   1.671   3.309   7.017
  124SOL    HW1 1271   1.714   3.392   0.028
  124SOL    HW2 1272   1.614   3.331   6.938
  125SOL     OW 1273   4.087   3.318   2.088
  125SOL    HW1 1274   4.157   3.339   2.156
  125SOL    HW2 1275   4.131   3.302   1.999
  126SOL     OW 1276   3.568   3.323   5.323
  126SOL    HW1 1277   3.559   3.273   5.409
  126SOL    HW2 1278   3.538   3.417   5.336
  127SOL     OW 1279   0.521   4.769   6.430
  127SOL    HW1 1280   0.578   4.850   6.445
  127SOL    HW2 1281   0.570   4.687   6.461
  128SOL     OW 1282   4.839   4.248   6.387
  128SOL    HW1 1283   4.807   4.154   6.395
  128SOL    HW2 1284   4.769   4.310   6.422
  129SOL     OW 1285   1.278   5.124   3.025
  129SOL    HW1 1286   1.213   5.077   2.966
  129SOL    HW2 1287   1.229   5.164   3.103
  130SOL     OW 1288   6.532   4.386   5.234
  130SOL    HW1 1289   6.438   4.408   5.211
  130SOL    HW2 1290   6.533   4.314   5.304
  131SOL     OW 1291   0.354   2.797   1.488
  131SOL    HW1 1292   0.420   2.792   1.413
  131SOL    HW2 1293   0.403   2.813   1.574
  132SOL     OW 1294   3.387   3.692   1.760
  132SOL    HW1 1295   3.320   3.738   1.701
  132SOL    HW2 1296   3.425   3.759   1.824
  133SOL     OW 1297   4.782   4.503   6.126
  133SOL    HW1 1298   4.765   4.424   6.185
  133SOL    HW2 1299   4.878   4.531   6.135
  134SOL     OW 1300   0.435   1.814   6.890
  134SOL    HW1 1301   0.484   1.774   6.967
  134SOL    HW2 1302   0.336   1.811   6.908
  135SOL     OW 1303   4.329   5.149   3.728
  135SOL    HW1 1304   4.363   5.055   3.733
  135SOL    HW2 1305   4.306   5.181   3.820
  136SOL     OW 1306   3.350   6.556   6.933
  136SOL    HW1 1307   3.393   6.644   6.956
  136SOL    HW2 1308   3.251   6.562   6.947
  137SOL     OW 1309   1.572   4.406   0.479
  137SOL    HW1 1310   1.490   4.461   0.491
  137SOL    HW2 1311   1.615   4.388   0.568
  138SOL     OW 1312   0.160   6.861   1.667
  138SOL    HW1 1313   0.116   6.842   1.755
  138SOL    HW2 1314   0.127   6.795   1.599
  139SOL     OW 1315   1.265   0.362   0.930
  139SOL    HW1 1316   1.260   0.268   0.895
  139SOL    HW2 1317   1.264   0.361   1.030
  140SOL     OW 1318   2.380   0.357   3.493
  140SOL    HW1 1319   2.442   0.316   3.426
  140SOL    HW2 1320   2.429   0.426   3.546
  141SOL     OW 1321   2.220   2.469   1.066
  141SOL    HW1 1322   2.277   2.549   1.088
  141SOL    HW2 1323   2.126   2.486   1.096
  142SOL     OW 1324   1.319   4.711   6.081
  142SOL    HW1 1325   1.258   4.695   6.003
  142SOL    HW2 1326   1.399   4.652   6.074
  143SOL     OW 1327   4.216   6.201   2.122
  143SOL    HW1 1328   4.287   6.141   2.087
  143SOL    HW2 1329   4.130   6.183   2.074
  144SOL     OW 1330   2.488   4.831   2.988
  144SOL    HW1 1331   2.541   4.748   2.977
  144SOL    HW2 1332   2.390   4.810   2.981
  145SOL     OW 1333   6.283   6.698   2.269
  145SOL    HW1 1334   6.261   6.753   2.349
  145SOL    HW2 1335   6.199   6.660   2.230
  146SOL     OW 1336   6.321   1.429   4.820
  146SOL    HW1 1337   6.366   1.375   4.749
  146SOL    HW2 1338   6.357   1.402   4.910
  147SOL     OW 1339   5.914   6.393   5.645
  147SOL    HW1 1340   5.975   6.328   5.689
  147SOL    HW2 1341   5.948   6.413   5.553
  148SOL     OW 1342   2.641   0.186   3.720
  148SOL    HW1 1343   2.636   0.285   3.707
  148SOL    HW2 1344   2.714   0.148   3.663
  149SOL     OW 1345   2.124   1.942   5.449
  149SOL    HW1 1346   2.080   1.867   5.400
  149SOL    HW2 1347   2.062   1.978   5.519
  150SOL     OW 1348   5.128   3.436   3.995
  150SOL    HW1 1349   5.171   3.388   4.071
  150SOL    HW2 1350   5.030   3.415   3.993
  151SOL     OW 1351   6.349   2.671   1.877
  151SOL    HW1 1352   6.384   2.760   1.848
  151SOL    HW2 1353   6.413   2.599   1.848
  152SOL     OW 1354   6.333   1.246   0.275
  152SOL    HW1 1355   6.392   1.205   0.205
  152SOL    HW2 1356   6.252   1.187   0.288
  153SOL     OW 1357   1.747   1.674   3.906
  153SOL    HW1 1358   1.700   1.720   3.980
  153SOL    HW2 1359   1.687   1.666   3.827
  154SOL     OW 1360   0.167   1.734   3.377
  154SOL    HW1 1361   0.252   1.782   3.401
  154SOL    HW2 1362   0.089   1.792   3.400
  155SOL     OW 1363   5.938   5.530   3.572
  155SOL    HW1 1364   6.026   5.502   3.532
  155SOL    HW2 1365   5.879   5.449   3.582
  156SOL     OW 1366   3.934   6.838   0.602
  156SOL    HW1 1367   3.899   6.772   0.536
  156SOL    HW2 1368   3.946   6.792   0.691
  157SOL     OW 1369   5.903   1.768   0.521
  157SOL    HW1 1370   5.933   1.708   0.448
  157SOL    HW2 1371   5.841   1.719   0.583
  158SOL     OW 1372   0.917   2.598   5.514
  158SOL    HW1 1373   0.884   2.683   5.473
  158SOL    HW2 1374   1.015   2.606   5.533
  159SOL     OW 1375   0.378   4.724   0.001
  159SOL    HW1 1376   0.408   4.779   0.079
  159SOL    HW2 1377   0.443   4.649   7.012
  160SOL     OW 1378   4.266   0.357   1.677
  160SOL    HW1 1379   4.205   0.291   1.720
  160SOL    HW2 1380   4.273   0.337   1.579
  161SOL     OW 1381   5.516   6.442   1.328
  161SOL    HW1 1382   5.513   6.534   1.366
  161SOL    HW2 1383   5.435   6.426   1.272
  162SOL     OW 1384   4.197   0.335   5.218
  162SOL    HW1 1385   4.100   0.319   5.238
  162SOL    HW2 1386   4.245   0.360   5.302
  163SOL     OW 1387   1.704   4.161   3.207
  163SOL    HW1 1388   1.675   4.247   3.248
  163SOL    HW2 1389   1.779   4.122   3.261
  164SOL     OW 1390   2.218   2.983   2.347
  164SOL    HW1 1391   2.128   2.941   2.361
  164SOL    HW2 1392   2.272   2.974   2.430
  165SOL     OW 1393   6.949   6.026   4.693
  165SOL    HW1 1394   6.863   6.008   4.741
  165SOL    HW2 1395   6.949   6.119   4.658
  166SOL     OW 1396   0.597   5.492   4.430
  166SOL    HW1 1397   0.690   5.473   4.400
  166SOL    HW2 1398   0.587   5.470   4.527
  167SOL     OW 1399   0.202   1.310   3.268
  167SOL    HW1 1400   0.290   1.328   3.313
  167SOL    HW2 1401   0.202   1.217   3.232
  168SOL     OW 1402   3.386   4.024   4.828
  168SOL    HW1 1403   3.329   4.063   4.901
  168SOL    HW2 1404   3.333   4.021   4.743
  169SOL     OW 1405   4.625   2.813   6.194
  169SOL    HW1 1406   4.598   2.789   6.287
  169SOL    HW2 1407   4.555   2.783   6.130
  170SOL     OW 1408   6.103   5.133   3.018
  170SOL    HW1 1409   6.012   5.152   3.053
  170SOL    HW2 1410   6.118   5.186   2.934
  171SOL     OW 1411   3.391   3.051   1.141
  171SOL    HW1 1412   3.389   2.951   1.147
  171SOL    HW2 1413   3.298   3.085   1.127
  172SOL     OW 1414   1.844   0.525   0.245
  172SOL    HW1 1415   1.847   0.475   0.331
  172SOL    HW2 1416   1.787   0.607   0.256
  173SOL     OW 1417   5.567   1.002   4.713
  173SOL    HW1 1418   5.583   1.085   4.659
  173SOL    HW2 1419   5.497   0.946   4.667
  174SOL     OW 1420   6.552   5.391   3.700
  174SOL    HW1 1421   6.649   5.387   3.679
  174SOL    HW2 1422   6.526   5.485   3.720
  175SOL     OW 1423   0.471   5.474   1.863
  175SOL    HW1 1424   0.547   5.503   1.922
  175SOL    HW2 1425   0.396   5.540   1.871
  176SOL     OW 1426   5.274   3.584   0.892
  176SOL    HW1 1427   5.311   3.630   0.812
  176SOL    HW2 1428   5.252   3.651   0.963
  177SOL     OW 1429   5.345   2.455   4.125
  177SOL    HW1 1430   5.316   2.362   4.103
  177SOL    HW2 1431   5.276   2.520   4.093
  178SOL     OW 1432   1.068   5.159   4.413
  178SOL    HW1 1433   1.127   5.085   4.382
  178SOL    HW2 1434   1.117   5.246   4.407
  179SOL     OW 1435   3.117   4.023   1.882
  179SOL    HW1 1436   3.125   3.969   1.798
  179SOL    HW2 1437   3.072   4.109   1.861
  180SOL     OW 1438   5.780   0.515   5.503
  180SOL    HW1 1439   5.708   0.530   5.436
  180SOL    HW2 1440   5.815   0.422   5.494
  181SOL     OW 1441   2.848   5.647   5.659
  181SOL    HW1 1442   2.749   5.632   5.661
  181SOL    HW2 1443   2.867   5.745   5.668
  182SOL     OW 1444   3.156   2.596   5.336
  182SOL    HW1 1445   3.101   2.558   5.410
  182SOL    HW2 1446   3.164   2.528   5.263
  183SOL     OW 1447   1.900   0.483   2.415
  183SOL    HW1 1448   1.997   0.463   2.423
  183SOL    HW2 1449   1.882   0.577   2.444
  184SOL     OW 1450   5.660   6.608   3.968
  184SOL    HW1 1451   5.757   6.615   3.988
  184SOL    HW2 1452   5.608   6.656   4.039
  185SOL     OW 1453   0.253   6.121   5.068
  185SOL    HW1 1454   0.192   6.196   5.096
  185SOL    HW2 1455   0.205   6.061   5.005
  186SOL     OW 1456   3.407   4.913   0.194
  186SOL    HW1 1457   3.413   4.869   0.284
  186SOL    HW2 1458   3.388   5.011   0.207
  187SOL     OW 1459   3.677   5.723   7.009
  187SOL    HW1 1460   3.759   5.770   6.975
  187SOL    HW2 1461   3.600   5.787   7.010
  188SOL     OW 1462   1.338   4.223   3.246
  188SOL    HW1 1463   1.333   4.142   3.304
  188SOL    HW2 1464   1.398   4.204   3.167
  189SOL     OW 1465   6.521   3.527   5.605
  189SOL    HW1 1466   6.514   3.474   5.521
  189SOL    HW2 1467   6.511   3.625   5.584
  190SOL     OW 1468   6.202   6.556   6.894
  190SOL    HW1 1469   6.204   6.474   6.951
  190SOL    HW2 1470   6.107   6.580   6.873
  191SOL     OW 1471   1.911   3.997   6.518
  191SOL    HW1 1472   1.986   4.022   6.580
  191SOL    HW2 1473   1.829   4.047   6.544
  192SOL     OW 1474   0.668   6.318   0.335
  192SOL    HW1 1475   0.666   6.388   0.407
  192SOL    HW2 1476   0.675   6.363   0.246
  193SOL     OW 1477   3.113   0.244   1.955
  193SOL    HW1 1478   3.064   0.330   1.963
  193SOL    HW2 1479   3.138   0.211   2.046
  194SOL     OW 1480   4.652   6.748   3.161
  194SOL    HW1 1481   4.552   6.749   3.151
  194SOL    HW2 1482   4.676   6.755   3.258
  195SOL     OW 1483   3.247   0.804   1.368
  195SOL    HW1 1484   3.224   0.901   1.381
  195SOL    HW2 1485   3.341   0.788   1.398
  196SOL     OW 1486   3.667   2.837   1.326
  196SOL    HW1 1487   3.609   2.793   1.258
  196SOL    HW2 1488   3.617   2.845   1.412
  197SOL     OW 1489   0.773   6.296   1.157
  197SOL    HW1 1490   0.795   6.392   1.140
  197SOL    HW2 1491   0.835   6.239   1.103
  198SOL     OW 1492   6.619   1.091   5.286
  198SOL    HW1 1493   6.614   0.993   5.266
  198SOL    HW2 1494   6.709   1.126   5.260
  199SOL     OW 1495   1.248   6.901   3.365
  199SOL    HW1 1496   1.166   6.856   3.330
  199SOL    HW2 1497   1.329   6.857   3.327
  200SOL     OW 1498   2.108   3.161   3.115
  200SOL    HW1 1499   2.110   3.225   3.038
  200SOL    HW2 1500   2.043   3.194   3.184
  201SOL     OW 1501   5.279   0.985   7.012
  201SOL    HW1 1502   5.231   0.985   0.075
  201SOL    HW2 1503   5.324   1.074   6.999
  202SOL     OW 1504   3.634   0.441   2.665
  202SOL    HW1 1505   3.585   0.528   2.670
  202SOL    HW2 1506   3.709   0.449   2.600
  203SOL     OW 1507   5.532   2.227   1.747
  203SOL    HW1 1508   5.441   2.202   1.713
  203SOL    HW2 1509   5.580   2.144   1.777
  204SOL     OW 1510   2.583   6.073   0.841
  204SOL    HW1 1511   2.500   6.096   0.789
  204SOL    HW2 1512   2.591   5.974   0.849
  205SOL     OW 1513   5.165   0.825   6.785
  205SOL    HW1 1514   5.183   0.837   6.883
  205SOL    HW2 1515   5.069   0.847   6.766
  206SOL     OW 1516   0.506   5.359   2.179
  206SOL    HW1 1517   0.421   5.348   2.231
  206SOL    HW2 1518   0.488   5.411   2.096
  207SOL     OW 1519   6.820   2.897   5.955
  207SOL    HW1 1520   6.757   2.919   6.029
  207SOL    HW2 1521   6.815   2.969   5.885
  208SOL     OW 1522   4.667   4.027   0.978
  208SOL    HW1 1523   4.647   4.059   1.071
  208SOL    HW2 1524   4.622   3.939   0.962
  209SOL     OW 1525   6.292   1.020   4.173
  209SOL    HW1 1526   6.344   1.017   4.088
  209SOL    HW2 1527   6.318   1.102   4.225
  210SOL     OW 1528   5.483   3.216   0.275
  210SOL    HW1 1529   5.541   3.136   0.289
  210SOL    HW2 1530   5.443   3.244   0.362
  211SOL     OW 1531   0.415   4.833   2.270
  211SOL    HW1 1532   0.387   4.902   2.337
  211SOL    HW2 1533   0.439   4.748   2.317
  212SOL     OW 1534   0.595   5.243   5.543
  212SOL    HW1 1535   0.692   5.220   5.547
  212SOL    HW2 1536   0.556   5.207   5.459
  213SOL     OW 1537   5.062   2.319   1.690
  213SOL    HW1 1538   5.132   2.389   1.703
  213SOL    HW2 1539   4.974   2.353   1.724
  214SOL     OW 1540   6.924   5.653   3.545
  214SOL    HW1 1541   6.863   5.690   3.475
  214SOL    HW2 1542   6.919   5.553   3.545
  215SOL     OW 1543   3.552   2.872   3.460
  215SOL    HW1 1544   3.588   2.949   3.407
  215SOL    HW2 1545   3.625   2.805   3.476
  216SOL     OW 1546   4.450   6.854   4.532
  216SOL    HW1 1547   4.414   6.934   4.580
  216SOL    HW2 1548   4.434   6.772   4.587
  217SOL     OW 1549   6.252   2.016   4.653
  217SOL    HW1 1550   6.299   2.079   4.715
  217SOL    HW2 1551   6.159   1.999   4.686
  218SOL     OW 1552   2.704   4.818   5.451
  218SOL    HW1 1553   2.772   4.891   5.448
  218SOL    HW2 1554   2.750   4.730   5.435
  219SOL     OW 1555   3.376   6.779   0.065
  219SOL    HW1 1556   3.311   6.826   0.007
  219SOL    HW2 1557   3.327   6.715   0.125
  220SOL     OW 1558   1.489   4.319   0.750
  220SOL    HW1 1559   1.508   4.412   0.784
  220SOL    HW2 1560   1.398   4.317   0.710
  221SOL     OW 1561   6.075   4.217   4.396
  221SOL    HW1 1562   6.020   4.145   4.354
  221SOL    HW2 1563   6.051   4.305   4.356
  222SOL     OW 1564   0.966   0.442   4.868
  222SOL    HW1 1565   0.967   0.398   4.958
  222SOL    HW2 1566   0.929   0.378   4.800
  223SOL     OW 1567   5.554   5.990   2.069
  223SOL    HW1 1568   5.585   5.898   2.094
  223SOL    HW2 1569   5.622   6.034   2.012
  224SOL     OW 1570   5.410   4.493   1.999
  224SOL    HW1 1571   5.333   4.536   1.952
  224SOL    HW2 1572   5.383   4.472   2.093
  225SOL     OW 1573   4.426   6.015   0.667
  225SOL    HW1 1574   4.503   5.957   0.693
  225SOL    HW2 1575   4.362   6.021   0.744
  226SOL     OW 1576   1.382   5.533   3.123
  226SOL    HW1 1577   1.480   5.519   3.138
  226SOL    HW2 1578   1.355   5.491   3.036
  227SOL     OW 1579   1.466   3.657   3.171
  227SOL    HW1 1580   1.516   3.730   3.216
  227SOL    HW2 1581   1.493   3.569   3.210
  228SOL     OW 1582   3.657   5.634   3.431
  228SOL    HW1 1583   3.620   5.629   3.338
  228SOL    HW2 1584   3.643   5.547   3.478
  229SOL     OW 1585   5.726   6.897   2.163
  229SOL    HW1 1586   5.680   6.984   2.181
  229SOL    HW2 1587   5.804   6.887   2.224
  230SOL     OW 1588   1.066   4.862   4.635
  230SOL    HW1 1589   1.046   4.956   4.660
  230SOL    HW2 1590   1.122   4.819   4.706
  231SOL     OW 1591   6.882   2.488   6.871
  231SOL    HW1 1592   6.934   2.477   6.787
  231SOL    HW2 1593   6.936   2.539   6.938
  232SOL     OW 1594   2.130   3.268   0.337
  232SOL    HW1 1595   2.193   3.191   0.331
  232SOL    HW2 1596   2.118   3.294   0.433
  233SOL     OW 1597   3.414   0.271   0.471
  233SOL    HW1 1598   3.326   0.312   0.448
  233SOL    HW2 1599   3.476   0.279   0.393
  234SOL     OW 1600   2.054   5.620   0.590
  234SOL    HW1 1601   1.990   5.584   0.522
  234SOL    HW2 1602   2.009   5.691   0.644
  235SOL     OW 1603   4.338   2.825   5.555
  235SOL    HW1 1604   4.434   2.821   5.525
  235SOL    HW2 1605   4.286   2.752   5.511
  236SOL     OW 1606   0.028   6.701   6.462
  236SOL    HW1 1607   0.084   6.627   6.500
  236SOL    HW2 1608   0.083   6.752   6.395
  237SOL     OW 1609   5.712   0.627   2.763
  237SOL    HW1 1610   5.701   0.711   2.816
  237SOL    HW2 1611   5.786   0.640   2.697
  238SOL     OW 1612   0.585   1.697   3.328
  238SOL    HW1 1613   0.510   1.761   3.343
  238SOL    HW2 1614   0.565   1.641   3.248
  239SOL     OW 1615   6.644   4.794   6.149
  239SOL    HW1 1616   6.565   4.837   6.107
  239SOL    HW2 1617   6.661   4.836   6.239
  240SOL     OW 1618   0.031   2.986   4.363
  240SOL    HW1 1619   0.110   3.010   4.307
  240SOL    HW2 1620   7.003   2.913   4.319
  241SOL     OW 1621   6.154   2.597   4.030
  241SOL    HW1 1622   6.224   2.654   4.074
  241SOL    HW2 1623   6.064   2.624   4.063
  242SOL     OW 1624   2.047   1.979   2.603
  242SOL    HW1 1625   2.141   2.005   2.622
  242SOL    HW2 1626   1.984   2.046   2.642
  243SOL     OW 1627   5.394   1.362   6.855
  243SOL    HW1 1628   5.373   1.272   6.817
  243SOL    HW2 1629   5.486   1.361   6.894
  244SOL     OW 1630   1.864   0.727   5.912
  244SOL    HW1 1631   1.824   0.647   5.867
  244SOL    HW2 1632   1.938   0.763   5.856
  245SOL     OW 1633   4.600   2.135   5.074
  245SOL    HW1 1634   4.511   2.152   5.115
  245SOL    HW2 1635   4.594   2.142   4.974
  246SOL     OW 1636   5.082   4.050   4.570
  246SOL    HW1 1637   5.098   3.964   4.522
  246SOL    HW2 1638   5.093   4.126   4.506
  247SOL     OW 1639   1.308   0.207   2.633
  247SOL    HW1 1640   1.331   0.155   2.715
  247SOL    HW2 1641   1.297   0.304   2.656
  248SOL     OW 1642   6.913   3.197   3.378
  248SOL    HW1 1643   6.952   3.108   3.401
  248SOL    HW2 1644   6.845   3.222   3.447
  249SOL     OW 1645   1.678   6.469   4.541
  249SOL    HW1 1646   1.755   6.533   4.548
  249SOL    HW2 1647   1.654   6.456   4.445
  250SOL     OW 1648   5.916   2.368   0.762
  250SOL    HW1 1649   5.839   2.431   0.766
  250SOL    HW2 1650   5.992   2.410   0.712
  251SOL     OW 1651   2.305   6.962   2.597
  251SOL    HW1 1652   2.224   6.991   2.647
  251SOL    HW2 1653   2.360   0.017   2.573
  252SOL     OW 1654   6.668   3.314   6.649
  252SOL    HW1 1655   6.581   3.361   6.635
  252SOL    HW2 1656   6.653   3.217   6.662
  253SOL     OW 1657   1.933   4.653   5.535
  253SOL    HW1 1658   1.937   4.718   5.460
  253SOL    HW2 1659   2.013   4.664   5.594
  254SOL     OW 1660   5.246   3.694   6.773
  254SOL    HW1 1661   5.165   3.688   6.831
  254SOL    HW2 1662   5.327   3.702   6.830
  255SOL     OW 1663   4.473   2.309   2.378
  255SOL    HW1 1664   4.479   2.237   2.447
  255SOL    HW2 1665   4.386   2.302   2.330
  256SOL     OW 1666   0.402   6.517   0.860
  256SOL    HW1 1667   0.453   6.487   0.941
  256SOL    HW2 1668   0.342   6.443   0.830
  257SOL     OW 1669   2.570   6.222   6.603
  257SOL    HW1 1670   2.587   6.285   6.678
  257SOL    HW2 1671   2.474   6.226   6.576
  258SOL     OW 1672   5.196   5.151   3.792
  258SOL    HW1 1673   5.192   5.245   3.828
  258SOL    HW2 1674   5.111   5.103   3.816
  259SOL     OW 1675   6.221   1.509   1.956
  259SOL    HW1 1676   6.296   1.501   1.890
  259SOL    HW2 1677   6.259   1.516   2.048
  260SOL     OW 1678   6.315   7.019   6.208
  260SOL    HW1 1679   6.237   6.959   6.221
  260SOL    HW2 1680   6.399   6.965   6.206
  261SOL     OW 1681   6.454   1.022   3.114
  261SOL    HW1 1682   6.449   0.972   3.028
  261SOL    HW2 1683   6.395   1.102   3.110
  262SOL     OW 1684   1.348   5.760   0.880
  262SOL    HW1 1685   1.357   5.669   0.840
  262SOL    HW2 1686   1.268   5.763   0.940
  263SOL     OW 1687   0.819   4.419   5.180
  263SOL    HW1 1688   0.811   4.515   5.206
  263SOL    HW2 1689   0.736   4.390   5.133
  264SOL     OW 1690   4.440   4.500   0.497
  264SOL    HW1 1691   4.340   4.506   0.505
  264SOL    HW2 1692   4.480   4.591   0.506
  265SOL     OW 1693   3.928   5.157   4.626
  265SOL    HW1 1694   4.018   5.123   4.597
  265SOL    HW2 1695   3.902   5.234   4.569
  266SOL     OW 1696   4.898   3.298   6.519
  266SOL    HW1 1697   4.812   3.248   6.518
  266SOL    HW2 1698   4.897   3.369   6.449
  267SOL     OW 1699   3.217   1.656   6.503
  267SOL    HW1 1700   3.126   1.653   6.461
  267SOL    HW2 1701   3.268   1.733   6.467
  268SOL     OW 1702   1.812   4.233   2.961
  268SOL    HW1 1703   1.768   4.320   2.983
  268SOL    HW2 1704   1.765   4.159   3.009
  269SOL     OW 1705   3.613   1.390   5.347
  269SOL    HW1 1706   3.645   1.297   5.364
  269SOL    HW2 1707   3.691   1.448   5.324
  270SOL     OW 1708   4.827   5.734   4.815
  270SOL    HW1 1709   4.887   5.803   4.775
  270SOL    HW2 1710   4.751   5.717   4.753
  271SOL     OW 1711   2.442   0.950   0.292
  271SOL    HW1 1712   2.529   0.930   0.246
  271SOL    HW2 1713   2.374   0.978   0.224
  272SOL     OW 1714   5.708   4.154   6.646
  272SOL    HW1 1715   5.721   4.137   6.548
  272SOL    HW2 1716   5.789   4.198   6.683
  273SOL     OW 1717   0.442   5.684   4.338
  273SOL    HW1 1718   0.430   5.650   4.245
  273SOL    HW2 1719   0.499   5.621   4.390
  274SOL     OW 1720   4.997   2.907   2.371
  274SOL    HW1 1721   4.898   2.898   2.358
  274SOL    HW2 1722   5.015   2.965   2.451
  275SOL     OW 1723   5.582   5.153   5.952
  275SOL    HW1 1724   5.607   5.250   5.943
  275SOL    HW2 1725   5.487   5.146   5.980
  276SOL     OW 1726   0.372   0.156   4.869
  276SOL    HW1 1727   0.432   0.101   4.927
  276SOL    HW2 1728   0.416   0.172   4.781
  277SOL     OW 1729   4.019   3.389   6.045
  277SOL    HW1 1730   3.956   3.466   6.055
  277SOL    HW2 1731   3.993   3.335   5.964
  278SOL     OW 1732   6.087   5.036   1.952
  278SOL    HW1 1733   6.107   4.940   1.971
  278SOL    HW2 1734   5.995   5.059   1.983
  279SOL     OW 1735   6.536   3.360   4.175
  279SOL    HW1 1736   6.528   3.415   4.092
  279SOL    HW2 1737   6.618   3.388   4.226
  280SOL     OW 1738   4.128   0.687   2.388
  280SOL    HW1 1739   4.195   0.759   2.407
  280SOL    HW2 1740   4.036   0.722   2.404
  281SOL     OW 1741   4.938   5.456   6.292
  281SOL    HW1 1742   4.954   5.428   6.386
  281SOL    HW2 1743   4.878   5.390   6.247
  282SOL     OW 1744   0.556   1.255   6.999
  282SOL    HW1 1745   0.624   1.229   6.930
  282SOL    HW2 1746   0.501   1.331   6.965
  283SOL     OW 1747   6.348   3.985   3.138
  283SOL    HW1 1748   6.374   3.902   3.188
  283SOL    HW2 1749   6.427   4.021   3.090
  284SOL     OW 1750   5.820   0.075   2.727
  284SOL    HW1 1751   5.733   0.110   2.762
  284SOL    HW2 1752   5.894   0.104   2.787
  285SOL     OW 1753   5.531   5.927   6.458
  285SOL    HW1 1754   5.613   5.981   6.440
  285SOL    HW2 1755   5.492   5.953   6.546
  286SOL     OW 1756   3.140   6.135   5.591
  286SOL    HW1 1757   3.161   6.203   5.661
  286SOL    HW2 1758   3.217   6.073   5.580
  287SOL     OW 1759   5.021   6.997   0.551
  287SOL    HW1 1760   5.077   0.050   0.522
  287SOL    HW2 1761   4.986   6.949   0.470
  288SOL     OW 1762   3.567   0.522   0.032
  288SOL    HW1 1763   3.643   0.521   0.098
  288SOL    HW2 1764   3.497   0.458   0.062
  289SOL     OW 1765   6.111   5.196   4.594
  289SOL    HW1 1766   6.034   5.138   4.621
  289SOL    HW2 1767   6.196   5.159   4.632
  290SOL     OW 1768   2.967   1.400   4.859
  290SOL    HW1 1769   2.928   1.377   4.948
  290SOL    HW2 1770   2.894   1.432   4.798
  291SOL     OW 1771   6.028   1.347   4.793
  291SOL    HW1 1772   6.125   1.372   4.793
  291SOL    HW2 1773   5.984   1.384   4.711
  292SOL     OW 1774   2.781   0.659   4.762
  292SOL    HW1 1775   2.862   0.693   4.714
  292SOL    HW2 1776   2.721   0.736   4.785
  293SOL     OW 1777   5.681   0.889   2.896
  293SOL    HW1 1778   5.609   0.958   2.890
  293SOL    HW2 1779   5.770   0.931   2.877
  294SOL     OW 1780   6.781   0.942   6.125
  294SOL    HW1 1781   6.777   0.937   6.025
  294SOL    HW2 1782   6.809   1.034   6.153
  295SOL     OW 1783   0.287   0.428   5.361
  295SOL    HW1 1784   0.338   0.371   5.296
  295SOL    HW2 1785   0.323   0.522   5.357
  296SOL     OW 1786   6.897   1.444   6.502
  296SOL    HW1 1787   6.926   1.508   6.572
  296SOL    HW2 1788   6.826   1.486   6.445
  297SOL     OW 1789   4.991   4.310   3.056
  297SOL    HW1 1790   5.045   4.316   3.139
  297SOL    HW2 1791   5.051   4.295   2.977
  298SOL     OW 1792   4.373   6.146   5.179
  298SOL    HW1 1793   4.288   6.152   5.127
  298SOL    HW2 1794   4.428   6.229   5.164
  299SOL     OW 1795   6.726   1.607   6.371
  299SOL    HW1 1796   6.656   1.678   6.360
  299SOL    HW2 1797   6.792   1.614   6.296
  300SOL     OW 1798   4.421   6.617   4.733
  300SOL    HW1 1799   4.504   6.648   4.779
  300SOL    HW2 1800   4.341   6.635   4.792
  301SOL     OW 1801   0.152   6.375   5.785
  301SOL    HW1 1802   0.115   6.429   5.710
  301SOL    HW2 1803   0.243   6.411   5.810
  302SOL     OW 1804   0.718   5.788   2.405
  302SOL    HW1 1805   0.799   5.762   2.351
  302SOL    HW2 1806   0.642   5.728   2.381
  303SOL     OW 1807   4.267   5.257   2.270
  303SOL    HW1 1808   4.362   5.238   2.245
  303SOL    HW2 1809   4.206   5.205   2.211
  304SOL     OW 1810   1.518   1.047   5.263
  304SOL    HW1 1811   1.526   1.127   5.203
  304SOL    HW2 1812   1.452   1.067   5.336
  305SOL     OW 1813   3.454   1.169   1.128
  305SOL    HW1 1814   3.543   1.213   1.110
  305SOL    HW2 1815   3.423   1.121   1.046
  306SOL     OW 1816   0.162   6.247   2.001
  306SOL    HW1 1817   0.166   6.345   2.015
  306SOL    HW2 1818   0.185   6.226   1.906
  307SOL     OW 1819   3.669   2.860   4.427
  307SOL    HW1 1820   3.670   2.910   4.340
  307SOL    HW2 1821   3.717   2.773   4.416
  308SOL     OW 1822   6.532   2.861   0.075
  308SOL    HW1 1823   6.437   2.887   0.054
  308SOL    HW2 1824   6.587   2.944   0.087
  309SOL     OW 1825   1.888   5.577   0.356
  309SOL    HW1 1826   1.882   5.560   0.258
  309SOL    HW2 1827   1.809   5.537   0.402
  310SOL     OW 1828   4.242   6.439   5.355
  310SOL    HW1 1829   4.328   6.424   5.404
  310SOL    HW2 1830   4.194   6.352   5.344
  311SOL     OW 1831   1.753   5.759   2.109
  311SOL    HW1 1832   1.708   5.680   2.150
  311SOL    HW2 1833   1.685   5.823   2.074
  312SOL     OW 1834   3.153   7.021   4.803
  312SOL    HW1 1835   3.170   6.972   4.888
  312SOL    HW2 1836   3.237   0.043   4.774
  313SOL     OW 1837   3.329   4.125   3.488
  313SOL    HW1 1838   3.263   4.161   3.422
  313SOL    HW2 1839   3.314   4.027   3.500
  314SOL     OW 1840   1.791   4.430   6.284
  314SOL    HW1 1841   1.815   4.355   6.222
  314SOL    HW2 1842   1.808   4.518   6.239
  315SOL     OW 1843   6.082   0.794   4.098
  315SOL    HW1 1844   6.037   0.821   4.013
  315SOL    HW2 1845   6.013   0.771   4.166
  316SOL     OW 1846   4.088   0.951   4.845
  316SOL    HW1 1847   4.054   0.870   4.893
  316SOL    HW2 1848   4.010   1.004   4.810
  317SOL     OW 1849   6.988   1.328   1.925
  317SOL    HW1 1850   0.055   1.369   1.915
  317SOL    HW2 1851   6.921   1.384   1.876
  318SOL     OW 1852   1.102   1.579   3.344
  318SOL    HW1 1853   1.145   1.639   3.412
  318SOL    HW2 1854   1.079   1.631   3.262
  319SOL     OW 1855   6.802   1.454   1.783
  319SOL    HW1 1856   6.806   1.542   1.829
  319SOL    HW2 1857   6.717   1.406   1.807
  320SOL     OW 1858   5.112   0.600   6.350
  320SOL    HW1 1859   5.043   0.572   6.282
  320SOL    HW2 1860   5.091   0.692   6.382
  321SOL     OW 1861   4.318   3.801   0.743
  321SOL    HW1 1862   4.271   3.890   0.744
  321SOL    HW2 1863   4.263   3.733   0.790
  322SOL     OW 1864   2.635   1.072   0.479
  322SOL    HW1 1865   2.545   1.033   0.498
  322SOL    HW2 1866   2.642   1.091   0.381
  323SOL     OW 1867   0.288   4.020   2.363
  323SOL    HW1 1868   0.227   4.008   2.284
  323SOL    HW2 1869   0.360   4.085   2.339
  324SOL     OW 1870   6.899   0.919   3.776
  324SOL    HW1 1871   6.872   0.993   3.714
  324SOL    HW2 1872   6.956   0.853   3.727
  325SOL     OW 1873   0.083   2.499   0.028
  325SOL    HW1 1874   0.014   2.457   0.086
  325SOL    HW2 1875   0.056   2.592   0.005
  326SOL     OW 1876   6.344   5.539   5.693
  326SOL    HW1 1877   6.364   5.479   5.615
  326SOL    HW2 1878   6.366   5.634   5.668
  327SOL     OW 1879   3.716   6.116   6.318
  327SOL    HW1 1880   3.784   6.173   6.273
  327SOL    HW2 1881   3.713   6.137   6.416
  328SOL     OW 1882   2.485   5.366   3.443
  328SOL    HW1 1883   2.479   5.404   3.535
  328SOL    HW2 1884   2.446   5.430   3.377
  329SOL     OW 1885   2.930   3.745   2.881
  329SOL    HW1 1886   2.924   3.829   2.827
  329SOL    HW2 1887   3.021   3.705   2.869
  330SOL     OW 1888   2.223   3.450   6.716
  330SOL    HW1 1889   2.146   3.412   6.769
  330SOL    HW2 1890   2.193   3.465   6.622
  331SOL     OW 1891   4.524   5.950   4.794
  331SOL    HW1 1892   4.487   5.911   4.878
  331SOL    HW2 1893   4.541   5.877   4.728
  332SOL     OW 1894   5.991   2.353   2.886
  332SOL    HW1 1895   6.004   2.345   2.985
  332SOL    HW2 1896   5.956   2.266   2.851
  333SOL     OW 1897   3.025   6.432   4.011
  333SOL    HW1 1898   3.093   6.477   3.952
  333SOL    HW2 1899   3.072   6.374   4.077
  334SOL     OW 1900   3.458   3.482   4.269
  334SOL    HW1 1901   3.395   3.542   4.318
  334SOL    HW2 1902   3.535   3.459   4.329
  335SOL     OW 1903   4.710   1.139   6.457
  335SOL    HW1 1904   4.725   1.058   6.514
  335SOL    HW2 1905   4.758   1.217   6.498
  336SOL     OW 1906   3.640   1.248   4.451
  336SOL    HW1 1907   3.727   1.298   4.455
  336SOL    HW2 1908   3.629   1.194   4.534
  337SOL     OW 1909   0.929   1.546   5.431
  337SOL    HW1 1910   0.967   1.638   5.420
  337SOL    HW2 1911   0.843   1.551   5.481
  338SOL     OW 1912   4.563   1.994   1.399
  338SOL    HW1 1913   4.595   1.957   1.486
  338SOL    HW2 1914   4.464   2.006   1.402
  339SOL     OW 1915   3.659   4.371   5.895
  339SOL    HW1 1916   3.646   4.297   5.829
  339SOL    HW2 1917   3.587   4.439   5.884
  340SOL     OW 1918   5.604   4.591   4.532
  340SOL    HW1 1919   5.666   4.534   4.476
  340SOL    HW2 1920   5.516   4.545   4.540
  341SOL     OW 1921   6.103   0.550   1.688
  341SOL    HW1 1922   6.028   0.574   1.626
  341SOL    HW2 1923   6.190   0.569   1.642
  342SOL     OW 1924   4.544   0.367   1.369
  342SOL    HW1 1925   4.450   0.400   1.358
  342SOL    HW2 1926   4.603   0.407   1.299
  343SOL     OW 1927   5.714   0.593   2.036
  343SOL    HW1 1928   5.795   0.638   2.000
  343SOL    HW2 1929   5.709   0.500   1.999
  344SOL     OW 1930   6.474   3.123   1.408
  344SOL    HW1 1931   6.502   3.158   1.498
  344SOL    HW2 1932   6.553   3.078   1.364
  345SOL     OW 1933   0.165   3.401   3.282
  345SOL    HW1 1934   0.082   3.344   3.287
  345SOL    HW2 1935   0.186   3.420   3.186
  346SOL     OW 1936   0.679   0.551   3.401
  346SOL    HW1 1937   0.695   0.643   3.437
  346SOL    HW2 1938   0.724   0.542   3.312
  347SOL     OW 1939   1.707   4.082   1.472
  347SOL    HW1 1940   1.630   4.115   1.418
  347SOL    HW2 1941   1.683   4.081   1.569
  348SOL     OW 1942   6.315   4.534   1.094
  348SOL    HW1 1943   6.269   4.449   1.071
  348SOL    HW2 1944   6.248   4.603   1.121
  349SOL     OW 1945   5.935   5.248   6.767
  349SOL    HW1 1946   5.881   5.186   6.710
  349SOL    HW2 1947   5.899   5.341   6.759
  350SOL     OW 1948   2.144   1.113   0.468
  350SOL    HW1 1949   2.078   1.063   0.524
  350SOL    HW2 1950   2.138   1.082   0.374
  351SOL     OW 1951   4.178   4.486   0.854
  351SOL    HW1 1952   4.246   4.413   0.867
  351SOL    HW2 1953   4.209   4.569   0.901
  352SOL     OW 1954   3.800   0.777   2.839
  352SOL    HW1 1955   3.725   0.782   2.773
  352SOL    HW2 1956   3.763   0.757   2.930
  353SOL     OW 1957   2.339   6.376   0.844
  353SOL    HW1 1958   2.251   6.367   0.891
  353SOL    HW2 1959   2.390   6.451   0.885
  354SOL     OW 1960   3.269   2.415   0.933
  354SOL    HW1 1961   3.357   2.455   0.957
  354SOL    HW2 1962   3.283   2.337   0.872
  355SOL     OW 1963   6.590   2.399   2.601
  355SOL    HW1 1964   6.504   2.349   2.589
  355SOL    HW2 1965   6.649   2.349   2.664
  356SOL     OW 1966   2.708   0.039   5.815
  356SOL    HW1 1967   2.627   0.053   5.871
  356SOL    HW2 1968   2.681   0.011   5.723
  357SOL     OW 1969   6.130   5.617   4.386
  357SOL    HW1 1970   6.106   5.639   4.481
  357SOL    HW2 1971   6.074   5.671   4.324
  358SOL     OW 1972   3.414   6.137   7.012
  358SOL    HW1 1973   3.431   6.180   0.077
  358SOL    HW2 1974   3.317   6.149   6.988
  359SOL     OW 1975   2.006   2.188   1.119
  359SOL    HW1 1976   1.983   2.122   1.191
  359SOL    HW2 1977   2.025   2.139   1.034
  360SOL     OW 1978   1.641   4.942   2.500
  360SOL    HW1 1979   1.725   4.900   2.534
  360SOL    HW2 1980   1.630   4.920   2.403
  361SOL     OW 1981   5.829   2.982   2.894
  361SOL    HW1 1982   5.732   2.998   2.874
  361SOL    HW2 1983   5.848   3.008   2.989
  362SOL     OW 1984   3.653   2.907   3.103
  362SOL    HW1 1985   3.742   2.903   3.058
  362SOL    HW2 1986   3.587   2.853   3.052
  363SOL     OW 1987   4.773   5.747   2.024
  363SOL    HW1 1988   4.791   5.762   1.927
  363SOL    HW2 1989   4.826   5.812   2.079
  364SOL     OW 1990   1.286   1.026   6.871
  364SOL    HW1 1991   1.213   0.963   6.896
  364SOL    HW2 1992   1.286   1.103   6.935
  365SOL     OW 1993   4.954   0.042   3.513
  365SOL    HW1 1994   5.033   0.094   3.479
  365SOL    HW2 1995   4.974   6.968   3.508
  366SOL     OW 1996   5.507   0.619   0.467
  366SOL    HW1 1997   5.476   0.565   0.546
  366SOL    HW2 1998   5.607   0.622   0.467
  367SOL     OW 1999   6.279   6.274   6.822
  367SOL    HW1 2000   6.371   6.238   6.831
  367SOL    HW2 2001   6.244   6.299   6.913
  368SOL     OW 2002   2.739   0.868   4.953
  368SOL    HW1 2003   2.712   0.961   4.925
  368SOL    HW2 2004   2.835   0.868   4.979
  369SOL     OW 2005   5.162   3.580   6.193
  369SOL    HW1 2006   5.184   3.539   6.104
  369SOL    HW2 2007   5.241   3.630   6.226
  370SOL     OW 2008   1.570   1.800   4.071
  370SOL    HW1 2009   1.488   1.796   4.013
  370SOL    HW2 2010   1.599   1.895   4.082
  371SOL     OW 2011   2.753   5.095   0.919
  371SOL    HW1 2012   2.815   5.094   0.998
  371SOL    HW2 2013   2.725   5.189   0.900
  372SOL     OW 2014   2.335   5.809   5.801
  372SOL    HW1 2015   2.289   5.894   5.827
  372SOL    HW2 2016   2.284   5.731   5.839
  373SOL     OW 2017   5.790   4.718   2.091
  373SOL    HW1 2018   5.720   4.661   2.047
  373SOL    HW2 2019   5.792   4.698   2.189
  374SOL     OW 2020   2.392   2.670   2.468
  374SOL    HW1 2021   2.385   2.624   2.379
  374SOL    HW2 2022   2.461   2.624   2.523
  375SOL     OW 2023   0.543   5.121   4.398
  375SOL    HW1 2024   0.476   5.061   4.441
  375SOL    HW2 2025   0.501   5.210   4.379
  376SOL     OW 2026   5.313   6.788   3.695
  376SOL    HW1 2027   5.265   6.802   3.781
  376SOL    HW2 2028   5.405   6.753   3.712
  377SOL     OW 2029   2.693   3.684   6.299
  377SOL    HW1 2030   2.663   3.623   6.225
  377SOL    HW2 2031   2.643   3.661   6.383
  378SOL     OW 2032   4.488   1.205   1.083
  378SOL    HW1 2033   4.566   1.158   1.040
  378SOL    HW2 2034   4.405   1.183   1.032
  379SOL     OW 2035   2.853   3.717   0.929
  379SOL    HW1 2036   2.918   3.692   1.000
  379SOL    HW2 2037   2.839   3.640   0.868
  380SOL     OW 2038   5.698   1.599   0.268
  380SOL    HW1 2039   5.779   1.603   0.208
  380SOL    HW2 2040   5.710   1.664   0.343
  381SOL     OW 2041   0.322   3.392   2.292
  381SOL    HW1 2042   0.397   3.331   2.267
  381SOL    HW2 2043   0.289   3.369   2.383
  382SOL     OW 2044   5.911   0.362   0.695
  382SOL    HW1 2045   5.940   0.304   0.619
  382SOL    HW2 2046   5.992   0.391   0.747
  383SOL     OW 2047   5.430   3.035   1.490
  383SOL    HW1 2048   5.355   2.993   1.541
  383SOL    HW2 2049   5.506   2.970   1.482
  384SOL     OW 2050   1.639   2.898   4.196
  384SOL    HW1 2051   1.624   2.855   4.107
  384SOL    HW2 2052   1.568   2.967   4.213
  385SOL     OW 2053   4.435   3.272   6.859
  385SOL    HW1 2054   4.455   3.206   6.786
  385SOL    HW2 2055   4.493   3.252   6.938
  386SOL     OW 2056   2.799   6.378   5.676
  386SOL    HW1 2057   2.785   6.431   5.592
  386SOL    HW2 2058   2.804   6.281   5.653
  387SOL     OW 2059   1.731   6.655   3.516
  387SOL    HW1 2060   1.796   6.651   3.591
  387SOL    HW2 2061   1.701   6.563   3.491
  388SOL     OW 2062   2.217   5.579   5.850
  388SOL    HW1 2063   2.127   5.546   5.822
  388SOL    HW2 2064   2.287   5.520   5.811
  389SOL     OW 2065   4.187   1.528   6.945
  389SOL    HW1 2066   4.143   1.558   6.861
  389SOL    HW2 2067   4.126   1.466   6.994
  390SOL     OW 2068   3.792   1.192   3.505
  390SOL    HW1 2069   3.761   1.228   3.593
  390SOL    HW2 2070   3.868   1.129   3.520
  391SOL     OW 2071   0.287   1.162   0.425
  391SOL    HW1 2072   0.232   1.243   0.446
  391SOL    HW2 2073   0.347   1.142   0.502
  392SOL     OW 2074   4.318   5.372   4.205
  392SOL    HW1 2075   4.408   5.407   4.177
  392SOL    HW2 2076   4.250   5.396   4.135
  393SOL     OW 2077   5.272   2.370   5.648
  393SOL    HW1 2078   5.239   2.341   5.558
  393SOL    HW2 2079   5.368   2.343   5.658
  394SOL     OW 2080   2.496   1.284   6.904
  394SOL    HW1 2081   2.544   1.371   6.915
  394SOL    HW2 2082   2.448   1.283   6.816
  395SOL     OW 2083   0.143   2.816   0.915
  395SOL    HW1 2084   0.194   2.748   0.862
  395SOL    HW2 2085   0.205   2.890   0.942
  396SOL     OW 2086   4.189   2.346   5.673
  396SOL    HW1 2087   4.135   2.372   5.754
  396SOL    HW2 2088   4.141   2.274   5.623
  397SOL     OW 2089   5.084   6.875   6.977
  397SOL    HW1 2090   4.989   6.854   7.002
  397SOL    HW2 2091   5.146   6.824   0.012
  398SOL     OW 2092   5.555   4.192   2.158
  398SOL    HW1 2093   5.541   4.243   2.073
  398SOL    HW2 2094   5.635   4.229   2.206
  399SOL     OW 2095   2.122   5.553   1.258
  399SOL    HW1 2096   2.121   5.455   1.238
  399SOL    HW2 2097   2.179   5.570   1.339
  400SOL     OW 2098   2.199   4.647   6.112
  400SOL    HW1 2099   2.141   4.592   6.051
  400SOL    HW2 2100   2.223   4.593   6.192
  401SOL     OW 2101   6.745   1.507   1.243
  401SOL    HW1 2102   6.672   1.448   1.210
  401SOL    HW2 2103   6.705   1.592   1.279
  402SOL     OW 2104   0.740   5.750   0.749
  402SOL    HW1 2105   0.738   5.691   0.669
  402SOL    HW2 2106   0.648   5.760   0.786
  403SOL     OW 2107   5.354   4.384   0.273
  403SOL    HW1 2108   5.257   4.400   0.255
  403SOL    HW2 2109   5.364   4.314   0.344
  404SOL     OW 2110   6.611   6.044   4.295
  404SOL    HW1 2111   6.545   5.975   4.324
  404SOL    HW2 2112   6.697   6.031   4.345
  405SOL     OW 2113   1.358   1.452   1.421
  405SOL    HW1 2114   1.379   1.373   1.364
  405SOL    HW2 2115   1.270   1.491   1.392
  406SOL     OW 2116   0.548   2.824   3.918
  406SOL    HW1 2117   0.643   2.841   3.891
  406SOL    HW2 2118   0.534   2.856   4.012
  407SOL     OW 2119   3.215   1.807   3.609
  407SOL    HW1 2120   3.214   1.804   3.709
  407SOL    HW2 2121   3.309   1.801   3.577
  408SOL     OW 2122   2.776   0.202   4.005
  408SOL    HW1 2123   2.778   0.294   4.045
  408SOL    HW2 2124   2.743   0.208   3.910
  409SOL     OW 2125   0.578   5.033   4.795
  409SOL    HW1 2126   0.501   4.984   4.756
  409SOL    HW2 2127   0.661   5.013   4.742
  410SOL     OW 2128   2.725   6.804   6.722
  410SOL    HW1 2129   2.712   6.847   6.632
  410SOL    HW2 2130   2.768   6.715   6.711
  411SOL     OW 2131   0.649   4.422   6.045
  411SOL    HW1 2132   0.665   4.519   6.061
  411SOL    HW2 2133   0.581   4.389   6.111
  412SOL     OW 2134   3.777   5.760   3.139
  412SOL    HW1 2135   3.685   5.798   3.127
  412SOL    HW2 2136   3.779   5.703   3.221
  413SOL     OW 2137   2.069   0.854   1.626
  413SOL    HW1 2138   2.168   0.855   1.644
  413SOL    HW2 2139   2.054   0.842   1.528
  414SOL     OW 2140   4.359   4.780   0.646
  414SOL    HW1 2141   4.354   4.816   0.553
  414SOL    HW2 2142   4.446   4.807   0.688
  415SOL     OW 2143   3.611   6.260   3.001
  415SOL    HW1 2144   3.555   6.283   3.081
  415SOL    HW2 2145   3.688   6.323   2.996
  416SOL     OW 2146   3.901   5.923   6.976
  416SOL    HW1 2147   3.893   5.871   6.891
  416SOL    HW2 2148   3.976   5.989   6.967
  417SOL     OW 2149   5.936   5.198   1.313
  417SOL    HW1 2150   5.999   5.121   1.324
  417SOL    HW2 2151   5.959   5.269   1.380
  418SOL     OW 2152   0.129   5.235   6.441
  418SOL    HW1 2153   0.216   5.185   6.434
  418SOL    HW2 2154   0.124   5.280   6.530
  419SOL     OW 2155   5.298   5.276   6.691
  419SOL    HW1 2156   5.319   5.367   6.655
  419SOL    HW2 2157   5.235   5.229   6.630
  420SOL     OW 2158   5.686   3.530   6.986
  420SOL    HW1 2159   5.719   3.437   6.968
  420SOL    HW2 2160   5.761   3.584   0.001
  421SOL     OW 2161   1.649   6.290   5.791
  421SOL    HW1 2162   1.700   6.351   5.730
  421SOL    HW2 2163   1.597   6.224   5.737
  422SOL     OW 2164   6.251   3.698   0.602
  422SOL    HW1 2165   6.158   3.704   0.567
  422SOL    HW2 2166   6.314   3.678   0.527
  423SOL     OW 2167   1.528   3.017   6.305
  423SOL    HW1 2168   1.576   2.931   6.289
  423SOL    HW2 2169   1.456   3.029   6.236
  424SOL     OW 2170   2.169   4.430   5.776
  424SOL    HW1 2171   2.267   4.413   5.787
  424SOL    HW2 2172   2.122   4.403   5.860
  425SOL     OW 2173   2.308   0.241   7.005
  425SOL    HW1 2174   2.333   0.338   7.013
  425SOL    HW2 2175   2.315   0.197   0.070
  426SOL     OW 2176   1.230   3.179   6.798
  426SOL    HW1 2177   1.161   3.228   6.745
  426SOL    HW2 2178   1.232   3.083   6.771
  427SOL     OW 2179   4.024   2.977   0.372
  427SOL    HW1 2180   4.048   2.912   0.444
  427SOL    HW2 2181   4.081   3.059   0.380
  428SOL     OW 2182   3.574   0.639   4.383
  428SOL    HW1 2183   3.489   0.692   4.390
  428SOL    HW2 2184   3.635   0.681   4.317
  429SOL     OW 2185   3.894   5.773   6.721
  429SOL    HW1 2186   3.966   5.705   6.725
  429SOL    HW2 2187   3.825   5.745   6.654
  430SOL     OW 2188   2.920   1.161   4.446
  430SOL    HW1 2189   2.940   1.258   4.456
  430SOL    HW2 2190   2.984   1.120   4.381
  431SOL     OW 2191   3.455   0.784   6.101
  431SOL    HW1 2192   3.547   0.759   6.130
  431SOL    HW2 2193   3.417   0.852   6.164
  432SOL     OW 2194   6.643   0.726   1.042
  432SOL    HW1 2195   6.602   0.704   0.954
  432SOL    HW2 2196   6.742   0.731   1.032
  433SOL     OW 2197   3.911   6.303   4.866
  433SOL    HW1 2198   3.875   6.397   4.869
  433SOL    HW2 2199   3.959   6.288   4.780
  434SOL     OW 2200   6.429   3.648   0.911
  434SOL    HW1 2201   6.517   3.647   0.864
  434SOL    HW2 2202   6.372   3.722   0.875
  435SOL     OW 2203   3.572   3.618   0.992
  435SOL    HW1 2204   3.536   3.691   0.935
  435SOL    HW2 2205   3.610   3.546   0.935
  436SOL     OW 2206   2.633   1.425   0.918
  436SOL    HW1 2207   2.555   1.380   0.962
  436SOL    HW2 2208   2.666   1.367   0.843
  437SOL     OW 2209   5.983   6.447   6.253
  437SOL    HW1 2210   6.053   6.478   6.189
  437SOL    HW2 2211   5.900   6.502   6.241
  438SOL     OW 2212   1.072   3.667   1.254
  438SOL    HW1 2213   1.111   3.716   1.176
  438SOL    HW2 2214   1.063   3.570   1.232
  439SOL     OW 2215   6.176   5.000   1.687
  439SOL    HW1 2216   6.273   4.974   1.678
  439SOL    HW2 2217   6.162   5.048   1.773
  440SOL     OW 2218   1.127   2.986   2.543
  440SOL    HW1 2219   1.190   2.935   2.602
  440SOL    HW2 2220   1.174   3.064   2.502
  441SOL     OW 2221   6.680   1.853   2.987
  441SOL    HW1 2222   6.638   1.942   2.969
  441SOL    HW2 2223   6.780   1.861   2.977
  442SOL     OW 2224   1.412   5.042   6.766
  442SOL    HW1 2225   1.315   5.051   6.785
  442SOL    HW2 2226   1.443   5.121   6.713
  443SOL     OW 2227   6.959   6.044   5.679
  443SOL    HW1 2228   6.933   6.129   5.634
  443SOL    HW2 2229   0.021   6.057   5.728
  444SOL     OW 2230   5.344   3.036   6.558
  444SOL    HW1 2231   5.268   3.087   6.519
  444SOL    HW2 2232   5.430   3.066   6.517
  445SOL     OW 2233   1.694   3.972   2.616
  445SOL    HW1 2234   1.597   3.946   2.620
  445SOL    HW2 2235   1.702   4.071   2.626
  446SOL     OW 2236   1.443   5.432   4.763
  446SOL    HW1 2237   1.498   5.426   4.846
  446SOL    HW2 2238   1.352   5.469   4.785
  447SOL     OW 2239   1.267   5.720   0.512
  447SOL    HW1 2240   1.244   5.815   0.535
  447SOL    HW2 2241   1.192   5.680   0.459
  448SOL     OW 2242   4.878   0.914   5.383
  448SOL    HW1 2243   4.823   0.831   5.381
  448SOL    HW2 2244   4.946   0.911   5.309
  449SOL     OW 2245   6.561   0.945   4.493
  449SOL    HW1 2246   6.497   0.877   4.528
  449SOL    HW2 2247   6.607   0.909   4.412
  450SOL     OW 2248   0.190   5.924   2.691
  450SOL    HW1 2249   0.193   5.824   2.692
  450SOL    HW2 2250   0.172   5.956   2.599
  451SOL     OW 2251   6.000   3.557   4.114
  451SOL    HW1 2252   5.952   3.639   4.084
  451SOL    HW2 2253   6.098   3.568   4.099
  452SOL     OW 2254   6.145   4.888   5.876
  452SOL    HW1 2255   6.079   4.944   5.927
  452SOL    HW2 2256   6.118   4.884   5.780
  453SOL     OW 2257   4.278   1.685   5.859
  453SOL    HW1 2258   4.323   1.756   5.913
  453SOL    HW2 2259   4.344   1.614   5.835
  454SOL     OW 2260   0.741   5.628   0.136
  454SOL    HW1 2261   0.830   5.658   0.103
  454SOL    HW2 2262   0.710   5.688   0.209
  455SOL     OW 2263   5.456   2.174   4.917
  455SOL    HW1 2264   5.525   2.245   4.928
  455SOL    HW2 2265   5.370   2.204   4.958
  456SOL     OW 2266   4.252   6.116   0.926
  456SOL    HW1 2267   4.312   6.183   0.969
  456SOL    HW2 2268   4.166   6.161   0.900
  457SOL     OW 2269   0.419   3.889   1.866
  457SOL    HW1 2270   0.501   3.835   1.851
  457SOL    HW2 2271   0.439   3.964   1.930
  458SOL     OW 2272   0.924   0.435   5.195
  458SOL    HW1 2273   0.988   0.363   5.170
  458SOL    HW2 2274   0.834   0.395   5.211
  459SOL     OW 2275   1.742   0.728   3.112
  459SOL    HW1 2276   1.782   0.670   3.041
  459SOL    HW2 2277   1.791   0.712   3.198
  460SOL     OW 2278   6.416   2.788   2.993
  460SOL    HW1 2279   6.447   2.710   2.938
  460SOL    HW2 2280   6.317   2.797   2.985
  461SOL     OW 2281   5.960   4.332   5.613
  461SOL    HW1 2282   5.900   4.389   5.556
  461SOL    HW2 2283   5.963   4.239   5.576
  462SOL     OW 2284   3.381   2.394   0.026
  462SOL    HW1 2285   3.448   2.326   7.021
  462SOL    HW2 2286   3.358   2.378   0.122
  463SOL     OW 2287   6.227   6.553   1.246
  463SOL    HW1 2288   6.203   6.539   1.150
  463SOL    HW2 2289   6.194   6.476   1.300
  464SOL     OW 2290   1.789   1.685   6.064
  464SOL    HW1 2291   1.768   1.589   6.046
  464SOL    HW2 2292   1.849   1.692   6.144
  465SOL     OW 2293   0.868   3.647   5.751
  465SOL    HW1 2294   0.894   3.587   5.826
  465SOL    HW2 2295   0.771   3.672   5.760
  466SOL     OW 2296   1.895   0.291   3.383
  466SOL    HW1 2297   1.863   0.337   3.301
  466SOL    HW2 2298   1.993   0.274   3.375
  467SOL     OW 2299   1.996   1.474   4.761
  467SOL    HW1 2300   1.958   1.385   4.737
  467SOL    HW2 2301   1.946   1.512   4.839
  468SOL     OW 2302   3.901   3.995   3.557
  468SOL    HW1 2303   3.942   3.984   3.466
  468SOL    HW2 2304   3.824   4.058   3.551
  469SOL     OW 2305   3.352   6.860   6.579
  469SOL    HW1 2306   3.368   6.773   6.626
  469SOL    HW2 2307   3.264   6.856   6.532
  470SOL     OW 2308   4.464   7.016   3.085
  470SOL    HW1 2309   4.447   6.919   3.069
  470SOL    HW2 2310   4.544   0.002   3.144
  471SOL     OW 2311   2.235   2.226   3.648
  471SOL    HW1 2312   2.139   2.210   3.626
  471SOL    HW2 2313   2.291   2.159   3.599
  472SOL     OW 2314   3.526   4.270   5.230
  472SOL    HW1 2315   3.537   4.337   5.303
  472SOL    HW2 2316   3.598   4.283   5.161
  473SOL     OW 2317   0.767   4.839   4.058
  473SOL    HW1 2318   0.702   4.765   4.077
  473SOL    HW2 2319   0.791   4.885   4.143
  474SOL     OW 2320   5.283   5.325   5.273
  474SOL    HW1 2321   5.187   5.302   5.288
  474SOL    HW2 2322   5.314   5.288   5.186
  475SOL     OW 2323   2.859   6.722   6.971
  475SOL    HW1 2324   2.780   6.718   0.008
  475SOL    HW2 2325   2.835   6.772   6.888
  476SOL     OW 2326   6.732   5.583   2.910
  476SOL    HW1 2327   6.752   5.488   2.934
  476SOL    HW2 2328   6.637   5.590   2.881
  477SOL     OW 2329   1.662   4.414   3.346
  477SOL    HW1 2330   1.755   4.441   3.321
  477SOL    HW2 2331   1.604   4.495   3.353
  478SOL     OW 2332   1.837   4.304   3.861
  478SOL    HW1 2333   1.930   4.338   3.848
  478SOL    HW2 2334   1.831   4.209   3.829
  479SOL     OW 2335   4.261   1.937   2.218
  479SOL    HW1 2336   4.330   1.996   2.176
  479SOL    HW2 2337   4.169   1.973   2.198
  480SOL     OW 2338   2.036   6.569   4.088
  480SOL    HW1 2339   1.999   6.476   4.077
  480SOL    HW2 2340   2.134   6.568   4.068
  481SOL     OW 2341   2.093   0.474   0.599
  481SOL    HW1 2342   2.137   0.395   0.557
  481SOL    HW2 2343   2.113   0.556   0.545
  482SOL     OW 2344   5.676   5.749   1.397
  482SOL    HW1 2345   5.772   5.776   1.392
  482SOL    HW2 2346   5.634   5.760   1.307
  483SOL     OW 2347   4.581   1.873   3.329
  483SOL    HW1 2348   4.576   1.795   3.266
  483SOL    HW2 2349   4.489   1.897   3.360
  484SOL     OW 2350   6.109   1.906   3.493
  484SOL    HW1 2351   6.077   1.848   3.568
  484SOL    HW2 2352   6.090   1.862   3.406
  485SOL     OW 2353   2.686   5.914   0.572
  485SOL    HW1 2354   2.739   5.868   0.501
  485SOL    HW2 2355   2.664   6.006   0.542
  486SOL     OW 2356   6.113   0.450   5.679
  486SOL    HW1 2357   6.195   0.473   5.626
  486SOL    HW2 2358   6.051   0.528   5.680
  487SOL     OW 2359   6.725   2.145   6.568
  487SOL    HW1 2360   6.674   2.218   6.524
  487SOL    HW2 2361   6.739   2.167   6.665
  488SOL     OW 2362   1.136   4.639   3.745
  488SOL    HW1 2363   1.105   4.657   3.652
  488SOL    HW2 2364   1.169   4.724   3.786
  489SOL     OW 2365   3.565   4.973   6.047
  489SOL    HW1 2366   3.567   5.073   6.044
  489SOL    HW2 2367   3.479   4.943   6.089
  490SOL     OW 2368   5.219   1.161   4.260
  490SOL    HW1 2369   5.180   1.219   4.189
  490SOL    HW2 2370   5.215   1.066   4.231
  491SOL     OW 2371   0.407   2.869   3.674
  491SOL    HW1 2372   0.459   2.817   3.742
  491SOL    HW2 2373   0.321   2.900   3.714
  492SOL     OW 2374   1.307   1.695   4.854
  492SOL    HW1 2375   1.288   1.726   4.760
  492SOL    HW2 2376   1.400   1.658   4.858
  493SOL     OW 2377   5.751   3.853   5.016
  493SOL    HW1 2378   5.688   3.890   5.084
  493SOL    HW2 2379   5.715   3.870   4.924
  494SOL     OW 2380   5.886   0.815   6.382
  494SOL    HW1 2381   5.843   0.896   6.343
  494SOL    HW2 2382   5.914   0.754   6.308
  495SOL     OW 2383   5.782   4.586   0.133
  495SOL    HW1 2384   5.832   4.641   0.066
  495SOL    HW2 2385   5.792   4.627   0.224
  496SOL     OW 2386   6.028   3.829   2.852
  496SOL    HW1 2387   6.055   3.776   2.933
  496SOL    HW2 2388   6.090   3.808   2.776
  497SOL     OW 2389   4.509   0.236   3.840
  497SOL    HW1 2390   4.476   0.319   3.885
  497SOL    HW2 2391   4.609   0.233   3.843
  498SOL     OW 2392   2.015   3.419   1.201
  498SOL    HW1 2393   1.998   3.496   1.139
  498SOL    HW2 2394   1.929   3.393   1.245
  499SOL     OW 2395   3.870   1.872   5.818
  499SOL    HW1 2396   3.833   1.780   5.826
  499SOL    HW2 2397   3.871   1.900   5.722
  500SOL     OW 2398   1.222   4.731   3.128
  500SOL    HW1 2399   1.280   4.650   3.119
  500SOL    HW2 2400   1.279   4.811   3.147
  501SOL     OW 2401   0.902   5.113   6.077
  501SOL    HW1 2402   0.811   5.075   6.092
  501SOL    HW2 2403   0.932   5.093   5.984
  502SOL     OW 2404   2.334   5.034   5.982
  502SOL    HW1 2405   2.318   4.975   5.903
  502SOL    HW2 2406   2.309   5.128   5.959
  503SOL     OW 2407   6.938   5.479   4.263
  503SOL    HW1 2408   6.890   5.557   4.302
  503SOL    HW2 2409   0.012   5.486   4.283
  504SOL     OW 2410   1.460   5.277   4.000
  504SOL    HW1 2411   1.545   5.242   3.960
  504SOL    HW2 2412   1.395   5.202   4.011
  505SOL     OW 2413   3.660   6.139   4.755
  505SOL    HW1 2414   3.607   6.071   4.706
  505SOL    HW2 2415   3.679   6.106   4.848
  506SOL     OW 2416   2.261   3.079   0.641
  506SOL    HW1 2417   2.231   3.173   0.657
  506SOL    HW2 2418   2.300   3.071   0.549
  507SOL     OW 2419   3.841   1.715   4.130
  507SOL    HW1 2420   3.922   1.768   4.156
  507SOL    HW2 2421   3.763   1.743   4.186
  508SOL     OW 2422   5.460   5.443   4.726
  508SOL    HW1 2423   5.547   5.479   4.690
  508SOL    HW2 2424   5.401   5.417   4.650
  509SOL     OW 2425   4.449   3.369   1.516
  509SOL    HW1 2426   4.464   3.370   1.417
  509SOL    HW2 2427   4.412   3.458   1.545
  510SOL     OW 2428   1.585   3.669   4.285
  510SOL    HW1 2429   1.487   3.665   4.263
  510SOL    HW2 2430   1.632   3.724   4.216
  511SOL     OW 2431   0.216   6.141   1.756
  511SOL    HW1 2432   0.237   6.227   1.709
  511SOL    HW2 2433   0.167   6.080   1.694
  512SOL     OW 2434   2.086   4.378   6.028
  512SOL    HW1 2435   1.996   4.340   6.049
  512SOL    HW2 2436   2.151   4.349   6.098
  513SOL     OW 2437   0.769   5.437   4.882
  513SOL    HW1 2438   0.713   5.356   4.898
  513SOL    HW2 2439   0.788   5.445   4.785
  514SOL     OW 2440   5.507   2.105   3.520
  514SOL    HW1 2441   5.528   2.043   3.596
  514SOL    HW2 2442   5.561   2.189   3.531
  515SOL     OW 2443   3.171   6.118   6.904
  515SOL    HW1 2444   3.123   6.041   6.945
  515SOL    HW2 2445   3.105   6.179   6.860
  516SOL     OW 2446   1.914   4.645   3.391
  516SOL    HW1 2447   1.957   4.567   3.436
  516SOL    HW2 2448   1.922   4.726   3.450
  517SOL     OW 2449   5.025   0.154   5.687
  517SOL    HW1 2450   5.087   0.078   5.703
  517SOL    HW2 2451   5.017   0.171   5.588
  518SOL     OW 2452   2.180   1.715   6.784
  518SOL    HW1 2453   2.170   1.769   6.701
  518SOL    HW2 2454   2.112   1.642   6.786
  519SOL     OW 2455   0.919   6.544   0.780
  519SOL    HW1 2456   0.920   6.637   0.745
  519SOL    HW2 2457   0.842   6.494   0.740
  520SOL     OW 2458   6.621   4.138   5.416
  520SOL    HW1 2459   6.663   4.115   5.328
  520SOL    HW2 2460   6.678   4.205   5.463
  521SOL     OW 2461   6.318   0.843   0.383
  521SOL    HW1 2462   6.400   0.888   0.350
  521SOL    HW2 2463   6.267   0.805   0.306
  522SOL     OW 2464   3.218   4.335   5.507
  522SOL    HW1 2465   3.153   4.385   5.450
  522SOL    HW2 2466   3.169   4.278   5.572
  523SOL     OW 2467   6.126   0.227   3.218
  523SOL    HW1 2468   6.182   0.260   3.142
  523SOL    HW2 2469   6.034   0.207   3.185
  524SOL     OW 2470   4.253   0.649   4.029
  524SOL    HW1 2471   4.265   0.661   3.930
  524SOL    HW2 2472   4.316   0.579   4.062
  525SOL     OW 2473   3.410   3.026   6.590
  525SOL    HW1 2474   3.446   3.005   6.499
  525SOL    HW2 2475   3.374   3.119   6.591
  526SOL     OW 2476   4.840   0.330   4.290
  526SOL    HW1 2477   4.786   0.375   4.362
  526SOL    HW2 2478   4.837   0.231   4.304
  527SOL     OW 2479   0.956   1.228   6.929
  527SOL    HW1 2480   0.920   1.134   6.923
  527SOL    HW2 2481   0.890   1.291   6.889
  528SOL     OW 2482   1.384   2.195   6.034
  528SOL    HW1 2483   1.310   2.141   6.073
  528SOL    HW2 2484   1.448   2.222   6.106
  529SOL     OW 2485   0.437   4.809   4.678
  529SOL    HW1 2486   0.450   4.747   4.756
  529SOL    HW2 2487   0.414   4.755   4.597
  530SOL     OW 2488   7.019   3.411   5.478
  530SOL    HW1 2489   0.090   3.409   5.508
  530SOL    HW2 2490   6.989   3.318   5.457
  531SOL     OW 2491   0.148   6.887   0.546
  531SOL    HW1 2492   0.103   6.968   0.510
  531SOL    HW2 2493   0.187   6.833   0.470
  532SOL     OW 2494   1.630   1.538   5.767
  532SOL    HW1 2495   1.661   1.548   5.862
  532SOL    HW2 2496   1.673   1.609   5.711
  533SOL     OW 2497   4.728   0.654   5.384
  533SOL    HW1 2498   4.750   0.566   5.344
  533SOL    HW2 2499   4.658   0.700   5.329
  534SOL     OW 2500   2.266   5.262   3.881
  534SOL    HW1 2501   2.181   5.247   3.830
  534SOL    HW2 2502   2.294   5.357   3.872
  535SOL     OW 2503   6.977   3.736   2.407
  535SOL    HW1 2504   0.050   3.739   2.384
  535SOL    HW2 2505   6.923   3.761   2.327
  536SOL     OW 2506   1.970   5.953   1.779
  536SOL    HW1 2507   1.890   5.904   1.745
  536SOL    HW2 2508   1.941   6.023   1.845
  537SOL     OW 2509   2.531   0.207   3.315
  537SOL    HW1 2510   2.548   0.114   3.347
  537SOL    HW2 2511   2.502   0.204   3.219
  538SOL     OW 2512   1.684   5.578   3.829
  538SOL    HW1 2513   1.591   5.559   3.858
  538SOL    HW2 2514   1.683   5.637   3.748
  539SOL     OW 2515   1.741   5.544   0.737
  539SOL    HW1 2516   1.670   5.602   0.696
  539SOL    HW2 2517   1.821   5.599   0.758
  540SOL     OW 2518   2.533   2.657   0.787
  540SOL    HW1 2519   2.559   2.665   0.691
  540SOL    HW2 2520   2.436   2.633   0.794
  541SOL     OW 2521   5.483   6.117   5.015
  541SOL    HW1 2522   5.458   6.213   5.028
  541SOL    HW2 2523   5.448   6.084   4.927
  542SOL     OW 2524   5.983   0.017   5.918
  542SOL    HW1 2525   6.056   0.078   5.947
  542SOL    HW2 2526   6.020   6.950   5.898
  543SOL     OW 2527   6.226   0.728   2.316
  543SOL    HW1 2528   6.133   0.703   2.343
  543SOL    HW2 2529   6.267   0.654   2.263
  544SOL     OW 2530   0.527   5.035   0.801
  544SOL    HW1 2531   0.535   5.103   0.728
  544SOL    HW2 2532   0.618   5.000   0.823
  545SOL     OW 2533   2.739   1.812   4.097
  545SOL    HW1 2534   2.795   1.774   4.170
  545SOL    HW2 2535   2.731   1.911   4.109
  546SOL     OW 2536   1.023   2.275   7.003
  546SOL    HW1 2537   1.069   2.249   0.064
  546SOL    HW2 2538   0.925   2.287   7.019
  547SOL     OW 2539   3.386   1.844   0.513
  547SOL    HW1 2540   3.403   1.922   0.452
  547SOL    HW2 2541   3.446   1.851   0.593
  548SOL     OW 2542   3.054   3.751   5.761
  548SOL    HW1 2543   3.022   3.696   5.838
  548SOL    HW2 2544   3.108   3.828   5.796
  549SOL     OW 2545   6.571   4.383   1.534
  549SOL    HW1 2546   6.635   4.370   1.458
  549SOL    HW2 2547   6.608   4.340   1.616
  550SOL     OW 2548   6.761   4.048   1.251
  550SOL    HW1 2549   6.692   3.995   1.200
  550SOL    HW2 2550   6.826   4.088   1.186
  551SOL     OW 2551   0.684   0.291   0.376
  551SOL    HW1 2552   0.632   0.373   0.353
  551SOL    HW2 2553   0.663   0.219   0.309
  552SOL     OW 2554   4.477   5.474   0.293
  552SOL    HW1 2555   4.506   5.422   0.374
  552SOL    HW2 2556   4.555   5.486   0.232
  553SOL     OW 2557   0.780   2.772   1.338
  553SOL    HW1 2558   0.868   2.786   1.293
  553SOL    HW2 2559   0.777   2.823   1.424
  554SOL     OW 2560   4.799   5.190   5.519
  554SOL    HW1 2561   4.788   5.107   5.464
  554SOL    HW2 2562   4.728   5.256   5.496
  555SOL     OW 2563   1.715   4.160   5.822
  555SOL    HW1 2564   1.793   4.199   5.772
  555SOL    HW2 2565   1.668   4.094   5.764
  556SOL     OW 2566   6.306   4.149   3.370
  556SOL    HW1 2567   6.331   4.075   3.307
  556SOL    HW2 2568   6.231   4.119   3.428
  557SOL     OW 2569   6.439   5.449   5.402
  557SOL    HW1 2570   6.360   5.436   5.342
  557SOL    HW2 2571   6.491   5.528   5.370
  558SOL     OW 2572   3.613   3.777   6.063
  558SOL    HW1 2573   3.611   3.739   6.156
  558SOL    HW2 2574   3.688   3.736   6.012
  559SOL     OW 2575   5.037   4.656   5.924
  559SOL    HW1 2576   5.011   4.564   5.894
  559SOL    HW2 2577   5.004   4.672   6.017
  560SOL     OW 2578   4.860   6.576   0.359
  560SOL    HW1 2579   4.867   6.479   0.334
  560SOL    HW2 2580   4.869   6.585   0.458
  561SOL     OW 2581   4.678   6.920   2.470
  561SOL    HW1 2582   4.611   6.888   2.403
  561SOL    HW2 2583   4.645   7.004   2.513
  562SOL     OW 2584   5.233   0.059   1.324
  562SOL    HW1 2585   5.160   0.123   1.348
  562SOL    HW2 2586   5.314   0.080   1.379
  563SOL     OW 2587   3.044   0.544   5.214
  563SOL    HW1 2588   3.086   0.616   5.270
  563SOL    HW2 2589   3.090   0.540   5.126
  564SOL     OW 2590   0.456   1.515   5.439
  564SOL    HW1 2591   0.510   1.505   5.355
  564SOL    HW2 2592   0.503   1.579   5.500
  565SOL     OW 2593   4.257   3.609   5.616
  565SOL    HW1 2594   4.356   3.601   5.631
  565SOL    HW2 2595   4.224   3.529   5.565
  566SOL     OW 2596   6.715   4.278   2.183
  566SOL    HW1 2597   6.644   4.248   2.119
  566SOL    HW2 2598   6.740   4.373   2.163
  567SOL     OW 2599   3.848   3.613   6.245
  567SOL    HW1 2600   3.842   3.619   6.145
  567SOL    HW2 2601   3.761   3.641   6.286
  568SOL     OW 2602   2.895   1.502   6.224
  568SOL    HW1 2603   2.817   1.544   6.270
  568SOL    HW2 2604   2.891   1.523   6.126
  569SOL     OW 2605   2.009   4.805   6.944
  569SOL    HW1 2606   1.936   4.737   6.946
  569SOL    HW2 2607   2.097   4.760   6.934
  570SOL     OW 2608   0.586   5.312   6.478
  570SOL    HW1 2609   0.553   5.394   6.430
  570SOL    HW2 2610   0.625   5.339   6.566
  571SOL     OW 2611   4.918   5.912   2.184
  571SOL    HW1 2612   4.975   5.989   2.155
  571SOL    HW2 2613   4.869   5.935   2.267
  572SOL     OW 2614   1.699   4.291   4.097
  572SOL    HW1 2615   1.743   4.295   4.007
  572SOL    HW2 2616   1.737   4.363   4.155
  573SOL     OW 2617   4.109   2.145   6.880
  573SOL    HW1 2618   4.105   2.045   6.874
  573SOL    HW2 2619   4.134   2.182   6.791
  574SOL     OW 2620   2.687   2.011   3.237
  574SOL    HW1 2621   2.706   1.951   3.160
  574SOL    HW2 2622   2.683   1.958   3.321
  575SOL     OW 2623   4.186   2.356   6.048
  575SOL    HW1 2624   4.159   2.402   6.132
  575SOL    HW2 2625   4.109   2.355   5.984
  576SOL     OW 2626   0.365   3.515   3.435
  576SOL    HW1 2627   0.284   3.482   3.386
  576SOL    HW2 2628   0.344   3.525   3.532
  577SOL     OW 2629   3.731   1.346   3.296
  577SOL    HW1 2630   3.762   1.291   3.374
  577SOL    HW2 2631   3.696   1.285   3.225
  578SOL     OW 2632   0.139   3.892   4.501
  578SOL    HW1 2633   0.107   3.798   4.491
  578SOL    HW2 2634   0.175   3.905   4.594
  579SOL     OW 2635   4.191   3.617   1.220
  579SOL    HW1 2636   4.287   3.645   1.215
  579SOL    HW2 2637   4.178   3.534   1.166
  580SOL     OW 2638   0.027   0.028   6.803
  580SOL    HW1 2639   0.003   6.986   6.732
  580SOL    HW2 2640   6.968   0.073   6.835
  581SOL     OW 2641   3.816   3.614   4.140
  581SOL    HW1 2642   3.810   3.524   4.097
  581SOL    HW2 2643   3.731   3.632   4.191
  582SOL     OW 2644   6.976   3.289   0.482
  582SOL    HW1 2645   6.902   3.352   0.458
  582SOL    HW2 2646   6.948   3.195   0.461
  583SOL     OW 2647   2.643   7.006   6.909
  583SOL    HW1 2648   2.662   6.923   6.856
  583SOL    HW2 2649   2.721   0.045   6.901
  584SOL     OW 2650   2.575   5.346   4.535
  584SOL    HW1 2651   2.599   5.426   4.591
  584SOL    HW2 2652   2.486   5.362   4.492
  585SOL     OW 2653   5.560   2.085   5.498
  585SOL    HW1 2654   5.544   1.996   5.455
  585SOL    HW2 2655   5.588   2.072   5.593
  586SOL     OW 2656   3.304   4.636   1.092
  586SOL    HW1 2657   3.297   4.637   1.191
  586SOL    HW2 2658   3.259   4.555   1.055
  587SOL     OW 2659   2.633   3.238   6.075
  587SOL    HW1 2660   2.585   3.172   6.133
  587SOL    HW2 2661   2.717   3.268   6.121
  588SOL     OW 2662   2.123   0.497   1.887
  588SOL    HW1 2663   2.207   0.537   1.852
  588SOL    HW2 2664   2.124   0.398   1.872
  589SOL     OW 2665   4.856   5.205   1.950
  589SOL    HW1 2666   4.851   5.182   2.047
  589SOL    HW2 2667   4.831   5.301   1.937
  590SOL     OW 2668   0.536   4.720   1.733
  590SOL    HW1 2669   0.440   4.716   1.704
  590SOL    HW2 2670   0.567   4.815   1.731
  591SOL     OW 2671   2.704   0.225   3.083
  591SOL    HW1 2672   2.694   0.314   3.126
  591SOL    HW2 2673   2.667   0.229   2.990
  592SOL     OW 2674   5.565   0.157   6.496
  592SOL    HW1 2675   5.515   0.172   6.581
  592SOL    HW2 2676   5.534   0.223   6.427
  593SOL     OW 2677   0.293   0.680   4.501
  593SOL    HW1 2678   0.314   0.720   4.412
  593SOL    HW2 2679   0.226   0.738   4.549
  594SOL     OW 2680   4.645   2.705   1.394
  594SOL    HW1 2681   4.731   2.744   1.362
  594SOL    HW2 2682   4.641   2.711   1.494
  595SOL     OW 2683   2.565   6.705   4.296
  595SOL    HW1 2684   2.645   6.710   4.355
  595SOL    HW2 2685   2.575   6.770   4.220
  596SOL     OW 2686   0.659   4.720   2.758
  596SOL    HW1 2687   0.641   4.809   2.715
  596SOL    HW2 2688   0.757   4.709   2.774
  597SOL     OW 2689   4.836   2.233   5.178
  597SOL    HW1 2690   4.761   2.203   5.118
  597SOL    HW2 2691   4.838   2.175   5.259
  598SOL     OW 2692   3.555   3.434   1.874
  598SOL    HW1 2693   3.549   3.472   1.782
  598SOL    HW2 2694   3.463   3.431   1.915
  599SOL     OW 2695   5.990   5.734   3.369
  599SOL    HW1 2696   5.945   5.782   3.444
  599SOL    HW2 2697   6.007   5.639   3.396
  600SOL     OW 2698   3.060   1.705   0.389
  600SOL    HW1 2699   3.078   1.734   0.483
  600SOL    HW2 2700   2.963   1.720   0.367
  601SOL     OW 2701   1.326   5.128   1.270
  601SOL    HW1 2702   1.340   5.066   1.347
  601SOL    HW2 2703   1.277   5.210   1.300
  602SOL     OW 2704   6.696   1.144   3.218
  602SOL    HW1 2705   6.701   1.244   3.215
  602SOL    HW2 2706   6.623   1.112   3.158
  603SOL     OW 2707   4.345   1.912   3.039
  603SOL    HW1 2708   4.300   1.822   3.039
  603SOL    HW2 2709   4.433   1.905   2.993
  604SOL     OW 2710   2.210   3.017   5.858
  604SOL    HW1 2711   2.263   2.971   5.929
  604SOL    HW2 2712   2.266   3.028   5.776
  605SOL     OW 2713   5.238   6.837   4.547
  605SOL    HW1 2714   5.294   6.755   4.557
  605SOL    HW2 2715   5.147   6.813   4.515
  606SOL     OW 2716   2.393   6.916   2.305
  606SOL    HW1 2717   2.437   6.989   2.358
  606SOL    HW2 2718   2.309   6.951   2.263
  607SOL     OW 2719   3.850   6.974   4.301
  607SOL    HW1 2720   3.769   6.921   4.275
  607SOL    HW2 2721   3.824   0.016   4.372
  608SOL     OW 2722   6.256   2.834   0.888
  608SOL    HW1 2723   6.234   2.877   0.800
  608SOL    HW2 2724   6.351   2.803   0.887
  609SOL     OW 2725   3.457   3.951   5.174
  609SOL    HW1 2726   3.493   4.044   5.167
  609SOL    HW2 2727   3.357   3.953   5.164
  610SOL     OW 2728   6.864   2.289   5.276
  610SOL    HW1 2729   6.919   2.267   5.356
  610SOL    HW2 2730   6.832   2.204   5.233
  611SOL     OW 2731   6.806   0.060   0.459
  611SOL    HW1 2732   6.904   0.076   0.443
  611SOL    HW2 2733   6.762   0.034   0.372
  612SOL     OW 2734   1.556   4.334   6.443
  612SOL    HW1 2735   1.655   4.344   6.431
  612SOL    HW2 2736   1.511   4.421   6.425
  613SOL     OW 2737   3.729   1.585   6.611
  613SOL    HW1 2738   3.695   1.495   6.639
  613SOL    HW2 2739   3.737   1.644   6.692
  614SOL     OW 2740   5.172   3.044   0.585
  614SOL    HW1 2741   5.226   3.123   0.556
  614SOL    HW2 2742   5.230   2.981   0.636
  615SOL     OW 2743   6.173   5.340   1.228
  615SOL    HW1 2744   6.095   5.399   1.248
  615SOL    HW2 2745   6.145   5.268   1.165
  616SOL     OW 2746   5.631   1.452   4.719
  616SOL    HW1 2747   5.684   1.526   4.677
  616SOL    HW2 2748   5.651   1.366   4.673
  617SOL     OW 2749   6.462   0.215   5.086
  617SOL    HW1 2750   6.505   0.139   5.038
  617SOL    HW2 2751   6.527   0.292   5.092
  618SOL     OW 2752   5.479   4.634   1.063
  618SOL    HW1 2753   5.556   4.686   1.102
  618SOL    HW2 2754   5.492   4.625   0.964
  619SOL     OW 2755   1.165   0.137   0.315
  619SOL    HW1 2756   1.204   0.046   0.332
  619SOL    HW2 2757   1.152   0.149   0.216
  620SOL     OW 2758   4.041   2.022   1.176
  620SOL    HW1 2759   4.121   2.081   1.161
  620SOL    HW2 2760   4.006   2.037   1.269
  621SOL     OW 2761   1.943   6.654   6.272
  621SOL    HW1 2762   1.958   6.728   6.338
  621SOL    HW2 2763   2.022   6.592   6.274
  622SOL     OW 2764   0.511   2.737   5.964
  622SOL    HW1 2765   0.446   2.813   5.956
  622SOL    HW2 2766   0.481   2.675   6.037
  623SOL     OW 2767   5.858   1.449   2.522
  623SOL    HW1 2768   5.881   1.463   2.426
  623SOL    HW2 2769   5.773   1.498   2.544
  624SOL     OW 2770   6.287   0.732   5.813
  624SOL    HW1 2771   6.208   0.782   5.849
  624SOL    HW2 2772   6.260   0.639   5.791
  625SOL     OW 2773   3.455   0.747   1.167
  625SOL    HW1 2774   3.444   0.665   1.112
  625SOL    HW2 2775   3.365   0.784   1.190
  626SOL     OW 2776   7.017   6.878   3.715
  626SOL    HW1 2777   0.008   6.793   3.765
  626SOL    HW2 2778   0.002   6.862   3.617
  627SOL     OW 2779   6.567   4.389   5.938
  627SOL    HW1 2780   6.640   4.438   5.986
  627SOL    HW2 2781   6.495   4.453   5.913
  628SOL     OW 2782   3.536   4.492   6.939
  628SOL    HW1 2783   3.522   4.582   6.980
  628SOL    HW2 2784   3.502   4.493   6.845
  629SOL     OW 2785   2.257   6.969   0.515
  629SOL    HW1 2786   2.313   6.957   0.433
  629SOL    HW2 2787   2.313   7.008   0.589
  630SOL     OW 2788   6.660   2.038   0.003
  630SOL    HW1 2789   6.624   1.999   6.943
  630SOL    HW2 2790   6.585   2.082   0.054
  631SOL     OW 2791   1.898   4.221   2.076
  631SOL    HW1 2792   1.949   4.218   2.162
  631SOL    HW2 2793   1.958   4.193   2.001
  632SOL     OW 2794   4.028   5.199   0.957
  632SOL    HW1 2795   4.097   5.248   0.904
  632SOL    HW2 2796   3.982   5.132   0.899
  633SOL     OW 2797   1.433   5.868   6.956
  633SOL    HW1 2798   1.472   5.906   6.871
  633SOL    HW2 2799   1.500   5.878   0.006
  634SOL     OW 2800   1.958   3.491   5.392
  634SOL    HW1 2801   1.960   3.586   5.424
  634SOL    HW2 2802   2.025   3.437   5.442
  635SOL     OW 2803   0.501   5.946   6.386
  635SOL    HW1 2804   0.438   6.016   6.352
  635SOL    HW2 2805   0.526   5.966   6.480
  636SOL     OW 2806   1.191   2.042   4.667
  636SOL    HW1 2807   1.223   2.029   4.760
  636SOL    HW2 2808   1.228   2.127   4.630
  637SOL     OW 2809   5.919   1.271   1.118
  637SOL    HW1 2810   5.841   1.263   1.180
  637SOL    HW2 2811   5.988   1.330   1.160
  638SOL     OW 2812   6.968   3.813   5.294
  638SOL    HW1 2813   6.923   3.723   5.293
  638SOL    HW2 2814   6.991   3.839   5.201
  639SOL     OW 2815   6.112   3.178   1.174
  639SOL    HW1 2816   6.123   3.224   1.262
  639SOL    HW2 2817   6.018   3.189   1.142
  640SOL     OW 2818   6.022   4.194   2.590
  640SOL    HW1 2819   5.927   4.192   2.621
  640SOL    HW2 2820   6.054   4.289   2.586
  641SOL     OW 2821   3.010   5.990   4.367
  641SOL    HW1 2822   2.913   5.967   4.371
  641SOL    HW2 2823   3.050   5.952   4.284
  642SOL     OW 2824   0.673   5.388   4.073
  642SOL    HW1 2825   0.768   5.383   4.045
  642SOL    HW2 2826   0.627   5.302   4.052
  643SOL     OW 2827   3.811   4.584   0.282
  643SOL    HW1 2828   3.808   4.612   0.187
  643SOL    HW2 2829   3.721   4.550   0.311
  644SOL     OW 2830   5.885   0.816   4.317
  644SOL    HW1 2831   5.808   0.878   4.329
  644SOL    HW2 2832   5.966   0.853   4.364
  645SOL     OW 2833   4.023   5.598   2.795
  645SOL    HW1 2834   3.940   5.637   2.835
  645SOL    HW2 2835   4.087   5.672   2.772
  646SOL     OW 2836   3.495   0.775   5.441
  646SOL    HW1 2837   3.584   0.731   5.451
  646SOL    HW2 2838   3.480   0.838   5.516
  647SOL     OW 2839   1.272   2.201   6.833
  647SOL    HW1 2840   1.291   2.290   6.793
  647SOL    HW2 2841   1.182   2.169   6.801
  648SOL     OW 2842   4.860   2.483   3.764
  648SOL    HW1 2843   4.916   2.449   3.688
  648SOL    HW2 2844   4.808   2.408   3.804
  649SOL     OW 2845   4.107   6.516   1.345
  649SOL    HW1 2846   4.081   6.474   1.432
  649SOL    HW2 2847   4.028   6.564   1.306
  650SOL     OW 2848   2.417   3.752   1.578
  650SOL    HW1 2849   2.473   3.670   1.586
  650SOL    HW2 2850   2.359   3.761   1.659
  651SOL     OW 2851   0.126   1.733   3.123
  651SOL    HW1 2852   0.138   1.751   3.221
  651SOL    HW2 2853   0.109   1.636   3.109
  652SOL     OW 2854   3.730   6.459   0.593
  652SOL    HW1 2855   3.723   6.519   0.512
  652SOL    HW2 2856   3.826   6.452   0.620
  653SOL     OW 2857   1.464   0.282   3.191
  653SOL    HW1 2858   1.523   0.319   3.119
  653SOL    HW2 2859   1.467   0.183   3.188
  654SOL     OW 2860   1.487   0.370   6.730
  654SOL    HW1 2861   1.394   0.398   6.753
  654SOL    HW2 2862   1.487   0.273   6.705
  655SOL     OW 2863   1.210   4.170   1.681
  655SOL    HW1 2864   1.231   4.086   1.631
  655SOL    HW2 2865   1.293   4.205   1.724
  656SOL     OW 2866   2.108   0.128   6.860
  656SOL    HW1 2867   2.177   0.162   6.924
  656SOL    HW2 2868   2.017   0.153   6.893
  657SOL     OW 2869   3.696   3.434   4.387
  657SOL    HW1 2870   3.735   3.351   4.346
  657SOL    HW2 2871   3.744   3.455   4.472
  658SOL     OW 2872   2.834   7.018   5.135
  658SOL    HW1 2873   2.878   0.027   5.218
  658SOL    HW2 2874   2.752   6.966   5.159
  659SOL     OW 2875   1.594   4.562   0.132
  659SOL    HW1 2876   1.585   4.475   0.084
  659SOL    HW2 2877   1.515   4.621   0.110
  660SOL     OW 2878   5.931   3.368   2.126
  660SOL    HW1 2879   5.854   3.403   2.179
  660SOL    HW2 2880   5.942   3.423   2.043
  661SOL     OW 2881   5.096   5.964   3.927
  661SOL    HW1 2882   5.025   5.993   3.992
  661SOL    HW2 2883   5.056   5.957   3.836
  662SOL     OW 2884   6.661   3.088   0.093
  662SOL    HW1 2885   6.608   3.156   0.042
  662SOL    HW2 2886   6.750   3.075   0.050
  663SOL     OW 2887   1.489   4.440   5.975
  663SOL    HW1 2888   1.395   4.457   6.003
  663SOL    HW2 2889   1.498   4.346   5.943
  664SOL     OW 2890   2.204   0.395   5.787
  664SOL    HW1 2891   2.223   0.383   5.884
  664SOL    HW2 2892   2.105   0.390   5.771
  665SOL     OW 2893   2.376   4.452   3.250
  665SOL    HW1 2894   2.390   4.406   3.162
  665SOL    HW2 2895   2.281   4.481   3.258
  666SOL     OW 2896   2.892   0.393   0.232
  666SOL    HW1 2897   2.973   0.335   0.240
  666SOL    HW2 2898   2.875   0.412   0.135
  667SOL     OW 2899   2.135   2.743   2.814
  667SOL    HW1 2900   2.214   2.783   2.861
  667SOL    HW2 2901   2.052   2.761   2.868
  668SOL     OW 2902   5.246   6.866   0.874
  668SOL    HW1 2903   5.261   6.965   0.878
  668SOL    HW2 2904   5.333   6.819   0.861
  669SOL     OW 2905   6.024   6.220   1.994
  669SOL    HW1 2906   6.122   6.231   1.980
  669SOL    HW2 2907   5.991   6.292   2.055
  670SOL     OW 2908   3.934   3.866   3.282
  670SOL    HW1 2909   3.837   3.865   3.260
  670SOL    HW2 2910   3.987   3.882   3.199
  671SOL     OW 2911   0.862   0.273   6.934
  671SOL    HW1 2912   0.798   0.265   7.011
  671SOL    HW2 2913   0.933   0.339   6.957
  672SOL     OW 2914   0.037   2.561   2.737
  672SOL    HW1 2915   6.970   2.595   2.714
  672SOL    HW2 2916   0.099   2.580   2.660
  673SOL     OW 2917   4.880   0.280   6.307
  673SOL    HW1 2918   4.975   0.248   6.315
  673SOL    HW2 2919   4.852   0.321   6.394
  674SOL     OW 2920   6.827   3.242   4.076
  674SOL    HW1 2921   6.778   3.310   4.021
  674SOL    HW2 2922   6.860   3.285   4.160
  675SOL     OW 2923   6.057   6.887   3.507
  675SOL    HW1 2924   6.116   6.807   3.516
  675SOL    HW2 2925   6.113   6.970   3.507
  676SOL     OW 2926   3.188   4.654   6.136
  676SOL    HW1 2927   3.135   4.735   6.110
  676SOL    HW2 2928   3.136   4.600   6.203
  677SOL     OW 2929   5.110   6.370   0.529
  677SOL    HW1 2930   5.193   6.321   0.505
  677SOL    HW2 2931   5.131   6.467   0.544
  678SOL     OW 2932   2.064   0.318   6.633
  678SOL    HW1 2933   2.078   0.397   6.693
  678SOL    HW2 2934   2.101   0.236   6.677
  679SOL     OW 2935   0.144   0.291   2.795
  679SOL    HW1 2936   0.213   0.230   2.755
  679SOL    HW2 2937   0.148   0.287   2.894
  680SOL     OW 2938   5.819   3.409   3.943
  680SOL    HW1 2939   5.735   3.384   3.991
  680SOL    HW2 2940   5.888   3.436   4.010
  681SOL     OW 2941   0.770   5.340   3.250
  681SOL    HW1 2942   0.771   5.317   3.348
  681SOL    HW2 2943   0.695   5.404   3.232
  682SOL     OW 2944   0.901   6.576   5.191
  682SOL    HW1 2945   0.900   6.668   5.152
  682SOL    HW2 2946   0.983   6.563   5.246
  683SOL     OW 2947   4.749   1.664   1.918
  683SOL    HW1 2948   4.798   1.691   1.835
  683SOL    HW2 2949   4.814   1.641   1.990
  684SOL     OW 2950   6.923   5.421   6.812
  684SOL    HW1 2951   7.022   5.431   6.800
  684SOL    HW2 2952   6.895   5.466   6.897
  685SOL     OW 2953   6.476   1.277   5.136
  685SOL    HW1 2954   6.528   1.207   5.185
  685SOL    HW2 2955   6.484   1.261   5.038
  686SOL     OW 2956   5.199   4.580   0.567
  686SOL    HW1 2957   5.176   4.520   0.644
  686SOL    HW2 2958   5.128   4.572   0.497
  687SOL     OW 2959   5.240   3.134   0.079
  687SOL    HW1 2960   5.307   3.165   0.147
  687SOL    HW2 2961   5.176   3.208   0.059
  688SOL     OW 2962   0.580   2.881   5.036
  688SOL    HW1 2963   0.568   2.888   5.135
  688SOL    HW2 2964   0.624   2.793   5.015
  689SOL     OW 2965   5.507   4.784   4.105
  689SOL    HW1 2966   5.507   4.867   4.161
  689SOL    HW2 2967   5.563   4.799   4.023
  690SOL     OW 2968   0.041   2.696   4.768
  690SOL    HW1 2969   0.123   2.655   4.809
  690SOL    HW2 2970   6.985   2.642   4.793
  691SOL     OW 2971   1.096   2.512   6.616
  691SOL    HW1 2972   1.189   2.476   6.625
  691SOL    HW2 2973   1.060   2.537   6.706
  692SOL     OW 2974   2.775   0.487   4.040
  692SOL    HW1 2975   2.811   0.529   3.957
  692SOL    HW2 2976   2.726   0.556   4.094
  693SOL     OW 2977   5.836   1.775   2.689
  693SOL    HW1 2978   5.915   1.736   2.643
  693SOL    HW2 2979   5.833   1.742   2.784
  694SOL     OW 2980   0.912   0.616   2.654
  694SOL    HW1 2981   0.922   0.572   2.743
  694SOL    HW2 2982   0.997   0.663   2.631
  695SOL     OW 2983   4.289   6.423   6.621
  695SOL    HW1 2984   4.242   6.506   6.590
  695SOL    HW2 2985   4.232   6.343   6.602
  696SOL     OW 2986   5.473   5.904   2.584
  696SOL    HW1 2987   5.524   5.989   2.576
  696SOL    HW2 2988   5.382   5.922   2.620
  697SOL     OW 2989   1.372   4.243   2.856
  697SOL    HW1 2990   1.418   4.184   2.921
  697SOL    HW2 2991   1.311   4.189   2.798
  698SOL     OW 2992   4.992   0.077   3.791
  698SOL    HW1 2993   4.957   0.075   3.697
  698SOL    HW2 2994   5.086   0.111   3.790
  699SOL     OW 2995   2.238   5.996   6.078
  699SOL    HW1 2996   2.177   6.075   6.073
  699SOL    HW2 2997   2.185   5.912   6.071
  700SOL     OW 2998   1.541   2.467   4.685
  700SOL    HW1 2999   1.599   2.532   4.638
  700SOL    HW2 3000   1.551   2.376   4.644
  701SOL     OW 3001   1.105   5.307   6.828
  701SOL    HW1 3002   1.089   5.405   6.841
  701SOL    HW2 3003   1.074   5.280   6.737
  702SOL     OW 3004   5.825   5.907   5.724
  702SOL    HW1 3005   5.799   5.835   5.660
  702SOL    HW2 3006   5.879   5.867   5.798
  703SOL     OW 3007   5.967   4.575   5.810
  703SOL    HW1 3008   5.950   4.504   5.741
  703SOL    HW2 3009   5.893   4.642   5.808
  704SOL     OW 3010   2.386   0.239   2.226
  704SOL    HW1 3011   2.326   0.230   2.146
  704SOL    HW2 3012   2.448   0.316   2.212
  705SOL     OW 3013   1.307   2.264   4.553
  705SOL    HW1 3014   1.403   2.240   4.536
  705SOL    HW2 3015   1.288   2.354   4.515
  706SOL     OW 3016   6.065   3.617   3.038
  706SOL    HW1 3017   5.994   3.556   3.004
  706SOL    HW2 3018   6.055   3.628   3.137
  707SOL     OW 3019   5.032   2.909   2.969
  707SOL    HW1 3020   4.994   2.822   3.003
  707SOL    HW2 3021   5.111   2.934   3.025
  708SOL     OW 3022   5.310   0.923   1.679
  708SOL    HW1 3023   5.377   0.968   1.738
  708SOL    HW2 3024   5.325   0.952   1.584
  709SOL     OW 3025   1.726   3.494   6.763
  709SOL    HW1 3026   1.722   3.578   6.817
  709SOL    HW2 3027   1.685   3.510   6.673
  710SOL     OW 3028   2.906   3.305   3.927
  710SOL    HW1 3029   2.942   3.380   3.981
  710SOL    HW2 3030   2.809   3.293   3.947
  711SOL     OW 3031   1.727   1.381   3.778
  711SOL    HW1 3032   1.664   1.322   3.727
  711SOL    HW2 3033   1.698   1.476   3.768
  712SOL     OW 3034   0.342   4.892   4.015
  712SOL    HW1 3035   0.321   4.842   4.099
  712SOL    HW2 3036   0.328   4.990   4.030
  713SOL     OW 3037   2.226   4.099   5.824
  713SOL    HW1 3038   2.313   4.095   5.874
  713SOL    HW2 3039   2.199   4.195   5.813
  714SOL     OW 3040   5.097   4.892   4.501
  714SOL    HW1 3041   5.156   4.973   4.504
  714SOL    HW2 3042   5.001   4.920   4.508
  715SOL     OW 3043   6.754   0.499   5.477
  715SOL    HW1 3044   6.830   0.543   5.430
  715SOL    HW2 3045   6.778   0.486   5.573
  716SOL     OW 3046   6.065   5.733   0.225
  716SOL    HW1 3047   5.997   5.743   0.298
  716SOL    HW2 3048   6.135   5.669   0.254
  717SOL     OW 3049   6.053   3.019   5.607
  717SOL    HW1 3050   5.989   3.035   5.682
  717SOL    HW2 3051   6.131   3.079   5.616
  718SOL     OW 3052   3.635   3.176   1.114
  718SOL    HW1 3053   3.636   3.256   1.053
  718SOL    HW2 3054   3.545   3.133   1.111
  719SOL     OW 3055   0.031   4.164   0.785
  719SOL    HW1 3056   7.011   4.213   0.711
  719SOL    HW2 3057   0.114   4.212   0.813
  720SOL     OW 3058   4.381   0.792   5.858
  720SOL    HW1 3059   4.311   0.835   5.915
  720SOL    HW2 3060   4.343   0.774   5.767
  721SOL     OW 3061   2.237   0.701   5.033
  721SOL    HW1 3062   2.232   0.610   5.074
  721SOL    HW2 3063   2.295   0.696   4.951
  722SOL     OW 3064   4.578   1.593   5.483
  722SOL    HW1 3065   4.637   1.543   5.546
  722SOL    HW2 3066   4.490   1.546   5.474
  723SOL     OW 3067   6.981   3.657   1.719
  723SOL    HW1 3068   7.011   3.562   1.716
  723SOL    HW2 3069   0.035   3.716   1.740
  724SOL     OW 3070   0.368   2.743   4.557
  724SOL    HW1 3071   0.315   2.826   4.574
  724SOL    HW2 3072   0.306   2.665   4.547
  725SOL     OW 3073   2.517   5.490   2.174
  725SOL    HW1 3074   2.516   5.565   2.108
  725SOL    HW2 3075   2.600   5.497   2.231
  726SOL     OW 3076   5.596   5.458   0.223
  726SOL    HW1 3077   5.533   5.532   0.200
  726SOL    HW2 3078   5.643   5.427   0.140
  727SOL     OW 3079   1.500   5.365   4.252
  727SOL    HW1 3080   1.477   5.351   4.156
  727SOL    HW2 3081   1.568   5.296   4.280
  728SOL     OW 3082   6.136   2.522   6.702
  728SOL    HW1 3083   6.206   2.562   6.642
  728SOL    HW2 3084   6.180   2.460   6.767
  729SOL     OW 3085   4.269   1.170   0.747
  729SOL    HW1 3086   4.365   1.199   0.751
  729SOL    HW2 3087   4.256   1.104   0.674
  730SOL     OW 3088   6.091   1.052   3.688
  730SOL    HW1 3089   6.016   1.074   3.626
  730SOL    HW2 3090   6.122   1.135   3.734
  731SOL     OW 3091   6.994   1.913   3.394
  731SOL    HW1 3092   6.969   1.961   3.479
  731SOL    HW2 3093   6.966   1.968   3.315
  732SOL     OW 3094   0.311   4.108   4.092
  732SOL    HW1 3095   0.363   4.192   4.076
  732SOL    HW2 3096   0.279   4.071   4.004
  733SOL     OW 3097   5.645   4.587   4.977
  733SOL    HW1 3098   5.637   4.491   4.952
  733SOL    HW2 3099   5.557   4.620   5.013
  734SOL     OW 3100   0.743   0.482   0.092
  734SOL    HW1 3101   0.794   0.485   0.178
  734SOL    HW2 3102   0.695   0.395   0.084
  735SOL     OW 3103   3.144   4.793   0.117
  735SOL    HW1 3104   3.155   4.731   0.040
  735SOL    HW2 3105   3.229   4.842   0.133
  736SOL     OW 3106   5.462   1.394   1.661
  736SOL    HW1 3107   5.434   1.372   1.568
  736SOL    HW2 3108   5.511   1.481   1.662
  737SOL     OW 3109   5.294   4.008   0.247
  737SOL    HW1 3110   5.222   4.064   0.289
  737SOL    HW2 3111   5.379   4.022   0.297
  738SOL     OW 3112   7.019   3.518   4.068
  738SOL    HW1 3113   0.019   3.438   4.123
  738SOL    HW2 3114   0.068   3.586   4.076
  739SOL     OW 3115   4.900   5.532   5.941
  739SOL    HW1 3116   4.975   5.583   5.983
  739SOL    HW2 3117   4.879   5.452   5.998
  740SOL     OW 3118   5.920   6.549   0.527
  740SOL    HW1 3119   5.868   6.502   0.456
  740SOL    HW2 3120   5.939   6.486   0.602
  741SOL     OW 3121   1.368   0.828   3.941
  741SOL    HW1 3122   1.307   0.854   3.866
  741SOL    HW2 3123   1.451   0.884   3.938
  742SOL     OW 3124   1.124   6.049   2.388
  742SOL    HW1 3125   1.049   6.101   2.348
  742SOL    HW2 3126   1.136   6.075   2.484
  743SOL     OW 3127   1.711   3.126   2.288
  743SOL    HW1 3128   1.787   3.075   2.246
  743SOL    HW2 3129   1.680   3.197   2.225
  744SOL     OW 3130   6.848   5.141   1.351
  744SOL    HW1 3131   6.853   5.126   1.252
  744SOL    HW2 3132   6.758   5.177   1.375
  745SOL     OW 3133   1.359   6.360   2.064
  745SOL    HW1 3134   1.356   6.276   2.010
  745SOL    HW2 3135   1.417   6.346   2.144
  746SOL     OW 3136   3.100   6.971   3.561
  746SOL    HW1 3137   3.081   6.880   3.599
  746SOL    HW2 3138   3.179   7.011   3.607
  747SOL     OW 3139   0.267   3.977   0.717
  747SOL    HW1 3140   0.217   4.026   0.646
  747SOL    HW2 3141   0.227   3.996   0.806
  748SOL     OW 3142   3.994   3.819   4.094
  748SOL    HW1 3143   3.950   3.908   4.084
  748SOL    HW2 3144   3.928   3.747   4.076
  749SOL     OW 3145   4.566   3.017   5.521
  749SOL    HW1 3146   4.591   2.971   5.607
  749SOL    HW2 3147   4.646   3.062   5.483
  750SOL     OW 3148   2.976   3.066   1.761
  750SOL    HW1 3149   2.934   3.154   1.738
  750SOL    HW2 3150   3.008   3.068   1.855
  751SOL     OW 3151   5.232   1.090   0.809
  751SOL    HW1 3152   5.222   1.187   0.788
  751SOL    HW2 3153   5.147   1.055   0.848
  752SOL     OW 3154   4.326   0.295   2.267
  752SOL    HW1 3155   4.411   0.270   2.221
  752SOL    HW2 3156   4.276   0.212   2.295
  753SOL     OW 3157   2.644   1.649   1.599
  753SOL    HW1 3158   2.717   1.590   1.632
  753SOL    HW2 3159   2.682   1.716   1.535
  754SOL     OW 3160   5.124   5.089   0.108
  754SOL    HW1 3161   5.139   5.174   0.159
  754SOL    HW2 3162   5.208   5.064   0.059
  755SOL     OW 3163   5.953   4.967   2.232
  755SOL    HW1 3164   5.928   5.051   2.183
  755SOL    HW2 3165   5.869   4.919   2.260
  756SOL     OW 3166   2.745   6.265   4.753
  756SOL    HW1 3167   2.781   6.262   4.846
  756SOL    HW2 3168   2.650   6.297   4.755
  757SOL     OW 3169   0.130   1.098   4.220
  757SOL    HW1 3170   0.171   1.162   4.155
  757SOL    HW2 3171   0.039   1.131   4.246
  758SOL     OW 3172   4.091   1.617   0.398
  758SOL    HW1 3173   4.139   1.532   0.422
  758SOL    HW2 3174   4.059   1.611   0.304
  759SOL     OW 3175   1.948   0.408   1.219
  759SOL    HW1 3176   2.033   0.456   1.197
  759SOL    HW2 3177   1.970   0.321   1.264
  760SOL     OW 3178   5.167   1.156   5.726
  760SOL    HW1 3179   5.082   1.133   5.679
  760SOL    HW2 3180   5.225   1.075   5.733
  761SOL     OW 3181   5.041   0.831   6.459
  761SOL    HW1 3182   4.984   0.883   6.523
  761SOL    HW2 3183   5.068   0.890   6.383
  762SOL     OW 3184   2.371   4.548   4.901
  762SOL    HW1 3185   2.300   4.617   4.884
  762SOL    HW2 3186   2.436   4.582   4.968
  763SOL     OW 3187   0.753   4.632   0.833
  763SOL    HW1 3188   0.768   4.609   0.929
  763SOL    HW2 3189   0.773   4.729   0.818
  764SOL     OW 3190   5.942   1.419   2.258
  764SOL    HW1 3191   6.008   1.350   2.228
  764SOL    HW2 3192   5.883   1.443   2.181
  765SOL     OW 3193   0.760   6.221   2.638
  765SOL    HW1 3194   0.795   6.310   2.608
  765SOL    HW2 3195   0.677   6.199   2.586
  766SOL     OW 3196   0.590   6.058   0.358
  766SOL    HW1 3197   0.532   6.029   0.434
  766SOL    HW2 3198   0.618   6.153   0.371
  767SOL     OW 3199   5.613   6.173   1.866
  767SOL    HW1 3200   5.701   6.213   1.891
  767SOL    HW2 3201   5.541   6.242   1.876
  768SOL     OW 3202   3.121   5.951   5.083
  768SOL    HW1 3203   3.143   5.924   5.177
  768SOL    HW2 3204   3.022   5.960   5.073
  769SOL     OW 3205   3.457   0.588   0.321
  769SOL    HW1 3206   3.556   0.589   0.329
  769SOL    HW2 3207   3.425   0.495   0.302
  770SOL     OW 3208   4.125   4.714   5.203
  770SOL    HW1 3209   4.156   4.734   5.296
  770SOL    HW2 3210   4.174   4.634   5.168
  771SOL     OW 3211   0.338   6.924   4.686
  771SOL    HW1 3212   0.266   6.966   4.742
  771SOL    HW2 3213   0.308   6.922   4.591
  772SOL     OW 3214   1.010   3.036   6.614
  772SOL    HW1 3215   0.969   2.959   6.663
  772SOL    HW2 3216   0.982   3.121   6.659
  773SOL     OW 3217   0.188   3.315   1.753
  773SOL    HW1 3218   0.285   3.316   1.776
  773SOL    HW2 3219   0.137   3.366   1.823
  774SOL     OW 3220   1.205   1.457   1.907
  774SOL    HW1 3221   1.139   1.490   1.975
  774SOL    HW2 3222   1.197   1.513   1.824
  775SOL     OW 3223   2.266   2.488   4.146
  775SOL    HW1 3224   2.340   2.474   4.081
  775SOL    HW2 3225   2.288   2.565   4.206
  776SOL     OW 3226   2.490   1.310   5.174
  776SOL    HW1 3227   2.451   1.262   5.095
  776SOL    HW2 3228   2.512   1.404   5.148
  777SOL     OW 3229   4.714   0.393   6.943
  777SOL    HW1 3230   4.706   0.376   6.845
  777SOL    HW2 3231   4.811   0.393   6.969
  778SOL     OW 3232   4.928   6.290   5.368
  778SOL    HW1 3233   5.023   6.309   5.393
  778SOL    HW2 3234   4.895   6.363   5.308
  779SOL     OW 3235   0.960   0.190   2.273
  779SOL    HW1 3236   0.874   0.186   2.221
  779SOL    HW2 3237   0.949   0.138   2.358
  780SOL     OW 3238   5.821   2.680   5.449
  780SOL    HW1 3239   5.748   2.696   5.382
  780SOL    HW2 3240   5.782   2.676   5.541
  781SOL     OW 3241   1.078   3.794   6.969
  781SOL    HW1 3242   1.026   3.729   0.001
  781SOL    HW2 3243   1.166   3.812   7.013
  782SOL     OW 3244   0.378   5.131   0.429
  782SOL    HW1 3245   0.476   5.148   0.425
  782SOL    HW2 3246   0.357   5.045   0.382
  783SOL     OW 3247   1.508   5.689   0.611
  783SOL    HW1 3248   1.416   5.695   0.574
  783SOL    HW2 3249   1.535   5.778   0.648
  784SOL     OW 3250   5.260   5.413   2.896
  784SOL    HW1 3251   5.191   5.483   2.914
  784SOL    HW2 3252   5.351   5.456   2.892
  785SOL     OW 3253   6.620   3.141   3.129
  785SOL    HW1 3254   6.693   3.073   3.130
  785SOL    HW2 3255   6.558   3.121   3.052
  786SOL     OW 3256   5.855   6.987   1.575
  786SOL    HW1 3257   5.849   6.891   1.545
  786SOL    HW2 3258   5.880   6.989   1.672
  787SOL     OW 3259   4.765   1.148   5.340
  787SOL    HW1 3260   4.790   1.183   5.250
  787SOL    HW2 3261   4.822   1.069   5.362
  788SOL     OW 3262   6.529   5.313   3.123
  788SOL    HW1 3263   6.435   5.345   3.111
  788SOL    HW2 3264   6.545   5.291   3.219
  789SOL     OW 3265   5.760   2.784   0.334
  789SOL    HW1 3266   5.765   2.686   0.315
  789SOL    HW2 3267   5.845   2.815   0.376
  790SOL     OW 3268   2.843   0.725   4.392
  790SOL    HW1 3269   2.762   0.666   4.385
  790SOL    HW2 3270   2.907   0.688   4.459
  791SOL     OW 3271   3.407   1.266   3.627
  791SOL    HW1 3272   3.458   1.211   3.561
  791SOL    HW2 3273   3.468   1.332   3.670
  792SOL     OW 3274   4.843   0.785   3.762
  792SOL    HW1 3275   4.851   0.795   3.663
  792SOL    HW2 3276   4.746   0.792   3.789
  793SOL     OW 3277   0.844   6.285   6.212
  793SOL    HW1 3278   0.903   6.311   6.289
  793SOL    HW2 3279   0.749   6.281   6.244
  794SOL     OW 3280   3.638   5.260   5.067
  794SOL    HW1 3281   3.578   5.200   5.120
  794SOL    HW2 3282   3.590   5.344   5.043
  795SOL     OW 3283   4.736   5.447   6.915
  795SOL    HW1 3284   4.820   5.430   6.864
  795SOL    HW2 3285   4.709   5.543   6.904
  796SOL     OW 3286   1.430   1.836   6.599
  796SOL    HW1 3287   1.347   1.780   6.595
  796SOL    HW2 3288   1.510   1.777   6.594
  797SOL     OW 3289   6.224   3.214   5.667
  797SOL    HW1 3290   6.318   3.208   5.634
  797SOL    HW2 3291   6.224   3.226   5.766
  798SOL     OW 3292   6.184   0.563   4.392
  798SOL    HW1 3293   6.157   0.634   4.457
  798SOL    HW2 3294   6.257   0.507   4.432
  799SOL     OW 3295   6.709   4.403   4.059
  799SOL    HW1 3296   6.650   4.347   4.002
  799SOL    HW2 3297   6.804   4.379   4.043
  800SOL     OW 3298   0.193   2.274   2.329
  800SOL    HW1 3299   0.291   2.278   2.348
  800SOL    HW2 3300   0.155   2.190   2.367
  801SOL     OW 3301   0.185   3.758   3.670
  801SOL    HW1 3302   0.218   3.804   3.587
  801SOL    HW2 3303   0.164   3.827   3.739
  802SOL     OW 3304   6.910   0.742   0.881
  802SOL    HW1 3305   6.935   0.649   0.852
  802SOL    HW2 3306   6.902   0.801   0.801
  803SOL     OW 3307   2.692   6.078   4.571
  803SOL    HW1 3308   2.726   6.152   4.628
  803SOL    HW2 3309   2.665   6.114   4.481
  804SOL     OW 3310   5.597   5.629   0.889
  804SOL    HW1 3311   5.596   5.530   0.905
  804SOL    HW2 3312   5.521   5.653   0.829
  805SOL     OW 3313   2.332   2.039   6.423
  805SOL    HW1 3314   2.374   2.130   6.432
  805SOL    HW2 3315   2.286   2.032   6.335
  806SOL     OW 3316   4.038   6.269   6.791
  806SOL    HW1 3317   4.086   6.236   6.872
  806SOL    HW2 3318   3.996   6.192   6.743
  807SOL     OW 3319   6.353   1.067   3.351
  807SOL    HW1 3320   6.416   1.033   3.281
  807SOL    HW2 3321   6.260   1.069   3.314
  808SOL     OW 3322   6.238   4.052   5.228
  808SOL    HW1 3323   6.144   4.025   5.207
  808SOL    HW2 3324   6.257   4.038   5.325
  809SOL     OW 3325   6.902   5.858   5.507
  809SOL    HW1 3326   6.813   5.874   5.464
  809SOL    HW2 3327   6.918   5.927   5.578
  810SOL     OW 3328   5.396   4.926   6.110
  810SOL    HW1 3329   5.360   4.834   6.124
  810SOL    HW2 3330   5.495   4.926   6.121
  811SOL     OW 3331   2.944   5.011   2.138
  811SOL    HW1 3332   2.965   4.958   2.055
  811SOL    HW2 3333   2.910   5.101   2.112
  812SOL     OW 3334   6.630   0.302   3.053
  812SOL    HW1 3335   6.638   0.204   3.032
  812SOL    HW2 3336   6.627   0.354   2.967
  813SOL     OW 3337   4.532   4.743   1.947
  813SOL    HW1 3338   4.591   4.677   1.900
  813SOL    HW2 3339   4.519   4.823   1.889
  814SOL     OW 3340   5.060   5.249   1.388
  814SOL    HW1 3341   5.096   5.240   1.295
  814SOL    HW2 3342   5.100   5.328   1.433
  815SOL     OW 3343   0.644   1.297   1.449
  815SOL    HW1 3344   0.585   1.281   1.369
  815SOL    HW2 3345   0.690   1.212   1.473
  816SOL     OW 3346   6.411   0.571   1.129
  816SOL    HW1 3347   6.432   0.498   1.194
  816SOL    HW2 3348   6.483   0.640   1.133
  817SOL     OW 3349   6.801   1.584   2.520
  817SOL    HW1 3350   6.793   1.675   2.480
  817SOL    HW2 3351   6.758   1.583   2.610
  818SOL     OW 3352   5.552   2.018   3.249
  818SOL    HW1 3353   5.528   2.056   3.160
  818SOL    HW2 3354   5.515   2.076   3.322
  819SOL     OW 3355   0.299   4.911   3.079
  819SOL    HW1 3356   0.312   4.877   2.986
  819SOL    HW2 3357   0.259   5.002   3.077
  820SOL     OW 3358   2.867   3.281   6.237
  820SOL    HW1 3359   2.809   3.234   6.303
  820SOL    HW2 3360   2.914   3.357   6.281
  821SOL     OW 3361   1.282   4.130   0.442
  821SOL    HW1 3362   1.255   4.188   0.519
  821SOL    HW2 3363   1.318   4.186   0.368
  822SOL     OW 3364   0.950   3.088   5.619
  822SOL    HW1 3365   0.897   3.148   5.678
  822SOL    HW2 3366   1.038   3.130   5.598
  823SOL     OW 3367   4.727   4.000   1.500
  823SOL    HW1 3368   4.676   4.086   1.504
  823SOL    HW2 3369   4.729   3.966   1.406
  824SOL     OW 3370   6.184   4.009   6.891
  824SOL    HW1 3371   6.095   3.969   6.916
  824SOL    HW2 3372   6.215   3.969   6.805
  825SOL     OW 3373   2.325   3.106   1.786
  825SOL    HW1 3374   2.250   3.125   1.849
  825SOL    HW2 3375   2.359   3.191   1.747
  826SOL     OW 3376   0.996   1.164   6.587
  826SOL    HW1 3377   1.059   1.103   6.539
  826SOL    HW2 3378   1.039   1.253   6.601
  827SOL     OW 3379   3.902   4.446   0.884
  827SOL    HW1 3380   3.837   4.466   0.811
  827SOL    HW2 3381   3.995   4.458   0.849
  828SOL     OW 3382   5.776   1.636   5.420
  828SOL    HW1 3383   5.824   1.688   5.350
  828SOL    HW2 3384   5.747   1.548   5.383
  829SOL     OW 3385   4.600   4.463   5.925
  829SOL    HW1 3386   4.669   4.496   5.990
  829SOL    HW2 3387   4.542   4.395   5.970
  830SOL     OW 3388   4.168   3.635   6.704
  830SOL    HW1 3389   4.206   3.544   6.688
  830SOL    HW2 3390   4.098   3.654   6.635
  831SOL     OW 3391   5.064   1.631   5.733
  831SOL    HW1 3392   5.120   1.549   5.716
  831SOL    HW2 3393   5.055   1.682   5.648
  832SOL     OW 3394   3.561   1.218   5.755
  832SOL    HW1 3395   3.463   1.224   5.774
  832SOL    HW2 3396   3.586   1.289   5.689
  833SOL     OW 3397   1.181   0.869   5.045
  833SOL    HW1 3398   1.149   0.794   4.987
  833SOL    HW2 3399   1.202   0.834   5.136
  834SOL     OW 3400   2.612   4.560   5.760
  834SOL    HW1 3401   2.663   4.645   5.749
  834SOL    HW2 3402   2.541   4.574   5.830
  835SOL     OW 3403   4.363   1.852   2.488
  835SOL    HW1 3404   4.332   1.759   2.510
  835SOL    HW2 3405   4.328   1.877   2.397
  836SOL     OW 3406   1.938   1.190   5.481
  836SOL    HW1 3407   2.031   1.213   5.451
  836SOL    HW2 3408   1.874   1.259   5.448
  837SOL     OW 3409   3.928   1.283   4.410
  837SOL    HW1 3410   3.992   1.359   4.425
  837SOL    HW2 3411   3.941   1.247   4.317
  838SOL     OW 3412   0.344   6.177   2.236
  838SOL    HW1 3413   0.364   6.256   2.293
  838SOL    HW2 3414   0.283   6.204   2.161
  839SOL     OW 3415   2.121   1.393   1.835
  839SOL    HW1 3416   2.102   1.467   1.771
  839SOL    HW2 3417   2.078   1.309   1.802
  840SOL     OW 3418   2.265   0.669   4.577
  840SOL    HW1 3419   2.326   0.725   4.521
  840SOL    HW2 3420   2.310   0.582   4.599
  841SOL     OW 3421   6.722   3.110   0.353
  841SOL    HW1 3422   6.640   3.120   0.410
  841SOL    HW2 3423   6.695   3.101   0.257
  842SOL     OW 3424   3.795   5.179   4.287
  842SOL    HW1 3425   3.795   5.080   4.304
  842SOL    HW2 3426   3.708   5.218   4.317
  843SOL     OW 3427   6.902   3.016   1.059
  843SOL    HW1 3428   6.884   3.039   0.963
  843SOL    HW2 3429   6.906   2.916   1.068
  844SOL     OW 3430   5.676   4.394   6.366
  844SOL    HW1 3431   5.709   4.303   6.390
  844SOL    HW2 3432   5.582   4.406   6.399
  845SOL     OW 3433   1.956   5.111   5.905
  845SOL    HW1 3434   1.940   5.053   5.985
  845SOL    HW2 3435   1.912   5.069   5.825
  846SOL     OW 3436   5.373   1.986   0.011
  846SOL    HW1 3437   5.404   2.035   0.092
  846SOL    HW2 3438   5.350   1.892   0.035
  847SOL     OW 3439   4.888   3.522   1.361
  847SOL    HW1 3440   4.926   3.566   1.442
  847SOL    HW2 3441   4.844   3.436   1.387
  848SOL     OW 3442   6.307   6.487   5.593
  848SOL    HW1 3443   6.284   6.551   5.520
  848SOL    HW2 3444   6.271   6.397   5.571
  849SOL     OW 3445   1.133   0.132   3.382
  849SOL    HW1 3446   1.186   0.049   3.362
  849SOL    HW2 3447   1.097   0.126   3.476
  850SOL     OW 3448   3.038   0.540   3.105
  850SOL    HW1 3449   3.027   0.632   3.067
  850SOL    HW2 3450   3.133   0.527   3.133
  851SOL     OW 3451   6.306   1.305   6.044
  851SOL    HW1 3452   6.234   1.283   6.109
  851SOL    HW2 3453   6.385   1.246   6.059
  852SOL     OW 3454   3.791   4.919   4.667
  852SOL    HW1 3455   3.833   4.868   4.742
  852SOL    HW2 3456   3.833   5.010   4.662
  853SOL     OW 3457   1.163   3.683   0.970
  853SOL    HW1 3458   1.255   3.663   1.003
  853SOL    HW2 3459   1.165   3.690   0.870
  854SOL     OW 3460   6.645   4.771   1.272
  854SOL    HW1 3461   6.720   4.773   1.339
  854SOL    HW2 3462   6.573   4.834   1.301
  855SOL     OW 3463   4.728   0.184   0.182
  855SOL    HW1 3464   4.704   0.226   0.094
  855SOL    HW2 3465   4.784   0.248   0.235
  856SOL     OW 3466   2.174   1.494   5.509
  856SOL    HW1 3467   2.127   1.421   5.459
  856SOL    HW2 3468   2.272   1.477   5.508
  857SOL     OW 3469   0.062   4.658   2.295
  857SOL    HW1 3470   0.061   4.676   2.393
  857SOL    HW2 3471   0.075   4.743   2.245
  858SOL     OW 3472   3.927   3.575   2.130
  858SOL    HW1 3473   3.957   3.590   2.224
  858SOL    HW2 3474   3.950   3.481   2.103
  859SOL     OW 3475   6.343   4.022   1.501
  859SOL    HW1 3476   6.321   3.959   1.427
  859SOL    HW2 3477   6.442   4.029   1.510
  860SOL     OW 3478   1.431   4.112   6.208
  860SOL    HW1 3479   1.355   4.162   6.251
  860SOL    HW2 3480   1.479   4.173   6.145
  861SOL     OW 3481   4.305   4.703   6.890
  861SOL    HW1 3482   4.267   4.655   6.811
  861SOL    HW2 3483   4.392   4.660   6.916
  862SOL     OW 3484   4.145   4.685   3.678
  862SOL    HW1 3485   4.177   4.720   3.589
  862SOL    HW2 3486   4.222   4.641   3.725
  863SOL     OW 3487   6.685   3.023   1.267
  863SOL    HW1 3488   6.778   3.036   1.232
  863SOL    HW2 3489   6.619   3.036   1.193
  864SOL     OW 3490   1.465   6.896   1.514
  864SOL    HW1 3491   1.381   6.909   1.461
  864SOL    HW2 3492   1.446   6.836   1.592
  865SOL     OW 3493   0.621   1.298   3.789
  865SOL    HW1 3494   0.590   1.290   3.884
  865SOL    HW2 3495   0.698   1.237   3.773
  866SOL     OW 3496   3.589   0.833   2.077
  866SOL    HW1 3497   3.547   0.915   2.038
  866SOL    HW2 3498   3.538   0.752   2.049
  867SOL     OW 3499   3.523   1.787   6.230
  867SOL    HW1 3500   3.554   1.707   6.281
  867SOL    HW2 3501   3.427   1.806   6.254
  868SOL     OW 3502   4.759   2.116   3.516
  868SOL    HW1 3503   4.850   2.106   3.476
  868SOL    HW2 3504   4.693   2.136   3.443
  869SOL     OW 3505   6.137   3.068   0.737
  869SOL    HW1 3506   6.168   3.148   0.789
  869SOL    HW2 3507   6.131   3.091   0.640
  870SOL     OW 3508   6.186   1.829   0.292
  870SOL    HW1 3509   6.095   1.792   0.274
  870SOL    HW2 3510   6.210   1.815   0.388
  871SOL     OW 3511   6.911   4.166   1.052
  871SOL    HW1 3512   6.941   4.113   0.972
  871SOL    HW2 3513   6.839   4.230   1.024
  872SOL     OW 3514   6.078   1.718   1.783
  872SOL    HW1 3515   6.086   1.810   1.820
  872SOL    HW2 3516   6.125   1.653   1.844
  873SOL     OW 3517   4.177   0.153   3.711
  873SOL    HW1 3518   4.208   0.185   3.621
  873SOL    HW2 3519   4.194   0.055   3.719
  874SOL     OW 3520   1.169   3.526   6.315
  874SOL    HW1 3521   1.083   3.476   6.321
  874SOL    HW2 3522   1.225   3.507   6.396
  875SOL     OW 3523   6.441   5.982   6.772
  875SOL    HW1 3524   6.445   5.892   6.815
  875SOL    HW2 3525   6.357   5.989   6.717
  876SOL     OW 3526   2.690   2.493   1.802
  876SOL    HW1 3527   2.781   2.472   1.839
  876SOL    HW2 3528   2.620   2.450   1.858
  877SOL     OW 3529   5.900   5.497   5.963
  877SOL    HW1 3530   5.972   5.433   5.937
  877SOL    HW2 3531   5.938   5.589   5.972
  878SOL     OW 3532   4.068   3.139   1.447
  878SOL    HW1 3533   4.018   3.059   1.481
  878SOL    HW2 3534   4.153   3.149   1.500
  879SOL     OW 3535   5.372   3.327   2.763
  879SOL    HW1 3536   5.286   3.276   2.758
  879SOL    HW2 3537   5.400   3.335   2.859
  880SOL     OW 3538   3.961   6.799   0.899
  880SOL    HW1 3539   4.037   6.783   0.962
  880SOL    HW2 3540   3.877   6.760   0.938
  881SOL     OW 3541   4.488   5.849   2.968
  881SOL    HW1 3542   4.447   5.886   3.051
  881SOL    HW2 3543   4.537   5.765   2.991
  882SOL     OW 3544   1.145   2.180   5.200
  882SOL    HW1 3545   1.140   2.098   5.257
  882SOL    HW2 3546   1.170   2.259   5.257
  883SOL     OW 3547   2.276   5.408   0.238
  883SOL    HW1 3548   2.306   5.461   0.317
  883SOL    HW2 3549   2.297   5.458   0.154
  884SOL     OW 3550   4.685   4.319   1.490
  884SOL    HW1 3551   4.710   4.306   1.394
  884SOL    HW2 3552   4.703   4.413   1.517
  885SOL     OW 3553   3.874   5.396   6.675
  885SOL    HW1 3554   3.874   5.377   6.577
  885SOL    HW2 3555   3.797   5.348   6.717
  886SOL     OW 3556   3.886   2.681   6.600
  886SOL    HW1 3557   3.823   2.721   6.666
  886SOL    HW2 3558   3.930   2.753   6.547
  887SOL     OW 3559   6.704   6.338   5.137
  887SOL    HW1 3560   6.623   6.345   5.195
  887SOL    HW2 3561   6.783   6.317   5.194
  888SOL     OW 3562   6.422   1.361   3.895
  888SOL    HW1 3563   6.382   1.420   3.965
  888SOL    HW2 3564   6.419   1.409   3.807
  889SOL     OW 3565   1.002   0.119   4.813
  889SOL    HW1 3566   1.080   0.108   4.751
  889SOL    HW2 3567   0.925   0.065   4.779
  890SOL     OW 3568   2.801   3.474   0.815
  890SOL    HW1 3569   2.733   3.449   0.746
  890SOL    HW2 3570   2.841   3.391   0.854
  891SOL     OW 3571   6.752   3.117   5.710
  891SOL    HW1 3572   6.839   3.075   5.687
  891SOL    HW2 3573   6.762   3.216   5.711
  892SOL     OW 3574   2.424   4.128   1.815
  892SOL    HW1 3575   2.366   4.111   1.894
  892SOL    HW2 3576   2.519   4.136   1.845
  893SOL     OW 3577   1.953   0.807   1.878
  893SOL    HW1 3578   1.873   0.866   1.889
  893SOL    HW2 3579   1.999   0.829   1.792
  894SOL     OW 3580   1.132   5.261   3.810
  894SOL    HW1 3581   1.142   5.262   3.711
  894SOL    HW2 3582   1.221   5.276   3.853
  895SOL     OW 3583   3.020   1.433   4.514
  895SOL    HW1 3584   3.061   1.398   4.599
  895SOL    HW2 3585   3.082   1.498   4.471
  896SOL     OW 3586   4.589   6.749   2.678
  896SOL    HW1 3587   4.656   6.769   2.750
  896SOL    HW2 3588   4.604   6.810   2.600
  897SOL     OW 3589   6.548   0.680   6.704
  897SOL    HW1 3590   6.586   0.772   6.713
  897SOL    HW2 3591   6.612   0.623   6.652
  898SOL     OW 3592   5.577   5.950   3.687
  898SOL    HW1 3593   5.518   5.955   3.768
  898SOL    HW2 3594   5.521   5.937   3.605
  899SOL     OW 3595   1.676   4.672   0.381
  899SOL    HW1 3596   1.727   4.608   0.437
  899SOL    HW2 3597   1.639   4.624   0.301
  900SOL     OW 3598   0.373   5.336   3.435
  900SOL    HW1 3599   0.405   5.413   3.381
  900SOL    HW2 3600   0.330   5.370   3.519
  901SOL     OW 3601   6.422   2.670   3.482
  901SOL    HW1 3602   6.441   2.690   3.386
  901SOL    HW2 3603   6.493   2.711   3.539
  902SOL     OW 3604   1.545   6.070   6.791
  902SOL    HW1 3605   1.499   6.159   6.796
  902SOL    HW2 3606   1.610   6.071   6.715
  903SOL     OW 3607   1.224   4.983   0.133
  903SOL    HW1 3608   1.146   5.039   0.105
  903SOL    HW2 3609   1.299   5.042   0.161
  904SOL     OW 3610   0.912   2.319   3.791
  904SOL    HW1 3611   0.843   2.308   3.863
  904SOL    HW2 3612   0.925   2.232   3.744
  905SOL     OW 3613   6.259   4.434   3.364
  905SOL    HW1 3614   6.326   4.473   3.300
  905SOL    HW2 3615   6.259   4.334   3.355
  906SOL     OW 3616   0.148   3.732   5.797
  906SOL    HW1 3617   0.059   3.697   5.767
  906SOL    HW2 3618   0.221   3.671   5.765
  907SOL     OW 3619   0.004   4.694   3.073
  907SOL    HW1 3620   6.944   4.656   3.110
  907SOL    HW2 3621   0.069   4.620   3.055
  908SOL     OW 3622   2.379   1.092   3.050
  908SOL    HW1 3623   2.351   1.184   3.022
  908SOL    HW2 3624   2.418   1.044   2.971
  909SOL     OW 3625   3.019   6.758   2.347
  909SOL    HW1 3626   3.045   6.759   2.250
  909SOL    HW2 3627   2.929   6.716   2.357
  910SOL     OW 3628   1.281   0.644   2.129
  910SOL    HW1 3629   1.183   0.645   2.150
  910SOL    HW2 3630   1.298   0.696   2.045
  911SOL     OW 3631   0.966   2.552   1.204
  911SOL    HW1 3632   0.995   2.480   1.267
  911SOL    HW2 3633   1.019   2.635   1.221
  912SOL     OW 3634   2.474   0.488   1.172
  912SOL    HW1 3635   2.492   0.568   1.116
  912SOL    HW2 3636   2.559   0.456   1.214
  913SOL     OW 3637   2.364   1.306   1.726
  913SOL    HW1 3638   2.381   1.384   1.666
  913SOL    HW2 3639   2.282   1.322   1.780
  914SOL     OW 3640   3.301   4.915   2.534
  914SOL    HW1 3641   3.262   4.853   2.603
  914SOL    HW2 3642   3.401   4.908   2.537
  915SOL     OW 3643   3.289   2.202   1.722
  915SOL    HW1 3644   3.310   2.200   1.820
  915SOL    HW2 3645   3.365   2.163   1.671
  916SOL     OW 3646   6.760   3.922   2.791
  916SOL    HW1 3647   6.799   4.011   2.769
  916SOL    HW2 3648   6.727   3.878   2.707
  917SOL     OW 3649   4.280   0.473   4.978
  917SOL    HW1 3650   4.379   0.464   4.984
  917SOL    HW2 3651   4.237   0.423   5.053
  918SOL     OW 3652   0.442   2.619   5.365
  918SOL    HW1 3653   0.466   2.560   5.288
  918SOL    HW2 3654   0.375   2.574   5.422
  919SOL     OW 3655   0.956   0.410   1.405
  919SOL    HW1 3656   0.938   0.388   1.501
  919SOL    HW2 3657   0.937   0.330   1.348
  920SOL     OW 3658   0.873   1.628   2.787
  920SOL    HW1 3659   0.898   1.719   2.820
  920SOL    HW2 3660   0.858   1.632   2.688
  921SOL     OW 3661   4.230   4.255   0.242
  921SOL    HW1 3662   4.173   4.334   0.263
  921SOL    HW2 3663   4.198   4.211   0.158
  922SOL     OW 3664   2.654   5.620   6.459
  922SOL    HW1 3665   2.675   5.677   6.379
  922SOL    HW2 3666   2.695   5.661   6.541
  923SOL     OW 3667   3.695   1.502   0.339
  923SOL    HW1 3668   3.757   1.456   0.275
  923SOL    HW2 3669   3.748   1.552   0.407
  924SOL     OW 3670   4.803   5.132   0.915
  924SOL    HW1 3671   4.900   5.146   0.935
  924SOL    HW2 3672   4.752   5.123   1.001
  925SOL     OW 3673   5.954   2.021   1.309
  925SOL    HW1 3674   5.996   2.096   1.259
  925SOL    HW2 3675   5.864   2.049   1.343
  926SOL     OW 3676   4.310   5.819   1.656
  926SOL    HW1 3677   4.338   5.804   1.561
  926SOL    HW2 3678   4.371   5.768   1.717
  927SOL     OW 3679   5.232   5.498   5.808
  927SOL    HW1 3680   5.241   5.578   5.749
  927SOL    HW2 3681   5.162   5.437   5.771
  928SOL     OW 3682   5.882   0.849   1.920
  928SOL    HW1 3683   5.826   0.822   1.842
  928SOL    HW2 3684   5.975   0.815   1.907
  929SOL     OW 3685   6.627   2.126   2.937
  929SOL    HW1 3686   6.586   2.115   2.847
  929SOL    HW2 3687   6.597   2.212   2.978
  930SOL     OW 3688   5.940   4.159   2.134
  930SOL    HW1 3689   5.945   4.259   2.136
  930SOL    HW2 3690   6.020   4.123   2.086
  931SOL     OW 3691   0.007   2.884   0.181
  931SOL    HW1 3692   6.989   2.815   0.122
  931SOL    HW2 3693   0.101   2.857   0.202
  932SOL     OW 3694   4.238   6.788   0.576
  932SOL    HW1 3695   4.141   6.762   0.577
  932SOL    HW2 3696   4.254   6.858   0.645
  933SOL     OW 3697   0.412   6.725   3.006
  933SOL    HW1 3698   0.318   6.701   3.027
  933SOL    HW2 3699   0.464   6.734   3.091
  934SOL     OW 3700   4.286   1.857   4.708
  934SOL    HW1 3701   4.229   1.880   4.630
  934SOL    HW2 3702   4.229   1.826   4.784
  935SOL     OW 3703   1.013   3.879   4.003
  935SOL    HW1 3704   1.057   3.876   4.093
  935SOL    HW2 3705   1.082   3.869   3.932
  936SOL     OW 3706   0.834   1.559   0.971
  936SOL    HW1 3707   0.933   1.552   0.955
  936SOL    HW2 3708   0.788   1.578   0.884
  937SOL     OW 3709   4.850   2.091   3.179
  937SOL    HW1 3710   4.914   2.015   3.165
  937SOL    HW2 3711   4.810   2.117   3.091
  938SOL     OW 3712   0.652   0.744   6.037
  938SOL    HW1 3713   0.750   0.728   6.029
  938SOL    HW2 3714   0.629   0.760   6.133
  939SOL     OW 3715   0.151   0.881   4.920
  939SOL    HW1 3716   0.148   0.853   4.824
  939SOL    HW2 3717   0.197   0.811   4.974
  940SOL     OW 3718   6.284   0.108   3.600
  940SOL    HW1 3719   6.335   0.128   3.684
  940SOL    HW2 3720   6.187   0.123   3.615
  941SOL     OW 3721   6.170   2.394   4.908
  941SOL    HW1 3722   6.082   2.436   4.884
  941SOL    HW2 3723   6.229   2.462   4.952
  942SOL     OW 3724   4.262   6.636   6.157
  942SOL    HW1 3725   4.191   6.566   6.149
  942SOL    HW2 3726   4.231   6.719   6.110
  943SOL     OW 3727   5.321   2.222   6.645
  943SOL    HW1 3728   5.395   2.226   6.579
  943SOL    HW2 3729   5.233   2.224   6.597
  944SOL     OW 3730   5.512   4.852   3.720
  944SOL    HW1 3731   5.468   4.763   3.728
  944SOL    HW2 3732   5.467   4.917   3.781
  945SOL     OW 3733   6.914   3.223   6.535
  945SOL    HW1 3734   6.849   3.272   6.592
  945SOL    HW2 3735   6.957   3.286   6.470
  946SOL     OW 3736   5.893   3.229   6.189
  946SOL    HW1 3737   5.851   3.232   6.098
  946SOL    HW2 3738   5.882   3.318   6.234
  947SOL     OW 3739   1.543   2.045   6.417
  947SOL    HW1 3740   1.575   1.951   6.406
  947SOL    HW2 3741   1.493   2.053   6.504
  948SOL     OW 3742   3.608   1.474   0.937
  948SOL    HW1 3743   3.643   1.455   0.846
  948SOL    HW2 3744   3.604   1.572   0.952
  949SOL     OW 3745   4.884   4.939   5.933
  949SOL    HW1 3746   4.923   5.015   5.985
  949SOL    HW2 3747   4.834   4.878   5.995
  950SOL     OW 3748   3.326   5.146   0.266
  950SOL    HW1 3749   3.238   5.123   0.307
  950SOL    HW2 3750   3.319   5.232   0.217
  951SOL     OW 3751   0.218   3.941   2.718
  951SOL    HW1 3752   0.190   3.850   2.747
  951SOL    HW2 3753   0.300   3.935   2.661
  952SOL     OW 3754   4.234   0.859   0.983
  952SOL    HW1 3755   4.152   0.915   0.970
  952SOL    HW2 3756   4.279   0.845   0.895
  953SOL     OW 3757   4.780   6.522   5.980
  953SOL    HW1 3758   4.756   6.426   5.994
  953SOL    HW2 3759   4.775   6.543   5.883
  954SOL     OW 3760   0.073   6.167   1.347
  954SOL    HW1 3761   0.101   6.108   1.272
  954SOL    HW2 3762   0.013   6.117   1.409
  955SOL     OW 3763   1.150   6.784   3.676
  955SOL    HW1 3764   1.146   6.883   3.679
  955SOL    HW2 3765   1.147   6.747   3.769
  956SOL     OW 3766   1.742   2.805   1.391
  956SOL    HW1 3767   1.759   2.722   1.338
  956SOL    HW2 3768   1.777   2.884   1.341
  957SOL     OW 3769   3.142   6.506   4.482
  957SOL    HW1 3770   3.068   6.445   4.454
  957SOL    HW2 3771   3.119   6.600   4.455
  958SOL     OW 3772   4.541   2.123   6.768
  958SOL    HW1 3773   4.519   2.037   6.815
  958SOL    HW2 3774   4.640   2.138   6.771
  959SOL     OW 3775   1.597   3.827   0.626
  959SOL    HW1 3776   1.498   3.835   0.618
  959SOL    HW2 3777   1.641   3.904   0.580
  960SOL     OW 3778   1.703   3.406   5.465
  960SOL    HW1 3779   1.799   3.424   5.445
  960SOL    HW2 3780   1.658   3.368   5.384
  961SOL     OW 3781   3.958   6.703   6.231
  961SOL    HW1 3782   4.008   6.787   6.251
  961SOL    HW2 3783   3.977   6.675   6.137
  962SOL     OW 3784   0.470   0.390   4.062
  962SOL    HW1 3785   0.391   0.339   4.030
  962SOL    HW2 3786   0.463   0.405   4.161
  963SOL     OW 3787   5.630   0.034   3.529
  963SOL    HW1 3788   5.546   0.006   3.483
  963SOL    HW2 3789   5.707   7.007   3.491
  964SOL     OW 3790   5.958   4.549   1.879
  964SOL    HW1 3791   5.963   4.636   1.829
  964SOL    HW2 3792   5.882   4.495   1.843
  965SOL     OW 3793   1.321   2.416   0.511
  965SOL    HW1 3794   1.270   2.333   0.492
  965SOL    HW2 3795   1.397   2.424   0.447
  966SOL     OW 3796   4.857   2.470   1.809
  966SOL    HW1 3797   4.889   2.564   1.799
  966SOL    HW2 3798   4.831   2.453   1.904
  967SOL     OW 3799   0.571   5.817   3.075
  967SOL    HW1 3800   0.624   5.808   3.159
  967SOL    HW2 3801   0.608   5.756   3.005
  968SOL     OW 3802   0.201   4.329   1.111
  968SOL    HW1 3803   0.199   4.336   1.211
  968SOL    HW2 3804   0.141   4.254   1.082
  969SOL     OW 3805   3.533   6.928   6.401
  969SOL    HW1 3806   3.497   7.008   6.353
  969SOL    HW2 3807   3.464   6.892   6.464
  970SOL     OW 3808   5.457   3.683   6.279
  970SOL    HW1 3809   5.469   3.730   6.191
  970SOL    HW2 3810   5.500   3.593   6.275
  971SOL     OW 3811   0.746   1.348   6.781
  971SOL    HW1 3812   0.773   1.396   6.698
  971SOL    HW2 3813   0.745   1.412   6.858
  972SOL     OW 3814   3.897   6.460   6.339
  972SOL    HW1 3815   3.941   6.545   6.313
  972SOL    HW2 3816   3.896   6.451   6.439
  973SOL     OW 3817   6.378   3.597   5.837
  973SOL    HW1 3818   6.361   3.695   5.827
  973SOL    HW2 3819   6.416   3.561   5.751
  974SOL     OW 3820   2.608   0.952   3.525
  974SOL    HW1 3821   2.559   0.938   3.439
  974SOL    HW2 3822   2.641   1.046   3.529
  975SOL     OW 3823   3.095   6.736   4.353
  975SOL    HW1 3824   3.067   6.805   4.419
  975SOL    HW2 3825   3.120   6.780   4.266
  976SOL     OW 3826   0.623   5.243   4.995
  976SOL    HW1 3827   0.610   5.161   4.939
  976SOL    HW2 3828   0.635   5.216   5.090
  977SOL     OW 3829   0.201   1.504   1.911
  977SOL    HW1 3830   0.199   1.529   1.814
  977SOL    HW2 3831   0.178   1.583   1.967
  978SOL     OW 3832   6.299   2.860   3.802
  978SOL    HW1 3833   6.281   2.762   3.792
  978SOL    HW2 3834   6.356   2.891   3.725
  979SOL     OW 3835   5.681   1.679   2.211
  979SOL    HW1 3836   5.700   1.607   2.144
  979SOL    HW2 3837   5.740   1.758   2.192
  980SOL     OW 3838   6.144   5.782   5.520
  980SOL    HW1 3839   6.243   5.775   5.530
  980SOL    HW2 3840   6.100   5.720   5.585
  981SOL     OW 3841   6.113   3.149   6.825
  981SOL    HW1 3842   6.184   3.219   6.811
  981SOL    HW2 3843   6.083   3.114   6.736
  982SOL     OW 3844   1.350   4.742   0.077
  982SOL    HW1 3845   1.297   4.825   0.095
  982SOL    HW2 3846   1.428   4.765   0.019
  983SOL     OW 3847   5.249   1.948   4.066
  983SOL    HW1 3848   5.154   1.918   4.073
  983SOL    HW2 3849   5.253   2.040   4.027
  984SOL     OW 3850   4.883   3.262   5.014
  984SOL    HW1 3851   4.854   3.310   5.097
  984SOL    HW2 3852   4.820   3.187   4.996
  985SOL     OW 3853   1.989   3.828   0.809
  985SOL    HW1 3854   2.077   3.855   0.848
  985SOL    HW2 3855   1.986   3.853   0.712
  986SOL     OW 3856   6.088   4.311   4.654
  986SOL    HW1 3857   6.085   4.263   4.566
  986SOL    HW2 3858   5.996   4.311   4.695
  987SOL     OW 3859   2.404   0.950   2.777
  987SOL    HW1 3860   2.495   0.987   2.755
  987SOL    HW2 3861   2.334   1.003   2.731
  988SOL     OW 3862   3.997   3.828   1.888
  988SOL    HW1 3863   3.926   3.892   1.917
  988SOL    HW2 3864   3.954   3.749   1.844
  989SOL     OW 3865   0.835   1.176   5.295
  989SOL    HW1 3866   0.743   1.140   5.306
  989SOL    HW2 3867   0.831   1.275   5.283
  990SOL     OW 3868   3.723   6.391   1.721
  990SOL    HW1 3869   3.684   6.299   1.716
  990SOL    HW2 3870   3.743   6.414   1.817
  991SOL     OW 3871   5.895   1.525   6.601
  991SOL    HW1 3872   5.929   1.616   6.580
  991SOL    HW2 3873   5.795   1.525   6.600
  992SOL     OW 3874   0.420   2.380   0.117
  992SOL    HW1 3875   0.363   2.407   0.040
  992SOL    HW2 3876   0.372   2.400   0.202
  993SOL     OW 3877   3.934   6.575   4.447
  993SOL    HW1 3878   3.968   6.658   4.405
  993SOL    HW2 3879   3.854   6.541   4.396
  994SOL     OW 3880   3.079   3.987   4.008
  994SOL    HW1 3881   3.155   4.013   3.948
  994SOL    HW2 3882   3.109   3.992   4.103
  995SOL     OW 3883   1.620   1.480   5.175
  995SOL    HW1 3884   1.524   1.492   5.202
  995SOL    HW2 3885   1.634   1.386   5.144
  996SOL     OW 3886   2.613   2.961   0.826
  996SOL    HW1 3887   2.552   2.894   0.869
  996SOL    HW2 3888   2.700   2.918   0.803
  997SOL     OW 3889   6.560   1.567   0.517
  997SOL    HW1 3890   6.497   1.561   0.595
  997SOL    HW2 3891   6.651   1.537   0.545
  998SOL     OW 3892   4.540   6.928   3.613
  998SOL    HW1 3893   4.469   6.901   3.678
  998SOL    HW2 3894   4.611   6.858   3.610
  999SOL     OW 3895   0.336   4.785   6.645
  999SOL    HW1 3896   0.377   4.780   6.554
  999SOL    HW2 3897   0.255   4.843   6.642
 1000SOL     OW 3898   3.847   1.557   5.620
 1000SOL    HW1 3899   3.753   1.528   5.605
 1000SOL    HW2 3900   3.857   1.591   5.714
 1001SOL     OW 3901   5.531   0.497   4.664
 1001SOL    HW1 3902   5.605   0.517   4.600
 1001SOL    HW2 3903   5.551   0.541   4.752
 1002SOL     OW 3904   0.109   1.592   0.388
 1002SOL    HW1 3905   0.159   1.509   0.414
 1002SOL    HW2 3906   0.025   1.566   0.339
 1003SOL     OW 3907   4.830   5.100   2.188
 1003SOL    HW1 3908   4.773   5.040   2.243
 1003SOL    HW2 3909   4.927   5.084   2.211
 1004SOL     OW 3910   6.078   5.955   6.861
 1004SOL    HW1 3911   6.112   5.990   6.774
 1004SOL    HW2 3912   6.029   6.027   6.910
 1005SOL     OW 3913   5.151   6.794   2.556
 1005SOL    HW1 3914   5.071   6.816   2.501
 1005SOL    HW2 3915   5.182   6.701   2.535
 1006SOL     OW 3916   1.852   6.084   0.167
 1006SOL    HW1 3917   1.845   6.153   0.239
 1006SOL    HW2 3918   1.860   5.993   0.208
 1007SOL     OW 3919   6.012   2.622   2.424
 1007SOL    HW1 3920   6.000   2.696   2.358
 1007SOL    HW2 3921   6.108   2.619   2.454
 1008SOL     OW 3922   3.326   0.982   5.289
 1008SOL    HW1 3923   3.331   1.082   5.297
 1008SOL    HW2 3924   3.385   0.940   5.358
 1009SOL     OW 3925   3.188   6.591   5.646
 1009SOL    HW1 3926   3.117   6.576   5.577
 1009SOL    HW2 3927   3.158   6.662   5.710
 1010SOL     OW 3928   5.089   6.160   6.262
 1010SOL    HW1 3929   5.147   6.087   6.298
 1010SOL    HW2 3930   5.101   6.166   6.163
 1011SOL     OW 3931   2.764   4.989   4.564
 1011SOL    HW1 3932   2.726   5.040   4.642
 1011SOL    HW2 3933   2.842   4.935   4.595
 1012SOL     OW 3934   2.951   6.074   0.756
 1012SOL    HW1 3935   2.872   6.044   0.701
 1012SOL    HW2 3936   2.963   6.013   0.833
 1013SOL     OW 3937   1.009   0.168   1.274
 1013SOL    HW1 3938   1.088   0.180   1.334
 1013SOL    HW2 3939   1.004   0.072   1.243
 1014SOL     OW 3940   5.897   6.339   6.667
 1014SOL    HW1 3941   5.814   6.320   6.614
 1014SOL    HW2 3942   5.977   6.305   6.617
 1015SOL     OW 3943   2.558   0.084   4.768
 1015SOL    HW1 3944   2.606   0.118   4.848
 1015SOL    HW2 3945   2.600   0.120   4.685
 1016SOL     OW 3946   4.120   3.225   1.814
 1016SOL    HW1 3947   4.086   3.312   1.779
 1016SOL    HW2 3948   4.181   3.184   1.746
 1017SOL     OW 3949   5.006   6.887   5.560
 1017SOL    HW1 3950   5.087   6.945   5.565
 1017SOL    HW2 3951   4.976   6.864   5.653
 1018SOL     OW 3952   1.158   2.006   1.631
 1018SOL    HW1 3953   1.172   1.967   1.722
 1018SOL    HW2 3954   1.062   2.029   1.618
 1019SOL     OW 3955   6.286   0.773   6.718
 1019SOL    HW1 3956   6.234   0.795   6.636
 1019SOL    HW2 3957   6.361   0.711   6.694
 1020SOL     OW 3958   3.570   1.916   1.153
 1020SOL    HW1 3959   3.668   1.915   1.135
 1020SOL    HW2 3960   3.540   2.010   1.168
 1021SOL     OW 3961   4.836   1.238   1.457
 1021SOL    HW1 3962   4.772   1.160   1.455
 1021SOL    HW2 3963   4.803   1.306   1.522
 1022SOL     OW 3964   2.575   3.828   6.658
 1022SOL    HW1 3965   2.658   3.840   6.605
 1022SOL    HW2 3966   2.552   3.731   6.662
 1023SOL     OW 3967   6.942   1.256   4.255
 1023SOL    HW1 3968   6.902   1.268   4.164
 1023SOL    HW2 3969   6.919   1.334   4.313
 1024SOL     OW 3970   6.744   2.798   4.220
 1024SOL    HW1 3971   6.770   2.869   4.154
 1024SOL    HW2 3972   6.827   2.758   4.261
 1025SOL     OW 3973   2.617   4.137   1.272
 1025SOL    HW1 3974   2.717   4.143   1.276
 1025SOL    HW2 3975   2.579   4.150   1.363
 1026SOL     OW 3976   0.727   3.288   6.785
 1026SOL    HW1 3977   0.685   3.210   6.739
 1026SOL    HW2 3978   0.671   3.370   6.769
 1027SOL     OW 3979   1.940   4.389   1.388
 1027SOL    HW1 3980   1.931   4.330   1.308
 1027SOL    HW2 3981   2.035   4.388   1.419
 1028SOL     OW 3982   0.771   4.895   0.532
 1028SOL    HW1 3983   0.852   4.841   0.511
 1028SOL    HW2 3984   0.752   4.891   0.630
 1029SOL     OW 3985   3.774   0.475   4.565
 1029SOL    HW1 3986   3.752   0.571   4.549
 1029SOL    HW2 3987   3.725   0.444   4.647
 1030SOL     OW 3988   4.264   4.725   4.730
 1030SOL    HW1 3989   4.221   4.781   4.801
 1030SOL    HW2 3990   4.299   4.640   4.771
 1031SOL     OW 3991   2.772   5.777   1.110
 1031SOL    HW1 3992   2.715   5.840   1.162
 1031SOL    HW2 3993   2.846   5.828   1.066
 1032SOL     OW 3994   1.420   2.960   4.750
 1032SOL    HW1 3995   1.394   2.994   4.841
 1032SOL    HW2 3996   1.417   2.860   4.750
 1033SOL     OW 3997   3.280   6.534   2.103
 1033SOL    HW1 3998   3.364   6.556   2.053
 1033SOL    HW2 3999   3.263   6.436   2.098
 1034SOL     OW 4000   0.180   5.154   3.079
 1034SOL    HW1 4001   0.126   5.123   3.157
 1034SOL    HW2 4002   0.231   5.236   3.104
 1035SOL     OW 4003   2.988   1.783   3.450
 1035SOL    HW1 4004   3.076   1.796   3.495
 1035SOL    HW2 4005   2.919   1.841   3.493
 1036SOL     OW 4006   4.842   6.505   6.760
 1036SOL    HW1 4007   4.752   6.537   6.731
 1036SOL    HW2 4008   4.911   6.532   6.693
 1037SOL     OW 4009   4.203   1.003   5.996
 1037SOL    HW1 4010   4.112   1.038   6.020
 1037SOL    HW2 4011   4.261   1.079   5.967
 1038SOL     OW 4012   3.076   1.939   4.791
 1038SOL    HW1 4013   2.982   1.927   4.758
 1038SOL    HW2 4014   3.080   1.921   4.889
 1039SOL     OW 4015   5.423   2.039   2.069
 1039SOL    HW1 4016   5.419   1.961   2.006
 1039SOL    HW2 4017   5.499   2.027   2.133
 1040SOL     OW 4018   6.209   4.879   4.743
 1040SOL    HW1 4019   6.283   4.812   4.736
 1040SOL    HW2 4020   6.243   4.969   4.717
 1041SOL     OW 4021   1.565   0.215   4.560
 1041SOL    HW1 4022   1.626   0.236   4.483
 1041SOL    HW2 4023   1.618   0.168   4.632
 1042SOL     OW 4024   4.159   4.930   0.688
 1042SOL    HW1 4025   4.116   4.956   0.602
 1042SOL    HW2 4026   4.232   4.864   0.670
 1043SOL     OW 4027   4.720   0.373   6.017
 1043SOL    HW1 4028   4.673   0.440   5.959
 1043SOL    HW2 4029   4.654   0.328   6.077
 1044SOL     OW 4030   4.119   3.377   4.278
 1044SOL    HW1 4031   4.105   3.475   4.270
 1044SOL    HW2 4032   4.106   3.348   4.373
 1045SOL     OW 4033   2.214   1.100   2.659
 1045SOL    HW1 4034   2.159   1.119   2.740
 1045SOL    HW2 4035   2.250   1.186   2.622
 1046SOL     OW 4036   2.365   0.738   2.293
 1046SOL    HW1 4037   2.344   0.828   2.331
 1046SOL    HW2 4038   2.430   0.748   2.217
 1047SOL     OW 4039   0.744   6.446   2.237
 1047SOL    HW1 4040   0.756   6.447   2.336
 1047SOL    HW2 4041   0.753   6.353   2.203
 1048SOL     OW 4042   7.014   3.858   5.001
 1048SOL    HW1 4043   6.941   3.924   4.980
 1048SOL    HW2 4044   0.043   3.839   4.919
 1049SOL     OW 4045   0.951   3.726   5.274
 1049SOL    HW1 4046   1.015   3.801   5.289
 1049SOL    HW2 4047   0.946   3.670   5.357
 1050SOL     OW 4048   2.996   0.760   1.533
 1050SOL    HW1 4049   3.062   0.689   1.509
 1050SOL    HW2 4050   3.040   0.850   1.525
 1051SOL     OW 4051   5.077   3.251   1.945
 1051SOL    HW1 4052   5.058   3.311   1.868
 1051SOL    HW2 4053   5.163   3.203   1.930
 1052SOL     OW 4054   2.081   6.261   3.462
 1052SOL    HW1 4055   2.051   6.346   3.505
 1052SOL    HW2 4056   2.025   6.242   3.382
 1053SOL     OW 4057   3.542   5.859   3.075
 1053SOL    HW1 4058   3.528   5.916   3.156
 1053SOL    HW2 4059   3.578   5.915   3.001
 1054SOL     OW 4060   3.172   5.683   5.581
 1054SOL    HW1 4061   3.193   5.699   5.678
 1054SOL    HW2 4062   3.196   5.589   5.556
 1055SOL     OW 4063   3.542   5.011   4.767
 1055SOL    HW1 4064   3.566   5.001   4.863
 1055SOL    HW2 4065   3.620   4.982   4.710
 1056SOL     OW 4066   3.149   6.085   0.568
 1056SOL    HW1 4067   3.088   6.080   0.647
 1056SOL    HW2 4068   3.241   6.059   0.595
 1057SOL     OW 4069   3.821   3.664   1.723
 1057SOL    HW1 4070   3.789   3.755   1.696
 1057SOL    HW2 4071   3.770   3.595   1.671
 1058SOL     OW 4072   2.499   0.727   1.942
 1058SOL    HW1 4073   2.580   0.716   1.884
 1058SOL    HW2 4074   2.434   0.653   1.923
 1059SOL     OW 4075   3.974   0.637   0.457
 1059SOL    HW1 4076   4.063   0.606   0.490
 1059SOL    HW2 4077   3.904   0.620   0.526
 1060SOL     OW 4078   4.038   1.539   4.040
 1060SOL    HW1 4079   3.952   1.580   4.070
 1060SOL    HW2 4080   4.112   1.572   4.099
 1061SOL     OW 4081   2.957   5.743   1.789
 1061SOL    HW1 4082   2.967   5.679   1.712
 1061SOL    HW2 4083   2.884   5.712   1.849
 1062SOL     OW 4084   6.319   4.258   5.424
 1062SOL    HW1 4085   6.415   4.229   5.430
 1062SOL    HW2 4086   6.269   4.223   5.503
 1063SOL     OW 4087   4.530   2.157   5.862
 1063SOL    HW1 4088   4.579   2.081   5.819
 1063SOL    HW2 4089   4.478   2.124   5.940
 1064SOL     OW 4090   0.206   2.775   2.322
 1064SOL    HW1 4091   0.248   2.845   2.265
 1064SOL    HW2 4092   0.121   2.744   2.280
 1065SOL     OW 4093   4.199   5.875   0.082
 1065SOL    HW1 4094   4.239   5.836   0.164
 1065SOL    HW2 4095   4.244   5.836   0.001
 1066SOL     OW 4096   5.221   6.241   3.562
 1066SOL    HW1 4097   5.152   6.312   3.570
 1066SOL    HW2 4098   5.298   6.261   3.623
 1067SOL     OW 4099   3.868   4.689   0.526
 1067SOL    HW1 4100   3.842   4.647   0.439
 1067SOL    HW2 4101   3.821   4.642   0.601
 1068SOL     OW 4102   1.391   5.286   2.192
 1068SOL    HW1 4103   1.432   5.244   2.273
 1068SOL    HW2 4104   1.355   5.376   2.215
 1069SOL     OW 4105   3.855   3.455   3.012
 1069SOL    HW1 4106   3.842   3.537   2.957
 1069SOL    HW2 4107   3.797   3.382   2.977
 1070SOL     OW 4108   1.034   6.407   0.332
 1070SOL    HW1 4109   0.944   6.448   0.320
 1070SOL    HW2 4110   1.048   6.336   0.263
 1071SOL     OW 4111   4.718   4.862   3.929
 1071SOL    HW1 4112   4.722   4.799   4.006
 1071SOL    HW2 4113   4.625   4.864   3.892
 1072SOL     OW 4114   4.572   5.224   3.462
 1072SOL    HW1 4115   4.558   5.279   3.380
 1072SOL    HW2 4116   4.585   5.284   3.541
 1073SOL     OW 4117   3.193   5.243   3.994
 1073SOL    HW1 4118   3.147   5.176   4.052
 1073SOL    HW2 4119   3.208   5.328   4.045
 1074SOL     OW 4120   2.814   5.023   3.960
 1074SOL    HW1 4121   2.788   4.981   4.047
 1074SOL    HW2 4122   2.867   4.958   3.906
 1075SOL     OW 4123   1.289   4.520   2.660
 1075SOL    HW1 4124   1.205   4.476   2.629
 1075SOL    HW2 4125   1.347   4.453   2.706
 1076SOL     OW 4126   5.111   3.710   3.613
 1076SOL    HW1 4127   5.026   3.754   3.642
 1076SOL    HW2 4128   5.171   3.777   3.570
 1077SOL     OW 4129   4.191   0.072   2.362
 1077SOL    HW1 4130   4.146   0.022   2.287
 1077SOL    HW2 4131   4.126   0.084   2.437
 1078SOL     OW 4132   5.685   2.328   1.521
 1078SOL    HW1 4133   5.712   2.421   1.543
 1078SOL    HW2 4134   5.636   2.289   1.600
 1079SOL     OW 4135   1.609   4.752   3.690
 1079SOL    HW1 4136   1.545   4.825   3.663
 1079SOL    HW2 4137   1.578   4.711   3.776
 1080SOL     OW 4138   2.568   5.457   4.153
 1080SOL    HW1 4139   2.593   5.457   4.057
 1080SOL    HW2 4140   2.567   5.363   4.187
 1081SOL     OW 4141   0.921   0.935   0.673
 1081SOL    HW1 4142   0.929   1.027   0.710
 1081SOL    HW2 4143   0.970   0.930   0.586
 1082SOL     OW 4144   2.324   0.932   1.362
 1082SOL    HW1 4145   2.227   0.946   1.343
 1082SOL    HW2 4146   2.368   1.020   1.378
 1083SOL     OW 4147   3.602   4.170   2.017
 1083SOL    HW1 4148   3.642   4.156   1.927
 1083SOL    HW2 4149   3.615   4.265   2.046
 1084SOL     OW 4150   5.645   3.913   1.318
 1084SOL    HW1 4151   5.582   3.835   1.317
 1084SOL    HW2 4152   5.731   3.886   1.360
 1085SOL     OW 4153   1.526   6.798   3.715
 1085SOL    HW1 4154   1.584   6.758   3.644
 1085SOL    HW2 4155   1.463   6.864   3.673
 1086SOL     OW 4156   3.103   6.631   2.911
 1086SOL    HW1 4157   3.005   6.614   2.903
 1086SOL    HW2 4158   3.125   6.719   2.870
 1087SOL     OW 4159   3.699   3.003   5.821
 1087SOL    HW1 4160   3.668   2.909   5.831
 1087SOL    HW2 4161   3.731   3.018   5.728
 1088SOL     OW 4162   6.840   5.511   2.238
 1088SOL    HW1 4163   6.817   5.607   2.222
 1088SOL    HW2 4164   6.791   5.453   2.173
 1089SOL     OW 4165   6.886   0.684   3.193
 1089SOL    HW1 4166   6.842   0.768   3.226
 1089SOL    HW2 4167   6.818   0.611   3.189
 1090SOL     OW 4168   2.981   1.934   0.026
 1090SOL    HW1 4169   2.894   1.915   0.072
 1090SOL    HW2 4170   2.967   2.002   6.979
 1091SOL     OW 4171   1.508   1.756   6.101
 1091SOL    HW1 4172   1.599   1.744   6.059
 1091SOL    HW2 4173   1.452   1.814   6.042
 1092SOL     OW 4174   2.704   5.373   0.860
 1092SOL    HW1 4175   2.659   5.453   0.900
 1092SOL    HW2 4176   2.803   5.385   0.864
 1093SOL     OW 4177   6.459   1.622   1.596
 1093SOL    HW1 4178   6.377   1.662   1.556
 1093SOL    HW2 4179   6.529   1.612   1.525
 1094SOL     OW 4180   0.549   6.232   2.847
 1094SOL    HW1 4181   0.512   6.324   2.836
 1094SOL    HW2 4182   0.626   6.219   2.785
 1095SOL     OW 4183   1.767   2.968   5.113
 1095SOL    HW1 4184   1.810   3.053   5.142
 1095SOL    HW2 4185   1.687   2.949   5.170
 1096SOL     OW 4186   3.466   2.772   1.952
 1096SOL    HW1 4187   3.442   2.772   1.855
 1096SOL    HW2 4188   3.459   2.679   1.988
 1097SOL     OW 4189   2.737   4.931   6.112
 1097SOL    HW1 4190   2.676   5.009   6.123
 1097SOL    HW2 4191   2.755   4.916   6.015
 1098SOL     OW 4192   3.087   6.995   2.479
 1098SOL    HW1 4193   3.109   6.898   2.492
 1098SOL    HW2 4194   3.117   0.022   2.559
 1099SOL     OW 4195   3.287   0.387   2.246
 1099SOL    HW1 4196   3.340   0.368   2.163
 1099SOL    HW2 4197   3.211   0.323   2.253
 1100SOL     OW 4198   0.366   0.890   0.416
 1100SOL    HW1 4199   0.331   0.868   0.507
 1100SOL    HW2 4200   0.291   0.888   0.351
 1101SOL     OW 4201   5.606   5.028   0.977
 1101SOL    HW1 4202   5.627   5.048   0.881
 1101SOL    HW2 4203   5.656   5.092   1.035
 1102SOL     OW 4204   6.866   4.865   4.345
 1102SOL    HW1 4205   6.922   4.792   4.385
 1102SOL    HW2 4206   6.804   4.827   4.277
 1103SOL     OW 4207   0.426   2.543   6.320
 1103SOL    HW1 4208   0.487   2.585   6.387
 1103SOL    HW2 4209   0.480   2.508   6.243
 1104SOL     OW 4210   2.921   5.011   5.586
 1104SOL    HW1 4211   2.879   5.090   5.542
 1104SOL    HW2 4212   2.998   4.978   5.532
 1105SOL     OW 4213   3.768   5.667   0.683
 1105SOL    HW1 4214   3.715   5.695   0.763
 1105SOL    HW2 4215   3.728   5.708   0.601
 1106SOL     OW 4216   0.952   2.232   6.561
 1106SOL    HW1 4217   1.048   2.235   6.535
 1106SOL    HW2 4218   0.898   2.197   6.484
 1107SOL     OW 4219   6.701   6.547   1.546
 1107SOL    HW1 4220   6.706   6.602   1.629
 1107SOL    HW2 4221   6.623   6.576   1.491
 1108SOL     OW 4222   1.189   1.047   6.417
 1108SOL    HW1 4223   1.186   0.970   6.352
 1108SOL    HW2 4224   1.250   1.023   6.493
 1109SOL     OW 4225   4.086   1.226   3.062
 1109SOL    HW1 4226   4.166   1.200   3.008
 1109SOL    HW2 4227   4.029   1.146   3.077
 1110SOL     OW 4228   3.955   3.593   3.352
 1110SOL    HW1 4229   3.944   3.567   3.448
 1110SOL    HW2 4230   3.966   3.692   3.345
 1111SOL     OW 4231   3.846   0.416   6.663
 1111SOL    HW1 4232   3.882   0.507   6.639
 1111SOL    HW2 4233   3.766   0.397   6.606
 1112SOL     OW 4234   0.387   1.265   2.962
 1112SOL    HW1 4235   0.420   1.290   2.871
 1112SOL    HW2 4236   0.450   1.298   3.031
 1113SOL     OW 4237   0.800   5.459   1.955
 1113SOL    HW1 4238   0.788   5.434   1.859
 1113SOL    HW2 4239   0.898   5.462   1.977
 1114SOL     OW 4240   5.692   0.810   5.344
 1114SOL    HW1 4241   5.791   0.800   5.341
 1114SOL    HW2 4242   5.664   0.840   5.435
 1115SOL     OW 4243   2.007   4.883   0.644
 1115SOL    HW1 4244   1.979   4.975   0.673
 1115SOL    HW2 4245   1.967   4.862   0.555
 1116SOL     OW 4246   3.092   6.416   6.336
 1116SOL    HW1 4247   3.101   6.317   6.320
 1116SOL    HW2 4248   3.117   6.466   6.253
 1117SOL     OW 4249   2.633   2.199   0.818
 1117SOL    HW1 4250   2.706   2.232   0.878
 1117SOL    HW2 4251   2.554   2.259   0.826
 1118SOL     OW 4252   1.825   2.012   1.254
 1118SOL    HW1 4253   1.805   2.010   1.352
 1118SOL    HW2 4254   1.746   2.050   1.205
 1119SOL     OW 4255   3.884   4.061   4.044
 1119SOL    HW1 4256   3.967   4.118   4.039
 1119SOL    HW2 4257   3.830   4.089   4.123
 1120SOL     OW 4258   3.234   0.962   3.065
 1120SOL    HW1 4259   3.164   0.906   3.022
 1120SOL    HW2 4260   3.191   1.033   3.120
 1121SOL     OW 4261   4.979   3.797   2.742
 1121SOL    HW1 4262   4.963   3.866   2.814
 1121SOL    HW2 4263   5.008   3.843   2.658
 1122SOL     OW 4264   4.848   4.857   0.369
 1122SOL    HW1 4265   4.898   4.856   0.283
 1122SOL    HW2 4266   4.910   4.835   0.444
 1123SOL     OW 4267   4.576   0.183   2.209
 1123SOL    HW1 4268   4.629   0.152   2.129
 1123SOL    HW2 4269   4.630   0.250   2.260
 1124SOL     OW 4270   2.372   5.096   3.545
 1124SOL    HW1 4271   2.448   5.138   3.496
 1124SOL    HW2 4272   2.407   5.050   3.627
 1125SOL     OW 4273   3.491   4.570   5.807
 1125SOL    HW1 4274   3.405   4.565   5.858
 1125SOL    HW2 4275   3.538   4.655   5.830
 1126SOL     OW 4276   5.950   0.674   2.368
 1126SOL    HW1 4277   5.875   0.740   2.359
 1126SOL    HW2 4278   5.915   0.582   2.352
 1127SOL     OW 4279   2.609   5.393   6.267
 1127SOL    HW1 4280   2.543   5.445   6.212
 1127SOL    HW2 4281   2.656   5.455   6.329
 1128SOL     OW 4282   3.402   1.215   5.414
 1128SOL    HW1 4283   3.342   1.236   5.491
 1128SOL    HW2 4284   3.470   1.288   5.404
 1129SOL     OW 4285   4.307   5.765   6.882
 1129SOL    HW1 4286   4.297   5.686   6.822
 1129SOL    HW2 4287   4.301   5.849   6.827
 1130SOL     OW 4288   1.082   5.266   5.329
 1130SOL    HW1 4289   1.028   5.346   5.354
 1130SOL    HW2 4290   1.162   5.294   5.277
 1131SOL     OW 4291   1.147   4.240   5.749
 1131SOL    HW1 4292   1.136   4.158   5.805
 1131SOL    HW2 4293   1.233   4.235   5.699
 1132SOL     OW 4294   5.493   6.930   4.299
 1132SOL    HW1 4295   5.443   6.996   4.355
 1132SOL    HW2 4296   5.580   6.970   4.269
 1133SOL     OW 4297   6.853   1.755   0.134
 1133SOL    HW1 4298   6.923   1.684   0.132
 1133SOL    HW2 4299   6.774   1.726   0.081
 1134SOL     OW 4300   0.436   4.326   6.200
 1134SOL    HW1 4301   0.402   4.245   6.152
 1134SOL    HW2 4302   0.451   4.304   6.296
 1135SOL     OW 4303   6.870   2.030   4.518
 1135SOL    HW1 4304   6.789   1.973   4.525
 1135SOL    HW2 4305   6.952   1.975   4.535
 1136SOL     OW 4306   4.466   5.603   3.697
 1136SOL    HW1 4307   4.553   5.640   3.664
 1136SOL    HW2 4308   4.480   5.508   3.726
 1137SOL     OW 4309   0.541   0.693   6.672
 1137SOL    HW1 4310   0.528   0.791   6.687
 1137SOL    HW2 4311   0.624   0.678   6.619
 1138SOL     OW 4312   0.834   2.063   5.929
 1138SOL    HW1 4313   0.903   2.042   5.999
 1138SOL    HW2 4314   0.877   2.061   5.839
 1139SOL     OW 4315   0.495   0.448   2.704
 1139SOL    HW1 4316   0.403   0.448   2.665
 1139SOL    HW2 4317   0.554   0.510   2.652
 1140SOL     OW 4318   4.060   1.841   2.832
 1140SOL    HW1 4319   4.024   1.757   2.872
 1140SOL    HW2 4320   4.040   1.918   2.892
 1141SOL     OW 4321   0.629   0.522   5.524
 1141SOL    HW1 4322   0.549   0.533   5.584
 1141SOL    HW2 4323   0.685   0.605   5.529
 1142SOL     OW 4324   5.677   6.536   5.741
 1142SOL    HW1 4325   5.692   6.635   5.737
 1142SOL    HW2 4326   5.736   6.491   5.673
 1143SOL     OW 4327   5.102   2.186   1.354
 1143SOL    HW1 4328   5.108   2.285   1.366
 1143SOL    HW2 4329   5.181   2.154   1.302
 1144SOL     OW 4330   1.102   6.758   4.808
 1144SOL    HW1 4331   1.064   6.817   4.737
 1144SOL    HW2 4332   1.138   6.674   4.765
 1145SOL     OW 4333   3.511   4.982   5.050
 1145SOL    HW1 4334   3.429   5.029   5.016
 1145SOL    HW2 4335   3.486   4.921   5.125
 1146SOL     OW 4336   6.031   2.440   1.791
 1146SOL    HW1 4337   6.048   2.531   1.830
 1146SOL    HW2 4338   6.117   2.403   1.756
 1147SOL     OW 4339   6.604   4.095   3.042
 1147SOL    HW1 4340   6.683   4.156   3.045
 1147SOL    HW2 4341   6.551   4.114   2.959
 1148SOL     OW 4342   6.434   6.241   5.719
 1148SOL    HW1 4343   6.530   6.239   5.749
 1148SOL    HW2 4344   6.380   6.294   5.784
 1149SOL     OW 4345   4.878   3.554   2.488
 1149SOL    HW1 4346   4.919   3.618   2.553
 1149SOL    HW2 4347   4.946   3.525   2.421
 1150SOL     OW 4348   3.222   5.561   5.157
 1150SOL    HW1 4349   3.165   5.581   5.078
 1150SOL    HW2 4350   3.205   5.468   5.189
 1151SOL     OW 4351   1.899   5.791   0.710
 1151SOL    HW1 4352   1.885   5.769   0.807
 1151SOL    HW2 4353   1.874   5.887   0.694
 1152SOL     OW 4354   0.056   0.770   3.632
 1152SOL    HW1 4355   0.035   0.846   3.571
 1152SOL    HW2 4356   0.072   0.687   3.578
 1153SOL     OW 4357   0.958   4.640   1.608
 1153SOL    HW1 4358   0.903   4.696   1.670
 1153SOL    HW2 4359   0.908   4.556   1.586
 1154SOL     OW 4360   1.718   4.021   2.228
 1154SOL    HW1 4361   1.794   4.024   2.163
 1154SOL    HW2 4362   1.754   4.013   2.321
 1155SOL     OW 4363   4.882   1.359   2.236
 1155SOL    HW1 4364   4.906   1.389   2.329
 1155SOL    HW2 4365   4.894   1.259   2.230
 1156SOL     OW 4366   2.993   1.548   3.729
 1156SOL    HW1 4367   3.047   1.464   3.727
 1156SOL    HW2 4368   3.021   1.608   3.654
 1157SOL     OW 4369   1.904   3.522   3.221
 1157SOL    HW1 4370   1.996   3.508   3.185
 1157SOL    HW2 4371   1.837   3.501   3.151
 1158SOL     OW 4372   4.509   5.289   5.152
 1158SOL    HW1 4373   4.571   5.285   5.230
 1158SOL    HW2 4374   4.536   5.220   5.084
 1159SOL     OW 4375   6.500   4.663   3.249
 1159SOL    HW1 4376   6.424   4.726   3.263
 1159SOL    HW2 4377   6.490   4.617   3.161
 1160SOL     OW 4378   3.045   2.174   1.588
 1160SOL    HW1 4379   3.056   2.257   1.534
 1160SOL    HW2 4380   3.118   2.168   1.656
 1161SOL     OW 4381   4.307   1.606   2.570
 1161SOL    HW1 4382   4.387   1.628   2.625
 1161SOL    HW2 4383   4.250   1.539   2.618
 1162SOL     OW 4384   3.705   4.466   1.350
 1162SOL    HW1 4385   3.767   4.509   1.285
 1162SOL    HW2 4386   3.660   4.388   1.307
 1163SOL     OW 4387   4.751   6.806   3.403
 1163SOL    HW1 4388   4.849   6.822   3.401
 1163SOL    HW2 4389   4.727   6.758   3.487
 1164SOL     OW 4390   6.993   4.265   4.825
 1164SOL    HW1 4391   6.951   4.352   4.800
 1164SOL    HW2 4392   6.925   4.192   4.818
 1165SOL     OW 4393   0.330   5.012   2.529
 1165SOL    HW1 4394   0.285   5.088   2.576
 1165SOL    HW2 4395   0.410   4.983   2.582
 1166SOL     OW 4396   3.503   0.951   5.655
 1166SOL    HW1 4397   3.537   1.036   5.695
 1166SOL    HW2 4398   3.423   0.919   5.707
 1167SOL     OW 4399   4.865   1.458   5.627
 1167SOL    HW1 4400   4.887   1.459   5.530
 1167SOL    HW2 4401   4.916   1.531   5.673
 1168SOL     OW 4402   5.817   1.574   4.350
 1168SOL    HW1 4403   5.775   1.620   4.429
 1168SOL    HW2 4404   5.871   1.640   4.298
 1169SOL     OW 4405   1.840   2.861   0.940
 1169SOL    HW1 4406   1.925   2.867   0.888
 1169SOL    HW2 4407   1.853   2.801   1.019
 1170SOL     OW 4408   2.254   1.411   1.430
 1170SOL    HW1 4409   2.326   1.480   1.433
 1170SOL    HW2 4410   2.293   1.321   1.450
 1171SOL     OW 4411   5.226   0.578   0.702
 1171SOL    HW1 4412   5.224   0.674   0.675
 1171SOL    HW2 4413   5.144   0.532   0.669
 1172SOL     OW 4414   3.416   3.406   5.673
 1172SOL    HW1 4415   3.390   3.503   5.666
 1172SOL    HW2 4416   3.511   3.399   5.701
 1173SOL     OW 4417   4.953   5.755   7.010
 1173SOL    HW1 4418   4.989   5.771   6.918
 1173SOL    HW2 4419   4.854   5.743   7.005
 1174SOL     OW 4420   4.343   6.439   5.946
 1174SOL    HW1 4421   4.321   6.512   5.881
 1174SOL    HW2 4422   4.364   6.479   6.035
 1175SOL     OW 4423   6.842   5.466   5.343
 1175SOL    HW1 4424   6.821   5.461   5.246
 1175SOL    HW2 4425   6.868   5.375   5.376
 1176SOL     OW 4426   5.801   3.206   1.184
 1176SOL    HW1 4427   5.716   3.258   1.185
 1176SOL    HW2 4428   5.798   3.139   1.109
 1177SOL     OW 4429   0.046   3.342   5.003
 1177SOL    HW1 4430   0.076   3.263   5.056
 1177SOL    HW2 4431   0.044   3.318   4.905
 1178SOL     OW 4432   5.063   4.452   2.057
 1178SOL    HW1 4433   4.985   4.432   1.999
 1178SOL    HW2 4434   5.074   4.551   2.066
 1179SOL     OW 4435   1.914   5.364   6.010
 1179SOL    HW1 4436   1.934   5.266   6.003
 1179SOL    HW2 4437   1.827   5.378   6.056
 1180SOL     OW 4438   2.227   1.308   4.732
 1180SOL    HW1 4439   2.183   1.379   4.787
 1180SOL    HW2 4440   2.250   1.345   4.642
 1181SOL     OW 4441   1.120   4.147   2.193
 1181SOL    HW1 4442   1.164   4.202   2.264
 1181SOL    HW2 4443   1.112   4.201   2.109
 1182SOL     OW 4444   6.845   3.895   3.795
 1182SOL    HW1 4445   6.922   3.846   3.836
 1182SOL    HW2 4446   6.843   3.878   3.697
 1183SOL     OW 4447   4.498   6.319   0.368
 1183SOL    HW1 4448   4.518   6.414   0.393
 1183SOL    HW2 4449   4.452   6.317   0.279
 1184SOL     OW 4450   4.290   3.404   6.644
 1184SOL    HW1 4451   4.332   3.357   6.721
 1184SOL    HW2 4452   4.250   3.338   6.581
 1185SOL     OW 4453   3.234   1.223   6.462
 1185SOL    HW1 4454   3.134   1.221   6.458
 1185SOL    HW2 4455   3.264   1.228   6.557
 1186SOL     OW 4456   4.215   6.563   5.106
 1186SOL    HW1 4457   4.256   6.516   5.184
 1186SOL    HW2 4458   4.116   6.568   5.118
 1187SOL     OW 4459   0.579   2.787   4.752
 1187SOL    HW1 4460   0.520   2.779   4.672
 1187SOL    HW2 4461   0.634   2.870   4.746
 1188SOL     OW 4462   2.157   0.952   4.960
 1188SOL    HW1 4463   2.067   0.972   4.999
 1188SOL    HW2 4464   2.199   0.877   5.010
 1189SOL     OW 4465   1.483   0.733   1.073
 1189SOL    HW1 4466   1.540   0.755   1.153
 1189SOL    HW2 4467   1.397   0.785   1.078
 1190SOL     OW 4468   2.842   6.423   1.295
 1190SOL    HW1 4469   2.870   6.334   1.332
 1190SOL    HW2 4470   2.743   6.435   1.308
 1191SOL     OW 4471   1.665   4.036   1.732
 1191SOL    HW1 4472   1.610   4.037   1.816
 1191SOL    HW2 4473   1.760   4.057   1.754
 1192SOL     OW 4474   3.829   5.754   2.410
 1192SOL    HW1 4475   3.874   5.809   2.480
 1192SOL    HW2 4476   3.833   5.657   2.436
 1193SOL     OW 4477   3.472   1.991   3.479
 1193SOL    HW1 4478   3.418   2.034   3.407
 1193SOL    HW2 4479   3.466   1.892   3.472
 1194SOL     OW 4480   0.051   3.166   2.093
 1194SOL    HW1 4481   0.029   3.139   1.999
 1194SOL    HW2 4482   7.009   3.124   2.155
 1195SOL     OW 4483   5.073   0.727   0.014
 1195SOL    HW1 4484   5.044   0.805   0.069
 1195SOL    HW2 4485   5.021   0.646   0.041
 1196SOL     OW 4486   1.391   5.509   3.898
 1196SOL    HW1 4487   1.328   5.546   3.966
 1196SOL    HW2 4488   1.428   5.421   3.930
 1197SOL     OW 4489   3.942   4.993   6.969
 1197SOL    HW1 4490   3.959   5.035   6.879
 1197SOL    HW2 4491   4.030   4.971   7.012
 1198SOL     OW 4492   3.007   1.487   3.079
 1198SOL    HW1 4493   2.966   1.497   3.170
 1198SOL    HW2 4494   2.961   1.548   3.015
 1199SOL     OW 4495   3.552   4.117   3.908
 1199SOL    HW1 4496   3.466   4.077   3.876
 1199SOL    HW2 4497   3.586   4.182   3.840
 1200SOL     OW 4498   4.465   4.077   1.351
 1200SOL    HW1 4499   4.476   4.171   1.383
 1200SOL    HW2 4500   4.409   4.026   1.416
 1201SOL     OW 4501   1.998   1.712   5.096
 1201SOL    HW1 4502   2.085   1.678   5.132
 1201SOL    HW2 4503   1.957   1.774   5.163
 1202SOL     OW 4504   5.445   5.945   4.208
 1202SOL    HW1 4505   5.438   5.916   4.303
 1202SOL    HW2 4506   5.471   6.041   4.204
 1203SOL     OW 4507   4.806   0.383   1.654
 1203SOL    HW1 4508   4.864   0.356   1.577
 1203SOL    HW2 4509   4.726   0.323   1.659
 1204SOL     OW 4510   2.609   0.052   0.422
 1204SOL    HW1 4511   2.612   0.150   0.443
 1204SOL    HW2 4512   2.577   0.038   0.329
 1205SOL     OW 4513   0.739   2.749   6.294
 1205SOL    HW1 4514   0.803   2.711   6.360
 1205SOL    HW2 4515   0.755   2.707   6.204
 1206SOL     OW 4516   6.429   2.098   5.244
 1206SOL    HW1 4517   6.389   2.022   5.295
 1206SOL    HW2 4518   6.519   2.072   5.210
 1207SOL     OW 4519   5.692   5.713   5.571
 1207SOL    HW1 4520   5.688   5.613   5.568
 1207SOL    HW2 4521   5.685   5.750   5.478
 1208SOL     OW 4522   4.105   3.319   3.569
 1208SOL    HW1 4523   4.059   3.276   3.647
 1208SOL    HW2 4524   4.097   3.419   3.576
 1209SOL     OW 4525   0.453   3.406   4.606
 1209SOL    HW1 4526   0.451   3.455   4.694
 1209SOL    HW2 4527   0.521   3.449   4.546
 1210SOL     OW 4528   2.671   0.493   4.486
 1210SOL    HW1 4529   2.710   0.401   4.479
 1210SOL    HW2 4530   2.621   0.501   4.573
 1211SOL     OW 4531   6.365   4.203   3.708
 1211SOL    HW1 4532   6.374   4.296   3.742
 1211SOL    HW2 4533   6.271   4.171   3.725
 1212SOL     OW 4534   1.231   3.256   2.385
 1212SOL    HW1 4535   1.164   3.263   2.459
 1212SOL    HW2 4536   1.322   3.275   2.421
 1213SOL     OW 4537   6.673   4.084   5.146
 1213SOL    HW1 4538   6.771   4.098   5.129
 1213SOL    HW2 4539   6.619   4.131   5.077
 1214SOL     OW 4540   0.533   2.388   0.697
 1214SOL    HW1 4541   0.439   2.376   0.666
 1214SOL    HW2 4542   0.594   2.336   0.638
 1215SOL     OW 4543   0.942   0.369   1.686
 1215SOL    HW1 4544   0.861   0.312   1.702
 1215SOL    HW2 4545   1.000   0.367   1.768
 1216SOL     OW 4546   1.836   0.388   0.472
 1216SOL    HW1 4547   1.775   0.389   0.552
 1216SOL    HW2 4548   1.931   0.401   0.503
 1217SOL     OW 4549   0.878   2.736   3.478
 1217SOL    HW1 4550   0.924   2.650   3.498
 1217SOL    HW2 4551   0.852   2.738   3.381
 1218SOL     OW 4552   6.993   4.616   3.999
 1218SOL    HW1 4553   0.061   4.653   3.986
 1218SOL    HW2 4554   6.930   4.663   3.938
 1219SOL     OW 4555   1.645   5.627   2.747
 1219SOL    HW1 4556   1.561   5.670   2.778
 1219SOL    HW2 4557   1.722   5.690   2.759
 1220SOL     OW 4558   5.903   4.903   2.933
 1220SOL    HW1 4559   5.875   4.933   2.842
 1220SOL    HW2 4560   6.003   4.898   2.937
 1221SOL     OW 4561   4.426   5.320   0.856
 1221SOL    HW1 4562   4.480   5.398   0.887
 1221SOL    HW2 4563   4.330   5.347   0.846
 1222SOL     OW 4564   6.901   4.857   1.438
 1222SOL    HW1 4565   6.949   4.794   1.499
 1222SOL    HW2 4566   6.955   4.941   1.428
 1223SOL     OW 4567   1.275   4.139   5.161
 1223SOL    HW1 4568   1.358   4.138   5.217
 1223SOL    HW2 4569   1.241   4.232   5.152
 1224SOL     OW 4570   4.108   5.459   1.660
 1224SOL    HW1 4571   4.012   5.436   1.647
 1224SOL    HW2 4572   4.137   5.524   1.590
 1225SOL     OW 4573   5.231   1.860   6.451
 1225SOL    HW1 4574   5.293   1.866   6.373
 1225SOL    HW2 4575   5.284   1.859   6.536
 1226SOL     OW 4576   5.943   5.487   1.240
 1226SOL    HW1 4577   5.853   5.446   1.226
 1226SOL    HW2 4578   5.954   5.567   1.180
 1227SOL     OW 4579   6.453   4.553   0.476
 1227SOL    HW1 4580   6.365   4.575   0.516
 1227SOL    HW2 4581   6.499   4.637   0.447
 1228SOL     OW 4582   4.238   3.906   5.275
 1228SOL    HW1 4583   4.239   3.812   5.239
 1228SOL    HW2 4584   4.224   3.903   5.374
 1229SOL     OW 4585   2.051   5.204   1.723
 1229SOL    HW1 4586   2.025   5.197   1.819
 1229SOL    HW2 4587   2.095   5.293   1.706
 1230SOL     OW 4588   5.885   4.688   0.464
 1230SOL    HW1 4589   5.800   4.738   0.477
 1230SOL    HW2 4590   5.875   4.594   0.495
 1231SOL     OW 4591   2.021   0.754   1.122
 1231SOL    HW1 4592   2.036   0.846   1.160
 1231SOL    HW2 4593   2.101   0.697   1.142
 1232SOL     OW 4594   1.760   1.997   5.953
 1232SOL    HW1 4595   1.828   1.933   5.917
 1232SOL    HW2 4596   1.795   2.039   6.037
 1233SOL     OW 4597   0.243   5.693   5.494
 1233SOL    HW1 4598   0.155   5.710   5.449
 1233SOL    HW2 4599   0.236   5.716   5.591
 1234SOL     OW 4600   6.931   4.765   4.978
 1234SOL    HW1 4601   6.838   4.754   4.945
 1234SOL    HW2 4602   6.995   4.735   4.907
 1235SOL     OW 4603   6.673   4.989   0.195
 1235SOL    HW1 4604   6.582   5.027   0.209
 1235SOL    HW2 4605   6.740   5.063   0.194
 1236SOL     OW 4606   0.217   1.078   3.132
 1236SOL    HW1 4607   0.298   1.086   3.073
 1236SOL    HW2 4608   0.135   1.077   3.075
 1237SOL     OW 4609   0.792   0.744   5.528
 1237SOL    HW1 4610   0.846   0.817   5.572
 1237SOL    HW2 4611   0.836   0.718   5.442
 1238SOL     OW 4612   0.037   0.587   4.410
 1238SOL    HW1 4613   0.022   0.566   4.313
 1238SOL    HW2 4614   0.135   0.594   4.427
 1239SOL     OW 4615   4.431   5.394   3.261
 1239SOL    HW1 4616   4.477   5.341   3.190
 1239SOL    HW2 4617   4.347   5.433   3.224
 1240SOL     OW 4618   1.010   3.694   2.107
 1240SOL    HW1 4619   0.942   3.765   2.126
 1240SOL    HW2 4620   1.047   3.707   2.015
 1241SOL     OW 4621   2.827   5.531   6.097
 1241SOL    HW1 4622   2.753   5.469   6.125
 1241SOL    HW2 4623   2.797   5.583   6.017
 1242SOL     OW 4624   2.180   6.024   0.552
 1242SOL    HW1 4625   2.253   6.060   0.610
 1242SOL    HW2 4626   2.175   5.925   0.564
 1243SOL     OW 4627   1.148   4.138   4.221
 1243SOL    HW1 4628   1.058   4.123   4.178
 1243SOL    HW2 4629   1.138   4.205   4.295
 1244SOL     OW 4630   6.302   6.211   5.087
 1244SOL    HW1 4631   6.345   6.236   5.174
 1244SOL    HW2 4632   6.301   6.112   5.078
 1245SOL     OW 4633   3.677   6.531   1.496
 1245SOL    HW1 4634   3.588   6.532   1.450
 1245SOL    HW2 4635   3.672   6.474   1.578
 1246SOL     OW 4636   5.210   2.402   3.274
 1246SOL    HW1 4637   5.126   2.449   3.298
 1246SOL    HW2 4638   5.223   2.405   3.175
 1247SOL     OW 4639   4.577   6.166   2.604
 1247SOL    HW1 4640   4.571   6.068   2.619
 1247SOL    HW2 4641   4.667   6.189   2.566
 1248SOL     OW 4642   0.081   0.293   5.295
 1248SOL    HW1 4643   0.044   0.346   5.219
 1248SOL    HW2 4644   0.168   0.333   5.325
 1249SOL     OW 4645   6.664   6.839   0.336
 1249SOL    HW1 4646   6.737   6.776   0.360
 1249SOL    HW2 4647   6.593   6.838   0.406
 1250SOL     OW 4648   0.847   4.034   5.249
 1250SOL    HW1 4649   0.947   4.040   5.251
 1250SOL    HW2 4650   0.817   4.014   5.155
 1251SOL     OW 4651   1.548   0.338   3.682
 1251SOL    HW1 4652   1.595   0.363   3.767
 1251SOL    HW2 4653   1.520   0.420   3.633
 1252SOL     OW 4654   3.332   4.464   6.734
 1252SOL    HW1 4655   3.350   4.366   6.732
 1252SOL    HW2 4656   3.241   4.482   6.696
 1253SOL     OW 4657   2.858   5.189   0.525
 1253SOL    HW1 4658   2.882   5.126   0.599
 1253SOL    HW2 4659   2.868   5.283   0.557
 1254SOL     OW 4660   6.562   1.417   4.602
 1254SOL    HW1 4661   6.502   1.337   4.605
 1254SOL    HW2 4662   6.647   1.397   4.651
 1255SOL     OW 4663   5.862   2.236   6.607
 1255SOL    HW1 4664   5.926   2.223   6.683
 1255SOL    HW2 4665   5.799   2.311   6.630
 1256SOL     OW 4666   6.969   6.285   6.201
 1256SOL    HW1 4667   6.981   6.242   6.291
 1256SOL    HW2 4668   0.034   6.311   6.165
 1257SOL     OW 4669   6.969   6.452   2.374
 1257SOL    HW1 4670   0.021   6.425   2.316
 1257SOL    HW2 4671   6.949   6.549   2.360
 1258SOL     OW 4672   5.010   4.881   6.342
 1258SOL    HW1 4673   4.913   4.902   6.335
 1258SOL    HW2 4674   5.037   4.881   6.439
 1259SOL     OW 4675   6.258   6.816   4.410
 1259SOL    HW1 4676   6.295   6.802   4.318
 1259SOL    HW2 4677   6.298   6.898   4.450
 1260SOL     OW 4678   3.189   0.270   0.872
 1260SOL    HW1 4679   3.201   0.178   0.908
 1260SOL    HW2 4680   3.093   0.284   0.847
 1261SOL     OW 4681   1.079   3.434   5.060
 1261SOL    HW1 4682   1.112   3.464   5.150
 1261SOL    HW2 4683   1.150   3.452   4.992
 1262SOL     OW 4684   5.209   6.740   0.171
 1262SOL    HW1 4685   5.186   6.647   0.141
 1262SOL    HW2 4686   5.234   6.738   0.268
 1263SOL     OW 4687   6.878   0.791   1.460
 1263SOL    HW1 4688   6.897   0.788   1.362
 1263SOL    HW2 4689   6.780   0.780   1.475
 1264SOL     OW 4690   6.257   2.095   4.232
 1264SOL    HW1 4691   6.304   2.159   4.171
 1264SOL    HW2 4692   6.169   2.134   4.260
 1265SOL     OW 4693   6.466   6.354   3.367
 1265SOL    HW1 4694   6.447   6.258   3.347
 1265SOL    HW2 4695   6.386   6.409   3.343
 1266SOL     OW 4696   2.839   1.373   5.113
 1266SOL    HW1 4697   2.799   1.448   5.166
 1266SOL    HW2 4698   2.903   1.322   5.171
 1267SOL     OW 4699   0.039   4.471   2.016
 1267SOL    HW1 4700   6.996   4.422   2.071
 1267SOL    HW2 4701   0.094   4.530   2.075
 1268SOL     OW 4702   6.223   5.096   6.315
 1268SOL    HW1 4703   6.221   5.148   6.400
 1268SOL    HW2 4704   6.241   4.999   6.336
 1269SOL     OW 4705   1.079   3.518   5.630
 1269SOL    HW1 4706   1.159   3.535   5.687
 1269SOL    HW2 4707   0.997   3.554   5.675
 1270SOL     OW 4708   1.007   2.709   4.097
 1270SOL    HW1 4709   0.983   2.785   4.036
 1270SOL    HW2 4710   0.931   2.645   4.102
 1271SOL     OW 4711   5.319   4.394   2.817
 1271SOL    HW1 4712   5.371   4.352   2.891
 1271SOL    HW2 4713   5.234   4.343   2.803
 1272SOL     OW 4714   6.160   0.427   0.766
 1272SOL    HW1 4715   6.198   0.400   0.854
 1272SOL    HW2 4716   6.227   0.414   0.694
 1273SOL     OW 4717   2.963   6.284   4.429
 1273SOL    HW1 4718   2.957   6.266   4.527
 1273SOL    HW2 4719   2.920   6.209   4.379
 1274SOL     OW 4720   5.650   2.012   1.413
 1274SOL    HW1 4721   5.707   2.044   1.489
 1274SOL    HW2 4722   5.654   2.079   1.338
 1275SOL     OW 4723   3.775   0.864   3.331
 1275SOL    HW1 4724   3.787   0.830   3.425
 1275SOL    HW2 4725   3.677   0.876   3.313
 1276SOL     OW 4726   4.985   6.174   2.819
 1276SOL    HW1 4727   4.934   6.258   2.842
 1276SOL    HW2 4728   4.921   6.104   2.786
 1277SOL     OW 4729   0.654   1.770   5.314
 1277SOL    HW1 4730   0.585   1.783   5.385
 1277SOL    HW2 4731   0.743   1.800   5.347
 1278SOL     OW 4732   2.759   1.485   4.709
 1278SOL    HW1 4733   2.681   1.423   4.711
 1278SOL    HW2 4734   2.800   1.484   4.617
 1279SOL     OW 4735   1.712   4.534   0.720
 1279SOL    HW1 4736   1.744   4.522   0.626
 1279SOL    HW2 4737   1.780   4.587   0.772
 1280SOL     OW 4738   0.684   6.121   3.083
 1280SOL    HW1 4739   0.631   6.159   3.008
 1280SOL    HW2 4740   0.637   6.042   3.121
 1281SOL     OW 4741   1.415   6.179   4.185
 1281SOL    HW1 4742   1.376   6.151   4.272
 1281SOL    HW2 4743   1.399   6.108   4.116
 1282SOL     OW 4744   1.558   6.846   2.663
 1282SOL    HW1 4745   1.593   6.755   2.683
 1282SOL    HW2 4746   1.458   6.844   2.666
 1283SOL     OW 4747   5.774   4.459   5.449
 1283SOL    HW1 4748   5.803   4.462   5.353
 1283SOL    HW2 4749   5.759   4.552   5.482
 1284SOL     OW 4750   2.999   2.250   2.995
 1284SOL    HW1 4751   2.967   2.305   3.072
 1284SOL    HW2 4752   3.017   2.157   3.025
 1285SOL     OW 4753   6.128   2.292   5.777
 1285SOL    HW1 4754   6.179   2.367   5.736
 1285SOL    HW2 4755   6.191   2.223   5.811
 1286SOL     OW 4756   5.074   5.444   1.068
 1286SOL    HW1 4757   5.029   5.457   1.156
 1286SOL    HW2 4758   5.042   5.359   1.027
 1287SOL     OW 4759   5.964   3.641   6.026
 1287SOL    HW1 4760   5.953   3.735   5.992
 1287SOL    HW2 4761   6.022   3.590   5.963
 1288SOL     OW 4762   0.312   2.969   3.220
 1288SOL    HW1 4763   0.271   3.042   3.165
 1288SOL    HW2 4764   0.251   2.890   3.219
 1289SOL     OW 4765   0.547   5.106   3.286
 1289SOL    HW1 4766   0.499   5.178   3.336
 1289SOL    HW2 4767   0.643   5.131   3.277
 1290SOL     OW 4768   0.493   0.100   1.615
 1290SOL    HW1 4769   0.487   0.013   1.664
 1290SOL    HW2 4770   0.491   0.084   1.517
 1291SOL     OW 4771   1.519   5.635   1.537
 1291SOL    HW1 4772   1.499   5.629   1.635
 1291SOL    HW2 4773   1.615   5.612   1.521
 1292SOL     OW 4774   1.389   6.878   0.287
 1292SOL    HW1 4775   1.301   6.831   0.292
 1292SOL    HW2 4776   1.459   6.823   0.332
 1293SOL     OW 4777   6.490   1.148   6.362
 1293SOL    HW1 4778   6.509   1.160   6.264
 1293SOL    HW2 4779   6.403   1.099   6.373
 1294SOL     OW 4780   1.014   1.669   4.384
 1294SOL    HW1 4781   1.040   1.603   4.455
 1294SOL    HW2 4782   1.097   1.711   4.346
 1295SOL     OW 4783   5.135   4.068   0.478
 1295SOL    HW1 4784   5.118   4.017   0.562
 1295SOL    HW2 4785   5.086   4.155   0.481
 1296SOL     OW 4786   3.780   0.980   0.199
 1296SOL    HW1 4787   3.791   1.054   0.265
 1296SOL    HW2 4788   3.715   1.008   0.128
 1297SOL     OW 4789   5.434   0.799   5.849
 1297SOL    HW1 4790   5.347   0.758   5.823
 1297SOL    HW2 4791   5.506   0.729   5.849
 1298SOL     OW 4792   6.238   2.961   3.303
 1298SOL    HW1 4793   6.195   3.025   3.239
 1298SOL    HW2 4794   6.168   2.924   3.365
 1299SOL     OW 4795   1.811   4.520   4.213
 1299SOL    HW1 4796   1.771   4.611   4.208
 1299SOL    HW2 4797   1.895   4.523   4.267
 1300SOL     OW 4798   3.645   3.453   3.345
 1300SOL    HW1 4799   3.582   3.479   3.272
 1300SOL    HW2 4800   3.622   3.502   3.429
 1301SOL     OW 4801   0.631   0.702   1.716
 1301SOL    HW1 4802   0.602   0.709   1.620
 1301SOL    HW2 4803   0.669   0.790   1.745
 1302SOL     OW 4804   2.753   5.107   5.818
 1302SOL    HW1 4805   2.712   5.195   5.841
 1302SOL    HW2 4806   2.816   5.119   5.741
 1303SOL     OW 4807   2.646   0.114   1.931
 1303SOL    HW1 4808   2.631   0.211   1.951
 1303SOL    HW2 4809   2.729   0.083   1.977
 1304SOL     OW 4810   3.485   1.194   6.152
 1304SOL    HW1 4811   3.396   1.237   6.135
 1304SOL    HW2 4812   3.472   1.095   6.161
 1305SOL     OW 4813   5.864   6.502   4.269
 1305SOL    HW1 4814   5.770   6.536   4.265
 1305SOL    HW2 4815   5.917   6.543   4.194
 1306SOL     OW 4816   1.356   5.401   3.360
 1306SOL    HW1 4817   1.401   5.470   3.415
 1306SOL    HW2 4818   1.333   5.440   3.270
 1307SOL     OW 4819   0.908   0.690   5.305
 1307SOL    HW1 4820   0.906   0.763   5.237
 1307SOL    HW2 4821   0.891   0.602   5.260
 1308SOL     OW 4822   4.261   6.426   3.715
 1308SOL    HW1 4823   4.280   6.428   3.813
 1308SOL    HW2 4824   4.343   6.394   3.666
 1309SOL     OW 4825   6.487   2.887   4.345
 1309SOL    HW1 4826   6.579   2.872   4.307
 1309SOL    HW2 4827   6.419   2.873   4.273
 1310SOL     OW 4828   5.407   3.852   6.499
 1310SOL    HW1 4829   5.310   3.850   6.523
 1310SOL    HW2 4830   5.423   3.791   6.421
 1311SOL     OW 4831   5.642   4.798   0.304
 1311SOL    HW1 4832   5.597   4.740   0.237
 1311SOL    HW2 4833   5.589   4.882   0.318
 1312SOL     OW 4834   5.995   1.511   1.395
 1312SOL    HW1 4835   6.060   1.434   1.394
 1312SOL    HW2 4836   5.906   1.478   1.425
 1313SOL     OW 4837   4.419   5.237   4.627
 1313SOL    HW1 4838   4.375   5.217   4.540
 1313SOL    HW2 4839   4.395   5.166   4.694
 1314SOL     OW 4840   6.891   1.591   6.131
 1314SOL    HW1 4841   6.811   1.558   6.080
 1314SOL    HW2 4842   6.949   1.514   6.156
 1315SOL     OW 4843   1.164   7.000   3.961
 1315SOL    HW1 4844   1.212   7.012   4.048
 1315SOL    HW2 4845   1.096   6.928   3.970
 1316SOL     OW 4846   3.440   5.438   4.252
 1316SOL    HW1 4847   3.464   5.507   4.183
 1316SOL    HW2 4848   3.354   5.465   4.296
 1317SOL     OW 4849   0.260   3.229   3.041
 1317SOL    HW1 4850   0.297   3.202   2.952
 1317SOL    HW2 4851   0.163   3.251   3.031
 1318SOL     OW 4852   0.400   6.398   2.404
 1318SOL    HW1 4853   0.489   6.428   2.438
 1318SOL    HW2 4854   0.352   6.475   2.361
 1319SOL     OW 4855   0.329   6.967   0.735
 1319SOL    HW1 4856   0.279   6.994   0.817
 1319SOL    HW2 4857   0.265   6.955   0.659
 1320SOL     OW 4858   6.446   5.021   5.435
 1320SOL    HW1 4859   6.499   5.069   5.365
 1320SOL    HW2 4860   6.397   4.944   5.394
 1321SOL     OW 4861   3.673   0.935   1.120
 1321SOL    HW1 4862   3.726   1.007   1.165
 1321SOL    HW2 4863   3.590   0.916   1.172
 1322SOL     OW 4864   5.373   1.112   6.161
 1322SOL    HW1 4865   5.288   1.147   6.121
 1322SOL    HW2 4866   5.364   1.014   6.176
 1323SOL     OW 4867   6.704   0.386   4.595
 1323SOL    HW1 4868   6.670   0.461   4.653
 1323SOL    HW2 4869   6.796   0.359   4.626
 1324SOL     OW 4870   1.365   2.433   0.785
 1324SOL    HW1 4871   1.462   2.436   0.807
 1324SOL    HW2 4872   1.353   2.439   0.686
 1325SOL     OW 4873   5.134   5.105   3.319
 1325SOL    HW1 4874   5.170   5.158   3.242
 1325SOL    HW2 4875   5.087   5.166   3.383
 1326SOL     OW 4876   4.934   3.989   4.199
 1326SOL    HW1 4877   5.032   4.004   4.211
 1326SOL    HW2 4878   4.895   3.950   4.283
 1327SOL     OW 4879   3.355   5.940   3.925
 1327SOL    HW1 4880   3.334   5.915   4.020
 1327SOL    HW2 4881   3.354   6.040   3.916
 1328SOL     OW 4882   2.198   1.776   1.757
 1328SOL    HW1 4883   2.263   1.740   1.824
 1328SOL    HW2 4884   2.172   1.869   1.782
 1329SOL     OW 4885   1.127   5.684   1.529
 1329SOL    HW1 4886   1.224   5.689   1.554
 1329SOL    HW2 4887   1.120   5.667   1.431
 1330SOL     OW 4888   6.699   6.259   1.323
 1330SOL    HW1 4889   6.614   6.283   1.275
 1330SOL    HW2 4890   6.757   6.340   1.330
 1331SOL     OW 4891   0.906   2.141   1.659
 1331SOL    HW1 4892   0.835   2.127   1.590
 1331SOL    HW2 4893   0.865   2.137   1.750
 1332SOL     OW 4894   4.021   2.183   0.295
 1332SOL    HW1 4895   4.035   2.228   0.383
 1332SOL    HW2 4896   4.068   2.235   0.224
 1333SOL     OW 4897   3.998   3.695   5.721
 1333SOL    HW1 4898   4.027   3.775   5.774
 1333SOL    HW2 4899   4.078   3.642   5.695
 1334SOL     OW 4900   1.907   3.415   3.614
 1334SOL    HW1 4901   1.899   3.509   3.649
 1334SOL    HW2 4902   1.887   3.350   3.688
 1335SOL     OW 4903   1.891   5.996   3.954
 1335SOL    HW1 4904   1.879   5.930   3.880
 1335SOL    HW2 4905   1.964   5.963   4.015
 1336SOL     OW 4906   0.276   6.483   4.784
 1336SOL    HW1 4907   0.356   6.541   4.770
 1336SOL    HW2 4908   0.292   6.394   4.742
 1337SOL     OW 4909   2.862   0.137   6.877
 1337SOL    HW1 4910   2.898   0.083   6.953
 1337SOL    HW2 4911   2.933   0.147   6.807
 1338SOL     OW 4912   3.993   4.179   0.514
 1338SOL    HW1 4913   3.932   4.210   0.440
 1338SOL    HW2 4914   4.068   4.127   0.476
 1339SOL     OW 4915   0.150   4.416   6.730
 1339SOL    HW1 4916   0.206   4.363   6.794
 1339SOL    HW2 4917   0.151   4.512   6.757
 1340SOL     OW 4918   2.316   1.767   5.825
 1340SOL    HW1 4919   2.413   1.767   5.802
 1340SOL    HW2 4920   2.288   1.677   5.858
 1341SOL     OW 4921   4.995   1.729   3.787
 1341SOL    HW1 4922   4.962   1.658   3.726
 1341SOL    HW2 4923   4.925   1.800   3.797
 1342SOL     OW 4924   0.797   5.633   0.495
 1342SOL    HW1 4925   0.872   5.663   0.437
 1342SOL    HW2 4926   0.792   5.533   0.496
 1343SOL     OW 4927   3.088   5.962   3.402
 1343SOL    HW1 4928   3.118   5.933   3.311
 1343SOL    HW2 4929   2.989   5.977   3.401
 1344SOL     OW 4930   4.269   1.653   2.148
 1344SOL    HW1 4931   4.361   1.634   2.112
 1344SOL    HW2 4932   4.256   1.752   2.154
 1345SOL     OW 4933   6.463   5.546   1.896
 1345SOL    HW1 4934   6.424   5.634   1.866
 1345SOL    HW2 4935   6.396   5.473   1.880
 1346SOL     OW 4936   6.309   1.869   3.260
 1346SOL    HW1 4937   6.268   1.936   3.198
 1346SOL    HW2 4938   6.363   1.804   3.206
 1347SOL     OW 4939   4.308   1.284   3.521
 1347SOL    HW1 4940   4.291   1.298   3.618
 1347SOL    HW2 4941   4.243   1.217   3.485
 1348SOL     OW 4942   5.872   6.717   4.854
 1348SOL    HW1 4943   5.927   6.781   4.908
 1348SOL    HW2 4944   5.853   6.757   4.764
 1349SOL     OW 4945   5.073   1.331   6.737
 1349SOL    HW1 4946   5.096   1.275   6.657
 1349SOL    HW2 4947   5.139   1.406   6.746
 1350SOL     OW 4948   4.140   1.723   4.918
 1350SOL    HW1 4949   4.175   1.631   4.904
 1350SOL    HW2 4950   4.040   1.722   4.911
 1351SOL     OW 4951   1.241   1.787   4.601
 1351SOL    HW1 4952   1.219   1.883   4.619
 1351SOL    HW2 4953   1.277   1.778   4.508
 1352SOL     OW 4954   1.479   6.620   4.632
 1352SOL    HW1 4955   1.485   6.691   4.562
 1352SOL    HW2 4956   1.528   6.539   4.601
 1353SOL     OW 4957   2.733   3.324   5.638
 1353SOL    HW1 4958   2.800   3.326   5.711
 1353SOL    HW2 4959   2.641   3.319   5.677
 1354SOL     OW 4960   0.606   6.430   6.644
 1354SOL    HW1 4961   0.650   6.372   6.713
 1354SOL    HW2 4962   0.538   6.377   6.594
 1355SOL     OW 4963   4.201   4.031   0.431
 1355SOL    HW1 4964   4.236   4.124   0.415
 1355SOL    HW2 4965   4.278   3.967   0.432
 1356SOL     OW 4966   3.750   2.989   2.842
 1356SOL    HW1 4967   3.652   2.985   2.823
 1356SOL    HW2 4968   3.802   2.962   2.761
 1357SOL     OW 4969   4.121   2.533   6.247
 1357SOL    HW1 4970   4.209   2.527   6.293
 1357SOL    HW2 4971   4.048   2.503   6.309
 1358SOL     OW 4972   2.346   2.777   4.588
 1358SOL    HW1 4973   2.391   2.697   4.627
 1358SOL    HW2 4974   2.378   2.791   4.494
 1359SOL     OW 4975   1.059   1.598   6.426
 1359SOL    HW1 4976   0.971   1.575   6.465
 1359SOL    HW2 4977   1.052   1.599   6.326
 1360SOL     OW 4978   3.070   3.886   5.121
 1360SOL    HW1 4979   3.108   3.951   5.055
 1360SOL    HW2 4980   3.013   3.820   5.073
 1361SOL     OW 4981   1.628   6.400   1.370
 1361SOL    HW1 4982   1.559   6.423   1.437
 1361SOL    HW2 4983   1.612   6.451   1.285
 1362SOL     OW 4984   3.923   1.152   6.320
 1362SOL    HW1 4985   3.846   1.113   6.369
 1362SOL    HW2 4986   3.951   1.089   6.247
 1363SOL     OW 4987   6.471   5.698   1.264
 1363SOL    HW1 4988   6.539   5.642   1.217
 1363SOL    HW2 4989   6.482   5.794   1.235
 1364SOL     OW 4990   1.553   3.112   1.053
 1364SOL    HW1 4991   1.552   3.041   0.983
 1364SOL    HW2 4992   1.495   3.085   1.129
 1365SOL     OW 4993   1.644   3.283   6.454
 1365SOL    HW1 4994   1.736   3.264   6.488
 1365SOL    HW2 4995   1.599   3.197   6.429
 1366SOL     OW 4996   4.113   1.135   1.946
 1366SOL    HW1 4997   4.203   1.092   1.952
 1366SOL    HW2 4998   4.045   1.067   1.917
 1367SOL     OW 4999   2.284   0.496   3.820
 1367SOL    HW1 5000   2.298   0.403   3.856
 1367SOL    HW2 5001   2.191   0.504   3.784
 1368SOL     OW 5002   1.901   5.751   4.989
 1368SOL    HW1 5003   1.936   5.822   4.928
 1368SOL    HW2 5004   1.807   5.728   4.964
 1369SOL     OW 5005   2.399   5.586   3.271
 1369SOL    HW1 5006   2.497   5.587   3.250
 1369SOL    HW2 5007   2.370   5.678   3.297
 1370SOL     OW 5008   6.468   3.060   2.923
 1370SOL    HW1 5009   6.384   3.113   2.915
 1370SOL    HW2 5010   6.448   2.974   2.972
 1371SOL     OW 5011   6.351   1.949   6.415
 1371SOL    HW1 5012   6.348   2.046   6.391
 1371SOL    HW2 5013   6.269   1.926   6.467
 1372SOL     OW 5014   5.038   2.145   1.925
 1372SOL    HW1 5015   4.959   2.131   1.985
 1372SOL    HW2 5016   5.057   2.243   1.920
 1373SOL     OW 5017   3.622   2.762   0.866
 1373SOL    HW1 5018   3.572   2.842   0.833
 1373SOL    HW2 5019   3.715   2.789   0.890
 1374SOL     OW 5020   3.363   3.433   4.001
 1374SOL    HW1 5021   3.310   3.516   3.983
 1374SOL    HW2 5022   3.414   3.444   4.086
 1375SOL     OW 5023   6.215   3.926   5.516
 1375SOL    HW1 5024   6.302   3.881   5.500
 1375SOL    HW2 5025   6.227   4.000   5.582
 1376SOL     OW 5026   2.690   4.732   6.397
 1376SOL    HW1 5027   2.677   4.748   6.299
 1376SOL    HW2 5028   2.638   4.800   6.449
 1377SOL     OW 5029   1.125   2.100   3.531
 1377SOL    HW1 5030   1.089   2.154   3.455
 1377SOL    HW2 5031   1.052   2.083   3.597
 1378SOL     OW 5032   5.592   2.607   3.274
 1378SOL    HW1 5033   5.625   2.682   3.217
 1378SOL    HW2 5034   5.592   2.523   3.221
 1379SOL     OW 5035   5.767   5.538   6.522
 1379SOL    HW1 5036   5.838   5.494   6.467
 1379SOL    HW2 5037   5.709   5.594   6.463
 1380SOL     OW 5038   6.656   6.822   3.880
 1380SOL    HW1 5039   6.682   6.750   3.816
 1380SOL    HW2 5040   6.622   6.901   3.829
 1381SOL     OW 5041   0.243   3.093   6.154
 1381SOL    HW1 5042   0.318   3.096   6.219
 1381SOL    HW2 5043   0.276   3.123   6.064
 1382SOL     OW 5044   4.373   1.757   5.257
 1382SOL    HW1 5045   4.302   1.687   5.260
 1382SOL    HW2 5046   4.337   1.840   5.214
 1383SOL     OW 5047   5.411   6.987   0.542
 1383SOL    HW1 5048   5.479   0.023   0.583
 1383SOL    HW2 5049   5.327   0.015   0.526
 1384SOL     OW 5050   5.625   2.067   2.247
 1384SOL    HW1 5051   5.673   2.013   2.317
 1384SOL    HW2 5052   5.632   2.164   2.270
 1385SOL     OW 5053   6.682   6.791   2.310
 1385SOL    HW1 5054   6.662   6.709   2.256
 1385SOL    HW2 5055   6.769   6.779   2.358
 1386SOL     OW 5056   2.014   0.704   3.958
 1386SOL    HW1 5057   2.055   0.635   4.018
 1386SOL    HW2 5058   2.019   0.673   3.863
 1387SOL     OW 5059   1.406   5.386   1.617
 1387SOL    HW1 5060   1.465   5.455   1.659
 1387SOL    HW2 5061   1.462   5.310   1.584
 1388SOL     OW 5062   6.380   0.585   1.536
 1388SOL    HW1 5063   6.405   0.505   1.480
 1388SOL    HW2 5064   6.382   0.667   1.478
 1389SOL     OW 5065   6.709   0.146   0.696
 1389SOL    HW1 5066   6.713   0.097   0.609
 1389SOL    HW2 5067   6.801   0.160   0.731
 1390SOL     OW 5068   1.412   1.476   4.529
 1390SOL    HW1 5069   1.328   1.524   4.554
 1390SOL    HW2 5070   1.418   1.468   4.429
 1391SOL     OW 5071   1.176   3.661   3.508
 1391SOL    HW1 5072   1.082   3.633   3.528
 1391SOL    HW2 5073   1.239   3.593   3.544
 1392SOL     OW 5074   5.205   5.723   3.873
 1392SOL    HW1 5075   5.141   5.796   3.897
 1392SOL    HW2 5076   5.224   5.727   3.775
 1393SOL     OW 5077   3.791   4.637   6.607
 1393SOL    HW1 5078   3.737   4.645   6.523
 1393SOL    HW2 5079   3.765   4.710   6.670
 1394SOL     OW 5080   1.067   6.814   6.562
 1394SOL    HW1 5081   0.974   6.842   6.582
 1394SOL    HW2 5082   1.091   6.734   6.618
 1395SOL     OW 5083   4.043   4.795   6.180
 1395SOL    HW1 5084   3.970   4.864   6.184
 1395SOL    HW2 5085   4.003   4.704   6.174
 1396SOL     OW 5086   4.685   5.545   2.664
 1396SOL    HW1 5087   4.616   5.569   2.596
 1396SOL    HW2 5088   4.643   5.488   2.735
 1397SOL     OW 5089   6.034   6.415   4.460
 1397SOL    HW1 5090   6.006   6.431   4.554
 1397SOL    HW2 5091   5.962   6.446   4.398
 1398SOL     OW 5092   1.980   0.309   5.444
 1398SOL    HW1 5093   1.984   0.370   5.523
 1398SOL    HW2 5094   1.952   0.361   5.363
 1399SOL     OW 5095   2.797   5.456   2.313
 1399SOL    HW1 5096   2.785   5.403   2.229
 1399SOL    HW2 5097   2.892   5.449   2.343
 1400SOL     OW 5098   1.502   0.940   3.541
 1400SOL    HW1 5099   1.471   1.009   3.607
 1400SOL    HW2 5100   1.518   0.983   3.453
 1401SOL     OW 5101   6.623   2.447   4.303
 1401SOL    HW1 5102   6.589   2.381   4.370
 1401SOL    HW2 5103   6.553   2.516   4.285
 1402SOL     OW 5104   5.564   2.062   6.833
 1402SOL    HW1 5105   5.630   2.115   6.886
 1402SOL    HW2 5106   5.477   2.059   6.882
 1403SOL     OW 5107   3.782   0.689   2.228
 1403SOL    HW1 5108   3.849   0.673   2.156
 1403SOL    HW2 5109   3.700   0.732   2.189
 1404SOL     OW 5110   4.569   1.019   6.255
 1404SOL    HW1 5111   4.603   1.103   6.297
 1404SOL    HW2 5112   4.637   0.946   6.264
 1405SOL     OW 5113   3.284   2.682   0.884
 1405SOL    HW1 5114   3.372   2.680   0.837
 1405SOL    HW2 5115   3.248   2.589   0.892
 1406SOL     OW 5116   0.413   3.441   1.469
 1406SOL    HW1 5117   0.452   3.472   1.382
 1406SOL    HW2 5118   0.326   3.488   1.485
 1407SOL     OW 5119   6.639   2.590   2.410
 1407SOL    HW1 5120   6.634   2.522   2.483
 1407SOL    HW2 5121   6.614   2.548   2.323
 1408SOL     OW 5122   6.823   4.477   0.001
 1408SOL    HW1 5123   6.917   4.495   0.030
 1408SOL    HW2 5124   6.819   4.473   6.926
 1409SOL     OW 5125   6.715   1.284   3.807
 1409SOL    HW1 5126   6.787   1.302   3.874
 1409SOL    HW2 5127   6.635   1.342   3.826
 1410SOL     OW 5128   0.459   1.689   6.347
 1410SOL    HW1 5129   0.539   1.651   6.301
 1410SOL    HW2 5130   0.413   1.754   6.286
 1411SOL     OW 5131   1.680   1.342   0.746
 1411SOL    HW1 5132   1.615   1.417   0.733
 1411SOL    HW2 5133   1.676   1.310   0.840
 1412SOL     OW 5134   1.748   1.833   0.435
 1412SOL    HW1 5135   1.809   1.823   0.356
 1412SOL    HW2 5136   1.658   1.797   0.413
 1413SOL     OW 5137   3.131   6.701   3.602
 1413SOL    HW1 5138   3.183   6.718   3.518
 1413SOL    HW2 5139   3.095   6.608   3.601
 1414SOL     OW 5140   1.350   0.462   2.748
 1414SOL    HW1 5141   1.290   0.527   2.794
 1414SOL    HW2 5142   1.372   0.497   2.656
 1415SOL     OW 5143   5.659   6.494   4.499
 1415SOL    HW1 5144   5.632   6.503   4.594
 1415SOL    HW2 5145   5.650   6.399   4.470
 1416SOL     OW 5146   4.904   5.918   3.739
 1416SOL    HW1 5147   4.953   5.956   3.660
 1416SOL    HW2 5148   4.852   5.838   3.709
 1417SOL     OW 5149   3.336   3.673   5.638
 1417SOL    HW1 5150   3.272   3.741   5.675
 1417SOL    HW2 5151   3.309   3.650   5.544
 1418SOL     OW 5152   3.313   4.195   4.330
 1418SOL    HW1 5153   3.274   4.285   4.310
 1418SOL    HW2 5154   3.390   4.178   4.268
 1419SOL     OW 5155   3.554   6.152   4.131
 1419SOL    HW1 5156   3.565   6.187   4.224
 1419SOL    HW2 5157   3.588   6.219   4.066
 1420SOL     OW 5158   0.159   6.814   2.702
 1420SOL    HW1 5159   0.133   6.866   2.784
 1420SOL    HW2 5160   0.088   6.746   2.682
 1421SOL     OW 5161   3.662   0.694   3.081
 1421SOL    HW1 5162   3.618   0.606   3.099
 1421SOL    HW2 5163   3.593   0.767   3.083
 1422SOL     OW 5164   2.627   5.540   0.242
 1422SOL    HW1 5165   2.607   5.454   0.289
 1422SOL    HW2 5166   2.554   5.606   0.259
 1423SOL     OW 5167   4.574   0.246   2.811
 1423SOL    HW1 5168   4.580   0.345   2.829
 1423SOL    HW2 5169   4.492   0.227   2.758
 1424SOL     OW 5170   6.534   5.164   2.136
 1424SOL    HW1 5171   6.473   5.192   2.062
 1424SOL    HW2 5172   6.628   5.181   2.109
 1425SOL     OW 5173   1.996   0.017   4.136
 1425SOL    HW1 5174   2.084   0.039   4.178
 1425SOL    HW2 5175   1.930   7.015   4.208
 1426SOL     OW 5176   1.665   0.811   6.114
 1426SOL    HW1 5177   1.747   0.772   6.071
 1426SOL    HW2 5178   1.585   0.786   6.061
 1427SOL     OW 5179   4.610   2.480   6.184
 1427SOL    HW1 5180   4.662   2.486   6.099
 1427SOL    HW2 5181   4.559   2.393   6.186
 1428SOL     OW 5182   5.977   0.312   1.094
 1428SOL    HW1 5183   6.048   0.319   1.165
 1428SOL    HW2 5184   5.962   0.402   1.054
 1429SOL     OW 5185   5.442   5.465   1.573
 1429SOL    HW1 5186   5.456   5.490   1.669
 1429SOL    HW2 5187   5.483   5.376   1.555
 1430SOL     OW 5188   3.001   4.983   2.545
 1430SOL    HW1 5189   3.070   4.941   2.604
 1430SOL    HW2 5190   3.045   5.044   2.479
 1431SOL     OW 5191   2.003   1.343   0.580
 1431SOL    HW1 5192   1.927   1.282   0.556
 1431SOL    HW2 5193   2.088   1.290   0.584
 1432SOL     OW 5194   3.099   6.845   1.598
 1432SOL    HW1 5195   3.065   6.770   1.654
 1432SOL    HW2 5196   3.198   6.855   1.612
 1433SOL     OW 5197   5.172   6.774   3.315
 1433SOL    HW1 5198   5.099   6.814   3.259
 1433SOL    HW2 5199   5.220   6.705   3.261
 1434SOL     OW 5200   0.452   0.759   4.925
 1434SOL    HW1 5201   0.402   0.724   5.003
 1434SOL    HW2 5202   0.455   0.859   4.929
 1435SOL     OW 5203   0.068   2.432   3.925
 1435SOL    HW1 5204   0.055   2.380   4.009
 1435SOL    HW2 5205   0.037   2.378   3.847
 1436SOL     OW 5206   5.281   3.513   1.538
 1436SOL    HW1 5207   5.186   3.502   1.565
 1436SOL    HW2 5208   5.318   3.426   1.505
 1437SOL     OW 5209   4.530   0.686   2.463
 1437SOL    HW1 5210   4.472   0.615   2.503
 1437SOL    HW2 5211   4.474   0.763   2.433
 1438SOL     OW 5212   2.938   6.476   2.187
 1438SOL    HW1 5213   3.001   6.437   2.254
 1438SOL    HW2 5214   2.979   6.559   2.148
 1439SOL     OW 5215   0.514   5.596   2.350
 1439SOL    HW1 5216   0.516   5.586   2.250
 1439SOL    HW2 5217   0.535   5.507   2.392
 1440SOL     OW 5218   2.551   2.802   1.053
 1440SOL    HW1 5219   2.487   2.747   1.000
 1440SOL    HW2 5220   2.645   2.772   1.034
 1441SOL     OW 5221   4.791   6.400   6.470
 1441SOL    HW1 5222   4.719   6.458   6.509
 1441SOL    HW2 5223   4.836   6.350   6.544
 1442SOL     OW 5224   4.520   5.629   1.756
 1442SOL    HW1 5225   4.596   5.632   1.691
 1442SOL    HW2 5226   4.483   5.536   1.760
 1443SOL     OW 5227   6.971   2.679   2.245
 1443SOL    HW1 5228   6.945   2.625   2.325
 1443SOL    HW2 5229   6.888   2.712   2.200
 1444SOL     OW 5230   0.563   6.489   4.824
 1444SOL    HW1 5231   0.535   6.481   4.920
 1444SOL    HW2 5232   0.663   6.488   4.818
 1445SOL     OW 5233   0.812   2.221   1.378
 1445SOL    HW1 5234   0.880   2.293   1.391
 1445SOL    HW2 5235   0.776   2.226   1.285
 1446SOL     OW 5236   6.118   5.733   1.952
 1446SOL    HW1 5237   6.147   5.820   1.914
 1446SOL    HW2 5238   6.018   5.730   1.959
 1447SOL     OW 5239   0.038   6.680   3.904
 1447SOL    HW1 5240   0.135   6.688   3.882
 1447SOL    HW2 5241   0.018   6.588   3.938
 1448SOL     OW 5242   1.791   1.001   5.337
 1448SOL    HW1 5243   1.695   1.024   5.318
 1448SOL    HW2 5244   1.831   1.073   5.395
 1449SOL     OW 5245   2.222   2.859   2.588
 1449SOL    HW1 5246   2.274   2.795   2.530
 1449SOL    HW2 5247   2.181   2.809   2.664
 1450SOL     OW 5248   2.966   2.204   2.495
 1450SOL    HW1 5249   3.051   2.190   2.443
 1450SOL    HW2 5250   2.892   2.229   2.433
 1451SOL     OW 5251   4.094   1.912   2.581
 1451SOL    HW1 5252   4.074   1.884   2.675
 1451SOL    HW2 5253   4.181   1.871   2.552
 1452SOL     OW 5254   4.078   2.933   5.398
 1452SOL    HW1 5255   4.166   2.892   5.374
 1452SOL    HW2 5256   4.060   2.918   5.495
 1453SOL     OW 5257   1.941   3.079   4.956
 1453SOL    HW1 5258   2.019   3.082   5.019
 1453SOL    HW2 5259   1.873   3.014   4.990
 1454SOL     OW 5260   3.233   2.108   2.388
 1454SOL    HW1 5261   3.300   2.127   2.315
 1454SOL    HW2 5262   3.280   2.065   2.465
 1455SOL     OW 5263   6.790   5.804   3.075
 1455SOL    HW1 5264   6.888   5.802   3.094
 1455SOL    HW2 5265   6.764   5.720   3.027
 1456SOL     OW 5266   6.205   5.895   4.083
 1456SOL    HW1 5267   6.234   5.875   3.989
 1456SOL    HW2 5268   6.219   5.992   4.102
 1457SOL     OW 5269   1.669   5.971   5.533
 1457SOL    HW1 5270   1.655   5.877   5.562
 1457SOL    HW2 5271   1.656   5.978   5.434
 1458SOL     OW 5272   7.017   5.277   4.862
 1458SOL    HW1 5273   0.006   5.178   4.860
 1458SOL    HW2 5274   0.025   5.314   4.949
 1459SOL     OW 5275   0.311   5.944   5.494
 1459SOL    HW1 5276   0.248   5.992   5.555
 1459SOL    HW2 5277   0.293   5.846   5.499
 1460SOL     OW 5278   1.640   6.697   5.274
 1460SOL    HW1 5279   1.661   6.610   5.318
 1460SOL    HW2 5280   1.585   6.754   5.335
 1461SOL     OW 5281   5.580   3.771   3.070
 1461SOL    HW1 5282   5.586   3.738   2.976
 1461SOL    HW2 5283   5.543   3.699   3.128
 1462SOL     OW 5284   1.085   1.526   2.345
 1462SOL    HW1 5285   1.063   1.534   2.248
 1462SOL    HW2 5286   1.001   1.528   2.399
 1463SOL     OW 5287   1.788   4.656   7.005
 1463SOL    HW1 5288   1.728   4.604   6.945
 1463SOL    HW2 5289   1.761   4.640   0.076
 1464SOL     OW 5290   0.793   4.046   5.517
 1464SOL    HW1 5291   0.828   4.025   5.426
 1464SOL    HW2 5292   0.868   4.040   5.584
 1465SOL     OW 5293   1.916   3.540   5.741
 1465SOL    HW1 5294   1.825   3.499   5.748
 1465SOL    HW2 5295   1.957   3.515   5.654
 1466SOL     OW 5296   5.487   1.222   2.535
 1466SOL    HW1 5297   5.432   1.204   2.454
 1466SOL    HW2 5298   5.583   1.229   2.509
 1467SOL     OW 5299   0.690   0.384   3.906
 1467SOL    HW1 5300   0.598   0.386   3.945
 1467SOL    HW2 5301   0.703   0.465   3.848
 1468SOL     OW 5302   3.702   6.716   3.950
 1468SOL    HW1 5303   3.635   6.733   3.878
 1468SOL    HW2 5304   3.793   6.707   3.909
 1469SOL     OW 5305   5.366   4.672   3.367
 1469SOL    HW1 5306   5.352   4.767   3.394
 1469SOL    HW2 5307   5.285   4.618   3.389
 1470SOL     OW 5308   5.820   1.399   1.687
 1470SOL    HW1 5309   5.910   1.364   1.710
 1470SOL    HW2 5310   5.789   1.464   1.757
 1471SOL     OW 5311   4.901   6.248   0.408
 1471SOL    HW1 5312   4.974   6.290   0.462
 1471SOL    HW2 5313   4.920   6.150   0.397
 1472SOL     OW 5314   1.932   0.036   0.158
 1472SOL    HW1 5315   1.885   0.084   0.232
 1472SOL    HW2 5316   1.865   7.022   0.094
 1473SOL     OW 5317   1.322   5.974   3.629
 1473SOL    HW1 5318   1.245   5.954   3.689
 1473SOL    HW2 5319   1.403   5.993   3.684
 1474SOL     OW 5320   1.626   4.319   1.943
 1474SOL    HW1 5321   1.662   4.400   1.895
 1474SOL    HW2 5322   1.701   4.256   1.961
 1475SOL     OW 5323   6.691   6.907   6.450
 1475SOL    HW1 5324   6.611   6.853   6.477
 1475SOL    HW2 5325   6.740   6.861   6.377
 1476SOL     OW 5326   6.159   7.009   6.741
 1476SOL    HW1 5327   6.106   0.010   6.660
 1476SOL    HW2 5328   6.107   6.943   6.795
 1477SOL     OW 5329   3.696   4.186   1.758
 1477SOL    HW1 5330   3.796   4.194   1.754
 1477SOL    HW2 5331   3.655   4.274   1.735
 1478SOL     OW 5332   4.263   3.637   6.300
 1478SOL    HW1 5333   4.284   3.592   6.213
 1478SOL    HW2 5334   4.337   3.622   6.364
 1479SOL     OW 5335   4.105   4.591   1.217
 1479SOL    HW1 5336   4.150   4.627   1.299
 1479SOL    HW2 5337   4.138   4.640   1.137
 1480SOL     OW 5338   2.705   1.414   3.691
 1480SOL    HW1 5339   2.780   1.465   3.733
 1480SOL    HW2 5340   2.713   1.419   3.591
 1481SOL     OW 5341   4.095   1.626   5.537
 1481SOL    HW1 5342   4.002   1.602   5.566
 1481SOL    HW2 5343   4.118   1.717   5.571
 1482SOL     OW 5344   6.598   1.118   1.038
 1482SOL    HW1 5345   6.508   1.086   1.067
 1482SOL    HW2 5346   6.618   1.082   0.947
 1483SOL     OW 5347   5.925   6.402   0.054
 1483SOL    HW1 5348   5.886   6.380   0.144
 1483SOL    HW2 5349   5.932   6.502   0.046
 1484SOL     OW 5350   3.087   6.788   5.810
 1484SOL    HW1 5351   3.146   6.825   5.882
 1484SOL    HW2 5352   3.019   6.727   5.852
 1485SOL     OW 5353   5.365   3.829   3.360
 1485SOL    HW1 5354   5.283   3.796   3.314
 1485SOL    HW2 5355   5.444   3.777   3.327
 1486SOL     OW 5356   6.320   6.212   4.636
 1486SOL    HW1 5357   6.246   6.145   4.635
 1486SOL    HW2 5358   6.310   6.273   4.557
 1487SOL     OW 5359   5.956   0.079   6.305
 1487SOL    HW1 5360   6.030   0.031   6.259
 1487SOL    HW2 5361   5.942   0.039   6.396
 1488SOL     OW 5362   6.893   2.880   2.829
 1488SOL    HW1 5363   6.963   2.951   2.829
 1488SOL    HW2 5364   6.811   2.914   2.785
 1489SOL     OW 5365   3.250   5.759   0.088
 1489SOL    HW1 5366   3.151   5.753   0.102
 1489SOL    HW2 5367   3.290   5.817   0.159
 1490SOL     OW 5368   5.881   2.634   2.073
 1490SOL    HW1 5369   5.970   2.590   2.071
 1490SOL    HW2 5370   5.866   2.684   1.988
 1491SOL     OW 5371   5.654   3.921   4.776
 1491SOL    HW1 5372   5.638   3.996   4.711
 1491SOL    HW2 5373   5.665   3.836   4.726
 1492SOL     OW 5374   1.631   2.803   2.168
 1492SOL    HW1 5375   1.612   2.884   2.223
 1492SOL    HW2 5376   1.582   2.808   2.082
 1493SOL     OW 5377   6.228   2.018   6.758
 1493SOL    HW1 5378   6.323   2.003   6.786
 1493SOL    HW2 5379   6.202   1.948   6.692
 1494SOL     OW 5380   1.696   3.116   6.793
 1494SOL    HW1 5381   1.767   3.120   6.722
 1494SOL    HW2 5382   1.682   3.207   6.831
 1495SOL     OW 5383   6.163   3.933   3.989
 1495SOL    HW1 5384   6.123   3.990   3.917
 1495SOL    HW2 5385   6.228   3.988   4.042
 1496SOL     OW 5386   6.848   5.545   6.201
 1496SOL    HW1 5387   6.814   5.458   6.164
 1496SOL    HW2 5388   6.771   5.605   6.221
 1497SOL     OW 5389   4.633   2.677   2.988
 1497SOL    HW1 5390   4.569   2.609   3.024
 1497SOL    HW2 5391   4.620   2.686   2.889
 1498SOL     OW 5392   3.582   4.277   0.677
 1498SOL    HW1 5393   3.549   4.250   0.767
 1498SOL    HW2 5394   3.527   4.233   0.606
 1499SOL     OW 5395   1.754   4.779   4.280
 1499SOL    HW1 5396   1.758   4.818   4.372
 1499SOL    HW2 5397   1.669   4.805   4.236
 1500SOL     OW 5398   2.569   5.764   1.446
 1500SOL    HW1 5399   2.566   5.792   1.542
 1500SOL    HW2 5400   2.650   5.803   1.402
 1501SOL     OW 5401   5.566   1.534   1.259
 1501SOL    HW1 5402   5.650   1.585   1.276
 1501SOL    HW2 5403   5.556   1.520   1.160
 1502SOL     OW 5404   0.935   6.652   5.916
 1502SOL    HW1 5405   0.910   6.679   6.009
 1502SOL    HW2 5406   0.949   6.733   5.860
 1503SOL     OW 5407   6.460   6.060   2.222
 1503SOL    HW1 5408   6.432   5.966   2.243
 1503SOL    HW2 5409   6.441   6.118   2.301
 1504SOL     OW 5410   1.437   0.652   3.585
 1504SOL    HW1 5411   1.442   0.752   3.595
 1504SOL    HW2 5412   1.514   0.620   3.529
 1505SOL     OW 5413   6.767   4.460   4.672
 1505SOL    HW1 5414   6.759   4.369   4.711
 1505SOL    HW2 5415   6.741   4.458   4.575
 1506SOL     OW 5416   0.659   1.027   0.502
 1506SOL    HW1 5417   0.692   0.943   0.545
 1506SOL    HW2 5418   0.563   1.017   0.478
 1507SOL     OW 5419   2.700   2.082   4.060
 1507SOL    HW1 5420   2.603   2.094   4.038
 1507SOL    HW2 5421   2.755   2.148   4.009
 1508SOL     OW 5422   1.557   0.509   1.439
 1508SOL    HW1 5423   1.608   0.533   1.357
 1508SOL    HW2 5424   1.459   0.505   1.417
 1509SOL     OW 5425   4.173   0.680   4.693
 1509SOL    HW1 5426   4.118   0.634   4.762
 1509SOL    HW2 5427   4.264   0.699   4.729
 1510SOL     OW 5428   2.911   6.810   5.336
 1510SOL    HW1 5429   2.934   6.798   5.433
 1510SOL    HW2 5430   2.821   6.852   5.328
 1511SOL     OW 5431   3.741   4.113   5.111
 1511SOL    HW1 5432   3.752   4.088   5.208
 1511SOL    HW2 5433   3.806   4.061   5.056
 1512SOL     OW 5434   5.514   6.606   0.904
 1512SOL    HW1 5435   5.550   6.646   0.988
 1512SOL    HW2 5436   5.506   6.677   0.834
 1513SOL     OW 5437   2.687   6.520   5.441
 1513SOL    HW1 5438   2.771   6.520   5.386
 1513SOL    HW2 5439   2.677   6.608   5.487
 1514SOL     OW 5440   3.066   0.918   0.514
 1514SOL    HW1 5441   3.040   0.927   0.610
 1514SOL    HW2 5442   2.998   0.864   0.466
 1515SOL     OW 5443   3.527   0.715   1.424
 1515SOL    HW1 5444   3.600   0.653   1.454
 1515SOL    HW2 5445   3.530   0.724   1.324
 1516SOL     OW 5446   0.516   6.628   6.824
 1516SOL    HW1 5447   0.423   6.601   6.847
 1516SOL    HW2 5448   0.555   6.562   6.759
 1517SOL     OW 5449   1.658   5.849   3.069
 1517SOL    HW1 5450   1.607   5.935   3.069
 1517SOL    HW2 5451   1.752   5.866   3.040
 1518SOL     OW 5452   2.742   2.433   6.777
 1518SOL    HW1 5453   2.647   2.458   6.798
 1518SOL    HW2 5454   2.751   2.333   6.778
 1519SOL     OW 5455   0.773   4.343   7.022
 1519SOL    HW1 5456   0.722   4.403   0.058
 1519SOL    HW2 5457   0.853   4.391   6.986
 1520SOL     OW 5458   0.071   0.247   3.085
 1520SOL    HW1 5459   0.077   0.320   3.154
 1520SOL    HW2 5460   7.012   0.193   3.101
 1521SOL     OW 5461   2.235   5.176   6.986
 1521SOL    HW1 5462   2.278   5.175   0.052
 1521SOL    HW2 5463   2.306   5.169   6.915
 1522SOL     OW 5464   6.252   6.156   4.123
 1522SOL    HW1 5465   6.166   6.183   4.167
 1522SOL    HW2 5466   6.315   6.234   4.123
 1523SOL     OW 5467   2.878   6.376   0.570
 1523SOL    HW1 5468   2.931   6.352   0.651
 1523SOL    HW2 5469   2.928   6.346   0.488
 1524SOL     OW 5470   1.759   1.773   4.747
 1524SOL    HW1 5471   1.824   1.713   4.794
 1524SOL    HW2 5472   1.707   1.719   4.680
 1525SOL     OW 5473   6.149   4.360   0.382
 1525SOL    HW1 5474   6.152   4.366   0.282
 1525SOL    HW2 5475   6.200   4.279   0.412
 1526SOL     OW 5476   0.226   1.120   2.191
 1526SOL    HW1 5477   0.241   1.099   2.288
 1526SOL    HW2 5478   0.253   1.215   2.174
 1527SOL     OW 5479   5.086   0.919   5.198
 1527SOL    HW1 5480   5.093   0.823   5.171
 1527SOL    HW2 5481   5.108   0.977   5.120
 1528SOL     OW 5482   3.013   3.218   2.399
 1528SOL    HW1 5483   3.011   3.129   2.354
 1528SOL    HW2 5484   2.946   3.279   2.356
 1529SOL     OW 5485   4.664   0.744   5.640
 1529SOL    HW1 5486   4.616   0.689   5.709
 1529SOL    HW2 5487   4.678   0.688   5.558
 1530SOL     OW 5488   2.772   6.659   2.347
 1530SOL    HW1 5489   2.803   6.572   2.308
 1530SOL    HW2 5490   2.674   6.670   2.332
 1531SOL     OW 5491   6.001   6.884   4.435
 1531SOL    HW1 5492   6.094   6.847   4.441
 1531SOL    HW2 5493   5.964   6.867   4.344
 1532SOL     OW 5494   3.309   5.478   2.279
 1532SOL    HW1 5495   3.231   5.461   2.339
 1532SOL    HW2 5496   3.382   5.523   2.331
 1533SOL     OW 5497   5.843   5.684   1.906
 1533SOL    HW1 5498   5.746   5.694   1.928
 1533SOL    HW2 5499   5.881   5.608   1.958
 1534SOL     OW 5500   2.842   5.010   6.611
 1534SOL    HW1 5501   2.912   5.027   6.681
 1534SOL    HW2 5502   2.770   4.952   6.649
 1535SOL     OW 5503   5.583   5.139   3.494
 1535SOL    HW1 5504   5.546   5.047   3.485
 1535SOL    HW2 5505   5.512   5.206   3.471
 1536SOL     OW 5506   3.738   4.758   6.360
 1536SOL    HW1 5507   3.771   4.851   6.346
 1536SOL    HW2 5508   3.652   4.746   6.311
 1537SOL     OW 5509   2.855   6.079   2.055
 1537SOL    HW1 5510   2.923   6.068   1.983
 1537SOL    HW2 5511   2.882   6.027   2.136
 1538SOL     OW 5512   2.549   1.223   0.710
 1538SOL    HW1 5513   2.564   1.136   0.758
 1538SOL    HW2 5514   2.602   1.224   0.625
 1539SOL     OW 5515   6.843   3.284   0.861
 1539SOL    HW1 5516   6.924   3.226   0.872
 1539SOL    HW2 5517   6.775   3.237   0.805
 1540SOL     OW 5518   4.285   5.964   3.681
 1540SOL    HW1 5519   4.370   6.017   3.685
 1540SOL    HW2 5520   4.285   5.907   3.598
 1541SOL     OW 5521   4.433   2.396   5.729
 1541SOL    HW1 5522   4.340   2.363   5.714
 1541SOL    HW2 5523   4.479   2.339   5.798
 1542SOL     OW 5524   1.030   4.457   2.572
 1542SOL    HW1 5525   0.944   4.466   2.521
 1542SOL    HW2 5526   1.017   4.491   2.665
 1543SOL     OW 5527   4.179   5.397   0.789
 1543SOL    HW1 5528   4.181   5.327   0.718
 1543SOL    HW2 5529   4.131   5.478   0.756
 1544SOL     OW 5530   3.726   3.187   3.685
 1544SOL    HW1 5531   3.644   3.218   3.733
 1544SOL    HW2 5532   3.730   3.087   3.688
 1545SOL     OW 5533   6.317   4.362   0.716
 1545SOL    HW1 5534   6.358   4.389   0.629
 1545SOL    HW2 5535   6.270   4.441   0.756
 1546SOL     OW 5536   6.928   6.327   5.900
 1546SOL    HW1 5537   7.023   6.343   5.870
 1546SOL    HW2 5538   6.929   6.277   5.986
 1547SOL     OW 5539   1.139   2.749   6.907
 1547SOL    HW1 5540   1.134   2.775   7.003
 1547SOL    HW2 5541   1.109   2.654   6.896
 1548SOL     OW 5542   6.596   2.120   0.452
 1548SOL    HW1 5543   6.680   2.071   0.427
 1548SOL    HW2 5544   6.560   2.167   0.371
 1549SOL     OW 5545   4.838   0.076   4.378
 1549SOL    HW1 5546   4.934   0.060   4.355
 1549SOL    HW2 5547   4.783   7.024   4.345
 1550SOL     OW 5548   2.939   3.936   4.784
 1550SOL    HW1 5549   2.922   3.875   4.861
 1550SOL    HW2 5550   2.893   4.023   4.799
 1551SOL     OW 5551   0.197   5.400   6.042
 1551SOL    HW1 5552   0.183   5.476   5.978
 1551SOL    HW2 5553   0.176   5.431   6.135
 1552SOL     OW 5554   2.357   4.045   1.217
 1552SOL    HW1 5555   2.324   3.962   1.261
 1552SOL    HW2 5556   2.457   4.041   1.209
 1553SOL     OW 5557   1.267   2.109   5.677
 1553SOL    HW1 5558   1.321   2.171   5.735
 1553SOL    HW2 5559   1.285   2.015   5.703
 1554SOL     OW 5560   4.374   2.204   3.648
 1554SOL    HW1 5561   4.292   2.195   3.592
 1554SOL    HW2 5562   4.434   2.275   3.609
 1555SOL     OW 5563   6.235   4.423   5.223
 1555SOL    HW1 5564   6.172   4.499   5.235
 1555SOL    HW2 5565   6.249   4.376   5.310
 1556SOL     OW 5566   2.585   1.167   5.375
 1556SOL    HW1 5567   2.653   1.235   5.401
 1556SOL    HW2 5568   2.538   1.196   5.291
 1557SOL     OW 5569   1.117   1.300   6.311
 1557SOL    HW1 5570   1.137   1.206   6.336
 1557SOL    HW2 5571   1.195   1.358   6.335
 1558SOL     OW 5572   6.621   0.049   4.171
 1558SOL    HW1 5573   6.685   0.095   4.110
 1558SOL    HW2 5574   6.637   6.975   4.168
 1559SOL     OW 5575   1.740   1.388   6.004
 1559SOL    HW1 5576   1.796   1.325   6.059
 1559SOL    HW2 5577   1.665   1.337   5.961
 1560SOL     OW 5578   0.210   0.144   1.321
 1560SOL    HW1 5579   0.226   0.086   1.242
 1560SOL    HW2 5580   0.297   0.185   1.350
 1561SOL     OW 5581   5.830   6.510   1.725
 1561SOL    HW1 5582   5.853   6.415   1.701
 1561SOL    HW2 5583   5.857   6.571   1.651
 1562SOL     OW 5584   5.916   0.046   3.925
 1562SOL    HW1 5585   5.995   0.007   3.973
 1562SOL    HW2 5586   5.849   0.080   3.991
 1563SOL     OW 5587   2.680   0.433   6.476
 1563SOL    HW1 5588   2.683   0.365   6.403
 1563SOL    HW2 5589   2.749   0.504   6.459
 1564SOL     OW 5590   1.677   1.840   2.767
 1564SOL    HW1 5591   1.581   1.821   2.743
 1564SOL    HW2 5592   1.730   1.849   2.683
 1565SOL     OW 5593   6.121   3.468   1.914
 1565SOL    HW1 5594   6.128   3.561   1.949
 1565SOL    HW2 5595   6.213   3.430   1.902
 1566SOL     OW 5596   5.890   4.413   2.111
 1566SOL    HW1 5597   5.927   4.485   2.052
 1566SOL    HW2 5598   5.790   4.415   2.108
 1567SOL     OW 5599   6.524   5.285   5.642
 1567SOL    HW1 5600   6.501   5.305   5.547
 1567SOL    HW2 5601   6.616   5.245   5.647
 1568SOL     OW 5602   0.560   6.070   1.156
 1568SOL    HW1 5603   0.633   6.047   1.093
 1568SOL    HW2 5604   0.575   6.162   1.193
 1569SOL     OW 5605   3.986   5.555   4.983
 1569SOL    HW1 5606   4.006   5.490   4.910
 1569SOL    HW2 5607   3.996   5.648   4.949
 1570SOL     OW 5608   2.317   2.515   1.402
 1570SOL    HW1 5609   2.292   2.420   1.382
 1570SOL    HW2 5610   2.413   2.518   1.432
 1571SOL     OW 5611   0.421   2.941   6.521
 1571SOL    HW1 5612   0.442   2.980   6.431
 1571SOL    HW2 5613   0.488   2.871   6.543
 1572SOL     OW 5614   0.466   5.849   4.696
 1572SOL    HW1 5615   0.482   5.920   4.764
 1572SOL    HW2 5616   0.450   5.891   4.607
 1573SOL     OW 5617   4.408   0.388   0.007
 1573SOL    HW1 5618   4.366   0.304   6.996
 1573SOL    HW2 5619   4.507   0.384   7.017
 1574SOL     OW 5620   4.876   3.148   2.491
 1574SOL    HW1 5621   4.887   3.155   2.392
 1574SOL    HW2 5622   4.884   3.238   2.532
 1575SOL     OW 5623   3.179   2.632   6.909
 1575SOL    HW1 5624   3.112   2.630   6.835
 1575SOL    HW2 5625   3.199   2.539   6.939
 1576SOL     OW 5626   5.661   5.491   3.279
 1576SOL    HW1 5627   5.651   5.477   3.377
 1576SOL    HW2 5628   5.756   5.514   3.258
 1577SOL     OW 5629   2.112   0.808   0.862
 1577SOL    HW1 5630   2.028   0.799   0.808
 1577SOL    HW2 5631   2.089   0.813   0.959
 1578SOL     OW 5632   6.027   6.416   5.395
 1578SOL    HW1 5633   6.109   6.367   5.425
 1578SOL    HW2 5634   6.052   6.482   5.324
 1579SOL     OW 5635   6.208   1.519   3.275
 1579SOL    HW1 5636   6.157   1.443   3.316
 1579SOL    HW2 5637   6.277   1.551   3.339
 1580SOL     OW 5638   2.910   3.821   5.533
 1580SOL    HW1 5639   2.978   3.863   5.473
 1580SOL    HW2 5640   2.951   3.803   5.622
 1581SOL     OW 5641   5.383   2.871   4.141
 1581SOL    HW1 5642   5.428   2.875   4.231
 1581SOL    HW2 5643   5.293   2.913   4.147
 1582SOL     OW 5644   6.566   6.163   3.604
 1582SOL    HW1 5645   6.660   6.195   3.614
 1582SOL    HW2 5646   6.525   6.204   3.523
 1583SOL     OW 5647   2.630   3.199   0.986
 1583SOL    HW1 5648   2.599   3.134   0.917
 1583SOL    HW2 5649   2.662   3.150   1.067
 1584SOL     OW 5650   1.506   6.819   6.592
 1584SOL    HW1 5651   1.476   6.747   6.655
 1584SOL    HW2 5652   1.569   6.780   6.525
 1585SOL     OW 5653   5.980   1.326   5.843
 1585SOL    HW1 5654   5.930   1.387   5.781
 1585SOL    HW2 5655   6.033   1.261   5.790
 1586SOL     OW 5656   3.747   3.208   3.019
 1586SOL    HW1 5657   3.749   3.122   2.969
 1586SOL    HW2 5658   3.653   3.232   3.041
 1587SOL     OW 5659   1.640   0.272   5.477
 1587SOL    HW1 5660   1.716   0.316   5.526
 1587SOL    HW2 5661   1.614   0.328   5.399
 1588SOL     OW 5662   0.198   3.719   0.580
 1588SOL    HW1 5663   0.100   3.704   0.569
 1588SOL    HW2 5664   0.212   3.804   0.632
 1589SOL     OW 5665   5.438   4.911   2.368
 1589SOL    HW1 5666   5.391   4.830   2.335
 1589SOL    HW2 5667   5.489   4.889   2.452
 1590SOL     OW 5668   2.472   6.251   4.885
 1590SOL    HW1 5669   2.517   6.322   4.940
 1590SOL    HW2 5670   2.451   6.172   4.944
 1591SOL     OW 5671   2.096   3.749   0.082
 1591SOL    HW1 5672   2.122   3.672   0.140
 1591SOL    HW2 5673   2.108   3.834   0.132
 1592SOL     OW 5674   3.442   3.830   4.494
 1592SOL    HW1 5675   3.512   3.811   4.562
 1592SOL    HW2 5676   3.384   3.905   4.526
 1593SOL     OW 5677   0.956   4.189   4.031
 1593SOL    HW1 5678   0.895   4.130   3.979
 1593SOL    HW2 5679   0.971   4.274   3.981
 1594SOL     OW 5680   0.569   5.423   2.755
 1594SOL    HW1 5681   0.472   5.411   2.774
 1594SOL    HW2 5682   0.588   5.399   2.660
 1595SOL     OW 5683   6.449   3.153   5.512
 1595SOL    HW1 5684   6.487   3.073   5.465
 1595SOL    HW2 5685   6.513   3.230   5.503
 1596SOL     OW 5686   3.592   5.129   6.459
 1596SOL    HW1 5687   3.608   5.038   6.498
 1596SOL    HW2 5688   3.501   5.160   6.483
 1597SOL     OW 5689   2.121   6.698   1.390
 1597SOL    HW1 5690   2.127   6.626   1.321
 1597SOL    HW2 5691   2.141   6.660   1.480
 1598SOL     OW 5692   0.041   5.331   2.170
 1598SOL    HW1 5693   0.114   5.334   2.239
 1598SOL    HW2 5694   7.000   5.405   2.188
 1599SOL     OW 5695   3.204   5.444   6.995
 1599SOL    HW1 5696   3.207   5.542   7.014
 1599SOL    HW2 5697   3.295   5.412   6.970
 1600SOL     OW 5698   3.724   1.040   5.147
 1600SOL    HW1 5699   3.661   0.966   5.122
 1600SOL    HW2 5700   3.671   1.123   5.169
 1601SOL     OW 5701   1.594   5.397   4.981
 1601SOL    HW1 5702   1.661   5.441   5.041
 1601SOL    HW2 5703   1.531   5.342   5.037
 1602SOL     OW 5704   0.324   3.153   1.543
 1602SOL    HW1 5705   0.294   3.222   1.609
 1602SOL    HW2 5706   0.422   3.163   1.526
 1603SOL     OW 5707   5.891   0.266   1.571
 1603SOL    HW1 5708   5.836   0.182   1.563
 1603SOL    HW2 5709   5.941   0.282   1.486
 1604SOL     OW 5710   1.215   5.231   3.501
 1604SOL    HW1 5711   1.262   5.303   3.451
 1604SOL    HW2 5712   1.147   5.188   3.442
 1605SOL     OW 5713   5.100   5.397   2.118
 1605SOL    HW1 5714   5.087   5.329   2.046
 1605SOL    HW2 5715   5.116   5.351   2.205
 1606SOL     OW 5716   6.552   4.915   4.660
 1606SOL    HW1 5717   6.588   4.960   4.578
 1606SOL    HW2 5718   6.619   4.850   4.695
 1607SOL     OW 5719   6.386   3.781   1.890
 1607SOL    HW1 5720   6.288   3.778   1.911
 1607SOL    HW2 5721   6.413   3.694   1.848
 1608SOL     OW 5722   1.956   6.503   1.224
 1608SOL    HW1 5723   1.891   6.512   1.299
 1608SOL    HW2 5724   1.931   6.566   1.151
 1609SOL     OW 5725   5.915   2.423   5.611
 1609SOL    HW1 5726   5.996   2.390   5.659
 1609SOL    HW2 5727   5.847   2.454   5.677
 1610SOL     OW 5728   4.255   0.395   3.216
 1610SOL    HW1 5729   4.163   0.364   3.242
 1610SOL    HW2 5730   4.270   0.487   3.253
 1611SOL     OW 5731   4.189   4.212   1.706
 1611SOL    HW1 5732   4.204   4.128   1.654
 1611SOL    HW2 5733   4.270   4.232   1.761
 1612SOL     OW 5734   3.548   0.185   4.496
 1612SOL    HW1 5735   3.500   0.118   4.552
 1612SOL    HW2 5736   3.642   0.155   4.480
 1613SOL     OW 5737   2.596   6.975   1.487
 1613SOL    HW1 5738   2.502   6.940   1.488
 1613SOL    HW2 5739   2.601   0.031   1.429
 1614SOL     OW 5740   6.216   2.318   6.133
 1614SOL    HW1 5741   6.148   2.377   6.089
 1614SOL    HW2 5742   6.253   2.254   6.066
 1615SOL     OW 5743   6.979   5.645   4.888
 1615SOL    HW1 5744   0.010   5.632   4.970
 1615SOL    HW2 5745   6.885   5.665   4.914
 1616SOL     OW 5746   1.971   2.413   5.043
 1616SOL    HW1 5747   1.947   2.509   5.032
 1616SOL    HW2 5748   2.029   2.384   4.966
 1617SOL     OW 5749   3.143   0.435   2.584
 1617SOL    HW1 5750   3.220   0.385   2.543
 1617SOL    HW2 5751   3.113   0.390   2.667
 1618SOL     OW 5752   5.225   2.851   1.614
 1618SOL    HW1 5753   5.223   2.851   1.714
 1618SOL    HW2 5754   5.266   2.766   1.582
 1619SOL     OW 5755   1.802   3.036   4.477
 1619SOL    HW1 5756   1.831   2.940   4.475
 1619SOL    HW2 5757   1.861   3.088   4.539
 1620SOL     OW 5758   3.519   5.675   1.120
 1620SOL    HW1 5759   3.420   5.669   1.134
 1620SOL    HW2 5760   3.565   5.634   1.199
 1621SOL     OW 5761   2.180   2.627   1.643
 1621SOL    HW1 5762   2.236   2.603   1.564
 1621SOL    HW2 5763   2.205   2.719   1.674
 1622SOL     OW 5764   2.372   2.800   5.559
 1622SOL    HW1 5765   2.341   2.830   5.468
 1622SOL    HW2 5766   2.419   2.712   5.551
 1623SOL     OW 5767   2.396   2.028   4.570
 1623SOL    HW1 5768   2.319   1.964   4.571
 1623SOL    HW2 5769   2.449   2.014   4.486
 1624SOL     OW 5770   2.022   0.800   0.059
 1624SOL    HW1 5771   2.085   0.876   0.071
 1624SOL    HW2 5772   1.991   0.768   0.148
 1625SOL     OW 5773   1.936   0.115   0.893
 1625SOL    HW1 5774   1.848   0.090   0.932
 1625SOL    HW2 5775   1.933   0.210   0.863
 1626SOL     OW 5776   2.675   3.764   5.854
 1626SOL    HW1 5777   2.683   3.728   5.761
 1626SOL    HW2 5778   2.638   3.693   5.914
 1627SOL     OW 5779   5.023   4.442   2.713
 1627SOL    HW1 5780   5.065   4.429   2.623
 1627SOL    HW2 5781   5.002   4.353   2.753
 1628SOL     OW 5782   3.852   3.433   0.275
 1628SOL    HW1 5783   3.887   3.451   0.367
 1628SOL    HW2 5784   3.896   3.495   0.210
 1629SOL     OW 5785   1.808   2.449   3.190
 1629SOL    HW1 5786   1.834   2.459   3.094
 1629SOL    HW2 5787   1.758   2.530   3.220
 1630SOL     OW 5788   5.631   4.463   3.620
 1630SOL    HW1 5789   5.553   4.525   3.631
 1630SOL    HW2 5790   5.628   4.393   3.692
 1631SOL     OW 5791   0.491   1.293   5.170
 1631SOL    HW1 5792   0.434   1.286   5.088
 1631SOL    HW2 5793   0.536   1.382   5.172
 1632SOL     OW 5794   3.891   6.428   6.593
 1632SOL    HW1 5795   3.944   6.375   6.660
 1632SOL    HW2 5796   3.898   6.526   6.615
 1633SOL     OW 5797   6.752   3.789   2.568
 1633SOL    HW1 5798   6.824   3.820   2.506
 1633SOL    HW2 5799   6.717   3.700   2.537
 1634SOL     OW 5800   3.687   0.623   0.857
 1634SOL    HW1 5801   3.700   0.718   0.888
 1634SOL    HW2 5802   3.591   0.610   0.832
 1635SOL     OW 5803   2.245   4.136   3.441
 1635SOL    HW1 5804   2.266   4.234   3.439
 1635SOL    HW2 5805   2.295   4.090   3.368
 1636SOL     OW 5806   2.129   6.989   0.830
 1636SOL    HW1 5807   2.058   0.020   0.873
 1636SOL    HW2 5808   2.194   0.025   0.783
 1637SOL     OW 5809   0.967   2.751   2.070
 1637SOL    HW1 5810   1.007   2.775   2.158
 1637SOL    HW2 5811   0.897   2.681   2.083
 1638SOL     OW 5812   0.563   2.637   5.707
 1638SOL    HW1 5813   0.624   2.559   5.690
 1638SOL    HW2 5814   0.577   2.669   5.801
 1639SOL     OW 5815   3.510   5.214   3.239
 1639SOL    HW1 5816   3.411   5.227   3.226
 1639SOL    HW2 5817   3.528   5.191   3.335
 1640SOL     OW 5818   5.818   0.090   1.123
 1640SOL    HW1 5819   5.870   0.007   1.104
 1640SOL    HW2 5820   5.880   0.169   1.121
 1641SOL     OW 5821   6.380   2.779   4.579
 1641SOL    HW1 5822   6.461   2.814   4.532
 1641SOL    HW2 5823   6.301   2.781   4.516
 1642SOL     OW 5824   0.161   2.296   1.416
 1642SOL    HW1 5825   0.070   2.254   1.419
 1642SOL    HW2 5826   0.183   2.320   1.322
 1643SOL     OW 5827   4.739   0.171   5.068
 1643SOL    HW1 5828   4.644   0.198   5.052
 1643SOL    HW2 5829   4.741   0.080   5.108
 1644SOL     OW 5830   3.786   1.480   1.309
 1644SOL    HW1 5831   3.857   1.421   1.348
 1644SOL    HW2 5832   3.828   1.543   1.243
 1645SOL     OW 5833   2.440   5.504   5.473
 1645SOL    HW1 5834   2.510   5.474   5.408
 1645SOL    HW2 5835   2.366   5.550   5.423
 1646SOL     OW 5836   3.146   3.303   0.440
 1646SOL    HW1 5837   3.100   3.382   0.482
 1646SOL    HW2 5838   3.124   3.220   0.491
 1647SOL     OW 5839   6.142   2.556   2.026
 1647SOL    HW1 5840   6.206   2.606   1.967
 1647SOL    HW2 5841   6.190   2.526   2.108
 1648SOL     OW 5842   2.707   0.591   3.396
 1648SOL    HW1 5843   2.680   0.674   3.347
 1648SOL    HW2 5844   2.705   0.608   3.494
 1649SOL     OW 5845   3.150   0.508   4.339
 1649SOL    HW1 5846   3.159   0.424   4.391
 1649SOL    HW2 5847   3.099   0.490   4.254
 1650SOL     OW 5848   2.452   6.467   4.250
 1650SOL    HW1 5849   2.503   6.550   4.275
 1650SOL    HW2 5850   2.516   6.395   4.224
 1651SOL     OW 5851   1.559   6.762   2.344
 1651SOL    HW1 5852   1.560   6.849   2.296
 1651SOL    HW2 5853   1.653   6.734   2.366
 1652SOL     OW 5854   3.840   3.704   1.048
 1652SOL    HW1 5855   3.743   3.682   1.048
 1652SOL    HW2 5856   3.893   3.624   1.078
 1653SOL     OW 5857   1.376   4.089   0.835
 1653SOL    HW1 5858   1.456   4.137   0.799
 1653SOL    HW2 5859   1.400   4.045   0.921
 1654SOL     OW 5860   0.599   2.227   4.268
 1654SOL    HW1 5861   0.515   2.174   4.260
 1654SOL    HW2 5862   0.678   2.167   4.254
 1655SOL     OW 5863   4.281   4.371   5.367
 1655SOL    HW1 5864   4.233   4.406   5.447
 1655SOL    HW2 5865   4.248   4.417   5.285
 1656SOL     OW 5866   6.719   3.003   2.658
 1656SOL    HW1 5867   6.631   2.983   2.614
 1656SOL    HW2 5868   6.714   3.091   2.705
 1657SOL     OW 5869   0.547   0.441   5.847
 1657SOL    HW1 5870   0.452   0.411   5.840
 1657SOL    HW2 5871   0.560   0.525   5.795
 1658SOL     OW 5872   5.857   6.413   3.378
 1658SOL    HW1 5873   5.873   6.473   3.457
 1658SOL    HW2 5874   5.940   6.409   3.322
 1659SOL     OW 5875   6.339   2.989   6.302
 1659SOL    HW1 5876   6.268   2.984   6.371
 1659SOL    HW2 5877   6.411   2.922   6.323
 1660SOL     OW 5878   2.482   5.866   3.859
 1660SOL    HW1 5879   2.562   5.826   3.904
 1660SOL    HW2 5880   2.497   5.965   3.847
 1661SOL     OW 5881   2.215   1.141   3.430
 1661SOL    HW1 5882   2.118   1.125   3.411
 1661SOL    HW2 5883   2.225   1.176   3.523
 1662SOL     OW 5884   0.565   1.580   3.930
 1662SOL    HW1 5885   0.533   1.624   3.846
 1662SOL    HW2 5886   0.513   1.496   3.945
 1663SOL     OW 5887   1.110   0.260   3.025
 1663SOL    HW1 5888   1.139   0.276   3.120
 1663SOL    HW2 5889   1.119   0.344   2.973
 1664SOL     OW 5890   1.683   5.994   4.405
 1664SOL    HW1 5891   1.675   6.091   4.382
 1664SOL    HW2 5892   1.683   5.939   4.321
 1665SOL     OW 5893   0.201   1.315   4.003
 1665SOL    HW1 5894   0.196   1.385   4.075
 1665SOL    HW2 5895   0.119   1.320   3.946
 1666SOL     OW 5896   5.734   2.248   6.941
 1666SOL    HW1 5897   5.829   2.227   6.917
 1666SOL    HW2 5898   5.731   2.293   0.006
 1667SOL     OW 5899   6.582   6.960   0.887
 1667SOL    HW1 5900   6.486   6.949   0.861
 1667SOL    HW2 5901   6.639   6.956   0.805
 1668SOL     OW 5902   2.337   0.013   4.930
 1668SOL    HW1 5903   2.410   0.046   4.871
 1668SOL    HW2 5904   2.252   0.060   4.907
 1669SOL     OW 5905   5.030   5.518   6.834
 1669SOL    HW1 5906   5.056   5.480   6.923
 1669SOL    HW2 5907   5.088   5.597   6.813
 1670SOL     OW 5908   6.562   4.024   6.778
 1670SOL    HW1 5909   6.494   4.026   6.705
 1670SOL    HW2 5910   6.550   4.105   6.836
 1671SOL     OW 5911   6.083   4.086   1.502
 1671SOL    HW1 5912   6.183   4.073   1.504
 1671SOL    HW2 5913   6.041   4.029   1.572
 1672SOL     OW 5914   1.993   4.277   3.181
 1672SOL    HW1 5915   2.023   4.200   3.236
 1672SOL    HW2 5916   1.941   4.244   3.102
 1673SOL     OW 5917   6.772   3.635   3.209
 1673SOL    HW1 5918   6.795   3.539   3.198
 1673SOL    HW2 5919   6.762   3.678   3.119
 1674SOL     OW 5920   2.021   6.169   0.390
 1674SOL    HW1 5921   2.078   6.116   0.453
 1674SOL    HW2 5922   2.071   6.185   0.305
 1675SOL     OW 5923   4.810   2.144   6.327
 1675SOL    HW1 5924   4.725   2.161   6.377
 1675SOL    HW2 5925   4.861   2.072   6.373
 1676SOL     OW 5926   2.797   1.169   3.095
 1676SOL    HW1 5927   2.739   1.218   3.030
 1676SOL    HW2 5928   2.775   1.199   3.188
 1677SOL     OW 5929   5.368   6.698   5.664
 1677SOL    HW1 5930   5.446   6.657   5.712
 1677SOL    HW2 5931   5.292   6.634   5.663
 1678SOL     OW 5932   4.305   6.688   1.762
 1678SOL    HW1 5933   4.220   6.635   1.770
 1678SOL    HW2 5934   4.376   6.631   1.722
 1679SOL     OW 5935   6.485   4.446   0.202
 1679SOL    HW1 5936   6.508   4.451   0.299
 1679SOL    HW2 5937   6.534   4.519   0.153
 1680SOL     OW 5938   6.920   2.021   5.719
 1680SOL    HW1 5939   6.995   1.957   5.735
 1680SOL    HW2 5940   6.833   1.972   5.723
 1681SOL     OW 5941   4.429   5.255   1.252
 1681SOL    HW1 5942   4.330   5.241   1.250
 1681SOL    HW2 5943   4.469   5.222   1.167
 1682SOL     OW 5944   0.590   3.681   6.051
 1682SOL    HW1 5945   0.568   3.644   6.142
 1682SOL    HW2 5946   0.650   3.760   6.061
 1683SOL     OW 5947   6.072   5.515   5.386
 1683SOL    HW1 5948   5.975   5.527   5.366
 1683SOL    HW2 5949   6.096   5.565   5.469
 1684SOL     OW 5950   0.662   0.050   4.478
 1684SOL    HW1 5951   0.610   0.089   4.554
 1684SOL    HW2 5952   0.745   0.104   4.463
 1685SOL     OW 5953   1.300   1.883   0.024
 1685SOL    HW1 5954   1.354   1.964   0.046
 1685SOL    HW2 5955   1.205   1.908   0.012
 1686SOL     OW 5956   1.443   0.269   6.341
 1686SOL    HW1 5957   1.371   0.273   6.411
 1686SOL    HW2 5958   1.457   0.174   6.314
 1687SOL     OW 5959   2.699   0.142   2.495
 1687SOL    HW1 5960   2.764   0.088   2.442
 1687SOL    HW2 5961   2.733   0.154   2.588
 1688SOL     OW 5962   6.872   1.493   2.811
 1688SOL    HW1 5963   6.944   1.563   2.811
 1688SOL    HW2 5964   6.783   1.538   2.819
 1689SOL     OW 5965   2.168   2.035   1.855
 1689SOL    HW1 5966   2.248   2.027   1.914
 1689SOL    HW2 5967   2.126   2.124   1.869
 1690SOL     OW 5968   1.268   1.654   6.871
 1690SOL    HW1 5969   1.178   1.621   6.898
 1690SOL    HW2 5970   1.295   1.730   6.930
 1691SOL     OW 5971   4.818   4.308   3.828
 1691SOL    HW1 5972   4.837   4.213   3.802
 1691SOL    HW2 5973   4.876   4.370   3.775
 1692SOL     OW 5974   0.800   5.969   3.992
 1692SOL    HW1 5975   0.735   5.995   4.064
 1692SOL    HW2 5976   0.765   5.999   3.903
 1693SOL     OW 5977   3.858   2.164   4.236
 1693SOL    HW1 5978   3.940   2.160   4.178
 1693SOL    HW2 5979   3.777   2.145   4.180
 1694SOL     OW 5980   6.498   6.270   5.346
 1694SOL    HW1 5981   6.569   6.200   5.343
 1694SOL    HW2 5982   6.518   6.335   5.418
 1695SOL     OW 5983   3.931   1.607   6.430
 1695SOL    HW1 5984   3.843   1.611   6.478
 1695SOL    HW2 5985   3.949   1.512   6.402
 1696SOL     OW 5986   3.844   5.824   2.137
 1696SOL    HW1 5987   3.871   5.746   2.080
 1696SOL    HW2 5988   3.825   5.793   2.230
 1697SOL     OW 5989   1.560   1.714   1.901
 1697SOL    HW1 5990   1.633   1.649   1.918
 1697SOL    HW2 5991   1.495   1.676   1.836
 1698SOL     OW 5992   5.277   1.712   0.027
 1698SOL    HW1 5993   5.370   1.685   0.051
 1698SOL    HW2 5994   5.237   1.642   6.991
 1699SOL     OW 5995   2.321   4.879   1.858
 1699SOL    HW1 5996   2.364   4.808   1.915
 1699SOL    HW2 5997   2.294   4.839   1.771
 1700SOL     OW 5998   5.993   3.343   4.959
 1700SOL    HW1 5999   6.088   3.340   4.925
 1700SOL    HW2 6000   5.987   3.410   5.034
 1701SOL     OW 6001   5.457   3.060   4.582
 1701SOL    HW1 6002   5.482   2.972   4.541
 1701SOL    HW2 6003   5.390   3.106   4.524
 1702SOL     OW 6004   5.277   2.169   1.663
 1702SOL    HW1 6005   5.190   2.216   1.651
 1702SOL    HW2 6006   5.269   2.102   1.737
 1703SOL     OW 6007   2.032   3.750   1.606
 1703SOL    HW1 6008   2.130   3.733   1.607
 1703SOL    HW2 6009   2.013   3.838   1.564
 1704SOL     OW 6010   6.232   2.188   2.001
 1704SOL    HW1 6011   6.187   2.135   1.930
 1704SOL    HW2 6012   6.275   2.269   1.961
 1705SOL     OW 6013   3.425   2.671   1.698
 1705SOL    HW1 6014   3.375   2.589   1.669
 1705SOL    HW2 6015   3.410   2.744   1.631
 1706SOL     OW 6016   2.954   0.617   6.379
 1706SOL    HW1 6017   2.935   0.640   6.475
 1706SOL    HW2 6018   2.925   0.693   6.320
 1707SOL     OW 6019   4.932   1.786   2.191
 1707SOL    HW1 6020   4.983   1.774   2.276
 1707SOL    HW2 6021   4.963   1.719   2.123
 1708SOL     OW 6022   6.981   3.683   0.854
 1708SOL    HW1 6023   0.043   3.633   0.856
 1708SOL    HW2 6024   6.949   3.697   0.948
 1709SOL     OW 6025   3.543   5.142   3.518
 1709SOL    HW1 6026   3.642   5.126   3.511
 1709SOL    HW2 6027   3.518   5.153   3.614
 1710SOL     OW 6028   6.441   3.855   4.774
 1710SOL    HW1 6029   6.426   3.947   4.739
 1710SOL    HW2 6030   6.399   3.846   4.864
 1711SOL     OW 6031   0.744   4.695   6.118
 1711SOL    HW1 6032   0.721   4.757   6.193
 1711SOL    HW2 6033   0.843   4.690   6.108
 1712SOL     OW 6034   1.847   4.536   2.149
 1712SOL    HW1 6035   1.817   4.586   2.068
 1712SOL    HW2 6036   1.849   4.438   2.128
 1713SOL     OW 6037   2.011   3.623   1.000
 1713SOL    HW1 6038   1.980   3.661   0.912
 1713SOL    HW2 6039   2.039   3.697   1.061
 1714SOL     OW 6040   4.848   0.944   0.744
 1714SOL    HW1 6041   4.886   0.903   0.662
 1714SOL    HW2 6042   4.802   1.030   0.720
 1715SOL     OW 6043   1.830   3.745   3.435
 1715SOL    HW1 6044   1.843   3.653   3.399
 1715SOL    HW2 6045   1.919   3.785   3.457
 1716SOL     OW 6046   0.207   0.238   0.715
 1716SOL    HW1 6047   0.240   0.246   0.620
 1716SOL    HW2 6048   0.209   0.328   0.758
 1717SOL     OW 6049   3.287   0.696   0.571
 1717SOL    HW1 6050   3.339   0.666   0.491
 1717SOL    HW2 6051   3.231   0.776   0.546
 1718SOL     OW 6052   1.677   3.965   5.640
 1718SOL    HW1 6053   1.764   3.926   5.669
 1718SOL    HW2 6054   1.691   4.022   5.559
 1719SOL     OW 6055   2.440   2.019   0.875
 1719SOL    HW1 6056   2.392   2.004   0.788
 1719SOL    HW2 6057   2.520   2.078   0.859
 1720SOL     OW 6058   6.798   2.120   2.184
 1720SOL    HW1 6059   6.765   2.142   2.276
 1720SOL    HW2 6060   6.724   2.079   2.131
 1721SOL     OW 6061   1.140   5.835   4.393
 1721SOL    HW1 6062   1.228   5.827   4.349
 1721SOL    HW2 6063   1.095   5.919   4.363
 1722SOL     OW 6064   4.416   0.587   1.728
 1722SOL    HW1 6065   4.489   0.582   1.661
 1722SOL    HW2 6066   4.353   0.511   1.715
 1723SOL     OW 6067   5.754   1.316   3.337
 1723SOL    HW1 6068   5.730   1.223   3.365
 1723SOL    HW2 6069   5.822   1.353   3.401
 1724SOL     OW 6070   5.967   6.655   0.161
 1724SOL    HW1 6071   6.061   6.685   0.172
 1724SOL    HW2 6072   5.914   6.681   0.241
 1725SOL     OW 6073   4.544   5.330   2.029
 1725SOL    HW1 6074   4.471   5.398   2.036
 1725SOL    HW2 6075   4.607   5.356   1.956
 1726SOL     OW 6076   6.320   4.811   5.291
 1726SOL    HW1 6077   6.412   4.782   5.262
 1726SOL    HW2 6078   6.252   4.746   5.256
 1727SOL     OW 6079   2.447   4.673   5.962
 1727SOL    HW1 6080   2.440   4.748   5.896
 1727SOL    HW2 6081   2.359   4.661   6.008
 1728SOL     OW 6082   5.004   6.424   3.225
 1728SOL    HW1 6083   4.946   6.347   3.251
 1728SOL    HW2 6084   4.952   6.486   3.166
 1729SOL     OW 6085   0.022   3.347   3.822
 1729SOL    HW1 6086   0.010   3.413   3.748
 1729SOL    HW2 6087   0.020   3.395   3.910
 1730SOL     OW 6088   4.956   2.536   4.863
 1730SOL    HW1 6089   5.041   2.484   4.861
 1730SOL    HW2 6090   4.881   2.479   4.827
 1731SOL     OW 6091   0.919   6.745   6.201
 1731SOL    HW1 6092   0.854   6.697   6.260
 1731SOL    HW2 6093   0.911   6.843   6.215
 1732SOL     OW 6094   1.444   4.447   6.758
 1732SOL    HW1 6095   1.478   4.453   6.664
 1732SOL    HW2 6096   1.403   4.535   6.784
 1733SOL     OW 6097   1.839   4.241   6.076
 1733SOL    HW1 6098   1.790   4.253   5.990
 1733SOL    HW2 6099   1.834   4.145   6.104
 1734SOL     OW 6100   5.204   4.403   0.779
 1734SOL    HW1 6101   5.292   4.367   0.808
 1734SOL    HW2 6102   5.131   4.341   0.806
 1735SOL     OW 6103   4.949   4.804   0.132
 1735SOL    HW1 6104   4.966   4.726   0.070
 1735SOL    HW2 6105   4.920   4.883   0.078
 1736SOL     OW 6106   3.941   3.482   0.530
 1736SOL    HW1 6107   3.961   3.559   0.591
 1736SOL    HW2 6108   3.904   3.406   0.583
 1737SOL     OW 6109   0.869   6.495   2.622
 1737SOL    HW1 6110   0.863   6.506   2.722
 1737SOL    HW2 6111   0.960   6.461   2.598
 1738SOL     OW 6112   0.087   1.333   2.796
 1738SOL    HW1 6113   7.016   1.361   2.805
 1738SOL    HW2 6114   0.131   1.385   2.723
 1739SOL     OW 6115   3.817   1.708   6.850
 1739SOL    HW1 6116   3.731   1.734   6.894
 1739SOL    HW2 6117   3.894   1.751   6.898
 1740SOL     OW 6118   0.923   1.581   6.688
 1740SOL    HW1 6119   1.018   1.560   6.707
 1740SOL    HW2 6120   0.912   1.680   6.680
 1741SOL     OW 6121   0.614   0.615   2.512
 1741SOL    HW1 6122   0.553   0.578   2.443
 1741SOL    HW2 6123   0.702   0.638   2.470
 1742SOL     OW 6124   5.854   5.883   3.530
 1742SOL    HW1 6125   5.841   5.980   3.512
 1742SOL    HW2 6126   5.791   5.854   3.603
 1743SOL     OW 6127   4.063   1.606   6.729
 1743SOL    HW1 6128   4.013   1.676   6.780
 1743SOL    HW2 6129   4.063   1.629   6.632
 1744SOL     OW 6130   4.594   6.689   1.201
 1744SOL    HW1 6131   4.676   6.640   1.170
 1744SOL    HW2 6132   4.516   6.626   1.204
 1745SOL     OW 6133   0.640   1.526   5.208
 1745SOL    HW1 6134   0.645   1.619   5.243
 1745SOL    HW2 6135   0.681   1.523   5.116
 1746SOL     OW 6136   2.848   1.149   0.634
 1746SOL    HW1 6137   2.910   1.208   0.583
 1746SOL    HW2 6138   2.784   1.105   0.570
 1747SOL     OW 6139   4.202   0.148   4.371
 1747SOL    HW1 6140   4.251   0.102   4.297
 1747SOL    HW2 6141   4.163   0.234   4.338
 1748SOL     OW 6142   5.209   0.821   1.236
 1748SOL    HW1 6143   5.183   0.803   1.141
 1748SOL    HW2 6144   5.261   0.744   1.272
 1749SOL     OW 6145   5.604   0.265   5.950
 1749SOL    HW1 6146   5.605   0.299   5.855
 1749SOL    HW2 6147   5.691   0.220   5.969
 1750SOL     OW 6148   3.855   1.058   2.919
 1750SOL    HW1 6149   3.865   0.983   2.854
 1750SOL    HW2 6150   3.849   1.145   2.869
 1751SOL     OW 6151   2.696   5.704   4.524
 1751SOL    HW1 6152   2.735   5.781   4.574
 1751SOL    HW2 6153   2.770   5.650   4.484
 1752SOL     OW 6154   6.633   2.626   6.100
 1752SOL    HW1 6155   6.722   2.595   6.066
 1752SOL    HW2 6156   6.580   2.663   6.024
 1753SOL     OW 6157   1.101   0.399   2.205
 1753SOL    HW1 6158   1.192   0.375   2.171
 1753SOL    HW2 6159   1.046   0.316   2.212
 1754SOL     OW 6160   2.957   3.789   3.170
 1754SOL    HW1 6161   2.888   3.790   3.098
 1754SOL    HW2 6162   2.954   3.700   3.217
 1755SOL     OW 6163   0.319   4.267   6.865
 1755SOL    HW1 6164   0.414   4.261   6.833
 1755SOL    HW2 6165   0.275   4.178   6.853
 1756SOL     OW 6166   5.093   5.597   6.117
 1756SOL    HW1 6167   5.172   5.539   6.095
 1756SOL    HW2 6168   5.023   5.541   6.163
 1757SOL     OW 6169   3.711   0.398   4.826
 1757SOL    HW1 6170   3.642   0.336   4.863
 1757SOL    HW2 6171   3.699   0.489   4.866
 1758SOL     OW 6172   1.845   0.541   2.930
 1758SOL    HW1 6173   1.938   0.552   2.897
 1758SOL    HW2 6174   1.780   0.568   2.859
 1759SOL     OW 6175   6.439   5.507   6.266
 1759SOL    HW1 6176   6.381   5.521   6.347
 1759SOL    HW2 6177   6.439   5.410   6.242
 1760SOL     OW 6178   4.661   6.426   3.510
 1760SOL    HW1 6179   4.602   6.496   3.471
 1760SOL    HW2 6180   4.753   6.463   3.523
 1761SOL     OW 6181   6.278   3.245   0.955
 1761SOL    HW1 6182   6.346   3.315   0.976
 1761SOL    HW2 6183   6.212   3.240   1.030
 1762SOL     OW 6184   5.826   2.523   0.292
 1762SOL    HW1 6185   5.778   2.464   0.228
 1762SOL    HW2 6186   5.903   2.474   0.333
 1763SOL     OW 6187   2.416   2.394   4.398
 1763SOL    HW1 6188   2.377   2.320   4.344
 1763SOL    HW2 6189   2.463   2.458   4.338
 1764SOL     OW 6190   6.845   4.664   3.603
 1764SOL    HW1 6191   6.753   4.702   3.596
 1764SOL    HW2 6192   6.843   4.581   3.659
 1765SOL     OW 6193   2.412   2.656   6.395
 1765SOL    HW1 6194   2.359   2.612   6.323
 1765SOL    HW2 6195   2.496   2.694   6.357
 1766SOL     OW 6196   5.966   4.429   6.064
 1766SOL    HW1 6197   5.886   4.370   6.056
 1766SOL    HW2 6198   5.979   4.480   5.979
 1767SOL     OW 6199   6.695   4.341   1.775
 1767SOL    HW1 6200   6.771   4.283   1.801
 1767SOL    HW2 6201   6.719   4.437   1.790
 1768SOL     OW 6202   5.836   6.982   3.361
 1768SOL    HW1 6203   5.930   6.961   3.388
 1768SOL    HW2 6204   5.818   0.055   3.376
 1769SOL     OW 6205   4.531   0.857   4.090
 1769SOL    HW1 6206   4.472   0.937   4.078
 1769SOL    HW2 6207   4.575   0.862   4.180
 1770SOL     OW 6208   3.608   5.537   5.717
 1770SOL    HW1 6209   3.573   5.445   5.734
 1770SOL    HW2 6210   3.700   5.546   5.756
 1771SOL     OW 6211   5.185   5.371   0.076
 1771SOL    HW1 6212   5.259   5.375   0.009
 1771SOL    HW2 6213   5.223   5.357   0.168
 1772SOL     OW 6214   2.572   5.780   2.104
 1772SOL    HW1 6215   2.594   5.874   2.130
 1772SOL    HW2 6216   2.497   5.780   2.039
 1773SOL     OW 6217   1.789   6.660   0.371
 1773SOL    HW1 6218   1.834   6.655   0.282
 1773SOL    HW2 6219   1.847   6.712   0.434
 1774SOL     OW 6220   2.718   5.534   1.239
 1774SOL    HW1 6221   2.695   5.579   1.325
 1774SOL    HW2 6222   2.765   5.598   1.179
 1775SOL     OW 6223   0.559   5.187   0.165
 1775SOL    HW1 6224   0.587   5.092   0.181
 1775SOL    HW2 6225   0.633   5.249   0.192
 1776SOL     OW 6226   3.231   6.303   5.291
 1776SOL    HW1 6227   3.181   6.307   5.205
 1776SOL    HW2 6228   3.170   6.273   5.364
 1777SOL     OW 6229   4.644   0.122   6.276
 1777SOL    HW1 6230   4.581   0.129   6.353
 1777SOL    HW2 6231   4.724   0.180   6.294
 1778SOL     OW 6232   0.768   3.337   6.076
 1778SOL    HW1 6233   0.763   3.330   6.176
 1778SOL    HW2 6234   0.680   3.365   6.040
 1779SOL     OW 6235   4.369   5.604   4.913
 1779SOL    HW1 6236   4.424   5.681   4.946
 1779SOL    HW2 6237   4.346   5.545   4.990
 1780SOL     OW 6238   3.944   2.032   6.613
 1780SOL    HW1 6239   4.039   2.027   6.641
 1780SOL    HW2 6240   3.928   1.967   6.538
 1781SOL     OW 6241   2.296   6.600   4.074
 1781SOL    HW1 6242   2.367   6.555   4.130
 1781SOL    HW2 6243   2.288   6.696   4.103
 1782SOL     OW 6244   3.275   0.951   5.003
 1782SOL    HW1 6245   3.280   0.959   5.103
 1782SOL    HW2 6246   3.367   0.942   4.966
 1783SOL     OW 6247   2.122   5.697   6.687
 1783SOL    HW1 6248   2.172   5.611   6.674
 1783SOL    HW2 6249   2.024   5.681   6.672
 1784SOL     OW 6250   1.212   6.737   6.177
 1784SOL    HW1 6251   1.237   6.751   6.273
 1784SOL    HW2 6252   1.112   6.742   6.168
 1785SOL     OW 6253   0.109   4.838   2.549
 1785SOL    HW1 6254   0.089   4.814   2.644
 1785SOL    HW2 6255   0.203   4.874   2.542
 1786SOL     OW 6256   4.492   2.457   1.826
 1786SOL    HW1 6257   4.562   2.440   1.757
 1786SOL    HW2 6258   4.535   2.458   1.917
 1787SOL     OW 6259   4.476   0.411   5.297
 1787SOL    HW1 6260   4.502   0.400   5.201
 1787SOL    HW2 6261   4.496   0.504   5.327
 1788SOL     OW 6262   1.651   5.035   5.378
 1788SOL    HW1 6263   1.617   4.941   5.381
 1788SOL    HW2 6264   1.657   5.065   5.282
 1789SOL     OW 6265   5.246   5.906   0.709
 1789SOL    HW1 6266   5.296   5.821   0.692
 1789SOL    HW2 6267   5.149   5.891   0.692
 1790SOL     OW 6268   2.221   6.997   3.049
 1790SOL    HW1 6269   2.209   6.914   3.104
 1790SOL    HW2 6270   2.174   0.049   3.093
 1791SOL     OW 6271   0.824   6.835   2.856
 1791SOL    HW1 6272   0.862   6.817   2.946
 1791SOL    HW2 6273   0.898   6.853   2.791
 1792SOL     OW 6274   0.545   4.241   3.917
 1792SOL    HW1 6275   0.572   4.265   3.824
 1792SOL    HW2 6276   0.622   4.198   3.964
 1793SOL     OW 6277   0.400   0.590   3.866
 1793SOL    HW1 6278   0.450   0.578   3.780
 1793SOL    HW2 6279   0.416   0.511   3.925
 1794SOL     OW 6280   4.584   6.577   6.591
 1794SOL    HW1 6281   4.515   6.546   6.656
 1794SOL    HW2 6282   4.540   6.618   6.512
 1795SOL     OW 6283   0.898   2.832   6.783
 1795SOL    HW1 6284   0.810   2.825   6.830
 1795SOL    HW2 6285   0.972   2.813   6.847
 1796SOL     OW 6286   4.489   0.773   5.255
 1796SOL    HW1 6287   4.393   0.758   5.232
 1796SOL    HW2 6288   4.496   0.848   5.321
 1797SOL     OW 6289   0.238   0.443   2.579
 1797SOL    HW1 6290   0.172   0.499   2.528
 1797SOL    HW2 6291   0.191   0.402   2.658
 1798SOL     OW 6292   6.123   2.175   3.496
 1798SOL    HW1 6293   6.216   2.203   3.518
 1798SOL    HW2 6294   6.115   2.075   3.505
 1799SOL     OW 6295   2.909   6.673   1.485
 1799SOL    HW1 6296   2.954   6.584   1.484
 1799SOL    HW2 6297   2.973   6.744   1.454
 1800SOL     OW 6298   2.951   4.848   1.901
 1800SOL    HW1 6299   2.947   4.882   1.807
 1800SOL    HW2 6300   2.940   4.749   1.901
 1801SOL     OW 6301   5.825   6.112   0.473
 1801SOL    HW1 6302   5.911   6.123   0.523
 1801SOL    HW2 6303   5.750   6.101   0.537
 1802SOL     OW 6304   5.556   5.221   4.415
 1802SOL    HW1 6305   5.635   5.283   4.410
 1802SOL    HW2 6306   5.474   5.273   4.440
 1803SOL     OW 6307   6.282   4.959   0.580
 1803SOL    HW1 6308   6.380   4.951   0.598
 1803SOL    HW2 6309   6.248   4.872   0.544
 1804SOL     OW 6310   3.067   4.111   6.153
 1804SOL    HW1 6311   3.082   4.167   6.072
 1804SOL    HW2 6312   3.019   4.027   6.128
 1805SOL     OW 6313   6.790   2.235   6.819
 1805SOL    HW1 6314   6.775   2.195   6.909
 1805SOL    HW2 6315   6.818   2.331   6.830
 1806SOL     OW 6316   6.862   6.679   0.451
 1806SOL    HW1 6317   6.953   6.652   0.481
 1806SOL    HW2 6318   6.803   6.598   0.443
 1807SOL     OW 6319   6.701   1.840   5.736
 1807SOL    HW1 6320   6.620   1.785   5.714
 1807SOL    HW2 6321   6.745   1.803   5.818
 1808SOL     OW 6322   2.201   4.755   4.830
 1808SOL    HW1 6323   2.112   4.755   4.784
 1808SOL    HW2 6324   2.255   4.833   4.799
 1809SOL     OW 6325   4.142   0.368   5.796
 1809SOL    HW1 6326   4.101   0.314   5.870
 1809SOL    HW2 6327   4.104   0.460   5.797
 1810SOL     OW 6328   3.961   6.500   3.702
 1810SOL    HW1 6329   4.054   6.474   3.677
 1810SOL    HW2 6330   3.962   6.589   3.748
 1811SOL     OW 6331   4.463   5.042   2.990
 1811SOL    HW1 6332   4.551   5.002   3.017
 1811SOL    HW2 6333   4.430   4.996   2.907
 1812SOL     OW 6334   4.619   4.716   4.996
 1812SOL    HW1 6335   4.672   4.801   4.996
 1812SOL    HW2 6336   4.605   4.686   4.902
 1813SOL     OW 6337   0.125   6.344   5.122
 1813SOL    HW1 6338   0.091   6.417   5.063
 1813SOL    HW2 6339   0.139   6.379   5.215
 1814SOL     OW 6340   4.092   6.695   2.720
 1814SOL    HW1 6341   4.184   6.701   2.758
 1814SOL    HW2 6342   4.043   6.619   2.764
 1815SOL     OW 6343   0.196   1.039   2.862
 1815SOL    HW1 6344   0.277   1.003   2.815
 1815SOL    HW2 6345   0.205   1.139   2.871
 1816SOL     OW 6346   1.501   5.338   0.908
 1816SOL    HW1 6347   1.536   5.398   0.837
 1816SOL    HW2 6348   1.455   5.259   0.866
 1817SOL     OW 6349   0.975   4.278   1.729
 1817SOL    HW1 6350   1.065   4.246   1.700
 1817SOL    HW2 6351   0.941   4.346   1.664
 1818SOL     OW 6352   0.417   2.176   3.177
 1818SOL    HW1 6353   0.395   2.125   3.093
 1818SOL    HW2 6354   0.504   2.143   3.214
 1819SOL     OW 6355   1.899   3.902   2.452
 1819SOL    HW1 6356   1.986   3.940   2.484
 1819SOL    HW2 6357   1.825   3.931   2.514
 1820SOL     OW 6358   5.585   6.630   2.493
 1820SOL    HW1 6359   5.554   6.577   2.572
 1820SOL    HW2 6360   5.645   6.574   2.436
 1821SOL     OW 6361   1.832   2.022   3.521
 1821SOL    HW1 6362   1.770   2.064   3.455
 1821SOL    HW2 6363   1.780   1.987   3.598
 1822SOL     OW 6364   3.516   3.621   2.551
 1822SOL    HW1 6365   3.479   3.540   2.597
 1822SOL    HW2 6366   3.573   3.672   2.615
 1823SOL     OW 6367   3.559   6.564   2.630
 1823SOL    HW1 6368   3.549   6.643   2.689
 1823SOL    HW2 6369   3.519   6.583   2.540
 1824SOL     OW 6370   4.621   1.290   2.140
 1824SOL    HW1 6371   4.701   1.335   2.179
 1824SOL    HW2 6372   4.538   1.336   2.173
 1825SOL     OW 6373   0.369   0.021   1.066
 1825SOL    HW1 6374   0.430   0.083   1.116
 1825SOL    HW2 6375   0.410   6.954   1.063
 1826SOL     OW 6376   2.436   5.510   6.103
 1826SOL    HW1 6377   2.348   5.465   6.097
 1826SOL    HW2 6378   2.465   5.539   6.012
 1827SOL     OW 6379   5.487   0.512   0.713
 1827SOL    HW1 6380   5.393   0.535   0.739
 1827SOL    HW2 6381   5.521   0.437   0.770
 1828SOL     OW 6382   3.213   2.855   0.087
 1828SOL    HW1 6383   3.220   2.954   0.075
 1828SOL    HW2 6384   3.170   2.814   0.007
 1829SOL     OW 6385   5.563   5.485   2.749
 1829SOL    HW1 6386   5.587   5.398   2.793
 1829SOL    HW2 6387   5.558   5.557   2.818
 1830SOL     OW 6388   4.578   0.681   4.438
 1830SOL    HW1 6389   4.619   0.767   4.406
 1830SOL    HW2 6390   4.483   0.678   4.409
 1831SOL     OW 6391   4.663   0.821   2.796
 1831SOL    HW1 6392   4.602   0.841   2.719
 1831SOL    HW2 6393   4.756   0.807   2.762
 1832SOL     OW 6394   6.292   2.645   6.432
 1832SOL    HW1 6395   6.224   2.704   6.389
 1832SOL    HW2 6396   6.338   2.591   6.362
 1833SOL     OW 6397   5.797   1.976   6.121
 1833SOL    HW1 6398   5.782   2.069   6.090
 1833SOL    HW2 6399   5.887   1.945   6.091
 1834SOL     OW 6400   2.252   4.663   6.987
 1834SOL    HW1 6401   2.302   4.742   7.021
 1834SOL    HW2 6402   2.312   4.583   6.987
 1835SOL     OW 6403   2.102   4.680   0.195
 1835SOL    HW1 6404   2.088   4.590   0.236
 1835SOL    HW2 6405   2.151   4.670   0.108
 1836SOL     OW 6406   0.701   6.422   0.660
 1836SOL    HW1 6407   0.728   6.331   0.690
 1836SOL    HW2 6408   0.603   6.434   0.675
 1837SOL     OW 6409   6.787   3.414   4.332
 1837SOL    HW1 6410   6.809   3.511   4.345
 1837SOL    HW2 6411   6.864   3.358   4.362
 1838SOL     OW 6412   1.138   3.460   4.427
 1838SOL    HW1 6413   1.045   3.425   4.415
 1838SOL    HW2 6414   1.202   3.401   4.379
 1839SOL     OW 6415   1.868   1.678   6.768
 1839SOL    HW1 6416   1.908   1.664   6.678
 1839SOL    HW2 6417   1.876   1.593   6.821
 1840SOL     OW 6418   1.496   5.847   1.351
 1840SOL    HW1 6419   1.502   5.780   1.425
 1840SOL    HW2 6420   1.449   5.805   1.273
 1841SOL     OW 6421   2.126   2.525   3.896
 1841SOL    HW1 6422   2.191   2.500   3.824
 1841SOL    HW2 6423   2.175   2.570   3.971
 1842SOL     OW 6424   1.863   5.806   6.396
 1842SOL    HW1 6425   1.953   5.775   6.366
 1842SOL    HW2 6426   1.823   5.736   6.456
 1843SOL     OW 6427   5.320   1.947   5.671
 1843SOL    HW1 6428   5.412   1.952   5.633
 1843SOL    HW2 6429   5.253   1.941   5.597
 1844SOL     OW 6430   5.695   5.152   3.892
 1844SOL    HW1 6431   5.767   5.165   3.961
 1844SOL    HW2 6432   5.622   5.096   3.931
 1845SOL     OW 6433   5.640   6.277   1.142
 1845SOL    HW1 6434   5.602   6.346   1.203
 1845SOL    HW2 6435   5.568   6.210   1.120
 1846SOL     OW 6436   3.619   0.713   5.758
 1846SOL    HW1 6437   3.675   0.678   5.683
 1846SOL    HW2 6438   3.559   0.785   5.724
 1847SOL     OW 6439   1.275   5.795   6.340
 1847SOL    HW1 6440   1.192   5.832   6.299
 1847SOL    HW2 6441   1.355   5.840   6.300
 1848SOL     OW 6442   2.242   1.460   3.935
 1848SOL    HW1 6443   2.243   1.432   4.031
 1848SOL    HW2 6444   2.147   1.469   3.904
 1849SOL     OW 6445   3.016   1.205   5.279
 1849SOL    HW1 6446   2.953   1.211   5.355
 1849SOL    HW2 6447   3.071   1.122   5.288
 1850SOL     OW 6448   4.520   2.513   1.240
 1850SOL    HW1 6449   4.567   2.572   1.306
 1850SOL    HW2 6450   4.481   2.434   1.289
 1851SOL     OW 6451   6.469   4.568   2.827
 1851SOL    HW1 6452   6.407   4.612   2.762
 1851SOL    HW2 6453   6.416   4.532   2.904
 1852SOL     OW 6454   5.424   1.884   6.241
 1852SOL    HW1 6455   5.443   1.928   6.153
 1852SOL    HW2 6456   5.507   1.884   6.297
 1853SOL     OW 6457   1.636   5.131   0.220
 1853SOL    HW1 6458   1.736   5.137   0.210
 1853SOL    HW2 6459   1.614   5.072   0.298
 1854SOL     OW 6460   2.935   5.261   4.399
 1854SOL    HW1 6461   2.871   5.189   4.426
 1854SOL    HW2 6462   2.900   5.350   4.429
 1855SOL     OW 6463   6.384   4.505   1.728
 1855SOL    HW1 6464   6.285   4.497   1.722
 1855SOL    HW2 6465   6.427   4.445   1.659
 1856SOL     OW 6466   5.086   2.852   0.334
 1856SOL    HW1 6467   5.084   2.834   0.236
 1856SOL    HW2 6468   5.097   2.950   0.351
 1857SOL     OW 6469   5.528   1.950   3.762
 1857SOL    HW1 6470   5.435   1.960   3.798
 1857SOL    HW2 6471   5.572   1.872   3.806
 1858SOL     OW 6472   5.843   3.684   2.093
 1858SOL    HW1 6473   5.783   3.616   2.136
 1858SOL    HW2 6474   5.862   3.757   2.157
 1859SOL     OW 6475   6.031   2.263   4.278
 1859SOL    HW1 6476   6.086   2.306   4.206
 1859SOL    HW2 6477   5.954   2.322   4.300
 1860SOL     OW 6478   3.893   2.089   4.833
 1860SOL    HW1 6479   3.798   2.101   4.863
 1860SOL    HW2 6480   3.899   2.009   4.774
 1861SOL     OW 6481   4.615   7.012   1.718
 1861SOL    HW1 6482   4.589   6.973   1.806
 1861SOL    HW2 6483   4.676   6.949   1.670
 1862SOL     OW 6484   3.069   2.850   1.201
 1862SOL    HW1 6485   3.004   2.818   1.271
 1862SOL    HW2 6486   3.160   2.811   1.221
 1863SOL     OW 6487   1.762   1.621   1.440
 1863SOL    HW1 6488   1.770   1.721   1.440
 1863SOL    HW2 6489   1.853   1.580   1.438
 1864SOL     OW 6490   7.020   6.472   2.966
 1864SOL    HW1 6491   0.069   6.443   3.028
 1864SOL    HW2 6492   0.004   6.421   2.880
 1865SOL     OW 6493   5.951   3.127   0.029
 1865SOL    HW1 6494   5.933   3.034   0.060
 1865SOL    HW2 6495   6.031   3.127   6.993
 1866SOL     OW 6496   6.355   5.780   1.757
 1866SOL    HW1 6497   6.267   5.827   1.754
 1866SOL    HW2 6498   6.367   5.727   1.673
 1867SOL     OW 6499   1.657   4.044   6.651
 1867SOL    HW1 6500   1.569   4.052   6.605
 1867SOL    HW2 6501   1.649   4.078   6.745
 1868SOL     OW 6502   6.786   4.300   5.565
 1868SOL    HW1 6503   6.802   4.373   5.632
 1868SOL    HW2 6504   6.846   4.223   5.585
 1869SOL     OW 6505   5.794   1.397   4.956
 1869SOL    HW1 6506   5.727   1.326   4.934
 1869SOL    HW2 6507   5.877   1.383   4.902
 1870SOL     OW 6508   1.527   3.613   5.177
 1870SOL    HW1 6509   1.505   3.636   5.271
 1870SOL    HW2 6510   1.457   3.650   5.116
 1871SOL     OW 6511   1.961   1.494   0.794
 1871SOL    HW1 6512   1.896   1.568   0.781
 1871SOL    HW2 6513   1.974   1.445   0.708
 1872SOL     OW 6514   1.454   5.242   6.581
 1872SOL    HW1 6515   1.374   5.230   6.522
 1872SOL    HW2 6516   1.535   5.206   6.535
 1873SOL     OW 6517   5.804   6.287   6.105
 1873SOL    HW1 6518   5.821   6.297   6.007
 1873SOL    HW2 6519   5.873   6.337   6.156
 1874SOL     OW 6520   1.172   4.127   2.685
 1874SOL    HW1 6521   1.169   4.059   2.613
 1874SOL    HW2 6522   1.080   4.141   2.722
 1875SOL     OW 6523   0.244   0.184   2.404
 1875SOL    HW1 6524   0.248   0.281   2.426
 1875SOL    HW2 6525   0.186   0.170   2.324
 1876SOL     OW 6526   2.197   6.234   4.196
 1876SOL    HW1 6527   2.283   6.221   4.146
 1876SOL    HW2 6528   2.150   6.146   4.204
 1877SOL     OW 6529   0.184   0.370   4.557
 1877SOL    HW1 6530   0.129   0.443   4.517
 1877SOL    HW2 6531   0.264   0.353   4.500
 1878SOL     OW 6532   6.237   3.197   5.346
 1878SOL    HW1 6533   6.293   3.173   5.425
 1878SOL    HW2 6534   6.295   3.204   5.265
 1879SOL     OW 6535   2.058   5.627   5.188
 1879SOL    HW1 6536   1.968   5.666   5.169
 1879SOL    HW2 6537   2.052   5.527   5.185
 1880SOL     OW 6538   0.130   0.659   3.888
 1880SOL    HW1 6539   0.099   0.680   3.795
 1880SOL    HW2 6540   0.228   0.638   3.886
 1881SOL     OW 6541   0.705   2.233   6.866
 1881SOL    HW1 6542   0.700   2.134   6.867
 1881SOL    HW2 6543   0.671   2.268   6.779
 1882SOL     OW 6544   0.478   6.038   0.126
 1882SOL    HW1 6545   0.421   5.956   0.136
 1882SOL    HW2 6546   0.521   6.060   0.214
 1883SOL     OW 6547   7.006   2.686   4.266
 1883SOL    HW1 6548   0.046   2.705   4.193
 1883SOL    HW2 6549   6.960   2.599   4.249
 1884SOL     OW 6550   5.967   1.461   0.433
 1884SOL    HW1 6551   5.931   1.383   0.382
 1884SOL    HW2 6552   6.038   1.431   0.496
 1885SOL     OW 6553   3.482   1.363   4.753
 1885SOL    HW1 6554   3.384   1.350   4.736
 1885SOL    HW2 6555   3.509   1.456   4.725
 1886SOL     OW 6556   0.768   6.966   3.464
 1886SOL    HW1 6557   0.819   6.993   3.382
 1886SOL    HW2 6558   0.695   0.008   3.481
 1887SOL     OW 6559   2.244   5.153   6.482
 1887SOL    HW1 6560   2.267   5.119   6.391
 1887SOL    HW2 6561   2.273   5.086   6.551
 1888SOL     OW 6562   2.061   0.012   3.585
 1888SOL    HW1 6563   2.067   0.010   3.485
 1888SOL    HW2 6564   2.123   6.967   3.623
 1889SOL     OW 6565   0.512   3.739   2.825
 1889SOL    HW1 6566   0.600   3.695   2.809
 1889SOL    HW2 6567   0.462   3.747   2.739
 1890SOL     OW 6568   2.286   5.526   4.665
 1890SOL    HW1 6569   2.235   5.479   4.737
 1890SOL    HW2 6570   2.263   5.487   4.576
 1891SOL     OW 6571   3.878   3.600   4.647
 1891SOL    HW1 6572   3.884   3.604   4.747
 1891SOL    HW2 6573   3.970   3.604   4.607
 1892SOL     OW 6574   6.532   0.757   2.726
 1892SOL    HW1 6575   6.628   0.782   2.713
 1892SOL    HW2 6576   6.486   0.752   2.637
 1893SOL     OW 6577   3.361   3.614   3.542
 1893SOL    HW1 6578   3.331   3.522   3.566
 1893SOL    HW2 6579   3.395   3.660   3.623
 1894SOL     OW 6580   2.597   2.683   5.805
 1894SOL    HW1 6581   2.602   2.727   5.716
 1894SOL    HW2 6582   2.668   2.720   5.865
 1895SOL     OW 6583   0.945   6.267   1.605
 1895SOL    HW1 6584   0.937   6.233   1.699
 1895SOL    HW2 6585   1.024   6.223   1.561
 1896SOL     OW 6586   6.498   2.701   0.911
 1896SOL    HW1 6587   6.533   2.688   1.003
 1896SOL    HW2 6588   6.547   2.642   0.847
 1897SOL     OW 6589   2.656   4.577   3.151
 1897SOL    HW1 6590   2.736   4.635   3.139
 1897SOL    HW2 6591   2.652   4.543   3.245
 1898SOL     OW 6592   1.547   5.946   2.017
 1898SOL    HW1 6593   1.464   5.891   2.008
 1898SOL    HW2 6594   1.561   6.000   1.935
 1899SOL     OW 6595   0.016   0.724   2.167
 1899SOL    HW1 6596   0.059   0.655   2.109
 1899SOL    HW2 6597   6.941   0.715   2.161
 1900SOL     OW 6598   3.040   5.901   6.105
 1900SOL    HW1 6599   2.985   5.860   6.178
 1900SOL    HW2 6600   3.125   5.849   6.095
 1901SOL     OW 6601   3.865   2.949   2.605
 1901SOL    HW1 6602   3.915   2.983   2.525
 1901SOL    HW2 6603   3.786   2.896   2.574
 1902SOL     OW 6604   1.372   6.911   5.310
 1902SOL    HW1 6605   1.429   6.985   5.275
 1902SOL    HW2 6606   1.411   6.876   5.395
 1903SOL     OW 6607   0.209   2.534   4.478
 1903SOL    HW1 6608   0.167   2.579   4.400
 1903SOL    HW2 6609   0.139   2.487   4.531
 1904SOL     OW 6610   5.777   6.159   2.248
 1904SOL    HW1 6611   5.777   6.124   2.155
 1904SOL    HW2 6612   5.776   6.083   2.313
 1905SOL     OW 6613   0.464   2.606   2.967
 1905SOL    HW1 6614   0.538   2.663   3.004
 1905SOL    HW2 6615   0.414   2.657   2.897
 1906SOL     OW 6616   0.620   6.185   3.453
 1906SOL    HW1 6617   0.593   6.280   3.441
 1906SOL    HW2 6618   0.630   6.164   3.550
 1907SOL     OW 6619   6.660   2.896   0.620
 1907SOL    HW1 6620   6.605   2.977   0.596
 1907SOL    HW2 6621   6.692   2.905   0.715
 1908SOL     OW 6622   4.636   0.561   1.550
 1908SOL    HW1 6623   4.687   0.493   1.602
 1908SOL    HW2 6624   4.600   0.520   1.467
 1909SOL     OW 6625   6.367   5.753   4.904
 1909SOL    HW1 6626   6.278   5.709   4.916
 1909SOL    HW2 6627   6.404   5.729   4.814
 1910SOL     OW 6628   0.330   6.550   4.477
 1910SOL    HW1 6629   0.347   6.649   4.474
 1910SOL    HW2 6630   0.409   6.504   4.518
 1911SOL     OW 6631   5.533   6.199   4.252
 1911SOL    HW1 6632   5.600   6.259   4.209
 1911SOL    HW2 6633   5.567   6.169   4.341
 1912SOL     OW 6634   3.758   4.906   2.400
 1912SOL    HW1 6635   3.846   4.950   2.382
 1912SOL    HW2 6636   3.749   4.892   2.499
 1913SOL     OW 6637   2.903   4.655   6.970
 1913SOL    HW1 6638   2.889   4.658   6.871
 1913SOL    HW2 6639   2.954   4.573   6.994
 1914SOL     OW 6640   4.313   4.833   0.390
 1914SOL    HW1 6641   4.351   4.789   0.308
 1914SOL    HW2 6642   4.227   4.878   0.365
 1915SOL     OW 6643   4.456   1.505   6.835
 1915SOL    HW1 6644   4.375   1.519   6.892
 1915SOL    HW2 6645   4.431   1.508   6.739
 1916SOL     OW 6646   3.523   1.383   3.015
 1916SOL    HW1 6647   3.540   1.287   3.036
 1916SOL    HW2 6648   3.435   1.411   3.054
 1917SOL     OW 6649   2.763   4.081   1.686
 1917SOL    HW1 6650   2.807   3.992   1.691
 1917SOL    HW2 6651   2.680   4.074   1.631
 1918SOL     OW 6652   4.893   3.584   4.091
 1918SOL    HW1 6653   4.911   3.674   4.052
 1918SOL    HW2 6654   4.864   3.521   4.019
 1919SOL     OW 6655   6.301   0.452   6.681
 1919SOL    HW1 6656   6.382   0.451   6.622
 1919SOL    HW2 6657   6.220   0.474   6.626
 1920SOL     OW 6658   4.659   3.252   0.592
 1920SOL    HW1 6659   4.617   3.222   0.677
 1920SOL    HW2 6660   4.678   3.173   0.534
 1921SOL     OW 6661   2.616   1.916   6.874
 1921SOL    HW1 6662   2.526   1.938   6.836
 1921SOL    HW2 6663   2.605   1.871   6.962
 1922SOL     OW 6664   3.795   3.827   4.410
 1922SOL    HW1 6665   3.885   3.784   4.424
 1922SOL    HW2 6666   3.732   3.793   4.479
 1923SOL     OW 6667   3.121   0.184   4.301
 1923SOL    HW1 6668   3.086   0.248   4.232
 1923SOL    HW2 6669   3.137   0.095   4.259
 1924SOL     OW 6670   4.878   1.310   1.187
 1924SOL    HW1 6671   4.877   1.268   1.278
 1924SOL    HW2 6672   4.819   1.258   1.125
 1925SOL     OW 6673   1.120   4.050   0.702
 1925SOL    HW1 6674   1.076   3.971   0.746
 1925SOL    HW2 6675   1.205   4.071   0.750
 1926SOL     OW 6676   2.685   6.673   1.655
 1926SOL    HW1 6677   2.711   6.608   1.727
 1926SOL    HW2 6678   2.758   6.680   1.587
 1927SOL     OW 6679   2.084   4.858   1.421
 1927SOL    HW1 6680   2.060   4.953   1.399
 1927SOL    HW2 6681   2.141   4.821   1.348
 1928SOL     OW 6682   1.363   4.051   2.447
 1928SOL    HW1 6683   1.309   3.972   2.417
 1928SOL    HW2 6684   1.389   4.105   2.367
 1929SOL     OW 6685   3.178   0.587   3.535
 1929SOL    HW1 6686   3.134   0.648   3.602
 1929SOL    HW2 6687   3.113   0.567   3.462
 1930SOL     OW 6688   3.180   3.873   0.148
 1930SOL    HW1 6689   3.185   3.890   0.246
 1930SOL    HW2 6690   3.166   3.775   0.131
 1931SOL     OW 6691   5.660   3.426   3.333
 1931SOL    HW1 6692   5.699   3.394   3.247
 1931SOL    HW2 6693   5.734   3.450   3.396
 1932SOL     OW 6694   4.564   1.221   1.892
 1932SOL    HW1 6695   4.588   1.259   1.981
 1932SOL    HW2 6696   4.477   1.258   1.862
 1933SOL     OW 6697   1.776   1.220   0.522
 1933SOL    HW1 6698   1.750   1.268   0.606
 1933SOL    HW2 6699   1.694   1.203   0.467
 1934SOL     OW 6700   6.596   0.680   0.236
 1934SOL    HW1 6701   6.566   0.691   0.141
 1934SOL    HW2 6702   6.651   0.759   0.263
 1935SOL     OW 6703   5.314   5.503   3.342
 1935SOL    HW1 6704   5.268   5.586   3.311
 1935SOL    HW2 6705   5.389   5.527   3.404
 1936SOL     OW 6706   6.060   2.771   6.313
 1936SOL    HW1 6707   5.970   2.731   6.334
 1936SOL    HW2 6708   6.067   2.860   6.359
 1937SOL     OW 6709   1.018   5.588   6.910
 1937SOL    HW1 6710   1.108   5.623   6.933
 1937SOL    HW2 6711   0.974   5.648   6.843
 1938SOL     OW 6712   6.661   0.933   6.679
 1938SOL    HW1 6713   6.639   1.011   6.737
 1938SOL    HW2 6714   6.677   0.965   6.586
 1939SOL     OW 6715   0.369   0.746   4.240
 1939SOL    HW1 6716   0.369   0.788   4.149
 1939SOL    HW2 6717   0.444   0.681   4.246
 1940SOL     OW 6718   1.066   5.502   2.511
 1940SOL    HW1 6719   1.057   5.602   2.508
 1940SOL    HW2 6720   1.125   5.476   2.588
 1941SOL     OW 6721   6.436   0.979   3.958
 1941SOL    HW1 6722   6.444   1.037   3.876
 1941SOL    HW2 6723   6.453   0.884   3.933
 1942SOL     OW 6724   1.237   6.539   1.403
 1942SOL    HW1 6725   1.174   6.481   1.352
 1942SOL    HW2 6726   1.234   6.632   1.367
 1943SOL     OW 6727   1.058   4.137   3.384
 1943SOL    HW1 6728   1.130   4.203   3.362
 1943SOL    HW2 6729   1.065   4.058   3.322
 1944SOL     OW 6730   0.052   3.818   3.925
 1944SOL    HW1 6731   0.063   3.891   3.992
 1944SOL    HW2 6732   7.020   3.745   3.965
 1945SOL     OW 6733   4.652   1.848   2.221
 1945SOL    HW1 6734   4.745   1.823   2.191
 1945SOL    HW2 6735   4.637   1.946   2.203
 1946SOL     OW 6736   6.464   4.690   6.585
 1946SOL    HW1 6737   6.439   4.599   6.553
 1946SOL    HW2 6738   6.382   4.738   6.617
 1947SOL     OW 6739   5.360   6.263   2.456
 1947SOL    HW1 6740   5.431   6.230   2.519
 1947SOL    HW2 6741   5.372   6.220   2.367
 1948SOL     OW 6742   4.954   2.755   2.646
 1948SOL    HW1 6743   4.881   2.788   2.587
 1948SOL    HW2 6744   5.043   2.777   2.605
 1949SOL     OW 6745   3.063   4.507   6.347
 1949SOL    HW1 6746   3.017   4.431   6.300
 1949SOL    HW2 6747   3.080   4.482   6.442
 1950SOL     OW 6748   3.828   3.077   4.488
 1950SOL    HW1 6749   3.821   3.093   4.389
 1950SOL    HW2 6750   3.763   3.006   4.515
 1951SOL     OW 6751   1.130   5.288   6.177
 1951SOL    HW1 6752   1.035   5.282   6.146
 1951SOL    HW2 6753   1.177   5.360   6.126
 1952SOL     OW 6754   5.763   3.891   7.001
 1952SOL    HW1 6755   5.835   3.845   6.950
 1952SOL    HW2 6756   5.706   3.945   6.938
 1953SOL     OW 6757   7.000   1.061   6.312
 1953SOL    HW1 6758   0.036   1.015   6.246
 1953SOL    HW2 6759   0.028   1.083   6.394
 1954SOL     OW 6760   4.113   6.555   3.003
 1954SOL    HW1 6761   4.192   6.493   3.002
 1954SOL    HW2 6762   4.135   6.635   3.059
 1955SOL     OW 6763   0.519   3.512   3.924
 1955SOL    HW1 6764   0.595   3.577   3.931
 1955SOL    HW2 6765   0.551   3.428   3.879
 1956SOL     OW 6766   4.534   1.265   1.373
 1956SOL    HW1 6767   4.534   1.349   1.428
 1956SOL    HW2 6768   4.506   1.287   1.279
 1957SOL     OW 6769   0.685   3.501   4.495
 1957SOL    HW1 6770   0.753   3.431   4.473
 1957SOL    HW2 6771   0.719   3.558   4.570
 1958SOL     OW 6772   5.516   1.572   0.604
 1958SOL    HW1 6773   5.534   1.488   0.552
 1958SOL    HW2 6774   5.494   1.646   0.541
 1959SOL     OW 6775   1.988   1.275   6.294
 1959SOL    HW1 6776   1.910   1.286   6.356
 1959SOL    HW2 6777   1.992   1.180   6.263
 1960SOL     OW 6778   4.769   4.155   2.263
 1960SOL    HW1 6779   4.800   4.087   2.196
 1960SOL    HW2 6780   4.678   4.188   2.237
 1961SOL     OW 6781   6.494   3.722   4.406
 1961SOL    HW1 6782   6.510   3.645   4.467
 1961SOL    HW2 6783   6.544   3.802   4.439
 1962SOL     OW 6784   0.489   0.022   2.423
 1962SOL    HW1 6785   0.393   0.034   2.398
 1962SOL    HW2 6786   0.532   6.983   2.359
 1963SOL     OW 6787   0.742   1.087   6.387
 1963SOL    HW1 6788   0.791   1.141   6.455
 1963SOL    HW2 6789   0.668   1.141   6.348
 1964SOL     OW 6790   5.457   3.065   0.994
 1964SOL    HW1 6791   5.365   3.079   0.957
 1964SOL    HW2 6792   5.514   3.019   0.926
 1965SOL     OW 6793   5.849   5.211   5.145
 1965SOL    HW1 6794   5.917   5.192   5.075
 1965SOL    HW2 6795   5.780   5.138   5.145
 1966SOL     OW 6796   1.540   4.845   6.933
 1966SOL    HW1 6797   1.625   4.883   6.967
 1966SOL    HW2 6798   1.493   4.912   6.875
 1967SOL     OW 6799   6.041   2.941   3.888
 1967SOL    HW1 6800   6.126   2.909   3.846
 1967SOL    HW2 6801   6.028   2.896   3.976
 1968SOL     OW 6802   2.742   1.750   5.526
 1968SOL    HW1 6803   2.686   1.781   5.603
 1968SOL    HW2 6804   2.792   1.828   5.488
 1969SOL     OW 6805   0.482   6.402   2.015
 1969SOL    HW1 6806   0.550   6.455   2.066
 1969SOL    HW2 6807   0.523   6.317   1.984
 1970SOL     OW 6808   5.329   4.214   2.354
 1970SOL    HW1 6809   5.331   4.314   2.354
 1970SOL    HW2 6810   5.408   4.178   2.305
 1971SOL     OW 6811   1.284   6.017   4.583
 1971SOL    HW1 6812   1.226   6.083   4.630
 1971SOL    HW2 6813   1.233   5.973   4.510
 1972SOL     OW 6814   5.281   2.265   3.710
 1972SOL    HW1 6815   5.304   2.208   3.631
 1972SOL    HW2 6816   5.325   2.354   3.702
 1973SOL     OW 6817   4.953   2.439   6.944
 1973SOL    HW1 6818   4.954   2.462   0.017
 1973SOL    HW2 6819   4.866   2.468   6.905
 1974SOL     OW 6820   2.365   6.144   4.422
 1974SOL    HW1 6821   2.371   6.197   4.507
 1974SOL    HW2 6822   2.303   6.190   4.359
 1975SOL     OW 6823   1.581   2.012   2.313
 1975SOL    HW1 6824   1.579   2.112   2.321
 1975SOL    HW2 6825   1.645   1.975   2.380
 1976SOL     OW 6826   2.542   0.404   4.792
 1976SOL    HW1 6827   2.638   0.432   4.798
 1976SOL    HW2 6828   2.519   0.347   4.871
 1977SOL     OW 6829   1.253   4.329   0.622
 1977SOL    HW1 6830   1.240   4.405   0.559
 1977SOL    HW2 6831   1.178   4.325   0.688
 1978SOL     OW 6832   2.787   0.809   2.171
 1978SOL    HW1 6833   2.695   0.850   2.174
 1978SOL    HW2 6834   2.781   0.718   2.131
 1979SOL     OW 6835   5.436   2.640   6.846
 1979SOL    HW1 6836   5.368   2.713   6.842
 1979SOL    HW2 6837   5.518   2.674   6.892
 1980SOL     OW 6838   4.425   6.866   0.966
 1980SOL    HW1 6839   4.490   6.819   1.025
 1980SOL    HW2 6840   4.474   6.911   0.891
 1981SOL     OW 6841   4.364   2.684   1.697
 1981SOL    HW1 6842   4.443   2.741   1.721
 1981SOL    HW2 6843   4.381   2.590   1.725
 1982SOL     OW 6844   2.935   1.851   6.341
 1982SOL    HW1 6845   2.865   1.921   6.360
 1982SOL    HW2 6846   3.012   1.894   6.293
 1983SOL     OW 6847   0.057   2.132   0.348
 1983SOL    HW1 6848   0.010   2.046   0.369
 1983SOL    HW2 6849   0.028   2.202   0.413
 1984SOL     OW 6850   4.701   3.470   6.068
 1984SOL    HW1 6851   4.720   3.565   6.090
 1984SOL    HW2 6852   4.650   3.427   6.143
 1985SOL     OW 6853   4.972   5.597   5.232
 1985SOL    HW1 6854   4.945   5.572   5.139
 1985SOL    HW2 6855   4.896   5.578   5.295
 1986SOL     OW 6856   3.401   3.287   3.307
 1986SOL    HW1 6857   3.451   3.308   3.224
 1986SOL    HW2 6858   3.434   3.201   3.345
 1987SOL     OW 6859   1.429   2.347   1.787
 1987SOL    HW1 6860   1.416   2.391   1.697
 1987SOL    HW2 6861   1.345   2.357   1.841
 1988SOL     OW 6862   0.954   1.089   1.944
 1988SOL    HW1 6863   0.999   1.139   1.870
 1988SOL    HW2 6864   0.860   1.121   1.952
 1989SOL     OW 6865   3.165   4.982   3.346
 1989SOL    HW1 6866   3.248   4.948   3.389
 1989SOL    HW2 6867   3.188   5.055   3.281
 1990SOL     OW 6868   4.839   0.314   0.424
 1990SOL    HW1 6869   4.741   0.317   0.443
 1990SOL    HW2 6870   4.873   0.220   0.436
 1991SOL     OW 6871   3.120   5.200   2.371
 1991SOL    HW1 6872   3.174   5.209   2.455
 1991SOL    HW2 6873   3.088   5.290   2.341
 1992SOL     OW 6874   0.614   0.851   3.101
 1992SOL    HW1 6875   0.538   0.819   3.158
 1992SOL    HW2 6876   0.578   0.909   3.028
 1993SOL     OW 6877   1.579   0.970   0.798
 1993SOL    HW1 6878   1.582   1.051   0.739
 1993SOL    HW2 6879   1.484   0.947   0.819
 1994SOL     OW 6880   2.877   3.396   1.991
 1994SOL    HW1 6881   2.869   3.379   2.089
 1994SOL    HW2 6882   2.973   3.404   1.966
 1995SOL     OW 6883   6.406   0.759   4.195
 1995SOL    HW1 6884   6.328   0.711   4.154
 1995SOL    HW2 6885   6.388   0.858   4.195
 1996SOL     OW 6886   4.660   0.301   0.943
 1996SOL    HW1 6887   4.660   0.369   1.016
 1996SOL    HW2 6888   4.733   0.235   0.959
 1997SOL     OW 6889   2.820   2.005   2.701
 1997SOL    HW1 6890   2.914   1.983   2.729
 1997SOL    HW2 6891   2.755   1.952   2.755
 1998SOL     OW 6892   2.202   3.480   0.831
 1998SOL    HW1 6893   2.140   3.500   0.907
 1998SOL    HW2 6894   2.271   3.552   0.825
 1999SOL     OW 6895   0.486   0.174   5.267
 1999SOL    HW1 6896   0.502   0.098   5.204
 1999SOL    HW2 6897   0.495   0.141   5.361
 2000SOL     OW 6898   4.022   4.051   6.441
 2000SOL    HW1 6899   4.027   4.146   6.410
 2000SOL    HW2 6900   3.926   4.025   6.453
 2001SOL     OW 6901   1.015   1.021   0.407
 2001SOL    HW1 6902   1.004   0.993   0.311
 2001SOL    HW2 6903   0.941   1.084   0.432
 2002SOL     OW 6904   5.400   5.335   6.950
 2002SOL    HW1 6905   5.372   5.306   6.858
 2002SOL    HW2 6906   5.378   5.263   7.016
 2003SOL     OW 6907   0.203   5.510   1.965
 2003SOL    HW1 6908   0.174   5.592   1.916
 2003SOL    HW2 6909   0.146   5.498   2.046
 2004SOL     OW 6910   3.404   0.884   2.851
 2004SOL    HW1 6911   3.356   0.920   2.931
 2004SOL    HW2 6912   3.374   0.934   2.769
 2005SOL     OW 6913   1.325   6.507   0.068
 2005SOL    HW1 6914   1.345   6.412   0.043
 2005SOL    HW2 6915   1.411   6.555   0.088
 2006SOL     OW 6916   6.291   0.478   2.140
 2006SOL    HW1 6917   6.311   0.412   2.211
 2006SOL    HW2 6918   6.374   0.527   2.115
 2007SOL     OW 6919   5.301   4.885   5.694
 2007SOL    HW1 6920   5.315   4.982   5.711
 2007SOL    HW2 6921   5.227   4.873   5.628
 2008SOL     OW 6922   1.609   2.362   2.985
 2008SOL    HW1 6923   1.543   2.438   2.988
 2008SOL    HW2 6924   1.669   2.374   2.906
 2009SOL     OW 6925   6.027   0.122   3.639
 2009SOL    HW1 6926   5.977   0.093   3.721
 2009SOL    HW2 6927   5.962   0.153   3.570
 2010SOL     OW 6928   6.387   1.048   1.530
 2010SOL    HW1 6929   6.317   1.113   1.560
 2010SOL    HW2 6930   6.478   1.083   1.553
 2011SOL     OW 6931   0.668   0.395   5.293
 2011SOL    HW1 6932   0.661   0.430   5.387
 2011SOL    HW2 6933   0.603   0.321   5.280
 2012SOL     OW 6934   0.485   2.605   0.509
 2012SOL    HW1 6935   0.573   2.632   0.469
 2012SOL    HW2 6936   0.498   2.576   0.603
 2013SOL     OW 6937   0.486   2.341   2.193
 2013SOL    HW1 6938   0.532   2.368   2.278
 2013SOL    HW2 6939   0.415   2.408   2.170
 2014SOL     OW 6940   4.341   2.216   3.070
 2014SOL    HW1 6941   4.356   2.228   3.168
 2014SOL    HW2 6942   4.332   2.119   3.049
 2015SOL     OW 6943   4.052   5.898   1.157
 2015SOL    HW1 6944   3.984   5.833   1.191
 2015SOL    HW2 6945   4.093   5.863   1.073
 2016SOL     OW 6946   2.567   0.570   4.240
 2016SOL    HW1 6947   2.483   0.623   4.251
 2016SOL    HW2 6948   2.607   0.552   4.329
 2017SOL     OW 6949   1.042   6.955   4.508
 2017SOL    HW1 6950   1.134   6.919   4.529
 2017SOL    HW2 6951   0.995   6.979   4.593
 2018SOL     OW 6952   0.684   1.558   4.933
 2018SOL    HW1 6953   0.700   1.481   4.871
 2018SOL    HW2 6954   0.679   1.643   4.880
 2019SOL     OW 6955   0.937   4.741   0.321
 2019SOL    HW1 6956   0.863   4.676   0.338
 2019SOL    HW2 6957   0.908   4.807   0.251
 2020SOL     OW 6958   2.341   6.898   1.475
 2020SOL    HW1 6959   2.295   6.987   1.474
 2020SOL    HW2 6960   2.287   6.832   1.422
 2021SOL     OW 6961   6.853   5.196   3.747
 2021SOL    HW1 6962   6.795   5.119   3.717
 2021SOL    HW2 6963   6.913   5.165   3.821
 2022SOL     OW 6964   1.869   3.375   4.122
 2022SOL    HW1 6965   1.962   3.351   4.150
 2022SOL    HW2 6966   1.804   3.323   4.176
 2023SOL     OW 6967   1.399   5.587   6.006
 2023SOL    HW1 6968   1.362   5.679   5.990
 2023SOL    HW2 6969   1.356   5.548   6.087
 2024SOL     OW 6970   6.217   5.347   3.168
 2024SOL    HW1 6971   6.173   5.288   3.100
 2024SOL    HW2 6972   6.227   5.297   3.254
 2025SOL     OW 6973   2.096   0.408   5.044
 2025SOL    HW1 6974   2.052   0.411   4.954
 2025SOL    HW2 6975   2.127   0.315   5.062
 2026SOL     OW 6976   1.830   6.456   5.676
 2026SOL    HW1 6977   1.872   6.465   5.586
 2026SOL    HW2 6978   1.890   6.497   5.745
 2027SOL     OW 6979   5.560   6.725   3.021
 2027SOL    HW1 6980   5.489   6.676   2.971
 2027SOL    HW2 6981   5.650   6.688   2.997
 2028SOL     OW 6982   2.498   5.966   4.768
 2028SOL    HW1 6983   2.502   6.014   4.855
 2028SOL    HW2 6984   2.506   6.031   4.693
 2029SOL     OW 6985   6.847   1.701   6.732
 2029SOL    HW1 6986   6.777   1.768   6.707
 2029SOL    HW2 6987   6.937   1.740   6.715
 2030SOL     OW 6988   1.226   6.453   2.804
 2030SOL    HW1 6989   1.313   6.402   2.803
 2030SOL    HW2 6990   1.179   6.439   2.717
 2031SOL     OW 6991   6.993   1.140   3.939
 2031SOL    HW1 6992   6.948   1.065   3.889
 2031SOL    HW2 6993   0.057   1.109   3.972
 2032SOL     OW 6994   2.825   2.803   6.104
 2032SOL    HW1 6995   2.752   2.813   6.172
 2032SOL    HW2 6996   2.912   2.832   6.144
 2033SOL     OW 6997   3.465   6.844   1.311
 2033SOL    HW1 6998   3.548   6.893   1.285
 2033SOL    HW2 6999   3.406   6.834   1.231
 2034SOL     OW 7000   0.692   3.784   5.315
 2034SOL    HW1 7001   0.666   3.879   5.303
 2034SOL    HW2 7002   0.781   3.767   5.275
 2035SOL     OW 7003   4.698   6.440   2.814
 2035SOL    HW1 7004   4.634   6.457   2.888
 2035SOL    HW2 7005   4.660   6.370   2.752
 2036SOL     OW 7006   6.916   4.072   5.652
 2036SOL    HW1 7007   6.968   4.111   5.728
 2036SOL    HW2 7008   6.885   3.980   5.677
 2037SOL     OW 7009   0.779   2.461   6.557
 2037SOL    HW1 7010   0.864   2.410   6.546
 2037SOL    HW2 7011   0.736   2.436   6.644
 2038SOL     OW 7012   2.510   0.839   6.044
 2038SOL    HW1 7013   2.589   0.870   5.992
 2038SOL    HW2 7014   2.439   0.909   6.042
 2039SOL     OW 7015   4.990   6.087   4.184
 2039SOL    HW1 7016   4.900   6.095   4.226
 2039SOL    HW2 7017   5.060   6.079   4.255
 2040SOL     OW 7018   2.987   1.632   1.055
 2040SOL    HW1 7019   2.944   1.546   1.028
 2040SOL    HW2 7020   3.057   1.613   1.124
 2041SOL     OW 7021   2.419   7.022   6.571
 2041SOL    HW1 7022   2.416   0.021   6.668
 2041SOL    HW2 7023   2.512   6.995   6.546
 2042SOL     OW 7024   7.010   0.190   5.518
 2042SOL    HW1 7025   7.016   0.219   5.422
 2042SOL    HW2 7026   0.002   0.269   5.577
 2043SOL     OW 7027   1.599   2.927   0.853
 2043SOL    HW1 7028   1.590   2.999   0.784
 2043SOL    HW2 7029   1.695   2.912   0.873
 2044SOL     OW 7030   3.057   1.235   2.007
 2044SOL    HW1 7031   3.000   1.157   2.032
 2044SOL    HW2 7032   3.086   1.227   1.912
 2045SOL     OW 7033   1.631   6.333   3.782
 2045SOL    HW1 7034   1.580   6.282   3.713
 2045SOL    HW2 7035   1.729   6.328   3.762
 2046SOL     OW 7036   6.952   2.214   5.519
 2046SOL    HW1 7037   6.949   2.148   5.594
 2046SOL    HW2 7038   6.934   2.306   5.555
 2047SOL     OW 7039   6.611   0.165   2.094
 2047SOL    HW1 7040   6.562   0.217   2.163
 2047SOL    HW2 7041   6.547   0.109   2.042
 2048SOL     OW 7042   1.958   1.040   3.580
 2048SOL    HW1 7043   1.987   1.057   3.674
 2048SOL    HW2 7044   1.883   0.974   3.579
 2049SOL     OW 7045   4.608   2.503   5.084
 2049SOL    HW1 7046   4.601   2.600   5.107
 2049SOL    HW2 7047   4.694   2.466   5.119
 2050SOL     OW 7048   6.639   1.230   2.864
 2050SOL    HW1 7049   6.602   1.222   2.772
 2050SOL    HW2 7050   6.722   1.174   2.872
 2051SOL     OW 7051   3.811   6.898   6.432
 2051SOL    HW1 7052   3.724   6.928   6.393
 2051SOL    HW2 7053   3.821   6.799   6.420
 2052SOL     OW 7054   0.586   4.227   0.953
 2052SOL    HW1 7055   0.556   4.289   1.026
 2052SOL    HW2 7056   0.602   4.280   0.869
 2053SOL     OW 7057   4.768   4.881   1.614
 2053SOL    HW1 7058   4.774   4.844   1.707
 2053SOL    HW2 7059   4.857   4.918   1.587
 2054SOL     OW 7060   3.184   3.625   3.955
 2054SOL    HW1 7061   3.176   3.703   3.891
 2054SOL    HW2 7062   3.097   3.611   4.002
 2055SOL     OW 7063   2.744   3.043   5.611
 2055SOL    HW1 7064   2.715   3.137   5.592
 2055SOL    HW2 7065   2.732   3.023   5.708
 2056SOL     OW 7066   3.101   5.488   1.097
 2056SOL    HW1 7067   3.056   5.436   1.025
 2056SOL    HW2 7068   3.169   5.431   1.142
 2057SOL     OW 7069   6.153   3.208   4.557
 2057SOL    HW1 7070   6.224   3.199   4.488
 2057SOL    HW2 7071   6.089   3.132   4.549
 2058SOL     OW 7072   5.144   1.431   3.154
 2058SOL    HW1 7073   5.210   1.492   3.109
 2058SOL    HW2 7074   5.177   1.337   3.147
 2059SOL     OW 7075   2.574   1.831   5.753
 2059SOL    HW1 7076   2.563   1.930   5.746
 2059SOL    HW2 7077   2.626   1.810   5.836
 2060SOL     OW 7078   1.413   2.321   5.791
 2060SOL    HW1 7079   1.433   2.290   5.884
 2060SOL    HW2 7080   1.475   2.395   5.767
 2061SOL     OW 7081   2.830   2.277   3.271
 2061SOL    HW1 7082   2.795   2.189   3.238
 2061SOL    HW2 7083   2.929   2.272   3.281
 2062SOL     OW 7084   4.502   4.904   4.177
 2062SOL    HW1 7085   4.412   4.860   4.184
 2062SOL    HW2 7086   4.573   4.834   4.168
 2063SOL     OW 7087   1.320   1.416   4.244
 2063SOL    HW1 7088   1.238   1.395   4.190
 2063SOL    HW2 7089   1.381   1.474   4.190
 2064SOL     OW 7090   0.617   3.951   4.654
 2064SOL    HW1 7091   0.549   4.022   4.639
 2064SOL    HW2 7092   0.708   3.991   4.660
 2065SOL     OW 7093   3.011   3.087   5.498
 2065SOL    HW1 7094   2.999   3.120   5.405
 2065SOL    HW2 7095   2.922   3.067   5.539
 2066SOL     OW 7096   2.637   2.342   4.826
 2066SOL    HW1 7097   2.686   2.369   4.743
 2066SOL    HW2 7098   2.544   2.313   4.802
 2067SOL     OW 7099   5.716   4.754   3.053
 2067SOL    HW1 7100   5.790   4.807   3.011
 2067SOL    HW2 7101   5.690   4.796   3.140
 2068SOL     OW 7102   2.565   6.876   4.090
 2068SOL    HW1 7103   2.503   6.951   4.065
 2068SOL    HW2 7104   2.605   6.838   4.007
 2069SOL     OW 7105   5.186   1.619   2.842
 2069SOL    HW1 7106   5.234   1.630   2.929
 2069SOL    HW2 7107   5.208   1.696   2.782
 2070SOL     OW 7108   0.544   5.888   1.958
 2070SOL    HW1 7109   0.456   5.865   1.917
 2070SOL    HW2 7110   0.530   5.914   2.054
 2071SOL     OW 7111   6.853   2.629   3.681
 2071SOL    HW1 7112   6.925   2.604   3.616
 2071SOL    HW2 7113   6.843   2.557   3.749
 2072SOL     OW 7114   5.115   2.890   6.271
 2072SOL    HW1 7115   5.039   2.843   6.226
 2072SOL    HW2 7116   5.190   2.826   6.287
 2073SOL     OW 7117   3.058   5.812   6.384
 2073SOL    HW1 7118   3.079   5.745   6.312
 2073SOL    HW2 7119   3.143   5.854   6.415
 2074SOL     OW 7120   3.471   4.438   5.563
 2074SOL    HW1 7121   3.490   4.481   5.651
 2074SOL    HW2 7122   3.381   4.395   5.566
 2075SOL     OW 7123   4.859   0.877   1.149
 2075SOL    HW1 7124   4.918   0.824   1.210
 2075SOL    HW2 7125   4.796   0.931   1.204
 2076SOL     OW 7126   6.328   0.294   3.048
 2076SOL    HW1 7127   6.425   0.283   3.067
 2076SOL    HW2 7128   6.307   0.256   2.958
 2077SOL     OW 7129   0.813   4.420   1.551
 2077SOL    HW1 7130   0.735   4.424   1.613
 2077SOL    HW2 7131   0.780   4.403   1.458
 2078SOL     OW 7132   0.306   2.826   0.614
 2078SOL    HW1 7133   0.378   2.894   0.630
 2078SOL    HW2 7134   0.345   2.747   0.567
 2079SOL     OW 7135   4.758   1.697   3.960
 2079SOL    HW1 7136   4.744   1.638   3.880
 2079SOL    HW2 7137   4.727   1.790   3.938
 2080SOL     OW 7138   2.412   2.767   4.173
 2080SOL    HW1 7139   2.321   2.765   4.215
 2080SOL    HW2 7140   2.407   2.725   4.082
 2081SOL     OW 7141   0.288   6.183   2.770
 2081SOL    HW1 7142   0.245   6.093   2.781
 2081SOL    HW2 7143   0.375   6.183   2.819
 2082SOL     OW 7144   6.428   6.513   3.892
 2082SOL    HW1 7145   6.416   6.524   3.793
 2082SOL    HW2 7146   6.519   6.476   3.910
 2083SOL     OW 7147   1.152   5.813   2.754
 2083SOL    HW1 7148   1.146   5.812   2.654
 2083SOL    HW2 7149   1.095   5.888   2.790
 2084SOL     OW 7150   6.256   2.104   1.217
 2084SOL    HW1 7151   6.206   2.190   1.222
 2084SOL    HW2 7152   6.248   2.066   1.125
 2085SOL     OW 7153   6.892   5.163   6.663
 2085SOL    HW1 7154   6.827   5.096   6.699
 2085SOL    HW2 7155   6.873   5.179   6.566
 2086SOL     OW 7156   5.497   1.629   5.150
 2086SOL    HW1 7157   5.460   1.548   5.104
 2086SOL    HW2 7158   5.421   1.686   5.182
 2087SOL     OW 7159   4.730   1.154   5.864
 2087SOL    HW1 7160   4.780   1.138   5.779
 2087SOL    HW2 7161   4.678   1.072   5.889
 2088SOL     OW 7162   0.573   4.079   5.694
 2088SOL    HW1 7163   0.478   4.075   5.662
 2088SOL    HW2 7164   0.634   4.081   5.615
 2089SOL     OW 7165   3.127   5.131   3.768
 2089SOL    HW1 7166   3.165   5.166   3.854
 2089SOL    HW2 7167   3.165   5.041   3.749
 2090SOL     OW 7168   5.593   2.642   6.179
 2090SOL    HW1 7169   5.634   2.726   6.143
 2090SOL    HW2 7170   5.666   2.580   6.211
 2091SOL     OW 7171   5.650   0.118   0.613
 2091SOL    HW1 7172   5.647   0.161   0.522
 2091SOL    HW2 7173   5.687   0.183   0.679
 2092SOL     OW 7174   3.429   3.256   2.680
 2092SOL    HW1 7175   3.519   3.249   2.635
 2092SOL    HW2 7176   3.396   3.165   2.703
 2093SOL     OW 7177   5.903   6.993   6.580
 2093SOL    HW1 7178   5.825   7.003   6.642
 2093SOL    HW2 7179   5.902   6.902   6.539
 2094SOL     OW 7180   4.418   2.709   0.864
 2094SOL    HW1 7181   4.427   2.648   0.942
 2094SOL    HW2 7182   4.484   2.684   0.794
 2095SOL     OW 7183   3.735   5.775   4.673
 2095SOL    HW1 7184   3.664   5.790   4.742
 2095SOL    HW2 7185   3.822   5.809   4.708
 2096SOL     OW 7186   3.304   0.599   3.215
 2096SOL    HW1 7187   3.382   0.540   3.194
 2096SOL    HW2 7188   3.338   0.685   3.254
 2097SOL     OW 7189   2.670   5.656   5.908
 2097SOL    HW1 7190   2.711   5.743   5.935
 2097SOL    HW2 7191   2.605   5.672   5.834
 2098SOL     OW 7192   1.321   0.072   4.171
 2098SOL    HW1 7193   1.323   0.097   4.267
 2098SOL    HW2 7194   1.331   0.154   4.115
 2099SOL     OW 7195   4.406   1.515   6.570
 2099SOL    HW1 7196   4.470   1.544   6.499
 2099SOL    HW2 7197   4.344   1.445   6.533
 2100SOL     OW 7198   4.846   6.990   0.773
 2100SOL    HW1 7199   4.881   6.992   0.679
 2100SOL    HW2 7200   4.748   6.970   0.771
 2101SOL     OW 7201   0.389   0.285   3.281
 2101SOL    HW1 7202   0.385   0.210   3.215
 2101SOL    HW2 7203   0.395   0.373   3.233
 2102SOL     OW 7204   3.517   2.863   2.731
 2102SOL    HW1 7205   3.578   2.842   2.655
 2102SOL    HW2 7206   3.428   2.892   2.695
 2103SOL     OW 7207   1.344   0.283   1.197
 2103SOL    HW1 7208   1.345   0.345   1.275
 2103SOL    HW2 7209   1.432   0.289   1.149
 2104SOL     OW 7210   0.958   4.780   2.672
 2104SOL    HW1 7211   0.976   4.708   2.739
 2104SOL    HW2 7212   0.970   4.743   2.580
 2105SOL     OW 7213   5.516   6.184   5.854
 2105SOL    HW1 7214   5.514   6.156   5.951
 2105SOL    HW2 7215   5.610   6.184   5.821
 2106SOL     OW 7216   3.423   3.866   1.152
 2106SOL    HW1 7217   3.502   3.905   1.104
 2106SOL    HW2 7218   3.449   3.777   1.190
 2107SOL     OW 7219   5.920   4.018   4.229
 2107SOL    HW1 7220   5.977   3.967   4.165
 2107SOL    HW2 7221   5.828   4.027   4.191
 2108SOL     OW 7222   3.942   6.622   5.141
 2108SOL    HW1 7223   3.914   6.567   5.220
 2108SOL    HW2 7224   3.900   6.713   5.148
 2109SOL     OW 7225   2.396   6.464   2.557
 2109SOL    HW1 7226   2.371   6.428   2.646
 2109SOL    HW2 7227   2.399   6.390   2.490
 2110SOL     OW 7228   4.076   6.110   0.489
 2110SOL    HW1 7229   4.038   6.049   0.558
 2110SOL    HW2 7230   4.001   6.153   0.438
 2111SOL     OW 7231   0.726   2.648   0.385
 2111SOL    HW1 7232   0.801   2.605   0.435
 2111SOL    HW2 7233   0.737   2.747   0.387
 2112SOL     OW 7234   0.283   0.244   6.125
 2112SOL    HW1 7235   0.338   0.176   6.176
 2112SOL    HW2 7236   0.244   0.201   6.044
 2113SOL     OW 7237   0.015   1.691   4.218
 2113SOL    HW1 7238   0.036   1.668   4.123
 2113SOL    HW2 7239   6.940   1.689   4.232
 2114SOL     OW 7240   2.456   0.662   5.436
 2114SOL    HW1 7241   2.492   0.586   5.381
 2114SOL    HW2 7242   2.522   0.738   5.434
 2115SOL     OW 7243   0.049   0.168   4.333
 2115SOL    HW1 7244   6.981   0.151   4.367
 2115SOL    HW2 7245   0.106   0.202   4.408
 2116SOL     OW 7246   2.895   6.516   6.743
 2116SOL    HW1 7247   2.965   6.478   6.683
 2116SOL    HW2 7248   2.938   6.575   6.811
 2117SOL     OW 7249   0.085   3.125   1.231
 2117SOL    HW1 7250   0.082   3.043   1.288
 2117SOL    HW2 7251   0.016   3.119   1.160
 2118SOL     OW 7252   0.037   3.723   2.724
 2118SOL    HW1 7253   7.012   3.770   2.651
 2118SOL    HW2 7254   0.039   3.625   2.706
 2119SOL     OW 7255   1.556   2.333   6.907
 2119SOL    HW1 7256   1.544   2.430   6.888
 2119SOL    HW2 7257   1.471   2.296   6.947
 2120SOL     OW 7258   5.881   1.416   0.770
 2120SOL    HW1 7259   5.955   1.367   0.724
 2120SOL    HW2 7260   5.794   1.388   0.731
 2121SOL     OW 7261   2.504   6.199   2.438
 2121SOL    HW1 7262   2.510   6.272   2.370
 2121SOL    HW2 7263   2.411   6.193   2.474
 2122SOL     OW 7264   0.241   2.294   5.304
 2122SOL    HW1 7265   0.311   2.237   5.260
 2122SOL    HW2 7266   0.175   2.324   5.236
 2123SOL     OW 7267   1.105   4.359   2.969
 2123SOL    HW1 7268   1.071   4.329   3.058
 2123SOL    HW2 7269   1.197   4.322   2.955
 2124SOL     OW 7270   6.017   3.634   6.470
 2124SOL    HW1 7271   6.056   3.722   6.444
 2124SOL    HW2 7272   5.940   3.649   6.532
 2125SOL     OW 7273   2.619   5.348   5.840
 2125SOL    HW1 7274   2.531   5.353   5.792
 2125SOL    HW2 7275   2.633   5.432   5.893
 2126SOL     OW 7276   2.216   6.003   2.196
 2126SOL    HW1 7277   2.266   6.057   2.130
 2126SOL    HW2 7278   2.118   6.010   2.178
 2127SOL     OW 7279   1.776   3.585   3.965
 2127SOL    HW1 7280   1.746   3.535   3.884
 2127SOL    HW2 7281   1.810   3.520   4.033
 2128SOL     OW 7282   5.618   2.876   1.176
 2128SOL    HW1 7283   5.575   2.961   1.146
 2128SOL    HW2 7284   5.717   2.883   1.166
 2129SOL     OW 7285   5.505   4.993   4.286
 2129SOL    HW1 7286   5.495   4.939   4.370
 2129SOL    HW2 7287   5.541   5.084   4.309
 2130SOL     OW 7288   2.612   0.283   2.781
 2130SOL    HW1 7289   2.704   0.245   2.775
 2130SOL    HW2 7290   2.603   0.357   2.714
 2131SOL     OW 7291   5.667   6.850   6.103
 2131SOL    HW1 7292   5.635   6.862   6.197
 2131SOL    HW2 7293   5.712   6.933   6.072
 2132SOL     OW 7294   3.003   1.778   0.829
 2132SOL    HW1 7295   2.910   1.810   0.814
 2132SOL    HW2 7296   3.002   1.705   0.898
 2133SOL     OW 7297   3.712   3.008   2.230
 2133SOL    HW1 7298   3.801   3.050   2.212
 2133SOL    HW2 7299   3.648   3.077   2.262
 2134SOL     OW 7300   2.393   6.973   4.541
 2134SOL    HW1 7301   2.303   7.015   4.536
 2134SOL    HW2 7302   2.425   6.973   4.636
 2135SOL     OW 7303   0.000   5.656   3.966
 2135SOL    HW1 7304   6.960   5.596   3.918
 2135SOL    HW2 7305   6.974   5.729   4.012
 2136SOL     OW 7306   0.134   4.578   3.658
 2136SOL    HW1 7307   0.084   4.615   3.579
 2136SOL    HW2 7308   0.134   4.645   3.732
 2137SOL     OW 7309   6.771   0.152   4.408
 2137SOL    HW1 7310   6.742   0.245   4.429
 2137SOL    HW2 7311   6.713   0.114   4.336
 2138SOL     OW 7312   0.845   2.068   0.148
 2138SOL    HW1 7313   0.857   2.083   0.247
 2138SOL    HW2 7314   0.807   2.150   0.106
 2139SOL     OW 7315   4.051   6.228   4.609
 2139SOL    HW1 7316   4.126   6.162   4.622
 2139SOL    HW2 7317   4.088   6.313   4.573
 2140SOL     OW 7318   1.316   5.763   3.453
 2140SOL    HW1 7319   1.340   5.840   3.513
 2140SOL    HW2 7320   1.230   5.783   3.406
 2141SOL     OW 7321   0.152   0.442   6.941
 2141SOL    HW1 7322   0.064   0.464   6.899
 2141SOL    HW2 7323   0.221   0.508   6.910
 2142SOL     OW 7324   4.113   1.135   2.734
 2142SOL    HW1 7325   4.200   1.107   2.774
 2142SOL    HW2 7326   4.065   1.055   2.699
 2143SOL     OW 7327   3.454   5.292   0.006
 2143SOL    HW1 7328   3.445   5.194   7.008
 2143SOL    HW2 7329   3.529   5.305   0.070
 2144SOL     OW 7330   0.965   1.539   2.080
 2144SOL    HW1 7331   0.930   1.604   2.013
 2144SOL    HW2 7332   0.891   1.480   2.112
 2145SOL     OW 7333   2.439   6.130   3.184
 2145SOL    HW1 7334   2.504   6.206   3.180
 2145SOL    HW2 7335   2.486   6.045   3.159
 2146SOL     OW 7336   2.471   1.899   1.476
 2146SOL    HW1 7337   2.373   1.914   1.492
 2146SOL    HW2 7338   2.524   1.968   1.524
 2147SOL     OW 7339   6.760   0.488   4.022
 2147SOL    HW1 7340   6.733   0.462   4.114
 2147SOL    HW2 7341   6.778   0.587   4.019
 2148SOL     OW 7342   6.803   4.870   3.915
 2148SOL    HW1 7343   6.744   4.887   3.994
 2148SOL    HW2 7344   6.892   4.912   3.930
 2149SOL     OW 7345   2.014   1.459   2.147
 2149SOL    HW1 7346   2.039   1.411   2.063
 2149SOL    HW2 7347   1.972   1.395   2.211
 2150SOL     OW 7348   5.675   1.032   3.314
 2150SOL    HW1 7349   5.667   1.110   3.252
 2150SOL    HW2 7350   5.664   0.947   3.262
 2151SOL     OW 7351   4.978   4.829   5.187
 2151SOL    HW1 7352   4.900   4.782   5.227
 2151SOL    HW2 7353   4.969   4.830   5.088
 2152SOL     OW 7354   6.969   6.245   2.767
 2152SOL    HW1 7355   7.022   6.201   2.840
 2152SOL    HW2 7356   7.005   6.215   2.678
 2153SOL     OW 7357   4.145   2.222   3.513
 2153SOL    HW1 7358   4.097   2.143   3.472
 2153SOL    HW2 7359   4.187   2.276   3.440
 2154SOL     OW 7360   4.386   0.625   3.786
 2154SOL    HW1 7361   4.473   0.622   3.834
 2154SOL    HW2 7362   4.401   0.613   3.688
 2155SOL     OW 7363   5.667   3.321   0.816
 2155SOL    HW1 7364   5.719   3.405   0.828
 2155SOL    HW2 7365   5.646   3.308   0.719
 2156SOL     OW 7366   6.250   5.606   2.722
 2156SOL    HW1 7367   6.318   5.604   2.795
 2156SOL    HW2 7368   6.212   5.698   2.713
 2157SOL     OW 7369   4.938   1.481   4.492
 2157SOL    HW1 7370   4.850   1.527   4.506
 2157SOL    HW2 7371   5.012   1.548   4.501
 2158SOL     OW 7372   4.735   0.937   3.267
 2158SOL    HW1 7373   4.822   0.985   3.259
 2158SOL    HW2 7374   4.706   0.905   3.177
 2159SOL     OW 7375   2.427   1.690   4.577
 2159SOL    HW1 7376   2.369   1.637   4.638
 2159SOL    HW2 7377   2.513   1.713   4.623
 2160SOL     OW 7378   2.055   4.107   1.278
 2160SOL    HW1 7379   1.993   4.137   1.206
 2160SOL    HW2 7380   2.141   4.075   1.236
 2161SOL     OW 7381   4.553   2.509   2.078
 2161SOL    HW1 7382   4.500   2.475   2.156
 2161SOL    HW2 7383   4.649   2.482   2.089
 2162SOL     OW 7384   1.626   1.271   2.626
 2162SOL    HW1 7385   1.623   1.353   2.682
 2162SOL    HW2 7386   1.703   1.214   2.654
 2163SOL     OW 7387   4.671   1.477   0.982
 2163SOL    HW1 7388   4.618   1.462   1.066
 2163SOL    HW2 7389   4.647   1.567   0.944
 2164SOL     OW 7390   6.181   6.922   2.459
 2164SOL    HW1 7391   6.252   6.988   2.480
 2164SOL    HW2 7392   6.096   6.948   2.505
 2165SOL     OW 7393   1.864   6.935   2.118
 2165SOL    HW1 7394   1.845   7.023   2.162
 2165SOL    HW2 7395   1.870   6.864   2.188
 2166SOL     OW 7396   6.079   2.519   5.397
 2166SOL    HW1 7397   6.075   2.422   5.374
 2166SOL    HW2 7398   5.995   2.546   5.443
 2167SOL     OW 7399   3.430   1.121   1.644
 2167SOL    HW1 7400   3.467   1.029   1.637
 2167SOL    HW2 7401   3.461   1.176   1.565
 2168SOL     OW 7402   5.120   6.193   4.481
 2168SOL    HW1 7403   5.138   6.168   4.576
 2168SOL    HW2 7404   5.137   6.114   4.421
 2169SOL     OW 7405   5.085   3.068   5.669
 2169SOL    HW1 7406   5.056   3.130   5.597
 2169SOL    HW2 7407   5.094   2.975   5.632
 2170SOL     OW 7408   4.690   5.406   4.454
 2170SOL    HW1 7409   4.697   5.411   4.554
 2170SOL    HW2 7410   4.623   5.473   4.422
 2171SOL     OW 7411   0.305   2.956   0.355
 2171SOL    HW1 7412   0.339   3.049   0.366
 2171SOL    HW2 7413   0.261   2.926   0.440
 2172SOL     OW 7414   2.153   0.736   3.502
 2172SOL    HW1 7415   2.140   0.831   3.528
 2172SOL    HW2 7416   2.167   0.730   3.403
 2173SOL     OW 7417   4.460   2.094   4.786
 2173SOL    HW1 7418   4.398   2.170   4.806
 2173SOL    HW2 7419   4.408   2.010   4.773
 2174SOL     OW 7420   1.347   5.637   5.510
 2174SOL    HW1 7421   1.263   5.587   5.531
 2174SOL    HW2 7422   1.329   5.705   5.439
 2175SOL     OW 7423   0.497   0.510   6.961
 2175SOL    HW1 7424   0.575   0.573   6.962
 2175SOL    HW2 7425   0.477   0.485   6.866
 2176SOL     OW 7426   2.082   1.877   2.931
 2176SOL    HW1 7427   1.994   1.868   2.978
 2176SOL    HW2 7428   2.082   1.822   2.848
 2177SOL     OW 7429   0.932   1.723   1.803
 2177SOL    HW1 7430   0.835   1.742   1.783
 2177SOL    HW2 7431   0.969   1.661   1.734
 2178SOL     OW 7432   6.511   5.509   0.263
 2178SOL    HW1 7433   6.487   5.493   0.167
 2178SOL    HW2 7434   6.610   5.526   0.270
 2179SOL     OW 7435   2.024   3.678   3.783
 2179SOL    HW1 7436   2.045   3.747   3.853
 2179SOL    HW2 7437   2.069   3.702   3.697
 2180SOL     OW 7438   2.993   3.214   2.685
 2180SOL    HW1 7439   3.002   3.237   2.588
 2180SOL    HW2 7440   2.974   3.296   2.738
 2181SOL     OW 7441   3.944   6.215   1.334
 2181SOL    HW1 7442   3.891   6.160   1.269
 2181SOL    HW2 7443   3.922   6.312   1.320
 2182SOL     OW 7444   4.682   3.769   6.991
 2182SOL    HW1 7445   4.771   3.735   0.000
 2182SOL    HW2 7446   4.681   3.869   6.998
 2183SOL     OW 7447   4.365   2.136   1.969
 2183SOL    HW1 7448   4.302   2.208   1.999
 2183SOL    HW2 7449   4.353   2.119   1.871
 2184SOL     OW 7450   3.978   2.665   6.014
 2184SOL    HW1 7451   4.054   2.714   5.971
 2184SOL    HW2 7452   4.006   2.630   6.102
 2185SOL     OW 7453   6.852   6.981   2.011
 2185SOL    HW1 7454   6.927   6.954   2.071
 2185SOL    HW2 7455   6.769   6.932   2.037
 2186SOL     OW 7456   6.680   4.684   2.961
 2186SOL    HW1 7457   6.762   4.648   2.917
 2186SOL    HW2 7458   6.599   4.646   2.917
 2187SOL     OW 7459   6.790   6.867   7.010
 2187SOL    HW1 7460   6.873   6.922   7.018
 2187SOL    HW2 7461   6.804   6.780   0.034
 2188SOL     OW 7462   4.511   2.167   3.893
 2188SOL    HW1 7463   4.456   2.179   3.811
 2188SOL    HW2 7464   4.604   2.200   3.876
 2189SOL     OW 7465   3.288   0.327   6.147
 2189SOL    HW1 7466   3.291   0.369   6.238
 2189SOL    HW2 7467   3.258   0.395   6.080
 2190SOL     OW 7468   6.106   3.491   1.397
 2190SOL    HW1 7469   6.049   3.532   1.468
 2190SOL    HW2 7470   6.130   3.397   1.423
 2191SOL     OW 7471   3.355   0.360   0.167
 2191SOL    HW1 7472   3.258   0.381   0.179
 2191SOL    HW2 7473   3.372   0.265   0.193
 2192SOL     OW 7474   4.443   6.324   2.359
 2192SOL    HW1 7475   4.367   6.378   2.323
 2192SOL    HW2 7476   4.445   6.332   2.459
 2193SOL     OW 7477   0.278   6.518   4.221
 2193SOL    HW1 7478   0.186   6.557   4.224
 2193SOL    HW2 7479   0.322   6.530   4.311
 2194SOL     OW 7480   2.388   0.221   2.919
 2194SOL    HW1 7481   2.412   0.136   2.965
 2194SOL    HW2 7482   2.465   0.251   2.863
 2195SOL     OW 7483   0.371   4.693   2.814
 2195SOL    HW1 7484   0.464   4.715   2.785
 2195SOL    HW2 7485   0.367   4.600   2.849
 2196SOL     OW 7486   4.440   3.987   6.436
 2196SOL    HW1 7487   4.432   3.975   6.535
 2196SOL    HW2 7488   4.366   3.938   6.390
 2197SOL     OW 7489   4.939   3.423   0.672
 2197SOL    HW1 7490   5.029   3.399   0.707
 2197SOL    HW2 7491   4.878   3.344   0.679
 2198SOL     OW 7492   1.034   4.875   6.938
 2198SOL    HW1 7493   0.994   4.953   6.889
 2198SOL    HW2 7494   1.007   4.879   0.010
 2199SOL     OW 7495   3.452   1.895   4.183
 2199SOL    HW1 7496   3.527   1.841   4.220
 2199SOL    HW2 7497   3.468   1.913   4.086
 2200SOL     OW 7498   4.517   1.197   3.954
 2200SOL    HW1 7499   4.496   1.182   4.051
 2200SOL    HW2 7500   4.604   1.245   3.946
 2201SOL     OW 7501   4.980   5.521   3.979
 2201SOL    HW1 7502   4.922   5.583   4.031
 2201SOL    HW2 7503   5.076   5.540   4.001
 2202SOL     OW 7504   4.749   6.109   3.823
 2202SOL    HW1 7505   4.762   6.116   3.922
 2202SOL    HW2 7506   4.802   6.033   3.787
 2203SOL     OW 7507   2.485   2.177   3.125
 2203SOL    HW1 7508   2.573   2.154   3.167
 2203SOL    HW2 7509   2.437   2.092   3.101
 2204SOL     OW 7510   4.367   2.050   0.604
 2204SOL    HW1 7511   4.390   2.055   0.701
 2204SOL    HW2 7512   4.278   2.005   0.594
 2205SOL     OW 7513   3.554   6.925   2.491
 2205SOL    HW1 7514   3.562   7.021   2.463
 2205SOL    HW2 7515   3.496   6.876   2.426
 2206SOL     OW 7516   1.645   4.950   0.460
 2206SOL    HW1 7517   1.701   4.979   0.537
 2206SOL    HW2 7518   1.676   4.861   0.428
 2207SOL     OW 7519   6.826   3.467   5.271
 2207SOL    HW1 7520   6.877   3.504   5.193
 2207SOL    HW2 7521   6.890   3.449   5.346
 2208SOL     OW 7522   0.287   5.348   2.383
 2208SOL    HW1 7523   0.365   5.323   2.440
 2208SOL    HW2 7524   0.210   5.288   2.405
 2209SOL     OW 7525   6.625   0.028   2.353
 2209SOL    HW1 7526   6.690   0.086   2.304
 2209SOL    HW2 7527   6.649   6.956   2.339
 2210SOL     OW 7528   2.510   4.547   3.483
 2210SOL    HW1 7529   2.473   4.500   3.403
 2210SOL    HW2 7530   2.499   4.646   3.471
 2211SOL     OW 7531   5.606   1.040   5.166
 2211SOL    HW1 7532   5.532   1.079   5.220
 2211SOL    HW2 7533   5.628   0.949   5.200
 2212SOL     OW 7534   2.512   6.040   6.041
 2212SOL    HW1 7535   2.418   6.010   6.059
 2212SOL    HW2 7536   2.526   6.130   6.083
 2213SOL     OW 7537   4.308   1.084   2.931
 2213SOL    HW1 7538   4.324   1.050   3.024
 2213SOL    HW2 7539   4.395   1.090   2.882
 2214SOL     OW 7540   4.244   6.896   3.776
 2214SOL    HW1 7541   4.207   6.860   3.862
 2214SOL    HW2 7542   4.260   6.822   3.712
 2215SOL     OW 7543   5.759   2.849   6.719
 2215SOL    HW1 7544   5.814   2.781   6.767
 2215SOL    HW2 7545   5.703   2.805   6.649
 2216SOL     OW 7546   3.197   1.039   2.353
 2216SOL    HW1 7547   3.151   0.951   2.348
 2216SOL    HW2 7548   3.267   1.037   2.425
 2217SOL     OW 7549   3.174   6.775   1.258
 2217SOL    HW1 7550   3.080   6.771   1.222
 2217SOL    HW2 7551   3.188   6.863   1.302
 2218SOL     OW 7552   5.919   1.138   1.903
 2218SOL    HW1 7553   5.830   1.170   1.870
 2218SOL    HW2 7554   5.912   1.042   1.928
 2219SOL     OW 7555   1.949   2.275   3.578
 2219SOL    HW1 7556   1.968   2.330   3.497
 2219SOL    HW2 7557   1.890   2.198   3.553
 2220SOL     OW 7558   1.912   6.215   3.718
 2220SOL    HW1 7559   1.946   6.301   3.679
 2220SOL    HW2 7560   1.934   6.212   3.815
 2221SOL     OW 7561   6.943   0.260   4.670
 2221SOL    HW1 7562   7.021   0.203   4.646
 2221SOL    HW2 7563   6.963   0.312   4.753
 2222SOL     OW 7564   5.048   5.917   3.247
 2222SOL    HW1 7565   4.948   5.908   3.243
 2222SOL    HW2 7566   5.080   5.965   3.166
 2223SOL     OW 7567   6.099   6.757   2.037
 2223SOL    HW1 7568   6.096   6.832   2.103
 2223SOL    HW2 7569   6.035   6.776   1.962
 2224SOL     OW 7570   0.371   5.711   1.512
 2224SOL    HW1 7571   0.438   5.748   1.449
 2224SOL    HW2 7572   0.335   5.625   1.476
 2225SOL     OW 7573   0.622   5.012   1.805
 2225SOL    HW1 7574   0.614   4.987   1.901
 2225SOL    HW2 7575   0.547   5.074   1.781
 2226SOL     OW 7576   3.491   3.794   3.692
 2226SOL    HW1 7577   3.565   3.769   3.629
 2226SOL    HW2 7578   3.525   3.787   3.786
 2227SOL     OW 7579   1.729   1.595   5.409
 2227SOL    HW1 7580   1.695   1.501   5.415
 2227SOL    HW2 7581   1.661   1.652   5.364
 2228SOL     OW 7582   1.271   4.251   4.000
 2228SOL    HW1 7583   1.207   4.233   4.074
 2228SOL    HW2 7584   1.221   4.271   3.916
 2229SOL     OW 7585   5.764   5.504   2.273
 2229SOL    HW1 7586   5.769   5.456   2.361
 2229SOL    HW2 7587   5.800   5.445   2.201
 2230SOL     OW 7588   1.869   5.460   2.849
 2230SOL    HW1 7589   1.870   5.443   2.948
 2230SOL    HW2 7590   1.811   5.539   2.829
 2231SOL     OW 7591   2.010   6.471   0.771
 2231SOL    HW1 7592   2.042   6.442   0.861
 2231SOL    HW2 7593   2.052   6.559   0.746
 2232SOL     OW 7594   6.330   3.155   3.523
 2232SOL    HW1 7595   6.345   3.127   3.428
 2232SOL    HW2 7596   6.238   3.126   3.552
 2233SOL     OW 7597   3.920   1.891   0.387
 2233SOL    HW1 7598   3.929   1.835   0.305
 2233SOL    HW2 7599   3.907   1.987   0.361
 2234SOL     OW 7600   4.289   2.686   1.421
 2234SOL    HW1 7601   4.319   2.690   1.516
 2234SOL    HW2 7602   4.296   2.592   1.387
 2235SOL     OW 7603   1.881   3.590   1.808
 2235SOL    HW1 7604   1.788   3.618   1.831
 2235SOL    HW2 7605   1.935   3.670   1.782
 2236SOL     OW 7606   1.569   3.904   5.083
 2236SOL    HW1 7607   1.558   3.866   5.174
 2236SOL    HW2 7608   1.501   3.863   5.021
 2237SOL     OW 7609   5.887   2.312   3.456
 2237SOL    HW1 7610   5.970   2.257   3.470
 2237SOL    HW2 7611   5.852   2.297   3.364
 2238SOL     OW 7612   4.861   6.013   6.527
 2238SOL    HW1 7613   4.903   5.923   6.513
 2238SOL    HW2 7614   4.794   6.030   6.456
 2239SOL     OW 7615   6.832   5.493   1.264
 2239SOL    HW1 7616   6.846   5.516   1.360
 2239SOL    HW2 7617   6.921   5.475   1.221
 2240SOL     OW 7618   0.664   3.818   1.727
 2240SOL    HW1 7619   0.748   3.848   1.682
 2240SOL    HW2 7620   0.635   3.731   1.688
 2241SOL     OW 7621   0.054   0.546   3.456
 2241SOL    HW1 7622   0.116   0.598   3.397
 2241SOL    HW2 7623   6.984   0.555   3.422
 2242SOL     OW 7624   2.293   1.371   3.267
 2242SOL    HW1 7625   2.273   1.331   3.178
 2242SOL    HW2 7626   2.323   1.300   3.330
 2243SOL     OW 7627   1.490   0.568   4.293
 2243SOL    HW1 7628   1.588   0.557   4.282
 2243SOL    HW2 7629   1.446   0.568   4.202
 2244SOL     OW 7630   3.304   1.011   3.761
 2244SOL    HW1 7631   3.378   0.946   3.740
 2244SOL    HW2 7632   3.332   1.103   3.735
 2245SOL     OW 7633   7.024   1.418   1.204
 2245SOL    HW1 7634   6.994   1.323   1.194
 2245SOL    HW2 7635   6.945   1.477   1.220
 2246SOL     OW 7636   0.813   4.383   4.696
 2246SOL    HW1 7637   0.827   4.427   4.607
 2246SOL    HW2 7638   0.901   4.373   4.742
 2247SOL     OW 7639   2.285   2.140   3.905
 2247SOL    HW1 7640   2.195   2.110   3.936
 2247SOL    HW2 7641   2.276   2.192   3.820
 2248SOL     OW 7642   5.331   4.391   5.732
 2248SOL    HW1 7643   5.299   4.297   5.725
 2248SOL    HW2 7644   5.333   4.432   5.641
 2249SOL     OW 7645   5.617   6.269   5.452
 2249SOL    HW1 7646   5.662   6.251   5.540
 2249SOL    HW2 7647   5.542   6.333   5.466
 2250SOL     OW 7648   4.576   5.095   2.605
 2250SOL    HW1 7649   4.584   5.119   2.508
 2250SOL    HW2 7650   4.662   5.053   2.635
 2251SOL     OW 7651   0.511   1.782   5.587
 2251SOL    HW1 7652   0.559   1.866   5.612
 2251SOL    HW2 7653   0.413   1.800   5.582
 2252SOL     OW 7654   4.571   0.966   5.980
 2252SOL    HW1 7655   4.507   0.892   5.961
 2252SOL    HW2 7656   4.559   0.998   6.074
 2253SOL     OW 7657   0.240   3.854   1.381
 2253SOL    HW1 7658   0.151   3.892   1.405
 2253SOL    HW2 7659   0.253   3.856   1.282
 2254SOL     OW 7660   1.874   5.653   5.456
 2254SOL    HW1 7661   1.905   5.560   5.472
 2254SOL    HW2 7662   1.779   5.663   5.488
 2255SOL     OW 7663   6.820   4.125   6.720
 2255SOL    HW1 7664   6.900   4.075   6.750
 2255SOL    HW2 7665   6.738   4.071   6.736
 2256SOL     OW 7666   2.792   5.634   2.892
 2256SOL    HW1 7667   2.864   5.664   2.955
 2256SOL    HW2 7668   2.830   5.623   2.800
 2257SOL     OW 7669   0.681   5.034   6.363
 2257SOL    HW1 7670   0.670   5.111   6.425
 2257SOL    HW2 7671   0.651   5.060   6.271
 2258SOL     OW 7672   1.887   6.794   6.003
 2258SOL    HW1 7673   1.920   6.770   6.094
 2258SOL    HW2 7674   1.794   6.830   6.009
 2259SOL     OW 7675   5.913   1.818   6.489
 2259SOL    HW1 7676   5.831   1.808   6.432
 2259SOL    HW2 7677   5.948   1.911   6.480
 2260SOL     OW 7678   4.643   3.202   1.667
 2260SOL    HW1 7679   4.546   3.203   1.645
 2260SOL    HW2 7680   4.658   3.146   1.749
 2261SOL     OW 7681   1.949   6.368   5.413
 2261SOL    HW1 7682   1.968   6.384   5.316
 2261SOL    HW2 7683   1.924   6.272   5.426
 2262SOL     OW 7684   2.659   1.746   4.727
 2262SOL    HW1 7685   2.711   1.662   4.710
 2262SOL    HW2 7686   2.717   1.825   4.707
 2263SOL     OW 7687   0.900   5.012   6.524
 2263SOL    HW1 7688   0.862   5.005   6.617
 2263SOL    HW2 7689   0.827   4.999   6.457
 2264SOL     OW 7690   3.208   3.292   4.187
 2264SOL    HW1 7691   3.275   3.257   4.252
 2264SOL    HW2 7692   3.254   3.337   4.111
 2265SOL     OW 7693   0.018   6.423   4.027
 2265SOL    HW1 7694   0.070   6.357   4.081
 2265SOL    HW2 7695   6.945   6.416   4.051
 2266SOL     OW 7696   0.126   0.046   4.863
 2266SOL    HW1 7697   0.044   0.095   4.893
 2266SOL    HW2 7698   0.198   0.111   4.842
 2267SOL     OW 7699   6.528   1.741   4.899
 2267SOL    HW1 7700   6.434   1.726   4.867
 2267SOL    HW2 7701   6.552   1.838   4.886
 2268SOL     OW 7702   0.947   0.268   0.489
 2268SOL    HW1 7703   0.859   0.277   0.443
 2268SOL    HW2 7704   1.011   0.221   0.428
 2269SOL     OW 7705   6.933   5.955   2.747
 2269SOL    HW1 7706   0.005   5.963   2.719
 2269SOL    HW2 7707   6.926   5.974   2.845
 2270SOL     OW 7708   2.956   3.542   3.296
 2270SOL    HW1 7709   2.994   3.454   3.324
 2270SOL    HW2 7710   2.896   3.577   3.367
 2271SOL     OW 7711   1.382   3.504   2.340
 2271SOL    HW1 7712   1.357   3.522   2.436
 2271SOL    HW2 7713   1.480   3.517   2.328
 2272SOL     OW 7714   4.568   0.577   5.840
 2272SOL    HW1 7715   4.529   0.496   5.795
 2272SOL    HW2 7716   4.496   0.626   5.889
 2273SOL     OW 7717   6.601   1.277   1.845
 2273SOL    HW1 7718   6.589   1.235   1.755
 2273SOL    HW2 7719   6.648   1.212   1.906
 2274SOL     OW 7720   6.157   4.855   3.527
 2274SOL    HW1 7721   6.070   4.819   3.493
 2274SOL    HW2 7722   6.149   4.953   3.544
 2275SOL     OW 7723   4.159   6.801   4.006
 2275SOL    HW1 7724   4.185   6.714   4.049
 2275SOL    HW2 7725   4.178   6.876   4.069
 2276SOL     OW 7726   4.097   6.162   3.923
 2276SOL    HW1 7727   4.015   6.106   3.933
 2276SOL    HW2 7728   4.172   6.107   3.888
 2277SOL     OW 7729   3.276   3.008   2.684
 2277SOL    HW1 7730   3.193   3.024   2.736
 2277SOL    HW2 7731   3.252   2.978   2.592
 2278SOL     OW 7732   4.098   5.173   2.071
 2278SOL    HW1 7733   4.111   5.106   1.998
 2278SOL    HW2 7734   4.106   5.265   2.032
 2279SOL     OW 7735   6.280   4.715   5.589
 2279SOL    HW1 7736   6.189   4.723   5.630
 2279SOL    HW2 7737   6.274   4.731   5.491
 2280SOL     OW 7738   6.053   0.902   5.625
 2280SOL    HW1 7739   6.021   0.903   5.530
 2280SOL    HW2 7740   6.012   0.824   5.672
 2281SOL     OW 7741   2.149   0.228   0.458
 2281SOL    HW1 7742   2.134   0.181   0.371
 2281SOL    HW2 7743   2.191   0.165   0.523
 2282SOL     OW 7744   3.317   6.842   2.315
 2282SOL    HW1 7745   3.221   6.827   2.338
 2282SOL    HW2 7746   3.366   6.755   2.319
 2283SOL     OW 7747   0.998   2.910   0.789
 2283SOL    HW1 7748   0.925   2.857   0.833
 2283SOL    HW2 7749   1.036   2.857   0.712
 2284SOL     OW 7750   1.172   2.926   1.004
 2284SOL    HW1 7751   1.091   2.926   0.945
 2284SOL    HW2 7752   1.253   2.908   0.948
 2285SOL     OW 7753   2.865   2.806   0.264
 2285SOL    HW1 7754   2.958   2.771   0.251
 2285SOL    HW2 7755   2.802   2.730   0.276
 2286SOL     OW 7756   6.368   5.457   4.081
 2286SOL    HW1 7757   6.346   5.391   4.009
 2286SOL    HW2 7758   6.451   5.507   4.056
 2287SOL     OW 7759   2.576   2.166   1.146
 2287SOL    HW1 7760   2.576   2.069   1.171
 2287SOL    HW2 7761   2.484   2.194   1.119
 2288SOL     OW 7762   3.206   5.566   4.353
 2288SOL    HW1 7763   3.187   5.563   4.255
 2288SOL    HW2 7764   3.256   5.650   4.375
 2289SOL     OW 7765   3.945   0.066   5.328
 2289SOL    HW1 7766   3.989   0.127   5.394
 2289SOL    HW2 7767   3.917   0.119   5.247
 2290SOL     OW 7768   2.100   4.170   6.659
 2290SOL    HW1 7769   2.097   4.267   6.635
 2290SOL    HW2 7770   2.173   4.154   6.725
 2291SOL     OW 7771   3.716   2.252   0.382
 2291SOL    HW1 7772   3.813   2.273   0.367
 2291SOL    HW2 7773   3.701   2.232   0.479
 2292SOL     OW 7774   5.038   2.080   2.544
 2292SOL    HW1 7775   4.962   2.022   2.514
 2292SOL    HW2 7776   5.099   2.098   2.467
 2293SOL     OW 7777   6.740   1.020   6.427
 2293SOL    HW1 7778   6.667   1.076   6.387
 2293SOL    HW2 7779   6.827   1.046   6.384
 2294SOL     OW 7780   0.159   2.985   5.348
 2294SOL    HW1 7781   0.146   2.902   5.293
 2294SOL    HW2 7782   0.242   2.976   5.403
 2295SOL     OW 7783   5.850   5.748   0.448
 2295SOL    HW1 7784   5.816   5.789   0.533
 2295SOL    HW2 7785   5.816   5.654   0.441
 2296SOL     OW 7786   4.160   5.803   4.923
 2296SOL    HW1 7787   4.184   5.879   4.983
 2296SOL    HW2 7788   4.239   5.742   4.914
 2297SOL     OW 7789   6.515   2.684   0.319
 2297SOL    HW1 7790   6.595   2.691   0.379
 2297SOL    HW2 7791   6.527   2.745   0.240
 2298SOL     OW 7792   2.249   4.035   4.734
 2298SOL    HW1 7793   2.270   4.029   4.832
 2298SOL    HW2 7794   2.164   3.986   4.716
 2299SOL     OW 7795   6.261   3.702   4.306
 2299SOL    HW1 7796   6.348   3.711   4.354
 2299SOL    HW2 7797   6.278   3.683   4.209
 2300SOL     OW 7798   3.906   0.872   2.403
 2300SOL    HW1 7799   3.859   0.829   2.326
 2300SOL    HW2 7800   3.856   0.954   2.430
 2301SOL     OW 7801   4.470   3.371   5.923
 2301SOL    HW1 7802   4.487   3.283   5.878
 2301SOL    HW2 7803   4.555   3.404   5.965
 2302SOL     OW 7804   0.380   3.818   4.692
 2302SOL    HW1 7805   0.419   3.726   4.703
 2302SOL    HW2 7806   0.453   3.883   4.675
 2303SOL     OW 7807   1.809   2.620   6.683
 2303SOL    HW1 7808   1.891   2.638   6.737
 2303SOL    HW2 7809   1.762   2.539   6.718
 2304SOL     OW 7810   3.639   0.151   3.264
 2304SOL    HW1 7811   3.720   0.092   3.266
 2304SOL    HW2 7812   3.608   0.167   3.358
 2305SOL     OW 7813   3.277   5.770   4.905
 2305SOL    HW1 7814   3.225   5.692   4.869
 2305SOL    HW2 7815   3.249   5.788   4.999
 2306SOL     OW 7816   0.884   5.186   5.550
 2306SOL    HW1 7817   0.973   5.142   5.563
 2306SOL    HW2 7818   0.868   5.202   5.453
 2307SOL     OW 7819   6.577   4.026   5.679
 2307SOL    HW1 7820   6.581   4.062   5.586
 2307SOL    HW2 7821   6.654   4.063   5.732
 2308SOL     OW 7822   0.485   5.907   2.646
 2308SOL    HW1 7823   0.504   6.003   2.623
 2308SOL    HW2 7824   0.464   5.857   2.562
 2309SOL     OW 7825   1.773   0.906   4.911
 2309SOL    HW1 7826   1.675   0.887   4.913
 2309SOL    HW2 7827   1.793   0.975   4.841
 2310SOL     OW 7828   4.943   5.838   0.643
 2310SOL    HW1 7829   4.979   5.760   0.590
 2310SOL    HW2 7830   4.848   5.819   0.669
 2311SOL     OW 7831   2.528   5.849   0.018
 2311SOL    HW1 7832   2.441   5.821   7.001
 2311SOL    HW2 7833   2.588   5.769   0.024
 2312SOL     OW 7834   2.980   5.168   1.602
 2312SOL    HW1 7835   2.894   5.210   1.574
 2312SOL    HW2 7836   2.968   5.069   1.609
 2313SOL     OW 7837   4.645   5.056   1.178
 2313SOL    HW1 7838   4.709   4.987   1.211
 2313SOL    HW2 7839   4.676   5.146   1.208
 2314SOL     OW 7840   2.273   4.358   2.527
 2314SOL    HW1 7841   2.289   4.356   2.428
 2314SOL    HW2 7842   2.294   4.268   2.566
 2315SOL     OW 7843   3.529   2.251   6.529
 2315SOL    HW1 7844   3.621   2.276   6.559
 2315SOL    HW2 7845   3.525   2.153   6.510
 2316SOL     OW 7846   5.720   4.206   1.654
 2316SOL    HW1 7847   5.795   4.140   1.658
 2316SOL    HW2 7848   5.632   4.157   1.656
 2317SOL     OW 7849   0.167   0.203   3.710
 2317SOL    HW1 7850   0.181   0.218   3.612
 2317SOL    HW2 7851   0.218   0.122   3.739
 2318SOL     OW 7852   6.444   1.932   3.481
 2318SOL    HW1 7853   6.488   2.006   3.431
 2318SOL    HW2 7854   6.385   1.880   3.420
 2319SOL     OW 7855   0.893   5.865   3.613
 2319SOL    HW1 7856   0.949   5.934   3.568
 2319SOL    HW2 7857   0.941   5.830   3.694
 2320SOL     OW 7858   0.101   4.887   3.799
 2320SOL    HW1 7859   0.169   4.840   3.856
 2320SOL    HW2 7860   0.048   4.950   3.856
 2321SOL     OW 7861   2.846   4.786   3.694
 2321SOL    HW1 7862   2.942   4.807   3.674
 2321SOL    HW2 7863   2.787   4.849   3.643
 2322SOL     OW 7864   2.098   2.065   5.195
 2322SOL    HW1 7865   2.000   2.086   5.194
 2322SOL    HW2 7866   2.122   2.024   5.283
 2323SOL     OW 7867   5.766   3.545   1.801
 2323SOL    HW1 7868   5.726   3.453   1.794
 2323SOL    HW2 7869   5.832   3.547   1.876
 2324SOL     OW 7870   0.150   5.438   4.433
 2324SOL    HW1 7871   0.165   5.372   4.506
 2324SOL    HW2 7872   0.179   5.529   4.464
 2325SOL     OW 7873   6.760   1.778   0.548
 2325SOL    HW1 7874   6.695   1.713   0.508
 2325SOL    HW2 7875   6.794   1.743   0.635
 2326SOL     OW 7876   0.815   5.306   0.488
 2326SOL    HW1 7877   0.734   5.282   0.542
 2326SOL    HW2 7878   0.897   5.273   0.534
 2327SOL     OW 7879   4.837   1.127   2.505
 2327SOL    HW1 7880   4.802   1.218   2.524
 2327SOL    HW2 7881   4.764   1.060   2.515
 2328SOL     OW 7882   6.204   5.602   3.764
 2328SOL    HW1 7883   6.146   5.586   3.685
 2328SOL    HW2 7884   6.172   5.548   3.842
 2329SOL     OW 7885   1.434   6.781   3.221
 2329SOL    HW1 7886   1.443   6.731   3.135
 2329SOL    HW2 7887   1.525   6.805   3.255
 2330SOL     OW 7888   1.667   3.770   6.634
 2330SOL    HW1 7889   1.766   3.756   6.624
 2330SOL    HW2 7890   1.651   3.862   6.669
 2331SOL     OW 7891   1.966   4.253   5.160
 2331SOL    HW1 7892   2.060   4.247   5.125
 2331SOL    HW2 7893   1.933   4.162   5.183
 2332SOL     OW 7894   6.360   3.790   6.704
 2332SOL    HW1 7895   6.340   3.819   6.610
 2332SOL    HW2 7896   6.410   3.704   6.703
 2333SOL     OW 7897   2.418   5.034   3.927
 2333SOL    HW1 7898   2.364   5.118   3.918
 2333SOL    HW2 7899   2.428   5.012   4.024
 2334SOL     OW 7900   2.335   0.119   6.162
 2334SOL    HW1 7901   2.377   0.141   6.250
 2334SOL    HW2 7902   2.272   0.193   6.136
 2335SOL     OW 7903   5.322   4.555   4.883
 2335SOL    HW1 7904   5.280   4.636   4.843
 2335SOL    HW2 7905   5.262   4.519   4.955
 2336SOL     OW 7906   4.879   1.166   5.635
 2336SOL    HW1 7907   4.889   1.265   5.643
 2336SOL    HW2 7908   4.825   1.144   5.553
 2337SOL     OW 7909   6.189   0.678   5.087
 2337SOL    HW1 7910   6.205   0.686   5.186
 2337SOL    HW2 7911   6.100   0.718   5.065
 2338SOL     OW 7912   1.184   6.685   0.366
 2338SOL    HW1 7913   1.195   6.639   0.454
 2338SOL    HW2 7914   1.122   6.632   0.309
 2339SOL     OW 7915   3.025   4.450   5.742
 2339SOL    HW1 7916   3.024   4.530   5.802
 2339SOL    HW2 7917   3.045   4.479   5.648
 2340SOL     OW 7918   4.243   5.485   3.477
 2340SOL    HW1 7919   4.325   5.428   3.462
 2340SOL    HW2 7920   4.184   5.479   3.396
 2341SOL     OW 7921   0.963   3.679   6.113
 2341SOL    HW1 7922   0.972   3.607   6.044
 2341SOL    HW2 7923   1.055   3.712   6.138
 2342SOL     OW 7924   4.861   1.175   5.107
 2342SOL    HW1 7925   4.873   1.251   5.042
 2342SOL    HW2 7926   4.951   1.142   5.136
 2343SOL     OW 7927   0.550   6.001   1.673
 2343SOL    HW1 7928   0.485   5.927   1.686
 2343SOL    HW2 7929   0.623   5.970   1.611
 2344SOL     OW 7930   1.749   0.099   3.128
 2344SOL    HW1 7931   1.729   0.093   3.030
 2344SOL    HW2 7932   1.670   0.066   3.180
 2345SOL     OW 7933   1.109   2.546   1.614
 2345SOL    HW1 7934   1.149   2.543   1.706
 2345SOL    HW2 7935   1.010   2.557   1.621
 2346SOL     OW 7936   5.444   2.721   4.926
 2346SOL    HW1 7937   5.420   2.814   4.900
 2346SOL    HW2 7938   5.414   2.704   5.020
 2347SOL     OW 7939   1.441   4.068   1.373
 2347SOL    HW1 7940   1.438   4.162   1.338
 2347SOL    HW2 7941   1.383   4.009   1.317
 2348SOL     OW 7942   2.955   6.725   1.820
 2348SOL    HW1 7943   2.907   6.637   1.811
 2348SOL    HW2 7944   2.889   6.799   1.808
 2349SOL     OW 7945   5.465   2.612   0.155
 2349SOL    HW1 7946   5.468   2.667   0.239
 2349SOL    HW2 7947   5.424   2.666   0.082
 2350SOL     OW 7948   2.635   5.396   5.307
 2350SOL    HW1 7949   2.638   5.443   5.219
 2350SOL    HW2 7950   2.713   5.424   5.362
 2351SOL     OW 7951   1.572   5.757   3.323
 2351SOL    HW1 7952   1.614   5.737   3.234
 2351SOL    HW2 7953   1.475   5.735   3.320
 2352SOL     OW 7954   5.785   5.975   6.081
 2352SOL    HW1 7955   5.733   5.918   6.017
 2352SOL    HW2 7956   5.776   6.071   6.055
 2353SOL     OW 7957   3.071   2.937   6.870
 2353SOL    HW1 7958   3.084   2.870   6.797
 2353SOL    HW2 7959   3.055   3.028   6.831
 2354SOL     OW 7960   3.339   1.366   2.537
 2354SOL    HW1 7961   3.244   1.372   2.508
 2354SOL    HW2 7962   3.399   1.371   2.458
 2355SOL     OW 7963   6.366   1.201   2.035
 2355SOL    HW1 7964   6.386   1.104   2.050
 2355SOL    HW2 7965   6.424   1.236   1.961
 2356SOL     OW 7966   4.081   5.105   3.647
 2356SOL    HW1 7967   4.042   5.197   3.643
 2356SOL    HW2 7968   4.176   5.110   3.676
 2357SOL     OW 7969   0.463   5.504   0.981
 2357SOL    HW1 7970   0.451   5.457   0.893
 2357SOL    HW2 7971   0.517   5.448   1.042
 2358SOL     OW 7972   2.131   0.885   4.689
 2358SOL    HW1 7973   2.149   0.909   4.784
 2358SOL    HW2 7974   2.183   0.804   4.663
 2359SOL     OW 7975   3.579   2.682   5.546
 2359SOL    HW1 7976   3.484   2.699   5.521
 2359SOL    HW2 7977   3.625   2.633   5.471
 2360SOL     OW 7978   3.620   4.977   1.811
 2360SOL    HW1 7979   3.579   4.991   1.721
 2360SOL    HW2 7980   3.593   4.887   1.846
 2361SOL     OW 7981   3.498   4.692   0.833
 2361SOL    HW1 7982   3.451   4.702   0.921
 2361SOL    HW2 7983   3.500   4.780   0.785
 2362SOL     OW 7984   3.795   4.907   4.397
 2362SOL    HW1 7985   3.747   4.891   4.483
 2362SOL    HW2 7986   3.887   4.870   4.403
 2363SOL     OW 7987   2.524   4.092   1.535
 2363SOL    HW1 7988   2.481   4.004   1.553
 2363SOL    HW2 7989   2.471   4.164   1.579
 2364SOL     OW 7990   4.331   0.887   2.397
 2364SOL    HW1 7991   4.324   0.947   2.477
 2364SOL    HW2 7992   4.419   0.903   2.352
 2365SOL     OW 7993   5.562   3.917   2.648
 2365SOL    HW1 7994   5.530   3.996   2.700
 2365SOL    HW2 7995   5.651   3.888   2.682
 2366SOL     OW 7996   4.746   5.136   4.669
 2366SOL    HW1 7997   4.673   5.086   4.624
 2366SOL    HW2 7998   4.706   5.210   4.725
 2367SOL     OW 7999   6.027   4.914   5.645
 2367SOL    HW1 8000   5.960   4.970   5.694
 2367SOL    HW2 8001   5.990   4.886   5.557
 2368SOL     OW 8002   5.190   1.792   4.987
 2368SOL    HW1 8003   5.208   1.695   4.974
 2368SOL    HW2 8004   5.110   1.804   5.046
 2369SOL     OW 8005   4.291   1.975   4.332
 2369SOL    HW1 8006   4.311   1.979   4.234
 2369SOL    HW2 8007   4.376   1.962   4.383
 2370SOL     OW 8008   4.045   2.366   0.493
 2370SOL    HW1 8009   3.987   2.364   0.574
 2370SOL    HW2 8010   4.047   2.459   0.455
 2371SOL     OW 8011   2.136   6.582   3.385
 2371SOL    HW1 8012   2.091   6.556   3.471
 2371SOL    HW2 8013   2.139   6.504   3.323
 2372SOL     OW 8014   5.593   6.576   0.065
 2372SOL    HW1 8015   5.525   6.515   0.024
 2372SOL    HW2 8016   5.644   6.622   7.017
 2373SOL     OW 8017   6.485   4.565   6.306
 2373SOL    HW1 8018   6.455   4.517   6.388
 2373SOL    HW2 8019   6.584   4.575   6.307
 2374SOL     OW 8020   0.625   5.177   2.873
 2374SOL    HW1 8021   0.628   5.272   2.843
 2374SOL    HW2 8022   0.700   5.160   2.937
 2375SOL     OW 8023   2.429   0.341   4.203
 2375SOL    HW1 8024   2.477   0.284   4.269
 2375SOL    HW2 8025   2.464   0.434   4.208
 2376SOL     OW 8026   5.941   3.037   4.553
 2376SOL    HW1 8027   5.956   2.999   4.644
 2376SOL    HW2 8028   5.855   3.088   4.551
 2377SOL     OW 8029   3.364   5.005   5.814
 2377SOL    HW1 8030   3.404   4.944   5.883
 2377SOL    HW2 8031   3.291   5.059   5.855
 2378SOL     OW 8032   0.834   0.258   1.061
 2378SOL    HW1 8033   0.891   0.212   0.993
 2378SOL    HW2 8034   0.868   0.237   1.153
 2379SOL     OW 8035   0.935   4.335   3.189
 2379SOL    HW1 8036   0.893   4.259   3.237
 2379SOL    HW2 8037   0.867   4.380   3.131
 2380SOL     OW 8038   4.480   5.477   5.740
 2380SOL    HW1 8039   4.556   5.527   5.781
 2380SOL    HW2 8040   4.439   5.532   5.668
 2381SOL     OW 8041   2.480   4.860   3.710
 2381SOL    HW1 8042   2.497   4.763   3.725
 2381SOL    HW2 8043   2.470   4.906   3.798
 2382SOL     OW 8044   6.296   5.748   2.155
 2382SOL    HW1 8045   6.237   5.724   2.079
 2382SOL    HW2 8046   6.245   5.801   2.222
 2383SOL     OW 8047   4.285   3.514   6.037
 2383SOL    HW1 8048   4.205   3.453   6.037
 2383SOL    HW2 8049   4.361   3.468   5.990
 2384SOL     OW 8050   1.013   2.296   3.342
 2384SOL    HW1 8051   1.012   2.365   3.414
 2384SOL    HW2 8052   0.929   2.303   3.289
 2385SOL     OW 8053   0.558   0.480   1.186
 2385SOL    HW1 8054   0.648   0.503   1.225
 2385SOL    HW2 8055   0.504   0.564   1.178
 2386SOL     OW 8056   0.302   5.139   6.833
 2386SOL    HW1 8057   0.375   5.203   6.807
 2386SOL    HW2 8058   0.328   5.047   6.805
 2387SOL     OW 8059   6.129   0.538   2.931
 2387SOL    HW1 8060   6.203   0.472   2.943
 2387SOL    HW2 8061   6.044   0.490   2.911
 2388SOL     OW 8062   1.948   5.050   3.954
 2388SOL    HW1 8063   2.027   4.990   3.941
 2388SOL    HW2 8064   1.957   5.131   3.897
 2389SOL     OW 8065   3.459   6.323   3.238
 2389SOL    HW1 8066   3.362   6.345   3.224
 2389SOL    HW2 8067   3.485   6.346   3.332
 2390SOL     OW 8068   4.952   3.661   4.738
 2390SOL    HW1 8069   4.962   3.736   4.672
 2390SOL    HW2 8070   4.909   3.695   4.822
 2391SOL     OW 8071   2.387   4.416   0.050
 2391SOL    HW1 8072   2.389   4.401   0.149
 2391SOL    HW2 8073   2.380   4.328   0.003
 2392SOL     OW 8074   4.104   4.959   5.492
 2392SOL    HW1 8075   4.044   4.981   5.415
 2392SOL    HW2 8076   4.152   5.042   5.523
 2393SOL     OW 8077   5.297   4.826   0.821
 2393SOL    HW1 8078   5.362   4.762   0.861
 2393SOL    HW2 8079   5.323   4.846   0.727
 2394SOL     OW 8080   6.832   2.311   2.785
 2394SOL    HW1 8081   6.872   2.230   2.829
 2394SOL    HW2 8082   6.859   2.393   2.834
 2395SOL     OW 8083   0.811   3.149   3.175
 2395SOL    HW1 8084   0.736   3.210   3.152
 2395SOL    HW2 8085   0.844   3.103   3.092
 2396SOL     OW 8086   0.648   6.737   5.027
 2396SOL    HW1 8087   0.689   6.649   5.004
 2396SOL    HW2 8088   0.564   6.749   4.975
 2397SOL     OW 8089   2.730   4.823   5.728
 2397SOL    HW1 8090   2.722   4.818   5.628
 2397SOL    HW2 8091   2.728   4.918   5.757
 2398SOL     OW 8092   3.726   6.284   5.121
 2398SOL    HW1 8093   3.771   6.273   5.032
 2398SOL    HW2 8094   3.795   6.306   5.190
 2399SOL     OW 8095   2.799   1.485   1.772
 2399SOL    HW1 8096   2.784   1.387   1.758
 2399SOL    HW2 8097   2.763   1.512   1.862
 2400SOL     OW 8098   0.747   2.095   6.402
 2400SOL    HW1 8099   0.686   2.125   6.475
 2400SOL    HW2 8100   0.768   1.997   6.414
 2401SOL     OW 8101   1.615   6.735   0.893
 2401SOL    HW1 8102   1.677   6.799   0.846
 2401SOL    HW2 8103   1.587   6.664   0.829
 2402SOL     OW 8104   0.618   3.197   1.548
 2402SOL    HW1 8105   0.702   3.214   1.599
 2402SOL    HW2 8106   0.622   3.248   1.462
 2403SOL     OW 8107   3.236   4.182   5.261
 2403SOL    HW1 8108   3.320   4.234   5.273
 2403SOL    HW2 8109   3.157   4.243   5.276
 2404SOL     OW 8110   6.749   2.332   1.504
 2404SOL    HW1 8111   6.822   2.268   1.526
 2404SOL    HW2 8112   6.690   2.292   1.433
 2405SOL     OW 8113   2.679   3.568   0.442
 2405SOL    HW1 8114   2.705   3.473   0.428
 2405SOL    HW2 8115   2.735   3.627   0.385
 2406SOL     OW 8116   4.792   5.933   5.868
 2406SOL    HW1 8117   4.763   5.937   5.963
 2406SOL    HW2 8118   4.887   5.965   5.861
 2407SOL     OW 8119   2.607   1.983   3.810
 2407SOL    HW1 8120   2.652   1.902   3.773
 2407SOL    HW2 8121   2.526   2.005   3.755
 2408SOL     OW 8122   4.618   6.615   5.520
 2408SOL    HW1 8123   4.607   6.678   5.597
 2408SOL    HW2 8124   4.606   6.665   5.434
 2409SOL     OW 8125   2.026   2.122   0.188
 2409SOL    HW1 8126   1.960   2.055   0.155
 2409SOL    HW2 8127   2.119   2.093   0.163
 2410SOL     OW 8128   7.003   3.657   4.580
 2410SOL    HW1 8129   7.015   3.563   4.613
 2410SOL    HW2 8130   6.937   3.658   4.505
 2411SOL     OW 8131   3.080   0.667   0.968
 2411SOL    HW1 8132   3.048   0.708   1.053
 2411SOL    HW2 8133   3.151   0.600   0.989
 2412SOL     OW 8134   3.084   2.578   0.601
 2412SOL    HW1 8135   3.104   2.620   0.513
 2412SOL    HW2 8136   3.166   2.530   0.635
 2413SOL     OW 8137   0.691   4.035   6.655
 2413SOL    HW1 8138   0.637   4.107   6.700
 2413SOL    HW2 8139   0.758   3.999   6.719
 2414SOL     OW 8140   6.054   2.249   5.342
 2414SOL    HW1 8141   5.959   2.218   5.348
 2414SOL    HW2 8142   6.091   2.225   5.253
 2415SOL     OW 8143   3.055   4.147   5.641
 2415SOL    HW1 8144   3.101   4.068   5.601
 2415SOL    HW2 8145   2.998   4.118   5.718
 2416SOL     OW 8146   6.742   3.305   3.566
 2416SOL    HW1 8147   6.740   3.404   3.549
 2416SOL    HW2 8148   6.741   3.289   3.665
 2417SOL     OW 8149   2.811   2.626   1.595
 2417SOL    HW1 8150   2.901   2.661   1.622
 2417SOL    HW2 8151   2.761   2.596   1.677
 2418SOL     OW 8152   6.515   3.636   6.274
 2418SOL    HW1 8153   6.444   3.622   6.206
 2418SOL    HW2 8154   6.562   3.722   6.257
 2419SOL     OW 8155   2.651   1.547   2.730
 2419SOL    HW1 8156   2.638   1.507   2.640
 2419SOL    HW2 8157   2.749   1.551   2.751
 2420SOL     OW 8158   0.528   2.805   1.238
 2420SOL    HW1 8159   0.619   2.814   1.278
 2420SOL    HW2 8160   0.512   2.710   1.212
 2421SOL     OW 8161   2.576   0.766   3.231
 2421SOL    HW1 8162   2.496   0.822   3.250
 2421SOL    HW2 8163   2.546   0.675   3.199
 2422SOL     OW 8164   3.977   6.986   0.249
 2422SOL    HW1 8165   4.018   0.052   0.264
 2422SOL    HW2 8166   3.887   6.983   0.291
 2423SOL     OW 8167   3.802   4.988   5.072
 2423SOL    HW1 8168   3.843   5.029   4.990
 2423SOL    HW2 8169   3.703   4.981   5.060
 2424SOL     OW 8170   5.366   0.282   6.322
 2424SOL    HW1 8171   5.358   0.382   6.313
 2424SOL    HW2 8172   5.275   0.243   6.334
 2425SOL     OW 8173   5.107   5.370   4.932
 2425SOL    HW1 8174   5.021   5.411   4.961
 2425SOL    HW2 8175   5.108   5.361   4.832
 2426SOL     OW 8176   3.072   2.092   5.220
 2426SOL    HW1 8177   3.101   2.156   5.148
 2426SOL    HW2 8178   3.085   2.134   5.309
 2427SOL     OW 8179   4.091   2.945   6.737
 2427SOL    HW1 8180   4.137   2.856   6.732
 2427SOL    HW2 8181   4.111   2.997   6.654
 2428SOL     OW 8182   1.358   1.454   2.287
 2428SOL    HW1 8183   1.373   1.439   2.190
 2428SOL    HW2 8184   1.269   1.497   2.302
 2429SOL     OW 8185   4.801   5.221   1.639
 2429SOL    HW1 8186   4.786   5.159   1.715
 2429SOL    HW2 8187   4.886   5.196   1.591
 2430SOL     OW 8188   0.079   6.186   6.454
 2430SOL    HW1 8189   7.017   6.228   6.481
 2430SOL    HW2 8190   0.089   6.098   6.500
 2431SOL     OW 8191   1.954   3.270   1.488
 2431SOL    HW1 8192   1.973   3.273   1.586
 2431SOL    HW2 8193   1.961   3.175   1.456
 2432SOL     OW 8194   3.072   5.249   2.868
 2432SOL    HW1 8195   3.149   5.219   2.923
 2432SOL    HW2 8196   2.990   5.197   2.894
 2433SOL     OW 8197   0.384   4.444   4.047
 2433SOL    HW1 8198   0.339   4.410   4.130
 2433SOL    HW2 8199   0.460   4.383   4.023
 2434SOL     OW 8200   3.584   2.120   2.990
 2434SOL    HW1 8201   3.614   2.040   2.938
 2434SOL    HW2 8202   3.496   2.152   2.954
 2435SOL     OW 8203   5.495   6.460   5.910
 2435SOL    HW1 8204   5.489   6.360   5.916
 2435SOL    HW2 8205   5.574   6.485   5.854
 2436SOL     OW 8206   7.002   3.336   0.115
 2436SOL    HW1 8207   0.052   3.303   0.174
 2436SOL    HW2 8208   0.013   3.406   0.053
 2437SOL     OW 8209   1.380   4.616   1.024
 2437SOL    HW1 8210   1.434   4.537   1.055
 2437SOL    HW2 8211   1.393   4.692   1.087
 2438SOL     OW 8212   3.881   1.472   4.803
 2438SOL    HW1 8213   3.843   1.509   4.718
 2438SOL    HW2 8214   3.927   1.385   4.783
 2439SOL     OW 8215   0.590   6.031   6.650
 2439SOL    HW1 8216   0.565   6.056   6.744
 2439SOL    HW2 8217   0.642   5.946   6.651
 2440SOL     OW 8218   0.363   2.372   5.542
 2440SOL    HW1 8219   0.303   2.430   5.598
 2440SOL    HW2 8220   0.321   2.358   5.453
 2441SOL     OW 8221   6.610   6.793   6.830
 2441SOL    HW1 8222   6.552   6.873   6.811
 2441SOL    HW2 8223   6.679   6.817   6.898
 2442SOL     OW 8224   5.926   3.073   3.396
 2442SOL    HW1 8225   5.842   3.122   3.419
 2442SOL    HW2 8226   5.994   3.089   3.467
 2443SOL     OW 8227   0.996   3.428   1.197
 2443SOL    HW1 8228   1.004   3.357   1.126
 2443SOL    HW2 8229   1.015   3.387   1.286
 2444SOL     OW 8230   3.488   5.207   2.456
 2444SOL    HW1 8231   3.390   5.217   2.473
 2444SOL    HW2 8232   3.503   5.141   2.383
 2445SOL     OW 8233   0.469   1.239   1.255
 2445SOL    HW1 8234   0.481   1.272   1.161
 2445SOL    HW2 8235   0.375   1.257   1.285
 2446SOL     OW 8236   6.772   5.464   0.279
 2446SOL    HW1 8237   6.802   5.371   0.298
 2446SOL    HW2 8238   6.822   5.528   0.338
 2447SOL     OW 8239   1.793   0.226   6.548
 2447SOL    HW1 8240   1.759   0.211   6.641
 2447SOL    HW2 8241   1.883   0.268   6.552
 2448SOL     OW 8242   5.077   0.717   4.655
 2448SOL    HW1 8243   5.054   0.621   4.676
 2448SOL    HW2 8244   5.007   0.755   4.596
 2449SOL     OW 8245   1.647   3.692   1.382
 2449SOL    HW1 8246   1.739   3.654   1.388
 2449SOL    HW2 8247   1.624   3.739   1.467
 2450SOL     OW 8248   6.657   6.310   6.200
 2450SOL    HW1 8249   6.756   6.298   6.195
 2450SOL    HW2 8250   6.627   6.302   6.295
 2451SOL     OW 8251   1.064   0.469   0.252
 2451SOL    HW1 8252   0.970   0.502   0.265
 2451SOL    HW2 8253   1.105   0.449   0.341
 2452SOL     OW 8254   1.388   2.481   4.007
 2452SOL    HW1 8255   1.291   2.488   3.980
 2452SOL    HW2 8256   1.401   2.525   4.095
 2453SOL     OW 8257   0.458   1.863   0.162
 2453SOL    HW1 8258   0.468   1.955   0.125
 2453SOL    HW2 8259   0.401   1.865   0.243
 2454SOL     OW 8260   2.228   6.089   1.726
 2454SOL    HW1 8261   2.246   6.004   1.676
 2454SOL    HW2 8262   2.129   6.103   1.731
 2455SOL     OW 8263   4.952   1.935   6.464
 2455SOL    HW1 8264   4.868   1.881   6.467
 2455SOL    HW2 8265   5.030   1.873   6.456
 2456SOL     OW 8266   1.450   2.782   5.896
 2456SOL    HW1 8267   1.355   2.763   5.873
 2456SOL    HW2 8268   1.461   2.880   5.915
 2457SOL     OW 8269   5.785   1.671   6.056
 2457SOL    HW1 8270   5.727   1.656   6.136
 2457SOL    HW2 8271   5.837   1.756   6.066
 2458SOL     OW 8272   1.353   0.013   1.245
 2458SOL    HW1 8273   1.320   0.105   1.224
 2458SOL    HW2 8274   1.448   0.018   1.277
 2459SOL     OW 8275   1.708   0.518   1.186
 2459SOL    HW1 8276   1.728   0.610   1.221
 2459SOL    HW2 8277   1.785   0.458   1.205
 2460SOL     OW 8278   0.521   1.226   4.304
 2460SOL    HW1 8279   0.485   1.136   4.283
 2460SOL    HW2 8280   0.620   1.220   4.319
 2461SOL     OW 8281   2.318   2.002   3.023
 2461SOL    HW1 8282   2.232   1.951   3.018
 2461SOL    HW2 8283   2.330   2.054   2.939
 2462SOL     OW 8284   0.338   5.468   0.719
 2462SOL    HW1 8285   0.283   5.386   0.704
 2462SOL    HW2 8286   0.283   5.549   0.698
 2463SOL     OW 8287   6.529   6.249   0.045
 2463SOL    HW1 8288   6.529   6.347   0.023
 2463SOL    HW2 8289   6.496   6.236   0.138
 2464SOL     OW 8290   1.097   2.865   4.635
 2464SOL    HW1 8291   1.191   2.845   4.609
 2464SOL    HW2 8292   1.046   2.779   4.643
 2465SOL     OW 8293   6.886   1.211   6.665
 2465SOL    HW1 8294   6.797   1.166   6.671
 2465SOL    HW2 8295   6.876   1.298   6.616
 2466SOL     OW 8296   1.126   1.619   1.305
 2466SOL    HW1 8297   1.027   1.608   1.316
 2466SOL    HW2 8298   1.155   1.702   1.352
 2467SOL     OW 8299   4.891   3.366   4.625
 2467SOL    HW1 8300   4.922   3.427   4.551
 2467SOL    HW2 8301   4.896   3.271   4.594
 2468SOL     OW 8302   3.541   6.196   4.404
 2468SOL    HW1 8303   3.631   6.214   4.443
 2468SOL    HW2 8304   3.500   6.117   4.450
 2469SOL     OW 8305   2.719   2.150   6.060
 2469SOL    HW1 8306   2.808   2.175   6.097
 2469SOL    HW2 8307   2.698   2.056   6.087
 2470SOL     OW 8308   1.816   5.412   6.472
 2470SOL    HW1 8309   1.905   5.392   6.429
 2470SOL    HW2 8310   1.769   5.326   6.492
 2471SOL     OW 8311   2.547   5.630   2.610
 2471SOL    HW1 8312   2.595   5.543   2.618
 2471SOL    HW2 8313   2.472   5.620   2.543
 2472SOL     OW 8314   4.844   0.725   2.122
 2472SOL    HW1 8315   4.869   0.631   2.145
 2472SOL    HW2 8316   4.822   0.731   2.025
 2473SOL     OW 8317   0.550   4.015   5.217
 2473SOL    HW1 8318   0.469   4.058   5.179
 2473SOL    HW2 8319   0.592   4.075   5.284
 2474SOL     OW 8320   1.977   0.384   0.818
 2474SOL    HW1 8321   1.905   0.447   0.848
 2474SOL    HW2 8322   2.028   0.426   0.742
 2475SOL     OW 8323   5.454   1.750   0.408
 2475SOL    HW1 8324   5.397   1.774   0.330
 2475SOL    HW2 8325   5.428   1.806   0.487
 2476SOL     OW 8326   3.960   0.012   6.966
 2476SOL    HW1 8327   3.886   0.078   6.949
 2476SOL    HW2 8328   3.976   0.005   0.040
 2477SOL     OW 8329   4.201   1.621   4.230
 2477SOL    HW1 8330   4.235   1.679   4.304
 2477SOL    HW2 8331   4.274   1.605   4.164
 2478SOL     OW 8332   3.145   0.451   3.928
 2478SOL    HW1 8333   3.238   0.444   3.964
 2478SOL    HW2 8334   3.136   0.393   3.847
 2479SOL     OW 8335   6.316   4.174   2.428
 2479SOL    HW1 8336   6.397   4.172   2.487
 2479SOL    HW2 8337   6.237   4.201   2.482
 2480SOL     OW 8338   2.562   2.072   1.712
 2480SOL    HW1 8339   2.656   2.100   1.729
 2480SOL    HW2 8340   2.500   2.149   1.729
 2481SOL     OW 8341   3.392   0.022   2.129
 2481SOL    HW1 8342   3.417   0.026   2.032
 2481SOL    HW2 8343   3.365   6.954   2.153
 2482SOL     OW 8344   6.924   3.099   0.027
 2482SOL    HW1 8345   6.965   3.019   0.070
 2482SOL    HW2 8346   6.942   3.180   0.083
 2483SOL     OW 8347   2.845   1.851   1.124
 2483SOL    HW1 8348   2.782   1.830   1.199
 2483SOL    HW2 8349   2.893   1.768   1.096
 2484SOL     OW 8350   4.399   1.178   5.872
 2484SOL    HW1 8351   4.404   1.130   5.785
 2484SOL    HW2 8352   4.476   1.152   5.930
 2485SOL     OW 8353   0.426   1.456   6.875
 2485SOL    HW1 8354   0.335   1.417   6.867
 2485SOL    HW2 8355   0.427   1.527   6.945
 2486SOL     OW 8356   6.595   5.445   2.707
 2486SOL    HW1 8357   6.679   5.471   2.660
 2486SOL    HW2 8358   6.521   5.436   2.640
 2487SOL     OW 8359   3.922   6.059   6.674
 2487SOL    HW1 8360   3.944   5.964   6.695
 2487SOL    HW2 8361   3.830   6.065   6.635
 2488SOL     OW 8362   0.565   3.349   0.804
 2488SOL    HW1 8363   0.649   3.296   0.818
 2488SOL    HW2 8364   0.486   3.287   0.810
 2489SOL     OW 8365   5.830   5.855   4.625
 2489SOL    HW1 8366   5.801   5.883   4.716
 2489SOL    HW2 8367   5.927   5.879   4.613
 2490SOL     OW 8368   3.198   5.886   3.147
 2490SOL    HW1 8369   3.180   5.974   3.103
 2490SOL    HW2 8370   3.255   5.830   3.088
 2491SOL     OW 8371   3.930   4.301   1.424
 2491SOL    HW1 8372   3.865   4.365   1.382
 2491SOL    HW2 8373   3.992   4.266   1.353
 2492SOL     OW 8374   0.246   4.463   2.256
 2492SOL    HW1 8375   0.264   4.413   2.341
 2492SOL    HW2 8376   0.176   4.533   2.273
 2493SOL     OW 8377   6.150   6.149   0.943
 2493SOL    HW1 8378   6.206   6.219   0.987
 2493SOL    HW2 8379   6.201   6.107   0.867
 2494SOL     OW 8380   6.902   2.994   1.604
 2494SOL    HW1 8381   6.980   2.951   1.558
 2494SOL    HW2 8382   6.893   3.089   1.574
 2495SOL     OW 8383   6.712   3.008   2.296
 2495SOL    HW1 8384   6.701   2.967   2.205
 2495SOL    HW2 8385   6.644   2.968   2.358
 2496SOL     OW 8386   5.398   3.984   5.919
 2496SOL    HW1 8387   5.399   3.892   5.880
 2496SOL    HW2 8388   5.325   3.990   5.987
 2497SOL     OW 8389   0.871   0.198   3.841
 2497SOL    HW1 8390   0.788   0.252   3.855
 2497SOL    HW2 8391   0.888   0.142   3.921
 2498SOL     OW 8392   2.016   2.941   4.251
 2498SOL    HW1 8393   1.973   2.916   4.165
 2498SOL    HW2 8394   1.997   3.037   4.271
 2499SOL     OW 8395   6.177   2.471   0.680
 2499SOL    HW1 8396   6.214   2.380   0.659
 2499SOL    HW2 8397   6.238   2.541   0.644
 2500SOL     OW 8398   3.692   3.691   3.015
 2500SOL    HW1 8399   3.599   3.702   2.979
 2500SOL    HW2 8400   3.700   3.738   3.103
 2501SOL     OW 8401   6.301   5.024   4.250
 2501SOL    HW1 8402   6.351   5.104   4.219
 2501SOL    HW2 8403   6.303   5.019   4.350
 2502SOL     OW 8404   2.313   5.862   3.386
 2502SOL    HW1 8405   2.302   5.859   3.485
 2502SOL    HW2 8406   2.226   5.887   3.343
 2503SOL     OW 8407   2.200   6.972   5.445
 2503SOL    HW1 8408   2.264   7.002   5.517
 2503SOL    HW2 8409   2.223   7.018   5.359
 2504SOL     OW 8410   4.470   1.129   2.339
 2504SOL    HW1 8411   4.391   1.085   2.296
 2504SOL    HW2 8412   4.526   1.173   2.269
 2505SOL     OW 8413   5.472   4.290   4.019
 2505SOL    HW1 8414   5.415   4.367   4.045
 2505SOL    HW2 8415   5.486   4.231   4.099
 2506SOL     OW 8416   6.002   4.887   6.321
 2506SOL    HW1 8417   6.088   4.862   6.276
 2506SOL    HW2 8418   5.938   4.810   6.315
 2507SOL     OW 8419   5.898   3.601   3.754
 2507SOL    HW1 8420   5.993   3.629   3.770
 2507SOL    HW2 8421   5.868   3.541   3.828
 2508SOL     OW 8422   5.635   0.902   3.978
 2508SOL    HW1 8423   5.702   0.864   3.915
 2508SOL    HW2 8424   5.546   0.905   3.934
 2509SOL     OW 8425   0.336   3.902   6.288
 2509SOL    HW1 8426   0.434   3.907   6.268
 2509SOL    HW2 8427   0.286   3.879   6.205
 2510SOL     OW 8428   3.493   3.829   1.980
 2510SOL    HW1 8429   3.538   3.748   2.016
 2510SOL    HW2 8430   3.493   3.902   2.049
 2511SOL     OW 8431   2.125   1.276   5.106
 2511SOL    HW1 8432   2.127   1.243   5.201
 2511SOL    HW2 8433   2.200   1.234   5.055
 2512SOL     OW 8434   2.682   5.000   3.569
 2512SOL    HW1 8435   2.752   5.051   3.619
 2512SOL    HW2 8436   2.600   4.993   3.624
 2513SOL     OW 8437   2.070   5.355   6.351
 2513SOL    HW1 8438   2.028   5.264   6.349
 2513SOL    HW2 8439   2.169   5.346   6.347
 2514SOL     OW 8440   1.246   2.632   2.350
 2514SOL    HW1 8441   1.241   2.552   2.409
 2514SOL    HW2 8442   1.304   2.612   2.271
 2515SOL     OW 8443   0.129   1.828   0.896
 2515SOL    HW1 8444   0.163   1.920   0.881
 2515SOL    HW2 8445   0.063   1.829   0.971
 2516SOL     OW 8446   6.887   2.546   4.922
 2516SOL    HW1 8447   6.847   2.457   4.899
 2516SOL    HW2 8448   6.822   2.599   4.976
 2517SOL     OW 8449   0.432   1.779   4.163
 2517SOL    HW1 8450   0.455   1.712   4.233
 2517SOL    HW2 8451   0.350   1.829   4.191
 2518SOL     OW 8452   3.226   3.322   0.942
 2518SOL    HW1 8453   3.189   3.237   0.980
 2518SOL    HW2 8454   3.150   3.381   0.913
 2519SOL     OW 8455   1.685   0.761   0.374
 2519SOL    HW1 8456   1.652   0.712   0.454
 2519SOL    HW2 8457   1.618   0.831   0.348
 2520SOL     OW 8458   2.504   2.962   1.283
 2520SOL    HW1 8459   2.522   2.924   1.193
 2520SOL    HW2 8460   2.547   3.052   1.291
 2521SOL     OW 8461   6.003   1.702   4.885
 2521SOL    HW1 8462   5.907   1.692   4.910
 2521SOL    HW2 8463   6.026   1.799   4.876
 2522SOL     OW 8464   1.519   2.105   0.585
 2522SOL    HW1 8465   1.528   2.137   0.491
 2522SOL    HW2 8466   1.559   2.173   0.647
 2523SOL     OW 8467   1.085   5.114   4.694
 2523SOL    HW1 8468   1.094   5.128   4.595
 2523SOL    HW2 8469   1.085   5.202   4.741
 2524SOL     OW 8470   0.975   2.326   4.659
 2524SOL    HW1 8471   1.073   2.314   4.674
 2524SOL    HW2 8472   0.941   2.254   4.599
 2525SOL     OW 8473   6.952   3.434   6.340
 2525SOL    HW1 8474   7.013   3.496   6.291
 2525SOL    HW2 8475   6.857   3.449   6.310
 2526SOL     OW 8476   2.592   1.347   1.293
 2526SOL    HW1 8477   2.642   1.434   1.294
 2526SOL    HW2 8478   2.521   1.350   1.222
 2527SOL     OW 8479   3.919   5.275   0.030
 2527SOL    HW1 8480   3.936   5.188   0.077
 2527SOL    HW2 8481   3.822   5.298   0.038
 2528SOL     OW 8482   4.279   5.607   6.476
 2528SOL    HW1 8483   4.321   5.552   6.404
 2528SOL    HW2 8484   4.246   5.546   6.549
 2529SOL     OW 8485   0.196   6.107   5.799
 2529SOL    HW1 8486   0.201   6.206   5.788
 2529SOL    HW2 8487   0.289   6.071   5.811
 2530SOL     OW 8488   2.257   6.287   6.165
 2530SOL    HW1 8489   2.296   6.266   6.254
 2530SOL    HW2 8490   2.330   6.286   6.096
 2531SOL     OW 8491   0.223   4.090   6.476
 2531SOL    HW1 8492   0.238   4.189   6.483
 2531SOL    HW2 8493   0.282   4.053   6.404
 2532SOL     OW 8494   5.142   6.918   2.803
 2532SOL    HW1 8495   5.123   6.830   2.847
 2532SOL    HW2 8496   5.162   6.903   2.706
 2533SOL     OW 8497   4.765   0.265   3.843
 2533SOL    HW1 8498   4.849   0.212   3.830
 2533SOL    HW2 8499   4.780   0.333   3.915
 2534SOL     OW 8500   4.622   1.785   2.515
 2534SOL    HW1 8501   4.650   1.811   2.423
 2534SOL    HW2 8502   4.527   1.813   2.531
 2535SOL     OW 8503   4.286   3.036   6.044
 2535SOL    HW1 8504   4.242   3.094   5.975
 2535SOL    HW2 8505   4.383   3.059   6.050
 2536SOL     OW 8506   0.801   0.622   1.295
 2536SOL    HW1 8507   0.859   0.564   1.352
 2536SOL    HW2 8508   0.851   0.705   1.269
 2537SOL     OW 8509   4.382   6.896   5.182
 2537SOL    HW1 8510   4.326   6.978   5.173
 2537SOL    HW2 8511   4.429   6.877   5.095
 2538SOL     OW 8512   6.104   4.100   3.767
 2538SOL    HW1 8513   6.085   4.038   3.691
 2538SOL    HW2 8514   6.078   4.193   3.742
 2539SOL     OW 8515   4.872   1.878   4.864
 2539SOL    HW1 8516   4.858   1.909   4.958
 2539SOL    HW2 8517   4.938   1.803   4.863
 2540SOL     OW 8518   2.434   2.307   1.728
 2540SOL    HW1 8519   2.486   2.358   1.660
 2540SOL    HW2 8520   2.363   2.366   1.766
 2541SOL     OW 8521   3.012   6.859   4.631
 2541SOL    HW1 8522   3.040   6.937   4.687
 2541SOL    HW2 8523   2.912   6.855   4.628
 2542SOL     OW 8524   1.929   5.519   5.801
 2542SOL    HW1 8525   1.935   5.453   5.876
 2542SOL    HW2 8526   1.855   5.584   5.821
 2543SOL     OW 8527   1.052   1.217   3.621
 2543SOL    HW1 8528   1.133   1.211   3.679
 2543SOL    HW2 8529   1.078   1.252   3.530
 2544SOL     OW 8530   1.169   5.840   6.035
 2544SOL    HW1 8531   1.243   5.892   5.991
 2544SOL    HW2 8532   1.084   5.891   6.029
 2545SOL     OW 8533   3.103   6.369   2.730
 2545SOL    HW1 8534   3.193   6.369   2.774
 2545SOL    HW2 8535   3.036   6.409   2.792
 2546SOL     OW 8536   6.921   1.101   2.850
 2546SOL    HW1 8537   6.999   1.146   2.805
 2546SOL    HW2 8538   6.944   1.083   2.946
 2547SOL     OW 8539   0.166   4.221   4.653
 2547SOL    HW1 8540   0.128   4.198   4.563
 2547SOL    HW2 8541   0.092   4.255   4.712
 2548SOL     OW 8542   6.855   0.862   5.493
 2548SOL    HW1 8543   6.811   0.828   5.577
 2548SOL    HW2 8544   6.787   0.868   5.420
 2549SOL     OW 8545   5.623   2.353   3.520
 2549SOL    HW1 8546   5.610   2.424   3.589
 2549SOL    HW2 8547   5.721   2.335   3.509
 2550SOL     OW 8548   5.963   5.249   0.249
 2550SOL    HW1 8549   6.001   5.273   0.159
 2550SOL    HW2 8550   5.897   5.175   0.239
 2551SOL     OW 8551   1.013   4.712   6.117
 2551SOL    HW1 8552   1.050   4.785   6.174
 2551SOL    HW2 8553   1.088   4.667   6.068
 2552SOL     OW 8554   1.587   6.205   3.169
 2552SOL    HW1 8555   1.608   6.171   3.261
 2552SOL    HW2 8556   1.673   6.218   3.119
 2553SOL     OW 8557   4.552   2.800   0.465
 2553SOL    HW1 8558   4.619   2.847   0.408
 2553SOL    HW2 8559   4.478   2.862   0.488
 2554SOL     OW 8560   0.655   1.828   0.480
 2554SOL    HW1 8561   0.584   1.758   0.485
 2554SOL    HW2 8562   0.620   1.908   0.431
 2555SOL     OW 8563   0.230   6.960   5.548
 2555SOL    HW1 8564   0.314   7.005   5.518
 2555SOL    HW2 8565   0.151   7.001   5.502
 2556SOL     OW 8566   4.191   4.913   7.024
 2556SOL    HW1 8567   4.262   4.978   6.995
 2556SOL    HW2 8568   4.202   4.828   6.972
 2557SOL     OW 8569   2.303   4.813   6.528
 2557SOL    HW1 8570   2.229   4.803   6.461
 2557SOL    HW2 8571   2.292   4.745   6.600
 2558SOL     OW 8572   4.250   0.978   5.054
 2558SOL    HW1 8573   4.204   0.951   4.969
 2558SOL    HW2 8574   4.337   1.022   5.031
 2559SOL     OW 8575   6.878   5.013   5.060
 2559SOL    HW1 8576   6.905   4.924   5.023
 2559SOL    HW2 8577   6.909   5.085   4.998
 2560SOL     OW 8578   6.366   0.039   0.381
 2560SOL    HW1 8579   6.404   0.131   0.391
 2560SOL    HW2 8580   6.393   0.001   0.293
 2561SOL     OW 8581   3.317   6.195   3.896
 2561SOL    HW1 8582   3.250   6.181   3.969
 2561SOL    HW2 8583   3.319   6.292   3.871
 2562SOL     OW 8584   1.850   3.928   0.223
 2562SOL    HW1 8585   1.752   3.940   0.206
 2562SOL    HW2 8586   1.897   3.909   0.137
 2563SOL     OW 8587   1.596   0.539   1.703
 2563SOL    HW1 8588   1.571   0.547   1.607
 2563SOL    HW2 8589   1.545   0.464   1.745
 2564SOL     OW 8590   1.067   6.121   2.641
 2564SOL    HW1 8591   0.984   6.178   2.640
 2564SOL    HW2 8592   1.122   6.145   2.721
 2565SOL     OW 8593   0.913   1.192   0.747
 2565SOL    HW1 8594   0.915   1.233   0.838
 2565SOL    HW2 8595   0.940   1.260   0.679
 2566SOL     OW 8596   2.582   6.345   5.152
 2566SOL    HW1 8597   2.626   6.304   5.232
 2566SOL    HW2 8598   2.502   6.398   5.182
 2567SOL     OW 8599   1.101   0.575   0.558
 2567SOL    HW1 8600   1.136   0.481   0.550
 2567SOL    HW2 8601   1.178   0.638   0.570
 2568SOL     OW 8602   5.837   3.515   0.519
 2568SOL    HW1 8603   5.881   3.521   0.430
 2568SOL    HW2 8604   5.825   3.607   0.557
 2569SOL     OW 8605   2.105   1.101   2.429
 2569SOL    HW1 8606   2.181   1.070   2.373
 2569SOL    HW2 8607   2.131   1.097   2.526
 2570SOL     OW 8608   6.590   2.839   6.279
 2570SOL    HW1 8609   6.613   2.753   6.233
 2570SOL    HW2 8610   6.675   2.889   6.300
 2571SOL     OW 8611   1.442   4.424   4.080
 2571SOL    HW1 8612   1.362   4.366   4.060
 2571SOL    HW2 8613   1.524   4.367   4.086
 2572SOL     OW 8614   1.471   4.861   3.109
 2572SOL    HW1 8615   1.468   4.961   3.102
 2572SOL    HW2 8616   1.495   4.821   3.021
 2573SOL     OW 8617   1.178   6.961   0.560
 2573SOL    HW1 8618   1.273   6.986   0.544
 2573SOL    HW2 8619   1.172   6.897   0.637
 2574SOL     OW 8620   6.653   3.109   1.672
 2574SOL    HW1 8621   6.712   3.030   1.653
 2574SOL    HW2 8622   6.620   3.103   1.766
 2575SOL     OW 8623   1.031   0.214   5.076
 2575SOL    HW1 8624   1.009   0.184   4.983
 2575SOL    HW2 8625   1.118   0.174   5.105
 2576SOL     OW 8626   4.609   6.695   5.150
 2576SOL    HW1 8627   4.516   6.731   5.148
 2576SOL    HW2 8628   4.619   6.623   5.082
 2577SOL     OW 8629   2.016   3.835   2.215
 2577SOL    HW1 8630   2.112   3.855   2.232
 2577SOL    HW2 8631   1.962   3.861   2.295
 2578SOL     OW 8632   3.894   1.829   1.932
 2578SOL    HW1 8633   3.971   1.785   1.887
 2578SOL    HW2 8634   3.821   1.762   1.947
 2579SOL     OW 8635   0.297   6.457   3.081
 2579SOL    HW1 8636   0.283   6.372   3.030
 2579SOL    HW2 8637   0.367   6.513   3.036
 2580SOL     OW 8638   2.834   2.133   5.794
 2580SOL    HW1 8639   2.871   2.226   5.784
 2580SOL    HW2 8640   2.798   2.121   5.886
 2581SOL     OW 8641   3.797   0.767   5.939
 2581SOL    HW1 8642   3.753   0.768   6.029
 2581SOL    HW2 8643   3.729   0.751   5.868
 2582SOL     OW 8644   0.185   3.344   0.330
 2582SOL    HW1 8645   0.213   3.427   0.378
 2582SOL    HW2 8646   0.111   3.300   0.381
 2583SOL     OW 8647   4.755   1.107   1.008
 2583SOL    HW1 8648   4.808   1.139   0.929
 2583SOL    HW2 8649   4.773   1.010   1.024
 2584SOL     OW 8650   2.986   4.078   0.079
 2584SOL    HW1 8651   3.074   4.031   0.090
 2584SOL    HW2 8652   2.930   4.028   0.013
 2585SOL     OW 8653   1.923   5.114   0.309
 2585SOL    HW1 8654   1.941   5.103   0.212
 2585SOL    HW2 8655   1.907   5.024   0.350
 2586SOL     OW 8656   1.902   1.519   2.564
 2586SOL    HW1 8657   1.836   1.520   2.489
 2586SOL    HW2 8658   1.945   1.428   2.569
 2587SOL     OW 8659   5.936   1.288   4.024
 2587SOL    HW1 8660   6.008   1.246   3.969
 2587SOL    HW2 8661   5.847   1.268   3.983
 2588SOL     OW 8662   5.012   1.506   6.396
 2588SOL    HW1 8663   4.958   1.552   6.466
 2588SOL    HW2 8664   5.064   1.431   6.438
 2589SOL     OW 8665   1.335   6.146   0.427
 2589SOL    HW1 8666   1.337   6.153   0.527
 2589SOL    HW2 8667   1.425   6.166   0.390
 2590SOL     OW 8668   3.077   4.082   0.678
 2590SOL    HW1 8669   2.977   4.074   0.671
 2590SOL    HW2 8670   3.101   4.169   0.721
 2591SOL     OW 8671   4.775   6.597   2.512
 2591SOL    HW1 8672   4.865   6.640   2.524
 2591SOL    HW2 8673   4.710   6.637   2.577
 2592SOL     OW 8674   3.388   3.458   1.129
 2592SOL    HW1 8675   3.335   3.402   1.065
 2592SOL    HW2 8676   3.444   3.523   1.077
 2593SOL     OW 8677   2.510   4.522   6.731
 2593SOL    HW1 8678   2.579   4.539   6.661
 2593SOL    HW2 8679   2.550   4.535   6.821
 2594SOL     OW 8680   2.330   2.576   3.314
 2594SOL    HW1 8681   2.265   2.627   3.370
 2594SOL    HW2 8682   2.282   2.506   3.261
 2595SOL     OW 8683   1.322   0.955   2.518
 2595SOL    HW1 8684   1.339   1.050   2.544
 2595SOL    HW2 8685   1.271   0.909   2.590
 2596SOL     OW 8686   6.924   0.579   0.594
 2596SOL    HW1 8687   6.857   0.524   0.543
 2596SOL    HW2 8688   6.939   0.537   0.684
 2597SOL     OW 8689   5.773   5.941   0.236
 2597SOL    HW1 8690   5.784   6.011   0.306
 2597SOL    HW2 8691   5.825   5.860   0.262
 2598SOL     OW 8692   4.868   2.736   2.072
 2598SOL    HW1 8693   4.896   2.720   1.977
 2598SOL    HW2 8694   4.821   2.824   2.079
 2599SOL     OW 8695   2.128   5.463   1.662
 2599SOL    HW1 8696   2.177   5.446   1.747
 2599SOL    HW2 8697   2.107   5.561   1.655
 2600SOL     OW 8698   5.717   5.611   4.688
 2600SOL    HW1 8699   5.669   5.630   4.774
 2600SOL    HW2 8700   5.749   5.697   4.648
 2601SOL     OW 8701   0.074   1.461   3.057
 2601SOL    HW1 8702   0.106   1.423   2.970
 2601SOL    HW2 8703   0.103   1.402   3.132
 2602SOL     OW 8704   2.131   4.542   3.207
 2602SOL    HW1 8705   2.101   4.447   3.205
 2602SOL    HW2 8706   2.060   4.598   3.249
 2603SOL     OW 8707   1.881   6.170   1.913
 2603SOL    HW1 8708   1.877   6.206   2.006
 2603SOL    HW2 8709   1.795   6.191   1.866
 2604SOL     OW 8710   5.087   3.143   2.808
 2604SOL    HW1 8711   5.059   3.061   2.859
 2604SOL    HW2 8712   5.011   3.207   2.803
 2605SOL     OW 8713   1.032   2.143   0.826
 2605SOL    HW1 8714   1.016   2.215   0.758
 2605SOL    HW2 8715   1.098   2.077   0.790
 2606SOL     OW 8716   5.129   3.792   1.018
 2606SOL    HW1 8717   5.097   3.714   1.072
 2606SOL    HW2 8718   5.068   3.870   1.032
 2607SOL     OW 8719   2.302   2.772   2.194
 2607SOL    HW1 8720   2.363   2.832   2.246
 2607SOL    HW2 8721   2.283   2.689   2.248
 2608SOL     OW 8722   3.466   4.827   5.271
 2608SOL    HW1 8723   3.380   4.819   5.323
 2608SOL    HW2 8724   3.513   4.739   5.271
 2609SOL     OW 8725   6.730   1.797   2.350
 2609SOL    HW1 8726   6.690   1.713   2.312
 2609SOL    HW2 8727   6.819   1.814   2.308
 2610SOL     OW 8728   1.056   4.737   5.307
 2610SOL    HW1 8729   1.101   4.822   5.335
 2610SOL    HW2 8730   1.113   4.659   5.334
 2611SOL     OW 8731   4.924   2.080   5.636
 2611SOL    HW1 8732   4.863   2.039   5.704
 2611SOL    HW2 8733   4.989   2.140   5.682
 2612SOL     OW 8734   6.314   5.859   0.128
 2612SOL    HW1 8735   6.365   5.774   0.118
 2612SOL    HW2 8736   6.216   5.839   0.136
 2613SOL     OW 8737   1.799   0.135   0.372
 2613SOL    HW1 8738   1.832   0.226   0.400
 2613SOL    HW2 8739   1.700   0.138   0.358
 2614SOL     OW 8740   6.220   1.732   0.564
 2614SOL    HW1 8741   6.173   1.656   0.609
 2614SOL    HW2 8742   6.276   1.780   0.630
 2615SOL     OW 8743   1.154   2.895   0.120
 2615SOL    HW1 8744   1.101   2.957   0.062
 2615SOL    HW2 8745   1.201   2.948   0.192
 2616SOL     OW 8746   1.236   1.321   5.123
 2616SOL    HW1 8747   1.138   1.341   5.123
 2616SOL    HW2 8748   1.286   1.401   5.157
 2617SOL     OW 8749   6.439   0.028   6.787
 2617SOL    HW1 8750   6.352   7.018   6.754
 2617SOL    HW2 8751   6.428   0.122   6.820
 2618SOL     OW 8752   1.938   6.932   0.491
 2618SOL    HW1 8753   1.897   7.014   0.451
 2618SOL    HW2 8754   2.036   6.948   0.507
 2619SOL     OW 8755   3.996   0.907   2.640
 2619SOL    HW1 8756   3.975   0.825   2.693
 2619SOL    HW2 8757   3.981   0.888   2.543
 2620SOL     OW 8758   5.616   2.428   1.921
 2620SOL    HW1 8759   5.548   2.501   1.921
 2620SOL    HW2 8760   5.581   2.349   1.871
 2621SOL     OW 8761   2.403   6.205   1.104
 2621SOL    HW1 8762   2.361   6.130   1.054
 2621SOL    HW2 8763   2.466   6.255   1.044
 2622SOL     OW 8764   2.333   3.212   0.072
 2622SOL    HW1 8765   2.235   3.197   0.055
 2622SOL    HW2 8766   2.347   3.305   0.105
 2623SOL     OW 8767   0.662   1.836   3.910
 2623SOL    HW1 8768   0.621   1.824   3.820
 2623SOL    HW2 8769   0.626   1.767   3.973
 2624SOL     OW 8770   1.446   0.907   5.546
 2624SOL    HW1 8771   1.518   0.857   5.594
 2624SOL    HW2 8772   1.412   0.851   5.470
 2625SOL     OW 8773   3.213   5.622   5.836
 2625SOL    HW1 8774   3.287   5.556   5.852
 2625SOL    HW2 8775   3.125   5.579   5.857
 2626SOL     OW 8776   0.049   0.105   0.404
 2626SOL    HW1 8777   0.003   0.106   0.315
 2626SOL    HW2 8778   0.117   0.178   0.406
 2627SOL     OW 8779   2.905   0.080   5.405
 2627SOL    HW1 8780   2.971   0.039   5.468
 2627SOL    HW2 8781   2.858   0.156   5.450
 2628SOL     OW 8782   6.999   5.667   2.013
 2628SOL    HW1 8783   0.002   5.714   2.097
 2628SOL    HW2 8784   6.956   5.733   1.951
 2629SOL     OW 8785   3.271   3.331   2.356
 2629SOL    HW1 8786   3.273   3.418   2.307
 2629SOL    HW2 8787   3.178   3.295   2.356
 2630SOL     OW 8788   3.420   1.648   4.728
 2630SOL    HW1 8789   3.380   1.633   4.818
 2630SOL    HW2 8790   3.358   1.704   4.673
 2631SOL     OW 8791   5.310   5.566   0.357
 2631SOL    HW1 8792   5.331   5.469   0.362
 2631SOL    HW2 8793   5.295   5.592   0.261
 2632SOL     OW 8794   4.080   5.753   1.950
 2632SOL    HW1 8795   4.096   5.798   2.038
 2632SOL    HW2 8796   4.030   5.668   1.964
 2633SOL     OW 8797   6.785   3.122   6.293
 2633SOL    HW1 8798   6.798   3.173   6.379
 2633SOL    HW2 8799   6.698   3.149   6.252
 2634SOL     OW 8800   2.207   1.954   6.197
 2634SOL    HW1 8801   2.282   1.914   6.144
 2634SOL    HW2 8802   2.153   2.014   6.138
 2635SOL     OW 8803   4.242   5.573   3.176
 2635SOL    HW1 8804   4.210   5.666   3.193
 2635SOL    HW2 8805   4.163   5.513   3.158
 2636SOL     OW 8806   3.635   6.771   6.172
 2636SOL    HW1 8807   3.593   6.782   6.262
 2636SOL    HW2 8808   3.661   6.675   6.159
 2637SOL     OW 8809   6.055   1.161   2.986
 2637SOL    HW1 8810   6.139   1.194   2.942
 2637SOL    HW2 8811   5.992   1.238   2.998
 2638SOL     OW 8812   0.204   6.187   4.641
 2638SOL    HW1 8813   0.298   6.185   4.607
 2638SOL    HW2 8814   0.197   6.131   4.723
 2639SOL     OW 8815   4.894   5.539   4.972
 2639SOL    HW1 8816   4.808   5.547   5.023
 2639SOL    HW2 8817   4.892   5.603   4.894
 2640SOL     OW 8818   1.581   0.932   2.824
 2640SOL    HW1 8819   1.509   1.000   2.809
 2640SOL    HW2 8820   1.545   0.858   2.881
 2641SOL     OW 8821   4.691   2.239   1.261
 2641SOL    HW1 8822   4.596   2.248   1.290
 2641SOL    HW2 8823   4.749   2.300   1.315
 2642SOL     OW 8824   0.443   0.447   3.080
 2642SOL    HW1 8825   0.417   0.382   3.008
 2642SOL    HW2 8826   0.539   0.472   3.069
 2643SOL     OW 8827   1.679   5.099   4.899
 2643SOL    HW1 8828   1.673   5.178   4.838
 2643SOL    HW2 8829   1.607   5.034   4.878
 2644SOL     OW 8830   5.578   5.648   3.757
 2644SOL    HW1 8831   5.536   5.604   3.836
 2644SOL    HW2 8832   5.551   5.744   3.754
 2645SOL     OW 8833   4.504   5.635   2.455
 2645SOL    HW1 8834   4.509   5.715   2.396
 2645SOL    HW2 8835   4.534   5.554   2.405
 2646SOL     OW 8836   1.359   1.274   6.625
 2646SOL    HW1 8837   1.360   1.178   6.596
 2646SOL    HW2 8838   1.267   1.300   6.653
 2647SOL     OW 8839   4.357   0.181   2.638
 2647SOL    HW1 8840   4.344   0.085   2.614
 2647SOL    HW2 8841   4.269   0.227   2.640
 2648SOL     OW 8842   1.698   0.213   6.196
 2648SOL    HW1 8843   1.608   0.231   6.236
 2648SOL    HW2 8844   1.740   0.134   6.241
 2649SOL     OW 8845   5.802   2.013   3.677
 2649SOL    HW1 8846   5.813   2.015   3.578
 2649SOL    HW2 8847   5.705   2.022   3.700
 2650SOL     OW 8848   1.516   6.722   4.369
 2650SOL    HW1 8849   1.506   6.629   4.334
 2650SOL    HW2 8850   1.586   6.770   4.315
 2651SOL     OW 8851   2.971   1.910   2.479
 2651SOL    HW1 8852   2.885   1.898   2.528
 2651SOL    HW2 8853   3.007   2.002   2.496
 2652SOL     OW 8854   4.001   3.560   6.467
 2652SOL    HW1 8855   3.931   3.570   6.397
 2652SOL    HW2 8856   4.084   3.522   6.426
 2653SOL     OW 8857   2.631   6.903   1.111
 2653SOL    HW1 8858   2.679   6.835   1.167
 2653SOL    HW2 8859   2.536   6.910   1.141
 2654SOL     OW 8860   6.453   0.247   1.786
 2654SOL    HW1 8861   6.420   0.156   1.814
 2654SOL    HW2 8862   6.378   0.313   1.794
 2655SOL     OW 8863   5.794   6.810   4.577
 2655SOL    HW1 8864   5.884   6.823   4.534
 2655SOL    HW2 8865   5.754   6.724   4.545
 2656SOL     OW 8866   5.678   0.061   4.667
 2656SOL    HW1 8867   5.750   0.128   4.653
 2656SOL    HW2 8868   5.703   6.999   4.622
 2657SOL     OW 8869   2.088   3.609   5.933
 2657SOL    HW1 8870   2.039   3.607   6.020
 2657SOL    HW2 8871   2.022   3.592   5.858
 2658SOL     OW 8872   3.418   4.177   0.896
 2658SOL    HW1 8873   3.379   4.103   0.841
 2658SOL    HW2 8874   3.396   4.161   0.993
 2659SOL     OW 8875   0.485   2.456   5.153
 2659SOL    HW1 8876   0.464   2.443   5.056
 2659SOL    HW2 8877   0.508   2.369   5.195
 2660SOL     OW 8878   0.726   1.069   0.109
 2660SOL    HW1 8879   0.669   0.989   0.129
 2660SOL    HW2 8880   0.668   1.151   0.108
 2661SOL     OW 8881   1.896   1.282   1.471
 2661SOL    HW1 8882   1.830   1.333   1.526
 2661SOL    HW2 8883   1.954   1.227   1.531
 2662SOL     OW 8884   2.984   1.661   1.619
 2662SOL    HW1 8885   2.956   1.754   1.642
 2662SOL    HW2 8886   2.944   1.597   1.685
 2663SOL     OW 8887   3.543   0.018   0.743
 2663SOL    HW1 8888   3.468   0.078   0.770
 2663SOL    HW2 8889   3.613   0.071   0.697
 2664SOL     OW 8890   4.869   3.359   5.267
 2664SOL    HW1 8891   4.967   3.376   5.263
 2664SOL    HW2 8892   4.819   3.441   5.238
 2665SOL     OW 8893   1.593   3.428   4.398
 2665SOL    HW1 8894   1.623   3.437   4.493
 2665SOL    HW2 8895   1.592   3.518   4.354
 2666SOL     OW 8896   1.959   3.368   2.066
 2666SOL    HW1 8897   1.978   3.442   2.131
 2666SOL    HW2 8898   1.861   3.349   2.064
 2667SOL     OW 8899   6.368   2.560   4.288
 2667SOL    HW1 8900   6.277   2.600   4.284
 2667SOL    HW2 8901   6.424   2.594   4.213
 2668SOL     OW 8902   5.785   0.707   3.085
 2668SOL    HW1 8903   5.798   0.792   3.034
 2668SOL    HW2 8904   5.866   0.689   3.141
 2669SOL     OW 8905   2.386   2.148   2.055
 2669SOL    HW1 8906   2.428   2.190   1.976
 2669SOL    HW2 8907   2.453   2.093   2.104
 2670SOL     OW 8908   0.703   6.572   1.208
 2670SOL    HW1 8909   0.745   6.584   1.298
 2670SOL    HW2 8910   0.732   6.646   1.147
 2671SOL     OW 8911   4.995   4.357   6.613
 2671SOL    HW1 8912   4.968   4.317   6.525
 2671SOL    HW2 8913   5.050   4.438   6.598
 2672SOL     OW 8914   1.450   0.655   2.547
 2672SOL    HW1 8915   1.463   0.731   2.483
 2672SOL    HW2 8916   1.509   0.579   2.521
 2673SOL     OW 8917   3.186   0.894   3.392
 2673SOL    HW1 8918   3.129   0.961   3.439
 2673SOL    HW2 8919   3.132   0.812   3.373
 2674SOL     OW 8920   5.422   5.626   2.528
 2674SOL    HW1 8921   5.482   5.588   2.599
 2674SOL    HW2 8922   5.414   5.725   2.540
 2675SOL     OW 8923   4.643   1.117   3.472
 2675SOL    HW1 8924   4.670   1.070   3.387
 2675SOL    HW2 8925   4.724   1.133   3.528
 2676SOL     OW 8926   3.833   3.590   5.973
 2676SOL    HW1 8927   3.891   3.614   5.895
 2676SOL    HW2 8928   3.774   3.513   5.949
 2677SOL     OW 8929   1.774   5.323   1.271
 2677SOL    HW1 8930   1.706   5.261   1.231
 2677SOL    HW2 8931   1.821   5.373   1.197
 2678SOL     OW 8932   3.612   1.829   1.495
 2678SOL    HW1 8933   3.609   1.747   1.552
 2678SOL    HW2 8934   3.592   1.806   1.400
 2679SOL     OW 8935   2.500   4.694   2.577
 2679SOL    HW1 8936   2.480   4.649   2.664
 2679SOL    HW2 8937   2.584   4.748   2.586
 2680SOL     OW 8938   6.172   1.773   6.585
 2680SOL    HW1 8939   6.089   1.762   6.531
 2680SOL    HW2 8940   6.225   1.689   6.583
 2681SOL     OW 8941   2.368   2.559   2.872
 2681SOL    HW1 8942   2.269   2.548   2.876
 2681SOL    HW2 8943   2.397   2.623   2.943
 2682SOL     OW 8944   3.974   3.710   2.892
 2682SOL    HW1 8945   3.945   3.784   2.953
 2682SOL    HW2 8946   4.057   3.668   2.928
 2683SOL     OW 8947   2.210   3.495   1.407
 2683SOL    HW1 8948   2.273   3.557   1.360
 2683SOL    HW2 8949   2.142   3.461   1.341
 2684SOL     OW 8950   5.508   0.851   3.496
 2684SOL    HW1 8951   5.550   0.876   3.408
 2684SOL    HW2 8952   5.505   0.751   3.504
 2685SOL     OW 8953   1.998   0.004   5.917
 2685SOL    HW1 8954   1.955   6.948   5.956
 2685SOL    HW2 8955   2.001   7.021   5.818
 2686SOL     OW 8956   2.114   2.205   6.023
 2686SOL    HW1 8957   2.145   2.146   5.949
 2686SOL    HW2 8958   2.083   2.293   5.986
 2687SOL     OW 8959   3.694   2.550   1.723
 2687SOL    HW1 8960   3.615   2.611   1.719
 2687SOL    HW2 8961   3.673   2.472   1.782
 2688SOL     OW 8962   4.579   2.411   0.341
 2688SOL    HW1 8963   4.621   2.333   0.295
 2688SOL    HW2 8964   4.514   2.378   0.410
 2689SOL     OW 8965   0.765   3.723   2.389
 2689SOL    HW1 8966   0.723   3.774   2.464
 2689SOL    HW2 8967   0.741   3.767   2.302
 2690SOL     OW 8968   5.219   1.054   3.752
 2690SOL    HW1 8969   5.290   0.983   3.755
 2690SOL    HW2 8970   5.232   1.110   3.670
 2691SOL     OW 8971   5.513   3.907   3.727
 2691SOL    HW1 8972   5.540   3.975   3.659
 2691SOL    HW2 8973   5.559   3.820   3.708
 2692SOL     OW 8974   1.439   6.130   1.384
 2692SOL    HW1 8975   1.459   6.033   1.396
 2692SOL    HW2 8976   1.524   6.180   1.369
 2693SOL     OW 8977   0.858   5.903   2.638
 2693SOL    HW1 8978   0.789   5.875   2.571
 2693SOL    HW2 8979   0.832   5.990   2.679
 2694SOL     OW 8980   3.022   0.789   2.300
 2694SOL    HW1 8981   2.992   0.711   2.356
 2694SOL    HW2 8982   2.944   0.829   2.254
 2695SOL     OW 8983   6.429   5.837   2.992
 2695SOL    HW1 8984   6.411   5.826   3.090
 2695SOL    HW2 8985   6.459   5.931   2.974
 2696SOL     OW 8986   3.893   4.554   6.259
 2696SOL    HW1 8987   3.842   4.634   6.290
 2696SOL    HW2 8988   3.943   4.515   6.336
 2697SOL     OW 8989   4.750   3.402   0.024
 2697SOL    HW1 8990   4.726   3.434   6.956
 2697SOL    HW2 8991   4.687   3.330   0.052
 2698SOL     OW 8992   2.119   5.264   0.464
 2698SOL    HW1 8993   2.141   5.345   0.410
 2698SOL    HW2 8994   2.058   5.205   0.412
 2699SOL     OW 8995   3.002   6.964   2.970
 2699SOL    HW1 8996   2.907   6.945   2.947
 2699SOL    HW2 8997   3.060   6.952   2.890
 2700SOL     OW 8998   4.599   2.288   0.825
 2700SOL    HW1 8999   4.674   2.281   0.892
 2700SOL    HW2 9000   4.531   2.217   0.843
 2701SOL     OW 9001   5.178   4.114   5.456
 2701SOL    HW1 9002   5.213   4.105   5.549
 2701SOL    HW2 9003   5.138   4.027   5.427
 2702SOL     OW 9004   1.536   2.247   4.888
 2702SOL    HW1 9005   1.553   2.329   4.833
 2702SOL    HW2 9006   1.592   2.172   4.852
 2703SOL     OW 9007   2.356   6.293   1.368
 2703SOL    HW1 9008   2.258   6.296   1.389
 2703SOL    HW2 9009   2.369   6.245   1.281
 2704SOL     OW 9010   4.592   0.870   3.051
 2704SOL    HW1 9011   4.600   0.814   2.968
 2704SOL    HW2 9012   4.501   0.911   3.054
 2705SOL     OW 9013   0.887   0.909   5.163
 2705SOL    HW1 9014   0.986   0.917   5.156
 2705SOL    HW2 9015   0.848   0.996   5.191
 2706SOL     OW 9016   1.057   4.352   4.821
 2706SOL    HW1 9017   1.121   4.305   4.761
 2706SOL    HW2 9018   1.065   4.316   4.914
 2707SOL     OW 9019   3.969   0.609   2.692
 2707SOL    HW1 9020   3.909   0.603   2.612
 2707SOL    HW2 9021   3.914   0.631   2.772
 2708SOL     OW 9022   5.353   2.947   5.274
 2708SOL    HW1 9023   5.254   2.962   5.271
 2708SOL    HW2 9024   5.395   3.013   5.336
 2709SOL     OW 9025   5.190   1.350   5.258
 2709SOL    HW1 9026   5.178   1.268   5.313
 2709SOL    HW2 9027   5.150   1.428   5.305
 2710SOL     OW 9028   0.708   2.937   4.189
 2710SOL    HW1 9029   0.636   2.982   4.242
 2710SOL    HW2 9030   0.797   2.953   4.233
 2711SOL     OW 9031   4.693   0.484   1.170
 2711SOL    HW1 9032   4.788   0.499   1.142
 2711SOL    HW2 9033   4.634   0.553   1.127
 2712SOL     OW 9034   4.665   6.377   1.641
 2712SOL    HW1 9035   4.580   6.417   1.607
 2712SOL    HW2 9036   4.644   6.296   1.695
 2713SOL     OW 9037   4.042   4.200   5.366
 2713SOL    HW1 9038   4.069   4.142   5.289
 2713SOL    HW2 9039   4.114   4.267   5.384
 2714SOL     OW 9040   3.110   4.286   5.946
 2714SOL    HW1 9041   3.067   4.347   6.013
 2714SOL    HW2 9042   3.096   4.322   5.854
 2715SOL     OW 9043   4.922   6.850   0.357
 2715SOL    HW1 9044   4.891   6.756   0.361
 2715SOL    HW2 9045   4.907   6.886   0.265
 2716SOL     OW 9046   4.290   0.715   2.041
 2716SOL    HW1 9047   4.353   0.737   2.115
 2716SOL    HW2 9048   4.290   0.616   2.026
 2717SOL     OW 9049   6.763   1.673   1.908
 2717SOL    HW1 9050   6.674   1.686   1.951
 2717SOL    HW2 9051   6.799   1.762   1.880
 2718SOL     OW 9052   6.111   0.892   6.547
 2718SOL    HW1 9053   6.087   0.909   6.643
 2718SOL    HW2 9054   6.031   0.910   6.489
 2719SOL     OW 9055   1.293   4.792   4.486
 2719SOL    HW1 9056   1.215   4.823   4.541
 2719SOL    HW2 9057   1.377   4.797   4.540
 2720SOL     OW 9058   1.916   4.755   5.961
 2720SOL    HW1 9059   1.842   4.689   5.976
 2720SOL    HW2 9060   1.906   4.832   6.024
 2721SOL     OW 9061   2.306   6.194   3.762
 2721SOL    HW1 9062   2.291   6.284   3.722
 2721SOL    HW2 9063   2.302   6.201   3.861
 2722SOL     OW 9064   3.453   4.743   6.746
 2722SOL    HW1 9065   3.516   4.766   6.820
 2722SOL    HW2 9066   3.418   4.650   6.759
 2723SOL     OW 9067   4.581   4.983   0.299
 2723SOL    HW1 9068   4.666   4.939   0.329
 2723SOL    HW2 9069   4.514   4.912   0.274
 2724SOL     OW 9070   0.303   6.232   1.056
 2724SOL    HW1 9071   0.382   6.291   1.072
 2724SOL    HW2 9072   0.232   6.282   1.006
 2725SOL     OW 9073   6.148   4.348   2.973
 2725SOL    HW1 9074   6.170   4.281   2.902
 2725SOL    HW2 9075   6.068   4.317   3.025
 2726SOL     OW 9076   6.323   2.354   2.670
 2726SOL    HW1 9077   6.271   2.290   2.614
 2726SOL    HW2 9078   6.309   2.332   2.767
 2727SOL     OW 9079   1.375   4.309   3.713
 2727SOL    HW1 9080   1.444   4.258   3.661
 2727SOL    HW2 9081   1.392   4.296   3.811
 2728SOL     OW 9082   4.302   4.284   6.764
 2728SOL    HW1 9083   4.280   4.204   6.820
 2728SOL    HW2 9084   4.312   4.255   6.668
 2729SOL     OW 9085   0.397   0.331   0.960
 2729SOL    HW1 9086   0.481   0.353   0.909
 2729SOL    HW2 9087   0.419   0.267   1.034
 2730SOL     OW 9088   1.357   5.351   2.911
 2730SOL    HW1 9089   1.447   5.337   2.870
 2730SOL    HW2 9090   1.330   5.269   2.962
 2731SOL     OW 9091   3.998   4.014   5.583
 2731SOL    HW1 9092   4.095   3.988   5.585
 2731SOL    HW2 9093   3.986   4.091   5.520
 2732SOL     OW 9094   4.316   0.980   1.966
 2732SOL    HW1 9095   4.304   0.882   1.975
 2732SOL    HW2 9096   4.414   1.002   1.967
 2733SOL     OW 9097   0.509   0.481   0.296
 2733SOL    HW1 9098   0.455   0.412   0.344
 2733SOL    HW2 9099   0.484   0.481   0.199
 2734SOL     OW 9100   3.713   6.992   1.784
 2734SOL    HW1 9101   3.757   6.926   1.724
 2734SOL    HW2 9102   3.666   0.037   1.728
 2735SOL     OW 9103   0.935   3.038   2.948
 2735SOL    HW1 9104   0.994   2.957   2.953
 2735SOL    HW2 9105   0.985   3.112   2.902
 2736SOL     OW 9106   5.225   4.624   1.820
 2736SOL    HW1 9107   5.197   4.535   1.785
 2736SOL    HW2 9108   5.308   4.654   1.773
 2737SOL     OW 9109   2.883   0.052   6.423
 2737SOL    HW1 9110   2.954   0.079   6.488
 2737SOL    HW2 9111   2.925   0.003   6.346
 2738SOL     OW 9112   4.937   5.539   1.326
 2738SOL    HW1 9113   5.014   5.518   1.387
 2738SOL    HW2 9114   4.947   5.632   1.292
 2739SOL     OW 9115   0.583   5.623   2.079
 2739SOL    HW1 9116   0.597   5.722   2.070
 2739SOL    HW2 9117   0.665   5.574   2.049
 2740SOL     OW 9118   6.242   5.742   5.230
 2740SOL    HW1 9119   6.173   5.672   5.252
 2740SOL    HW2 9120   6.294   5.764   5.313
 2741SOL     OW 9121   0.058   6.926   0.114
 2741SOL    HW1 9122   0.064   6.871   0.198
 2741SOL    HW2 9123   0.113   6.883   0.043
 2742SOL     OW 9124   2.834   4.923   1.649
 2742SOL    HW1 9125   2.801   4.961   1.563
 2742SOL    HW2 9126   2.764   4.863   1.688
 2743SOL     OW 9127   4.754   2.200   3.794
 2743SOL    HW1 9128   4.850   2.209   3.820
 2743SOL    HW2 9129   4.747   2.198   3.695
 2744SOL     OW 9130   3.381   3.755   3.224
 2744SOL    HW1 9131   3.345   3.705   3.303
 2744SOL    HW2 9132   3.348   3.849   3.226
 2745SOL     OW 9133   0.955   6.351   6.508
 2745SOL    HW1 9134   1.036   6.308   6.470
 2745SOL    HW2 9135   0.928   6.304   6.592
 2746SOL     OW 9136   1.899   1.177   4.062
 2746SOL    HW1 9137   1.822   1.241   4.060
 2746SOL    HW2 9138   1.919   1.152   4.157
 2747SOL     OW 9139   5.301   5.271   0.598
 2747SOL    HW1 9140   5.284   5.189   0.543
 2747SOL    HW2 9141   5.218   5.298   0.646
 2748SOL     OW 9142   4.779   0.634   0.071
 2748SOL    HW1 9143   4.829   0.582   0.140
 2748SOL    HW2 9144   4.721   0.573   0.018
 2749SOL     OW 9145   4.826   0.968   6.679
 2749SOL    HW1 9146   4.812   0.998   6.773
 2749SOL    HW2 9147   4.752   0.906   6.653
 2750SOL     OW 9148   2.129   6.482   1.900
 2750SOL    HW1 9149   2.112   6.401   1.843
 2750SOL    HW2 9150   2.175   6.453   1.984
 2751SOL     OW 9151   6.440   5.572   2.291
 2751SOL    HW1 9152   6.489   5.519   2.222
 2751SOL    HW2 9153   6.382   5.641   2.247
 2752SOL     OW 9154   3.805   5.269   6.364
 2752SOL    HW1 9155   3.741   5.206   6.406
 2752SOL    HW2 9156   3.761   5.359   6.355
 2753SOL     OW 9157   4.303   5.038   4.777
 2753SOL    HW1 9158   4.352   4.967   4.829
 2753SOL    HW2 9159   4.222   4.998   4.734
 2754SOL     OW 9160   0.988   1.092   4.026
 2754SOL    HW1 9161   0.929   1.049   4.095
 2754SOL    HW2 9162   0.992   1.033   3.945
 2755SOL     OW 9163   3.438   0.606   2.282
 2755SOL    HW1 9164   3.510   0.609   2.351
 2755SOL    HW2 9165   3.383   0.523   2.295
 2756SOL     OW 9166   4.080   5.443   6.115
 2756SOL    HW1 9167   4.123   5.450   6.025
 2756SOL    HW2 9168   4.005   5.509   6.121
 2757SOL     OW 9169   1.482   4.816   0.873
 2757SOL    HW1 9170   1.447   4.726   0.900
 2757SOL    HW2 9171   1.461   4.832   0.776
 2758SOL     OW 9172   5.662   0.005   5.248
 2758SOL    HW1 9173   5.589   7.011   5.182
 2758SOL    HW2 9174   5.658   6.962   5.322
 2759SOL     OW 9175   4.383   4.889   2.762
 2759SOL    HW1 9176   4.388   4.970   2.704
 2759SOL    HW2 9177   4.433   4.814   2.719
 2760SOL     OW 9178   0.185   0.239   3.443
 2760SOL    HW1 9179   0.249   0.252   3.367
 2760SOL    HW2 9180   0.100   0.288   3.423
 2761SOL     OW 9181   2.756   4.750   4.797
 2761SOL    HW1 9182   2.765   4.687   4.874
 2761SOL    HW2 9183   2.746   4.843   4.831
 2762SOL     OW 9184   1.553   2.440   5.490
 2762SOL    HW1 9185   1.582   2.503   5.562
 2762SOL    HW2 9186   1.515   2.492   5.414
 2763SOL     OW 9187   5.933   0.296   1.856
 2763SOL    HW1 9188   5.845   0.281   1.901
 2763SOL    HW2 9189   5.922   0.291   1.757
 2764SOL     OW 9190   6.417   0.352   1.288
 2764SOL    HW1 9191   6.461   0.324   1.373
 2764SOL    HW2 9192   6.419   0.276   1.223
 2765SOL     OW 9193   5.219   1.942   3.435
 2765SOL    HW1 9194   5.253   1.937   3.529
 2765SOL    HW2 9195   5.229   1.852   3.391
 2766SOL     OW 9196   4.994   6.713   1.937
 2766SOL    HW1 9197   5.033   6.751   1.853
 2766SOL    HW2 9198   4.896   6.733   1.940
 2767SOL     OW 9199   6.812   4.489   5.753
 2767SOL    HW1 9200   6.773   4.528   5.836
 2767SOL    HW2 9201   6.894   4.437   5.775
 2768SOL     OW 9202   5.556   0.322   5.659
 2768SOL    HW1 9203   5.515   0.232   5.643
 2768SOL    HW2 9204   5.540   0.380   5.579
 2769SOL     OW 9205   0.782   4.258   1.919
 2769SOL    HW1 9206   0.702   4.309   1.887
 2769SOL    HW2 9207   0.858   4.272   1.856
 2770SOL     OW 9208   4.555   6.628   2.096
 2770SOL    HW1 9209   4.462   6.591   2.088
 2770SOL    HW2 9210   4.600   6.588   2.176
 2771SOL     OW 9211   4.528   0.744   1.118
 2771SOL    HW1 9212   4.447   0.790   1.081
 2771SOL    HW2 9213   4.509   0.711   1.211
 2772SOL     OW 9214   3.829   0.483   0.671
 2772SOL    HW1 9215   3.861   0.408   0.729
 2772SOL    HW2 9216   3.755   0.532   0.719
 2773SOL     OW 9217   3.266   5.217   1.405
 2773SOL    HW1 9218   3.257   5.196   1.308
 2773SOL    HW2 9219   3.307   5.308   1.416
 2774SOL     OW 9220   4.934   2.996   1.825
 2774SOL    HW1 9221   5.005   3.048   1.872
 2774SOL    HW2 9222   4.856   2.983   1.886
 2775SOL     OW 9223   0.818   6.882   1.377
 2775SOL    HW1 9224   0.734   6.897   1.325
 2775SOL    HW2 9225   0.897   6.890   1.316
 2776SOL     OW 9226   2.726   5.656   0.022
 2776SOL    HW1 9227   2.719   5.590   6.971
 2776SOL    HW2 9228   2.709   5.610   0.109
 2777SOL     OW 9229   0.883   2.366   4.370
 2777SOL    HW1 9230   0.861   2.387   4.275
 2777SOL    HW2 9231   0.802   2.378   4.427
 2778SOL     OW 9232   3.448   2.371   5.320
 2778SOL    HW1 9233   3.368   2.381   5.262
 2778SOL    HW2 9234   3.469   2.274   5.333
 2779SOL     OW 9235   6.085   0.535   0.238
 2779SOL    HW1 9236   6.181   0.534   0.208
 2779SOL    HW2 9237   6.045   0.445   0.225
 2780SOL     OW 9238   2.863   6.324   6.112
 2780SOL    HW1 9239   2.861   6.232   6.150
 2780SOL    HW2 9240   2.955   6.344   6.078
 2781SOL     OW 9241   5.681   3.405   6.471
 2781SOL    HW1 9242   5.755   3.463   6.437
 2781SOL    HW2 9243   5.620   3.459   6.528
 2782SOL     OW 9244   3.727   0.704   6.204
 2782SOL    HW1 9245   3.692   0.751   6.285
 2782SOL    HW2 9246   3.756   0.611   6.230
 2783SOL     OW 9247   0.452   3.767   5.466
 2783SOL    HW1 9248   0.548   3.767   5.439
 2783SOL    HW2 9249   0.395   3.744   5.387
 2784SOL     OW 9250   2.685   1.851   1.880
 2784SOL    HW1 9251   2.738   1.873   1.798
 2784SOL    HW2 9252   2.588   1.864   1.862
 2785SOL     OW 9253   5.513   3.244   2.181
 2785SOL    HW1 9254   5.508   3.153   2.221
 2785SOL    HW2 9255   5.515   3.312   2.254
 2786SOL     OW 9256   4.292   0.501   0.786
 2786SOL    HW1 9257   4.228   0.576   0.805
 2786SOL    HW2 9258   4.280   0.429   0.856
 2787SOL     OW 9259   1.454   4.270   5.637
 2787SOL    HW1 9260   1.499   4.230   5.557
 2787SOL    HW2 9261   1.470   4.369   5.639
 2788SOL     OW 9262   1.639   2.087   1.043
 2788SOL    HW1 9263   1.663   1.994   1.017
 2788SOL    HW2 9264   1.599   2.134   0.964
 2789SOL     OW 9265   6.848   3.370   3.162
 2789SOL    HW1 9266   6.899   3.329   3.238
 2789SOL    HW2 9267   6.765   3.316   3.144
 2790SOL     OW 9268   3.111   6.305   5.038
 2790SOL    HW1 9269   3.156   6.233   4.986
 2790SOL    HW2 9270   3.151   6.394   5.014
 2791SOL     OW 9271   2.082   3.574   2.234
 2791SOL    HW1 9272   2.139   3.547   2.157
 2791SOL    HW2 9273   2.043   3.665   2.216
 2792SOL     OW 9274   0.070   1.842   5.866
 2792SOL    HW1 9275   0.077   1.759   5.810
 2792SOL    HW2 9276   0.158   1.888   5.868
 2793SOL     OW 9277   5.293   0.553   5.021
 2793SOL    HW1 9278   5.245   0.549   5.109
 2793SOL    HW2 9279   5.367   0.485   5.020
 2794SOL     OW 9280   0.390   1.174   2.651
 2794SOL    HW1 9281   0.310   1.126   2.613
 2794SOL    HW2 9282   0.411   1.253   2.594
 2795SOL     OW 9283   1.425   3.427   0.782
 2795SOL    HW1 9284   1.416   3.505   0.845
 2795SOL    HW2 9285   1.390   3.344   0.827
 2796SOL     OW 9286   3.907   5.330   2.273
 2796SOL    HW1 9287   3.873   5.340   2.367
 2796SOL    HW2 9288   3.921   5.421   2.234
 2797SOL     OW 9289   5.348   4.522   5.490
 2797SOL    HW1 9290   5.261   4.571   5.482
 2797SOL    HW2 9291   5.359   4.462   5.411
 2798SOL     OW 9292   1.875   3.801   3.149
 2798SOL    HW1 9293   1.892   3.781   3.052
 2798SOL    HW2 9294   1.885   3.716   3.202
 2799SOL     OW 9295   6.919   6.106   0.142
 2799SOL    HW1 9296   6.962   6.016   0.133
 2799SOL    HW2 9297   6.909   6.147   0.052
 2800SOL     OW 9298   2.791   0.956   6.294
 2800SOL    HW1 9299   2.719   1.020   6.319
 2800SOL    HW2 9300   2.848   0.937   6.374
 2801SOL     OW 9301   3.985   5.668   1.477
 2801SOL    HW1 9302   4.068   5.633   1.435
 2801SOL    HW2 9303   4.008   5.726   1.556
 2802SOL     OW 9304   6.278   0.111   6.469
 2802SOL    HW1 9305   6.274   0.083   6.373
 2802SOL    HW2 9306   6.281   0.211   6.474
 2803SOL     OW 9307   3.274   5.897   4.672
 2803SOL    HW1 9308   3.184   5.940   4.673
 2803SOL    HW2 9309   3.293   5.857   4.761
 2804SOL     OW 9310   0.812   5.069   2.510
 2804SOL    HW1 9311   0.902   5.029   2.493
 2804SOL    HW2 9312   0.795   5.142   2.444
 2805SOL     OW 9313   6.942   4.364   6.615
 2805SOL    HW1 9314   6.907   4.286   6.665
 2805SOL    HW2 9315   0.006   4.392   6.653
 2806SOL     OW 9316   5.491   3.894   2.125
 2806SOL    HW1 9317   5.501   3.993   2.130
 2806SOL    HW2 9318   5.421   3.870   2.058
 2807SOL     OW 9319   3.815   4.944   4.022
 2807SOL    HW1 9320   3.720   4.914   4.015
 2807SOL    HW2 9321   3.868   4.908   3.945
 2808SOL     OW 9322   4.474   0.449   4.044
 2808SOL    HW1 9323   4.571   0.471   4.046
 2808SOL    HW2 9324   4.443   0.422   4.135
 2809SOL     OW 9325   5.095   1.747   0.576
 2809SOL    HW1 9326   5.168   1.806   0.611
 2809SOL    HW2 9327   5.069   1.776   0.485
 2810SOL     OW 9328   2.785   0.890   6.024
 2810SOL    HW1 9329   2.854   0.822   5.999
 2810SOL    HW2 9330   2.782   0.900   6.123
 2811SOL     OW 9331   0.165   0.571   4.139
 2811SOL    HW1 9332   0.143   0.597   4.045
 2811SOL    HW2 9333   0.245   0.623   4.169
 2812SOL     OW 9334   4.644   4.378   2.523
 2812SOL    HW1 9335   4.625   4.396   2.426
 2812SOL    HW2 9336   4.717   4.310   2.531
 2813SOL     OW 9337   6.259   1.817   6.167
 2813SOL    HW1 9338   6.300   1.844   6.254
 2813SOL    HW2 9339   6.242   1.718   6.167
 2814SOL     OW 9340   5.756   4.727   5.561
 2814SOL    HW1 9341   5.778   4.733   5.659
 2814SOL    HW2 9342   5.658   4.743   5.549
 2815SOL     OW 9343   1.579   1.647   4.288
 2815SOL    HW1 9344   1.670   1.608   4.298
 2815SOL    HW2 9345   1.574   1.702   4.205
 2816SOL     OW 9346   4.059   6.387   3.407
 2816SOL    HW1 9347   4.073   6.361   3.502
 2816SOL    HW2 9348   3.982   6.337   3.369
 2817SOL     OW 9349   1.217   1.043   1.128
 2817SOL    HW1 9350   1.216   1.140   1.104
 2817SOL    HW2 9351   1.307   1.018   1.165
 2818SOL     OW 9352   1.268   2.241   6.425
 2818SOL    HW1 9353   1.274   2.337   6.399
 2818SOL    HW2 9354   1.265   2.184   6.343
 2819SOL     OW 9355   6.411   3.271   2.622
 2819SOL    HW1 9356   6.407   3.363   2.584
 2819SOL    HW2 9357   6.505   3.247   2.643
 2820SOL     OW 9358   5.462   3.289   3.931
 2820SOL    HW1 9359   5.452   3.368   3.871
 2820SOL    HW2 9360   5.477   3.320   4.025
 2821SOL     OW 9361   1.295   3.281   2.954
 2821SOL    HW1 9362   1.320   3.255   2.860
 2821SOL    HW2 9363   1.197   3.268   2.967
 2822SOL     OW 9364   3.326   2.087   0.387
 2822SOL    HW1 9365   3.352   2.157   0.454
 2822SOL    HW2 9366   3.227   2.072   0.391
 2823SOL     OW 9367   1.932   1.033   4.290
 2823SOL    HW1 9368   1.929   0.957   4.225
 2823SOL    HW2 9369   1.842   1.043   4.333
 2824SOL     OW 9370   3.073   2.884   6.214
 2824SOL    HW1 9371   3.140   2.809   6.219
 2824SOL    HW2 9372   3.111   2.958   6.159
 2825SOL     OW 9373   5.803   6.041   1.170
 2825SOL    HW1 9374   5.798   5.979   1.248
 2825SOL    HW2 9375   5.734   6.113   1.180
 2826SOL     OW 9376   5.886   4.316   4.850
 2826SOL    HW1 9377   5.892   4.411   4.880
 2826SOL    HW2 9378   5.940   4.258   4.911
 2827SOL     OW 9379   0.534   0.014   5.977
 2827SOL    HW1 9380   0.628   0.044   5.993
 2827SOL    HW2 9381   0.512   0.028   5.880
 2828SOL     OW 9382   3.455   2.508   6.475
 2828SOL    HW1 9383   3.477   2.529   6.380
 2828SOL    HW2 9384   3.467   2.410   6.492
 2829SOL     OW 9385   3.088   1.190   0.410
 2829SOL    HW1 9386   3.078   1.102   0.456
 2829SOL    HW2 9387   3.118   1.259   0.477
 2830SOL     OW 9388   2.855   4.073   0.323
 2830SOL    HW1 9389   2.882   4.163   0.358
 2830SOL    HW2 9390   2.901   4.054   0.237
 2831SOL     OW 9391   6.384   6.399   4.141
 2831SOL    HW1 9392   6.368   6.422   4.045
 2831SOL    HW2 9393   6.479   6.420   4.165
 2832SOL     OW 9394   0.515   0.702   2.181
 2832SOL    HW1 9395   0.442   0.722   2.116
 2832SOL    HW2 9396   0.491   0.621   2.235
 2833SOL     OW 9397   5.273   2.879   1.911
 2833SOL    HW1 9398   5.323   2.963   1.892
 2833SOL    HW2 9399   5.207   2.895   1.984
 2834SOL     OW 9400   4.799   0.825   4.914
 2834SOL    HW1 9401   4.888   0.841   4.873
 2834SOL    HW2 9402   4.753   0.913   4.930
 2835SOL     OW 9403   6.317   6.244   2.964
 2835SOL    HW1 9404   6.225   6.220   2.993
 2835SOL    HW2 9405   6.379   6.243   3.043
 2836SOL     OW 9406   6.578   6.640   1.214
 2836SOL    HW1 9407   6.537   6.731   1.221
 2836SOL    HW2 9408   6.663   6.646   1.161
 2837SOL     OW 9409   6.178   1.887   4.078
 2837SOL    HW1 9410   6.230   1.947   4.138
 2837SOL    HW2 9411   6.241   1.832   4.023
 2838SOL     OW 9412   2.231   4.566   3.882
 2838SOL    HW1 9413   2.155   4.586   3.944
 2838SOL    HW2 9414   2.203   4.582   3.788
 2839SOL     OW 9415   4.802   3.223   1.435
 2839SOL    HW1 9416   4.900   3.205   1.432
 2839SOL    HW2 9417   4.768   3.211   1.528
 2840SOL     OW 9418   0.955   2.707   4.809
 2840SOL    HW1 9419   0.977   2.753   4.895
 2840SOL    HW2 9420   0.861   2.675   4.812
 2841SOL     OW 9421   0.184   6.231   0.103
 2841SOL    HW1 9422   0.116   6.223   0.030
 2841SOL    HW2 9423   0.193   6.143   0.150
 2842SOL     OW 9424   5.186   3.209   2.274
 2842SOL    HW1 9425   5.091   3.180   2.282
 2842SOL    HW2 9426   5.238   3.142   2.221
 2843SOL     OW 9427   3.925   0.499   3.818
 2843SOL    HW1 9428   4.023   0.508   3.802
 2843SOL    HW2 9429   3.902   0.404   3.838
 2844SOL     OW 9430   1.567   3.902   4.685
 2844SOL    HW1 9431   1.631   3.929   4.757
 2844SOL    HW2 9432   1.473   3.916   4.717
 2845SOL     OW 9433   1.167   4.176   6.538
 2845SOL    HW1 9434   1.168   4.233   6.621
 2845SOL    HW2 9435   1.261   4.158   6.509
 2846SOL     OW 9436   5.813   1.028   5.768
 2846SOL    HW1 9437   5.768   1.103   5.720
 2846SOL    HW2 9438   5.904   1.014   5.729
 2847SOL     OW 9439   3.938   5.111   4.896
 2847SOL    HW1 9440   3.939   5.171   4.976
 2847SOL    HW2 9441   3.900   5.161   4.817
 2848SOL     OW 9442   2.681   6.733   6.210
 2848SOL    HW1 9443   2.717   6.796   6.142
 2848SOL    HW2 9444   2.757   6.685   6.254
 2849SOL     OW 9445   1.915   2.439   1.140
 2849SOL    HW1 9446   1.820   2.453   1.169
 2849SOL    HW2 9447   1.934   2.341   1.136
 2850SOL     OW 9448   4.644   1.158   0.468
 2850SOL    HW1 9449   4.583   1.092   0.424
 2850SOL    HW2 9450   4.643   1.244   0.417
 2851SOL     OW 9451   3.334   6.524   5.401
 2851SOL    HW1 9452   3.286   6.448   5.356
 2851SOL    HW2 9453   3.295   6.539   5.492
 2852SOL     OW 9454   0.456   2.134   6.182
 2852SOL    HW1 9455   0.500   2.154   6.095
 2852SOL    HW2 9456   0.486   2.201   6.251
 2853SOL     OW 9457   3.803   2.981   1.149
 2853SOL    HW1 9458   3.782   2.933   1.234
 2853SOL    HW2 9459   3.747   3.064   1.143
 2854SOL     OW 9460   0.805   1.263   4.215
 2854SOL    HW1 9461   0.762   1.352   4.197
 2854SOL    HW2 9462   0.759   1.192   4.162
 2855SOL     OW 9463   3.157   1.775   3.201
 2855SOL    HW1 9464   3.090   1.785   3.274
 2855SOL    HW2 9465   3.223   1.705   3.225
 2856SOL     OW 9466   3.672   1.671   5.312
 2856SOL    HW1 9467   3.624   1.748   5.354
 2856SOL    HW2 9468   3.629   1.648   5.225
 2857SOL     OW 9469   3.235   3.669   5.378
 2857SOL    HW1 9470   3.156   3.609   5.394
 2857SOL    HW2 9471   3.204   3.764   5.373
 2858SOL     OW 9472   5.660   2.805   3.099
 2858SOL    HW1 9473   5.588   2.841   3.040
 2858SOL    HW2 9474   5.721   2.746   3.045
 2859SOL     OW 9475   6.819   5.213   0.157
 2859SOL    HW1 9476   6.917   5.228   0.170
 2859SOL    HW2 9477   6.795   5.232   0.062
 2860SOL     OW 9478   4.200   2.622   0.716
 2860SOL    HW1 9479   4.259   2.670   0.781
 2860SOL    HW2 9480   4.235   2.530   0.700
 2861SOL     OW 9481   4.354   3.983   6.073
 2861SOL    HW1 9482   4.291   3.975   6.151
 2861SOL    HW2 9483   4.350   3.899   6.018
 2862SOL     OW 9484   6.483   6.601   3.495
 2862SOL    HW1 9485   6.558   6.653   3.536
 2862SOL    HW2 9486   6.519   6.517   3.454
 2863SOL     OW 9487   6.297   6.340   6.535
 2863SOL    HW1 9488   6.272   6.294   6.620
 2863SOL    HW2 9489   6.234   6.313   6.462
 2864SOL     OW 9490   4.704   2.180   0.220
 2864SOL    HW1 9491   4.630   2.121   0.250
 2864SOL    HW2 9492   4.680   2.222   0.132
 2865SOL     OW 9493   4.884   4.588   5.022
 2865SOL    HW1 9494   4.796   4.541   5.012
 2865SOL    HW2 9495   4.914   4.622   4.933
 2866SOL     OW 9496   0.411   0.026   6.219
 2866SOL    HW1 9497   0.416   6.965   6.271
 2866SOL    HW2 9498   0.460   0.015   6.132
 2867SOL     OW 9499   6.320   4.097   4.703
 2867SOL    HW1 9500   6.382   4.119   4.628
 2867SOL    HW2 9501   6.243   4.161   4.703
 2868SOL     OW 9502   1.903   4.929   4.883
 2868SOL    HW1 9503   1.955   4.983   4.816
 2868SOL    HW2 9504   1.819   4.977   4.906
 2869SOL     OW 9505   5.870   2.084   2.735
 2869SOL    HW1 9506   5.856   1.987   2.750
 2869SOL    HW2 9507   5.808   2.117   2.664
 2870SOL     OW 9508   3.821   2.000   1.404
 2870SOL    HW1 9509   3.823   1.951   1.491
 2870SOL    HW2 9510   3.727   2.006   1.371
 2871SOL     OW 9511   1.251   1.022   5.766
 2871SOL    HW1 9512   1.291   1.112   5.783
 2871SOL    HW2 9513   1.317   0.966   5.715
 2872SOL     OW 9514   1.668   0.255   4.277
 2872SOL    HW1 9515   1.741   0.287   4.216
 2872SOL    HW2 9516   1.635   0.166   4.246
 2873SOL     OW 9517   6.490   4.935   2.530
 2873SOL    HW1 9518   6.482   5.020   2.477
 2873SOL    HW2 9519   6.474   4.954   2.626
 2874SOL     OW 9520   5.238   1.978   1.853
 2874SOL    HW1 9521   5.188   1.922   1.787
 2874SOL    HW2 9522   5.177   2.046   1.893
 2875SOL     OW 9523   2.689   5.116   0.302
 2875SOL    HW1 9524   2.669   5.019   0.312
 2875SOL    HW2 9525   2.743   5.148   0.380
 2876SOL     OW 9526   5.923   1.794   1.502
 2876SOL    HW1 9527   5.962   1.703   1.517
 2876SOL    HW2 9528   5.893   1.802   1.407
 2877SOL     OW 9529   1.157   3.270   5.946
 2877SOL    HW1 9530   1.185   3.267   5.850
 2877SOL    HW2 9531   1.223   3.324   5.999
 2878SOL     OW 9532   5.039   4.737   0.825
 2878SOL    HW1 9533   4.979   4.702   0.897
 2878SOL    HW2 9534   5.122   4.774   0.866
 2879SOL     OW 9535   5.557   4.766   6.935
 2879SOL    HW1 9536   5.503   4.718   7.004
 2879SOL    HW2 9537   5.582   4.702   6.862
 2880SOL     OW 9538   1.765   0.892   3.839
 2880SOL    HW1 9539   1.825   0.813   3.849
 2880SOL    HW2 9540   1.702   0.897   3.917
 2881SOL     OW 9541   0.250   0.141   6.905
 2881SOL    HW1 9542   0.167   0.097   6.871
 2881SOL    HW2 9543   0.226   0.228   6.947
 2882SOL     OW 9544   6.514   4.770   3.511
 2882SOL    HW1 9545   6.445   4.843   3.504
 2882SOL    HW2 9546   6.533   4.734   3.419
 2883SOL     OW 9547   3.127   6.512   2.464
 2883SOL    HW1 9548   3.098   6.493   2.558
 2883SOL    HW2 9549   3.111   6.608   2.443
 2884SOL     OW 9550   2.103   4.949   3.013
 2884SOL    HW1 9551   2.155   4.935   3.097
 2884SOL    HW2 9552   2.057   4.864   2.987
 2885SOL     OW 9553   1.038   1.991   4.035
 2885SOL    HW1 9554   1.092   2.043   3.969
 2885SOL    HW2 9555   1.086   1.989   4.123
 2886SOL     OW 9556   2.314   2.285   6.263
 2886SOL    HW1 9557   2.322   2.384   6.248
 2886SOL    HW2 9558   2.273   2.242   6.182
 2887SOL     OW 9559   2.389   7.017   5.673
 2887SOL    HW1 9560   2.381   0.071   5.736
 2887SOL    HW2 9561   2.443   0.020   5.593
 2888SOL     OW 9562   0.266   5.765   0.008
 2888SOL    HW1 9563   0.287   5.825   6.955
 2888SOL    HW2 9564   0.335   5.692   0.013
 2889SOL     OW 9565   0.809   1.226   0.432
 2889SOL    HW1 9566   0.744   1.163   0.475
 2889SOL    HW2 9567   0.768   1.265   0.349
 2890SOL     OW 9568   2.270   0.487   0.312
 2890SOL    HW1 9569   2.205   0.417   0.283
 2890SOL    HW2 9570   2.220   0.566   0.347
 2891SOL     OW 9571   3.042   4.733   5.335
 2891SOL    HW1 9572   3.007   4.666   5.270
 2891SOL    HW2 9573   3.059   4.688   5.423
 2892SOL     OW 9574   3.962   3.941   5.075
 2892SOL    HW1 9575   3.935   3.848   5.097
 2892SOL    HW2 9576   4.051   3.961   5.115
 2893SOL     OW 9577   3.197   0.636   4.970
 2893SOL    HW1 9578   3.154   0.724   4.989
 2893SOL    HW2 9579   3.189   0.615   4.873
 2894SOL     OW 9580   3.317   2.866   2.444
 2894SOL    HW1 9581   3.256   2.795   2.478
 2894SOL    HW2 9582   3.301   2.880   2.347
 2895SOL     OW 9583   3.738   2.994   0.199
 2895SOL    HW1 9584   3.831   3.005   0.234
 2895SOL    HW2 9585   3.736   2.917   0.135
 2896SOL     OW 9586   1.403   4.879   0.600
 2896SOL    HW1 9587   1.318   4.839   0.567
 2896SOL    HW2 9588   1.474   4.870   0.530
 2897SOL     OW 9589   0.129   0.731   3.277
 2897SOL    HW1 9590   0.110   0.805   3.341
 2897SOL    HW2 9591   0.054   0.723   3.211
 2898SOL     OW 9592   1.584   4.684   2.879
 2898SOL    HW1 9593   1.528   4.749   2.828
 2898SOL    HW2 9594   1.578   4.594   2.835
 2899SOL     OW 9595   5.226   1.337   0.670
 2899SOL    HW1 9596   5.159   1.384   0.612
 2899SOL    HW2 9597   5.251   1.395   0.747
 2900SOL     OW 9598   2.111   5.646   6.342
 2900SOL    HW1 9599   2.054   5.566   6.359
 2900SOL    HW2 9600   2.206   5.626   6.367
 2901SOL     OW 9601   2.916   0.167   1.342
 2901SOL    HW1 9602   3.000   0.213   1.313
 2901SOL    HW2 9603   2.930   0.124   1.431
 2902SOL     OW 9604   4.326   4.983   1.535
 2902SOL    HW1 9605   4.293   5.072   1.567
 2902SOL    HW2 9606   4.356   4.991   1.440
 2903SOL     OW 9607   3.083   2.616   1.721
 2903SOL    HW1 9608   3.024   2.568   1.786
 2903SOL    HW2 9609   3.153   2.554   1.687
 2904SOL     OW 9610   2.944   2.086   4.368
 2904SOL    HW1 9611   2.849   2.072   4.396
 2904SOL    HW2 9612   2.994   2.130   4.442
 2905SOL     OW 9613   0.763   2.189   2.373
 2905SOL    HW1 9614   0.761   2.089   2.368
 2905SOL    HW2 9615   0.673   2.223   2.402
 2906SOL     OW 9616   5.536   5.104   2.745
 2906SOL    HW1 9617   5.581   5.168   2.807
 2906SOL    HW2 9618   5.531   5.014   2.788
 2907SOL     OW 9619   6.178   0.254   4.268
 2907SOL    HW1 9620   6.192   0.352   4.282
 2907SOL    HW2 9621   6.252   0.217   4.212
 2908SOL     OW 9622   4.622   5.742   4.639
 2908SOL    HW1 9623   4.591   5.648   4.654
 2908SOL    HW2 9624   4.657   5.752   4.546
 2909SOL     OW 9625   1.995   6.231   6.198
 2909SOL    HW1 9626   1.947   6.276   6.123
 2909SOL    HW2 9627   2.092   6.226   6.177
 2910SOL     OW 9628   4.139   5.572   5.398
 2910SOL    HW1 9629   4.146   5.668   5.425
 2910SOL    HW2 9630   4.065   5.562   5.331
 2911SOL     OW 9631   2.595   4.944   2.733
 2911SOL    HW1 9632   2.552   4.938   2.823
 2911SOL    HW2 9633   2.556   5.022   2.683
 2912SOL     OW 9634   3.009   5.347   0.879
 2912SOL    HW1 9635   3.062   5.403   0.815
 2912SOL    HW2 9636   3.032   5.251   0.867
 2913SOL     OW 9637   0.271   1.863   1.489
 2913SOL    HW1 9638   0.350   1.846   1.429
 2913SOL    HW2 9639   0.189   1.875   1.433
 2914SOL     OW 9640   5.017   4.632   6.216
 2914SOL    HW1 9641   5.032   4.718   6.263
 2914SOL    HW2 9642   5.089   4.567   6.242
 2915SOL     OW 9643   4.453   0.639   3.144
 2915SOL    HW1 9644   4.457   0.540   3.135
 2915SOL    HW2 9645   4.443   0.681   3.054
 2916SOL     OW 9646   5.125   0.683   4.218
 2916SOL    HW1 9647   5.193   0.755   4.206
 2916SOL    HW2 9648   5.064   0.679   4.139
 2917SOL     OW 9649   3.850   0.408   2.185
 2917SOL    HW1 9650   3.906   0.484   2.152
 2917SOL    HW2 9651   3.761   0.410   2.141
 2918SOL     OW 9652   1.377   3.088   4.497
 2918SOL    HW1 9653   1.409   3.024   4.428
 2918SOL    HW2 9654   1.388   3.047   4.588
 2919SOL     OW 9655   6.192   5.282   0.392
 2919SOL    HW1 9656   6.190   5.271   0.492
 2919SOL    HW2 9657   6.116   5.231   0.352
 2920SOL     OW 9658   4.648   1.435   2.885
 2920SOL    HW1 9659   4.733   1.472   2.847
 2920SOL    HW2 9660   4.665   1.344   2.923
 2921SOL     OW 9661   6.588   0.627   6.989
 2921SOL    HW1 9662   6.559   0.657   6.898
 2921SOL    HW2 9663   6.683   0.597   6.985
 2922SOL     OW 9664   4.591   0.834   3.844
 2922SOL    HW1 9665   4.584   0.845   3.943
 2922SOL    HW2 9666   4.524   0.893   3.799
 2923SOL     OW 9667   6.618   3.868   0.802
 2923SOL    HW1 9668   6.616   3.847   0.704
 2923SOL    HW2 9669   6.707   3.907   0.826
 2924SOL     OW 9670   6.452   6.764   6.483
 2924SOL    HW1 9671   6.369   6.819   6.479
 2924SOL    HW2 9672   6.445   6.696   6.556
 2925SOL     OW 9673   6.484   4.638   0.861
 2925SOL    HW1 9674   6.384   4.648   0.863
 2925SOL    HW2 9675   6.515   4.599   0.948
 2926SOL     OW 9676   6.617   1.396   3.110
 2926SOL    HW1 9677   6.707   1.438   3.118
 2926SOL    HW2 9678   6.614   1.340   3.027
 2927SOL     OW 9679   6.988   2.866   3.294
 2927SOL    HW1 9680   6.972   2.768   3.298
 2927SOL    HW2 9681   6.932   2.906   3.221
 2928SOL     OW 9682   5.744   5.809   0.720
 2928SOL    HW1 9683   5.681   5.743   0.760
 2928SOL    HW2 9684   5.808   5.840   0.790
 2929SOL     OW 9685   0.012   0.422   5.660
 2929SOL    HW1 9686   7.008   0.510   5.622
 2929SOL    HW2 9687   6.973   0.394   5.732
 2930SOL     OW 9688   2.383   0.401   4.578
 2930SOL    HW1 9689   2.426   0.401   4.669
 2930SOL    HW2 9690   2.402   0.315   4.532
 2931SOL     OW 9691   5.068   4.909   6.598
 2931SOL    HW1 9692   5.034   4.851   6.673
 2931SOL    HW2 9693   5.105   4.994   6.636
 2932SOL     OW 9694   0.976   5.412   1.548
 2932SOL    HW1 9695   0.924   5.372   1.624
 2932SOL    HW2 9696   0.986   5.510   1.562
 2933SOL     OW 9697   4.036   2.129   3.124
 2933SOL    HW1 9698   4.093   2.208   3.103
 2933SOL    HW2 9699   3.950   2.160   3.165
 2934SOL     OW 9700   1.652   1.039   1.065
 2934SOL    HW1 9701   1.698   1.127   1.056
 2934SOL    HW2 9702   1.607   1.016   0.978
 2935SOL     OW 9703   6.644   1.139   0.718
 2935SOL    HW1 9704   6.561   1.087   0.740
 2935SOL    HW2 9705   6.618   1.227   0.678
 2936SOL     OW 9706   4.118   4.252   1.225
 2936SOL    HW1 9707   4.213   4.245   1.256
 2936SOL    HW2 9708   4.099   4.346   1.199
 2937SOL     OW 9709   2.386   4.196   0.776
 2937SOL    HW1 9710   2.458   4.143   0.821
 2937SOL    HW2 9711   2.386   4.289   0.813
 2938SOL     OW 9712   4.678   5.718   6.863
 2938SOL    HW1 9713   4.613   5.737   6.937
 2938SOL    HW2 9714   4.726   5.802   6.838
 2939SOL     OW 9715   6.910   6.463   6.888
 2939SOL    HW1 9716   6.837   6.451   6.822
 2939SOL    HW2 9717   6.998   6.464   6.841
 2940SOL     OW 9718   3.880   6.654   5.725
 2940SOL    HW1 9719   3.812   6.585   5.749
 2940SOL    HW2 9720   3.849   6.705   5.645
 2941SOL     OW 9721   3.849   0.980   5.641
 2941SOL    HW1 9722   3.788   1.031   5.701
 2941SOL    HW2 9723   3.934   0.958   5.689
 2942SOL     OW 9724   2.847   6.324   3.821
 2942SOL    HW1 9725   2.924   6.365   3.872
 2942SOL    HW2 9726   2.882   6.254   3.759
 2943SOL     OW 9727   5.352   4.572   3.101
 2943SOL    HW1 9728   5.356   4.645   3.169
 2943SOL    HW2 9729   5.323   4.609   3.013
 2944SOL     OW 9730   5.532   5.408   0.541
 2944SOL    HW1 9731   5.582   5.331   0.502
 2944SOL    HW2 9732   5.444   5.376   0.577
 2945SOL     OW 9733   2.954   3.777   4.214
 2945SOL    HW1 9734   3.006   3.833   4.150
 2945SOL    HW2 9735   3.000   3.777   4.303
 2946SOL     OW 9736   1.463   6.395   5.444
 2946SOL    HW1 9737   1.459   6.317   5.507
 2946SOL    HW2 9738   1.460   6.361   5.350
 2947SOL     OW 9739   0.310   5.139   0.099
 2947SOL    HW1 9740   0.405   5.155   0.122
 2947SOL    HW2 9741   0.301   5.123   0.001
 2948SOL     OW 9742   6.857   3.044   4.958
 2948SOL    HW1 9743   6.796   2.999   4.894
 2948SOL    HW2 9744   6.808   3.118   5.005
 2949SOL     OW 9745   0.791   6.740   1.022
 2949SOL    HW1 9746   0.888   6.723   1.040
 2949SOL    HW2 9747   0.781   6.785   0.933
 2950SOL     OW 9748   5.489   4.104   5.084
 2950SOL    HW1 9749   5.535   4.047   5.151
 2950SOL    HW2 9750   5.415   4.052   5.041
 2951SOL     OW 9751   6.953   0.561   6.828
 2951SOL    HW1 9752   6.970   0.660   6.826
 2951SOL    HW2 9753   6.948   0.526   6.735
 2952SOL     OW 9754   0.621   3.579   1.573
 2952SOL    HW1 9755   0.558   3.502   1.566
 2952SOL    HW2 9756   0.585   3.656   1.521
 2953SOL     OW 9757   5.766   1.624   1.852
 2953SOL    HW1 9758   5.848   1.677   1.830
 2953SOL    HW2 9759   5.698   1.638   1.780
 2954SOL     OW 9760   5.296   6.066   1.922
 2954SOL    HW1 9761   5.383   6.043   1.966
 2954SOL    HW2 9762   5.308   6.145   1.862
 2955SOL     OW 9763   5.283   1.683   1.528
 2955SOL    HW1 9764   5.323   1.726   1.447
 2955SOL    HW2 9765   5.283   1.584   1.516
 2956SOL     OW 9766   4.555   5.887   2.715
 2956SOL    HW1 9767   4.573   5.793   2.687
 2956SOL    HW2 9768   4.532   5.889   2.812
 2957SOL     OW 9769   1.202   5.336   1.428
 2957SOL    HW1 9770   1.271   5.376   1.488
 2957SOL    HW2 9771   1.111   5.370   1.453
 2958SOL     OW 9772   1.845   4.817   6.421
 2958SOL    HW1 9773   1.772   4.804   6.355
 2958SOL    HW2 9774   1.828   4.761   6.502
 2959SOL     OW 9775   2.915   5.917   6.594
 2959SOL    HW1 9776   2.952   5.892   6.505
 2959SOL    HW2 9777   2.818   5.893   6.598
 2960SOL     OW 9778   3.406   1.219   0.143
 2960SOL    HW1 9779   3.361   1.133   0.169
 2960SOL    HW2 9780   3.337   1.285   0.112
 2961SOL     OW 9781   6.154   1.243   3.867
 2961SOL    HW1 9782   6.166   1.321   3.806
 2961SOL    HW2 9783   6.237   1.230   3.921
 2962SOL     OW 9784   4.436   6.961   2.321
 2962SOL    HW1 9785   4.343   6.988   2.344
 2962SOL    HW2 9786   4.486   0.017   2.288
 2963SOL     OW 9787   2.445   2.611   4.757
 2963SOL    HW1 9788   2.534   2.566   4.753
 2963SOL    HW2 9789   2.424   2.636   4.852
 2964SOL     OW 9790   2.286   5.878   6.890
 2964SOL    HW1 9791   2.208   5.839   6.842
 2964SOL    HW2 9792   2.368   5.867   6.834
 2965SOL     OW 9793   0.862   2.890   5.429
 2965SOL    HW1 9794   0.889   2.948   5.506
 2965SOL    HW2 9795   0.766   2.863   5.440
 2966SOL     OW 9796   4.604   5.426   2.304
 2966SOL    HW1 9797   4.689   5.419   2.356
 2966SOL    HW2 9798   4.619   5.393   2.211
 2967SOL     OW 9799   5.541   3.017   4.821
 2967SOL    HW1 9800   5.508   3.027   4.728
 2967SOL    HW2 9801   5.575   3.105   4.854
 2968SOL     OW 9802   6.639   4.226   4.386
 2968SOL    HW1 9803   6.653   4.321   4.411
 2968SOL    HW2 9804   6.547   4.214   4.348
 2969SOL     OW 9805   3.723   1.157   5.416
 2969SOL    HW1 9806   3.821   1.161   5.397
 2969SOL    HW2 9807   3.705   1.088   5.486
 2970SOL     OW 9808   1.209   4.291   6.275
 2970SOL    HW1 9809   1.153   4.363   6.317
 2970SOL    HW2 9810   1.153   4.210   6.259
 2971SOL     OW 9811   6.098   2.900   1.893
 2971SOL    HW1 9812   6.093   2.981   1.835
 2971SOL    HW2 9813   6.017   2.843   1.880
 2972SOL     OW 9814   0.797   4.240   4.354
 2972SOL    HW1 9815   0.843   4.293   4.283
 2972SOL    HW2 9816   0.771   4.151   4.317
 2973SOL     OW 9817   6.056   6.976   4.159
 2973SOL    HW1 9818   6.151   6.945   4.151
 2973SOL    HW2 9819   6.048   0.016   4.235
 2974SOL     OW 9820   6.067   4.316   1.044
 2974SOL    HW1 9821   6.129   4.255   1.093
 2974SOL    HW2 9822   5.985   4.331   1.099
 2975SOL     OW 9823   6.457   1.832   3.900
 2975SOL    HW1 9824   6.523   1.903   3.873
 2975SOL    HW2 9825   6.396   1.813   3.824
 2976SOL     OW 9826   2.322   5.621   1.433
 2976SOL    HW1 9827   2.398   5.676   1.468
 2976SOL    HW2 9828   2.351   5.527   1.420
 2977SOL     OW 9829   1.903   6.737   3.705
 2977SOL    HW1 9830   1.929   6.735   3.801
 2977SOL    HW2 9831   1.917   6.829   3.668
 2978SOL     OW 9832   2.451   0.198   6.409
 2978SOL    HW1 9833   2.372   0.258   6.395
 2978SOL    HW2 9834   2.436   0.141   6.490
 2979SOL     OW 9835   1.861   0.886   2.905
 2979SOL    HW1 9836   1.832   0.831   2.984
 2979SOL    HW2 9837   1.781   0.916   2.854
 2980SOL     OW 9838   5.578   0.312   3.445
 2980SOL    HW1 9839   5.583   0.212   3.445
 2980SOL    HW2 9840   5.663   0.349   3.483
 2981SOL     OW 9841   0.791   1.042   5.846
 2981SOL    HW1 9842   0.705   1.039   5.898
 2981SOL    HW2 9843   0.781   1.106   5.770
 2982SOL     OW 9844   5.098   6.110   2.129
 2982SOL    HW1 9845   5.170   6.115   2.059
 2982SOL    HW2 9846   5.067   6.202   2.152
 2983SOL     OW 9847   0.529   1.564   3.102
 2983SOL    HW1 9848   0.531   1.579   3.003
 2983SOL    HW2 9849   0.532   1.466   3.120
 2984SOL     OW 9850   6.181   4.393   1.922
 2984SOL    HW1 9851   6.103   4.449   1.893
 2984SOL    HW2 9852   6.240   4.446   1.983
 2985SOL     OW 9853   6.391   2.379   3.275
 2985SOL    HW1 9854   6.324   2.366   3.202
 2985SOL    HW2 9855   6.363   2.457   3.331
 2986SOL     OW 9856   1.745   3.324   4.882
 2986SOL    HW1 9857   1.807   3.261   4.928
 2986SOL    HW2 9858   1.687   3.274   4.819
 2987SOL     OW 9859   5.006   1.664   4.758
 2987SOL    HW1 9860   5.063   1.705   4.687
 2987SOL    HW2 9861   4.935   1.608   4.716
 2988SOL     OW 9862   6.967   1.138   3.119
 2988SOL    HW1 9863   7.005   1.229   3.101
 2988SOL    HW2 9864   6.873   1.146   3.152
 2989SOL     OW 9865   0.127   5.100   0.951
 2989SOL    HW1 9866   0.077   5.130   1.032
 2989SOL    HW2 9867   0.209   5.051   0.979
 2990SOL     OW 9868   2.813   1.037   0.880
 2990SOL    HW1 9869   2.832   1.086   0.795
 2990SOL    HW2 9870   2.722   0.995   0.875
 2991SOL     OW 9871   5.787   4.303   0.090
 2991SOL    HW1 9872   5.691   4.282   0.107
 2991SOL    HW2 9873   5.801   4.402   0.094
 2992SOL     OW 9874   3.834   4.973   6.183
 2992SOL    HW1 9875   3.880   5.060   6.202
 2992SOL    HW2 9876   3.751   4.991   6.131
 2993SOL     OW 9877   0.843   3.742   0.092
 2993SOL    HW1 9878   0.774   3.763   0.161
 2993SOL    HW2 9879   0.823   3.653   0.052
 2994SOL     OW 9880   4.066   6.970   6.242
 2994SOL    HW1 9881   3.983   7.023   6.226
 2994SOL    HW2 9882   4.115   7.007   6.321
 2995SOL     OW 9883   2.496   0.880   5.109
 2995SOL    HW1 9884   2.595   0.885   5.095
 2995SOL    HW2 9885   2.460   0.803   5.056
 2996SOL     OW 9886   4.503   6.567   6.245
 2996SOL    HW1 9887   4.406   6.580   6.223
 2996SOL    HW2 9888   4.557   6.642   6.207
 2997SOL     OW 9889   3.740   5.929   0.232
 2997SOL    HW1 9890   3.647   5.963   0.224
 2997SOL    HW2 9891   3.770   5.892   0.144
 2998SOL     OW 9892   6.638   3.873   6.213
 2998SOL    HW1 9893   6.619   3.965   6.247
 2998SOL    HW2 9894   6.687   3.879   6.126
 2999SOL     OW 9895   2.997   1.319   1.187
 2999SOL    HW1 9896   2.964   1.387   1.253
 2999SOL    HW2 9897   3.077   1.272   1.225
 3000SOL     OW 9898   1.459   2.179   5.499
 3000SOL    HW1 9899   1.392   2.159   5.571
 3000SOL    HW2 9900   1.494   2.272   5.511
 3001SOL     OW 9901   4.791   5.879   6.179
 3001SOL    HW1 9902   4.884   5.874   6.143
 3001SOL    HW2 9903   4.776   5.804   6.243
 3002SOL     OW 9904   3.934   0.356   5.423
 3002SOL    HW1 9905   4.024   0.339   5.462
 3002SOL    HW2 9906   3.867   0.370   5.496
 3003SOL     OW 9907   1.397   0.302   5.598
 3003SOL    HW1 9908   1.482   0.298   5.547
 3003SOL    HW2 9909   1.412   0.351   5.684
 3004SOL     OW 9910   0.329   3.812   6.579
 3004SOL    HW1 9911   0.427   3.792   6.586
 3004SOL    HW2 9912   0.316   3.909   6.563
 3005SOL     OW 9913   4.275   2.181   1.115
 3005SOL    HW1 9914   4.218   2.229   1.048
 3005SOL    HW2 9915   4.308   2.246   1.183
 3006SOL     OW 9916   4.111   6.198   2.389
 3006SOL    HW1 9917   4.151   6.119   2.434
 3006SOL    HW2 9918   4.130   6.195   2.291
 3007SOL     OW 9919   5.560   5.341   1.983
 3007SOL    HW1 9920   5.619   5.353   1.903
 3007SOL    HW2 9921   5.510   5.426   1.999
 3008SOL     OW 9922   4.798   4.917   5.495
 3008SOL    HW1 9923   4.883   4.910   5.547
 3008SOL    HW2 9924   4.723   4.875   5.548
 3009SOL     OW 9925   1.719   0.569   1.942
 3009SOL    HW1 9926   1.677   0.525   2.022
 3009SOL    HW2 9927   1.667   0.545   1.860
 3010SOL     OW 9928   3.560   0.947   3.985
 3010SOL    HW1 9929   3.533   0.850   3.992
 3010SOL    HW2 9930   3.542   0.992   4.072
 3011SOL     OW 9931   5.627   0.177   0.339
 3011SOL    HW1 9932   5.672   0.133   0.261
 3011SOL    HW2 9933   5.583   0.262   0.309
 3012SOL     OW 9934   0.207   5.105   1.750
 3012SOL    HW1 9935   0.297   5.149   1.759
 3012SOL    HW2 9936   0.209   5.015   1.793
 3013SOL     OW 9937   5.594   4.863   1.658
 3013SOL    HW1 9938   5.662   4.903   1.719
 3013SOL    HW2 9939   5.625   4.871   1.563
 3014SOL     OW 9940   5.239   5.585   5.323
 3014SOL    HW1 9941   5.260   5.492   5.294
 3014SOL    HW2 9942   5.147   5.610   5.292
 3015SOL     OW 9943   3.395   1.246   0.639
 3015SOL    HW1 9944   3.385   1.344   0.624
 3015SOL    HW2 9945   3.452   1.207   0.567
 3016SOL     OW 9946   4.352   6.364   4.629
 3016SOL    HW1 9947   4.297   6.401   4.554
 3016SOL    HW2 9948   4.397   6.439   4.678
 3017SOL     OW 9949   0.624   6.507   2.512
 3017SOL    HW1 9950   0.700   6.490   2.575
 3017SOL    HW2 9951   0.576   6.591   2.540
 3018SOL     OW 9952   4.419   7.022   5.917
 3018SOL    HW1 9953   4.346   6.957   5.942
 3018SOL    HW2 9954   4.507   6.986   5.948
 3019SOL     OW 9955   4.958   1.007   1.766
 3019SOL    HW1 9956   4.957   0.909   1.787
 3019SOL    HW2 9957   5.029   1.026   1.699
 3020SOL     OW 9958   2.126   0.227   1.846
 3020SOL    HW1 9959   2.213   0.187   1.876
 3020SOL    HW2 9960   2.051   0.167   1.874
 3021SOL     OW 9961   4.259   0.055   6.395
 3021SOL    HW1 9962   4.278   0.114   6.473
 3021SOL    HW2 9963   4.297   0.096   6.312
 3022SOL     OW 9964   6.708   0.491   3.231
 3022SOL    HW1 9965   6.681   0.441   3.149
 3022SOL    HW2 9966   6.730   0.427   3.304
 3023SOL     OW 9967   5.710   0.301   1.986
 3023SOL    HW1 9968   5.657   0.273   1.906
 3023SOL    HW2 9969   5.686   0.242   2.064
 3024SOL     OW 9970   1.967   6.789   0.187
 3024SOL    HW1 9971   1.951   6.884   0.215
 3024SOL    HW2 9972   1.928   6.774   0.096
 3025SOL     OW 9973   1.646   2.277   2.263
 3025SOL    HW1 9974   1.657   2.376   2.274
 3025SOL    HW2 9975   1.600   2.259   2.176
 3026SOL     OW 9976   2.934   5.459   0.578
 3026SOL    HW1 9977   2.855   5.514   0.607
 3026SOL    HW2 9978   3.015   5.487   0.631
 3027SOL     OW 9979   0.691   2.317   3.943
 3027SOL    HW1 9980   0.706   2.223   3.974
 3027SOL    HW2 9981   0.593   2.333   3.931
 3028SOL     OW 9982   1.864   0.778   4.171
 3028SOL    HW1 9983   1.882   0.698   4.228
 3028SOL    HW2 9984   1.925   0.777   4.092
 3029SOL     OW 9985   6.344   5.150   5.843
 3029SOL    HW1 9986   6.266   5.118   5.789
 3029SOL    HW2 9987   6.414   5.187   5.782
 3030SOL     OW 9988   0.284   1.353   5.763
 3030SOL    HW1 9989   0.275   1.322   5.858
 3030SOL    HW2 9990   0.195   1.384   5.730
 3031SOL     OW 9991   6.953   5.141   6.112
 3031SOL    HW1 9992   6.953   5.138   6.212
 3031SOL    HW2 9993   0.000   5.203   6.080
 3032SOL     OW 9994   4.166   0.261   5.524
 3032SOL    HW1 9995   4.265   0.256   5.525
 3032SOL    HW2 9996   4.133   0.293   5.613
 3033SOL     OW 9997   5.190   3.985   6.083
 3033SOL    HW1 9998   5.138   3.982   6.168
 3033SOL    HW2 9999   5.135   4.031   6.013
 3034SOL     OW10000   2.948   6.505   4.831
 3034SOL    HW110001   2.935   6.416   4.875
 3034SOL    HW210002   3.045   6.516   4.806
 3035SOL     OW10003   5.540   6.183   6.737
 3035SOL    HW110004   5.511   6.261   6.794
 3035SOL    HW210005   5.603   6.215   6.667
 3036SOL     OW10006   0.062   4.746   5.229
 3036SOL    HW110007   7.018   4.775   5.162
 3036SOL    HW210008   0.035   4.775   5.320
 3037SOL     OW10009   5.155   6.411   6.422
 3037SOL    HW110010   5.134   6.350   6.498
 3037SOL    HW210011   5.092   6.392   6.346
 3038SOL     OW10012   5.810   5.570   5.310
 3038SOL    HW110013   5.779   5.664   5.293
 3038SOL    HW210014   5.731   5.511   5.328
 3039SOL     OW10015   0.407   4.546   0.450
 3039SOL    HW110016   0.398   4.450   0.477
 3039SOL    HW210017   0.401   4.604   0.532
 3040SOL     OW10018   2.374   0.940   0.552
 3040SOL    HW110019   2.291   0.995   0.556
 3040SOL    HW210020   2.403   0.930   0.457
 3041SOL     OW10021   2.024   1.714   6.227
 3041SOL    HW110022   2.072   1.626   6.224
 3041SOL    HW210023   2.090   1.789   6.222
 3042SOL     OW10024   5.294   0.165   1.075
 3042SOL    HW110025   5.267   0.115   1.157
 3042SOL    HW210026   5.385   0.137   1.047
 3043SOL     OW10027   0.180   4.591   0.281
 3043SOL    HW110028   0.191   4.663   0.350
 3043SOL    HW210029   0.256   4.526   0.288
 3044SOL     OW10030   2.425   2.792   6.796
 3044SOL    HW110031   2.500   2.821   6.736
 3044SOL    HW210032   2.421   2.852   6.875
 3045SOL     OW10033   4.482   2.469   4.774
 3045SOL    HW110034   4.415   2.398   4.795
 3045SOL    HW210035   4.435   2.552   4.745
 3046SOL     OW10036   2.379   2.525   5.898
 3046SOL    HW110037   2.438   2.589   5.849
 3046SOL    HW210038   2.283   2.543   5.873
 3047SOL     OW10039   6.792   5.271   2.052
 3047SOL    HW110040   6.797   5.243   1.956
 3047SOL    HW210041   6.875   5.241   2.099
 3048SOL     OW10042   3.339   3.004   2.210
 3048SOL    HW110043   3.399   3.063   2.265
 3048SOL    HW210044   3.360   3.016   2.113
 3049SOL     OW10045   0.454   0.743   1.142
 3049SOL    HW110046   0.470   0.835   1.177
 3049SOL    HW210047   0.500   0.732   1.054
 3050SOL     OW10048   1.400   0.447   4.540
 3050SOL    HW110049   1.409   0.351   4.515
 3050SOL    HW210050   1.417   0.505   4.460
 3051SOL     OW10051   2.429   5.303   5.126
 3051SOL    HW110052   2.403   5.208   5.145
 3051SOL    HW210053   2.484   5.339   5.201
 3052SOL     OW10054   5.080   6.410   2.204
 3052SOL    HW110055   5.167   6.422   2.157
 3052SOL    HW210056   5.046   6.498   2.236
 3053SOL     OW10057   3.465   6.005   1.648
 3053SOL    HW110058   3.465   6.030   1.745
 3053SOL    HW210059   3.372   6.011   1.612
 3054SOL     OW10060   1.803   4.433   5.088
 3054SOL    HW110061   1.865   4.505   5.056
 3054SOL    HW210062   1.854   4.348   5.099
 3055SOL     OW10063   5.910   6.885   2.587
 3055SOL    HW110064   5.871   6.956   2.645
 3055SOL    HW210065   5.897   6.796   2.630
 3056SOL     OW10066   5.065   0.861   2.087
 3056SOL    HW110067   4.973   0.821   2.087
 3056SOL    HW210068   5.063   0.952   2.045
 3057SOL     OW10069   0.093   4.411   2.677
 3057SOL    HW110070   0.019   4.458   2.628
 3057SOL    HW210071   0.109   4.321   2.636
 3058SOL     OW10072   5.706   0.084   1.370
 3058SOL    HW110073   5.755   0.027   1.436
 3058SOL    HW210074   5.751   0.078   1.281
 3059SOL     OW10075   2.479   2.507   0.205
 3059SOL    HW110076   2.500   2.577   0.137
 3059SOL    HW210077   2.541   2.429   0.192
 3060SOL     OW10078   0.475   6.110   6.874
 3060SOL    HW110079   0.487   6.102   6.973
 3060SOL    HW210080   0.396   6.166   6.854
 3061SOL     OW10081   6.668   0.788   5.690
 3061SOL    HW110082   6.644   0.702   5.735
 3061SOL    HW210083   6.684   0.858   5.760
 3062SOL     OW10084   3.473   5.930   5.931
 3062SOL    HW110085   3.490   5.913   5.834
 3062SOL    HW210086   3.557   5.960   5.975
 3063SOL     OW10087   2.966   6.388   1.057
 3063SOL    HW110088   2.894   6.364   0.992
 3063SOL    HW210089   2.924   6.418   1.143
 3064SOL     OW10090   6.313   4.840   3.301
 3064SOL    HW110091   6.304   4.924   3.248
 3064SOL    HW210092   6.271   4.853   3.391
 3065SOL     OW10093   3.433   1.593   1.657
 3065SOL    HW110094   3.383   1.658   1.599
 3065SOL    HW210095   3.472   1.520   1.600
 3066SOL     OW10096   5.971   5.262   0.789
 3066SOL    HW110097   5.913   5.337   0.759
 3066SOL    HW210098   6.048   5.252   0.726
 3067SOL     OW10099   3.872   6.822   3.043
 3067SOL    HW110100   3.810   6.746   3.060
 3067SOL    HW210101   3.869   6.848   2.946
 3068SOL     OW10102   6.604   4.669   6.831
 3068SOL    HW110103   6.696   4.633   6.817
 3068SOL    HW210104   6.553   4.666   6.746
 3069SOL     OW10105   1.056   5.800   3.372
 3069SOL    HW110106   1.055   5.735   3.296
 3069SOL    HW210107   0.977   5.782   3.432
 3070SOL     OW10108   4.656   2.280   4.233
 3070SOL    HW110109   4.719   2.293   4.309
 3070SOL    HW210110   4.566   2.317   4.257
 3071SOL     OW10111   5.158   0.900   3.016
 3071SOL    HW110112   5.086   0.841   3.052
 3071SOL    HW210113   5.153   0.903   2.917
 3072SOL     OW10114   6.967   0.437   1.228
 3072SOL    HW110115   6.997   0.412   1.320
 3072SOL    HW210116   0.019   0.428   1.164
 3073SOL     OW10117   1.876   1.296   4.494
 3073SOL    HW110118   1.829   1.246   4.421
 3073SOL    HW210119   1.917   1.230   4.557
 3074SOL     OW10120   4.510   3.581   5.694
 3074SOL    HW110121   4.556   3.513   5.752
 3074SOL    HW210122   4.578   3.640   5.651
 3075SOL     OW10123   0.120   5.378   1.701
 3075SOL    HW110124   0.145   5.421   1.788
 3075SOL    HW210125   0.142   5.280   1.705
 3076SOL     OW10126   0.093   1.355   5.996
 3076SOL    HW110127   0.081   1.368   6.094
 3076SOL    HW210128   0.031   1.283   5.964
 3077SOL     OW10129   4.588   4.561   3.647
 3077SOL    HW110130   4.660   4.535   3.712
 3077SOL    HW210131   4.615   4.532   3.555
 3078SOL     OW10132   2.354   3.106   0.388
 3078SOL    HW110133   2.353   3.031   0.322
 3078SOL    HW210134   2.432   3.096   0.449
 3079SOL     OW10135   5.388   2.889   6.018
 3079SOL    HW110136   5.299   2.868   5.976
 3079SOL    HW210137   5.380   2.880   6.117
 3080SOL     OW10138   5.969   6.801   2.324
 3080SOL    HW110139   5.976   6.810   2.424
 3080SOL    HW210140   5.945   6.706   2.301
 3081SOL     OW10141   1.129   5.075   5.633
 3081SOL    HW110142   1.203   5.014   5.605
 3081SOL    HW210143   1.094   5.047   5.722
 3082SOL     OW10144   2.948   6.159   2.499
 3082SOL    HW110145   3.008   6.228   2.459
 3082SOL    HW210146   2.873   6.204   2.548
 3083SOL     OW10147   3.369   6.599   2.996
 3083SOL    HW110148   3.406   6.690   2.980
 3083SOL    HW210149   3.271   6.598   2.972
 3084SOL     OW10150   4.800   0.469   4.060
 3084SOL    HW110151   4.817   0.438   4.153
 3084SOL    HW210152   4.844   0.558   4.046
 3085SOL     OW10153   1.081   4.921   2.457
 3085SOL    HW110154   1.016   4.861   2.411
 3085SOL    HW210155   1.073   4.910   2.556
 3086SOL     OW10156   6.255   1.687   4.767
 3086SOL    HW110157   6.299   1.597   4.769
 3086SOL    HW210158   6.171   1.684   4.821
 3087SOL     OW10159   5.812   3.556   0.837
 3087SOL    HW110160   5.796   3.592   0.929
 3087SOL    HW210161   5.814   3.632   0.772
 3088SOL     OW10162   3.042   3.805   6.655
 3088SOL    HW110163   3.062   3.879   6.720
 3088SOL    HW210164   3.061   3.717   6.699
 3089SOL     OW10165   3.076   2.110   2.012
 3089SOL    HW110166   3.033   2.195   2.042
 3089SOL    HW210167   3.176   2.119   2.019
 3090SOL     OW10168   6.500   1.389   1.189
 3090SOL    HW110169   6.414   1.414   1.234
 3090SOL    HW210170   6.492   1.295   1.154
 3091SOL     OW10171   2.102   6.448   6.407
 3091SOL    HW110172   2.099   6.378   6.335
 3091SOL    HW210173   2.026   6.434   6.470
 3092SOL     OW10174   4.650   5.312   6.692
 3092SOL    HW110175   4.678   5.399   6.651
 3092SOL    HW210176   4.654   5.319   6.791
 3093SOL     OW10177   4.362   6.643   2.798
 3093SOL    HW110178   4.375   6.546   2.777
 3093SOL    HW210179   4.430   6.697   2.750
 3094SOL     OW10180   4.165   5.052   4.514
 3094SOL    HW110181   4.263   5.056   4.536
 3094SOL    HW210182   4.148   5.101   4.429
 3095SOL     OW10183   2.019   5.133   4.694
 3095SOL    HW110184   1.990   5.171   4.782
 3095SOL    HW210185   1.953   5.158   4.623
 3096SOL     OW10186   0.215   2.191   5.796
 3096SOL    HW110187   0.250   2.113   5.847
 3096SOL    HW210188   0.179   2.159   5.708
 3097SOL     OW10189   1.845   0.250   6.927
 3097SOL    HW110190   1.808   0.333   6.967
 3097SOL    HW210191   1.779   0.210   6.864
 3098SOL     OW10192   3.373   3.621   0.624
 3098SOL    HW110193   3.402   3.531   0.592
 3098SOL    HW210194   3.449   3.666   0.671
 3099SOL     OW10195   1.437   5.723   5.071
 3099SOL    HW110196   1.509   5.689   5.132
 3099SOL    HW210197   1.478   5.779   4.999
 3100SOL     OW10198   6.162   6.470   5.839
 3100SOL    HW110199   6.201   6.463   5.748
 3100SOL    HW210200   6.185   6.388   5.892
 3101SOL     OW10201   2.512   0.852   1.190
 3101SOL    HW110202   2.548   0.942   1.217
 3101SOL    HW210203   2.456   0.816   1.265
 3102SOL     OW10204   0.790   5.991   1.034
 3102SOL    HW110205   0.874   6.036   1.066
 3102SOL    HW210206   0.793   5.982   0.934
 3103SOL     OW10207   4.225   4.479   1.743
 3103SOL    HW110208   4.314   4.458   1.783
 3103SOL    HW210209   4.166   4.398   1.750
 3104SOL     OW10210   5.702   5.938   3.106
 3104SOL    HW110211   5.722   5.860   3.046
 3104SOL    HW210212   5.656   5.907   3.189
 3105SOL     OW10213   5.773   6.165   3.835
 3105SOL    HW110214   5.698   6.132   3.777
 3105SOL    HW210215   5.844   6.095   3.840
 3106SOL     OW10216   0.777   3.268   4.190
 3106SOL    HW110217   0.734   3.196   4.135
 3106SOL    HW210218   0.819   3.335   4.129
 3107SOL     OW10219   2.499   0.192   4.446
 3107SOL    HW110220   2.596   0.198   4.421
 3107SOL    HW210221   2.476   0.096   4.463
 3108SOL     OW10222   1.894   6.760   2.964
 3108SOL    HW110223   1.929   6.810   3.043
 3108SOL    HW210224   1.813   6.709   2.990
 3109SOL     OW10225   4.928   5.042   3.823
 3109SOL    HW110226   4.900   5.122   3.876
 3109SOL    HW210227   4.864   4.967   3.840
 3110SOL     OW10228   0.758   2.938   1.605
 3110SOL    HW110229   0.741   3.035   1.588
 3110SOL    HW210230   0.675   2.895   1.641
 3111SOL     OW10231   0.594   4.129   2.298
 3111SOL    HW110232   0.570   4.184   2.378
 3111SOL    HW210233   0.688   4.149   2.271
 3112SOL     OW10234   3.221   3.040   6.064
 3112SOL    HW110235   3.309   3.056   6.020
 3112SOL    HW210236   3.153   3.103   6.026
 3113SOL     OW10237   4.179   0.427   3.823
 3113SOL    HW110238   4.203   0.341   3.779
 3113SOL    HW210239   4.236   0.501   3.787
 3114SOL     OW10240   5.299   5.558   0.961
 3114SOL    HW110241   5.218   5.501   0.974
 3114SOL    HW210242   5.292   5.640   1.017
 3115SOL     OW10243   3.475   3.203   3.033
 3115SOL    HW110244   3.434   3.112   3.036
 3115SOL    HW210245   3.419   3.263   2.976
 3116SOL     OW10246   0.311   1.677   6.583
 3116SOL    HW110247   0.342   1.598   6.636
 3116SOL    HW210248   0.382   1.705   6.520
 3117SOL     OW10249   2.995   4.767   6.347
 3117SOL    HW110250   2.898   4.788   6.338
 3117SOL    HW210251   3.009   4.668   6.337
 3118SOL     OW10252   6.305   4.884   6.698
 3118SOL    HW110253   6.287   4.918   6.791
 3118SOL    HW210254   6.219   4.878   6.648
 3119SOL     OW10255   2.301   4.182   6.952
 3119SOL    HW110256   2.239   4.190   0.006
 3119SOL    HW210257   2.298   4.088   6.918
 3120SOL     OW10258   2.584   5.385   6.656
 3120SOL    HW110259   2.611   5.297   6.617
 3120SOL    HW210260   2.559   5.448   6.582
 3121SOL     OW10261   6.816   6.270   3.711
 3121SOL    HW110262   6.878   6.325   3.655
 3121SOL    HW210263   6.866   6.192   3.750
 3122SOL     OW10264   3.315   5.777   1.267
 3122SOL    HW110265   3.397   5.829   1.290
 3122SOL    HW210266   3.283   5.727   1.347
 3123SOL     OW10267   2.914   6.663   4.105
 3123SOL    HW110268   2.979   6.739   4.105
 3123SOL    HW210269   2.961   6.579   4.078
 3124SOL     OW10270   4.103   0.277   4.834
 3124SOL    HW110271   4.137   0.240   4.747
 3124SOL    HW210272   4.172   0.336   4.875
 3125SOL     OW10273   6.710   2.369   5.923
 3125SOL    HW110274   6.721   2.299   5.993
 3125SOL    HW210275   6.641   2.338   5.857
 3126SOL     OW10276   3.666   5.724   6.553
 3126SOL    HW110277   3.709   5.668   6.481
 3126SOL    HW210278   3.636   5.811   6.514
 3127SOL     OW10279   0.917   1.237   4.454
 3127SOL    HW110280   0.870   1.252   4.367
 3127SOL    HW210281   0.864   1.173   4.510
 3128SOL     OW10282   2.074   1.011   1.237
 3128SOL    HW110283   2.089   1.107   1.213
 3128SOL    HW210284   2.001   1.005   1.305
 3129SOL     OW10285   1.776   3.354   2.737
 3129SOL    HW110286   1.793   3.305   2.651
 3129SOL    HW210287   1.702   3.420   2.724
 3130SOL     OW10288   3.171   5.741   2.758
 3130SOL    HW110289   3.124   5.825   2.730
 3130SOL    HW210290   3.229   5.760   2.837
 3131SOL     OW10291   1.076   3.368   3.614
 3131SOL    HW110292   1.014   3.357   3.536
 3131SOL    HW210293   1.025   3.358   3.699
 3132SOL     OW10294   5.028   3.554   5.675
 3132SOL    HW110295   5.050   3.568   5.578
 3132SOL    HW210296   4.963   3.624   5.704
 3133SOL     OW10297   1.876   1.193   3.376
 3133SOL    HW110298   1.892   1.152   3.465
 3133SOL    HW210299   1.875   1.293   3.385
 3134SOL     OW10300   5.891   2.038   1.621
 3134SOL    HW110301   5.827   2.027   1.697
 3134SOL    HW210302   5.912   1.948   1.583
 3135SOL     OW10303   1.195   2.198   3.141
 3135SOL    HW110304   1.145   2.137   3.079
 3135SOL    HW210305   1.135   2.226   3.216
 3136SOL     OW10306   0.129   1.177   4.595
 3136SOL    HW110307   0.228   1.174   4.586
 3136SOL    HW210308   0.097   1.271   4.581
 3137SOL     OW10309   0.443   1.828   4.586
 3137SOL    HW110310   0.514   1.825   4.657
 3137SOL    HW210311   0.408   1.922   4.578
 3138SOL     OW10312   6.530   2.784   4.904
 3138SOL    HW110313   6.450   2.837   4.875
 3138SOL    HW210314   6.609   2.845   4.909
 3139SOL     OW10315   5.520   5.485   5.651
 3139SOL    HW110316   5.552   5.441   5.735
 3139SOL    HW210317   5.424   5.464   5.637
 3140SOL     OW10318   6.685   6.223   5.794
 3140SOL    HW110319   6.705   6.128   5.818
 3140SOL    HW210320   6.759   6.282   5.827
 3141SOL     OW10321   1.421   0.252   1.637
 3141SOL    HW110322   1.468   0.197   1.705
 3141SOL    HW210323   1.337   0.206   1.608
 3142SOL     OW10324   3.861   6.815   1.383
 3142SOL    HW110325   3.784   6.837   1.443
 3142SOL    HW210326   3.935   6.775   1.438
 3143SOL     OW10327   0.332   2.157   0.304
 3143SOL    HW110328   0.367   2.169   0.211
 3143SOL    HW210329   0.233   2.155   0.303
 3144SOL     OW10330   2.753   3.434   0.177
 3144SOL    HW110331   2.853   3.425   0.169
 3144SOL    HW210332   2.714   3.344   0.197
 3145SOL     OW10333   1.882   4.929   2.644
 3145SOL    HW110334   1.869   4.911   2.741
 3145SOL    HW210335   1.970   4.975   2.630
 3146SOL     OW10336   1.974   6.681   4.348
 3146SOL    HW110337   1.999   6.634   4.263
 3146SOL    HW210338   2.042   6.662   4.418
 3147SOL     OW10339   4.120   4.526   0.549
 3147SOL    HW110340   4.024   4.556   0.555
 3147SOL    HW210341   4.172   4.566   0.624
 3148SOL     OW10342   3.309   5.795   4.412
 3148SOL    HW110343   3.386   5.825   4.356
 3148SOL    HW210344   3.306   5.850   4.496
 3149SOL     OW10345   1.989   5.891   5.369
 3149SOL    HW110346   1.976   5.964   5.436
 3149SOL    HW210347   1.944   5.808   5.402
 3150SOL     OW10348   6.488   0.965   4.890
 3150SOL    HW110349   6.477   0.876   4.934
 3150SOL    HW210350   6.427   0.971   4.811
 3151SOL     OW10351   3.421   6.578   1.407
 3151SOL    HW110352   3.406   6.673   1.381
 3151SOL    HW210353   3.369   6.518   1.346
 3152SOL     OW10354   1.170   4.736   5.853
 3152SOL    HW110355   1.232   4.778   5.787
 3152SOL    HW210356   1.103   4.680   5.804
 3153SOL     OW10357   0.400   4.025   3.034
 3153SOL    HW110358   0.383   3.928   3.050
 3153SOL    HW210359   0.497   4.045   3.046
 3154SOL     OW10360   6.123   2.780   6.981
 3154SOL    HW110361   6.198   2.714   6.977
 3154SOL    HW210362   6.059   2.761   6.907
 3155SOL     OW10363   4.008   5.762   0.442
 3155SOL    HW110364   4.100   5.802   0.443
 3155SOL    HW210365   3.978   5.751   0.347
 3156SOL     OW10366   2.985   3.391   3.658
 3156SOL    HW110367   3.079   3.423   3.653
 3156SOL    HW210368   2.965   3.359   3.751
 3157SOL     OW10369   2.332   2.006   5.037
 3157SOL    HW110370   2.261   2.057   5.085
 3157SOL    HW210371   2.411   1.993   5.097
 3158SOL     OW10372   4.812   6.499   1.124
 3158SOL    HW110373   4.912   6.500   1.127
 3158SOL    HW210374   4.777   6.458   1.208
 3159SOL     OW10375   5.372   5.035   6.989
 3159SOL    HW110376   5.357   5.010   6.893
 3159SOL    HW210377   5.469   5.030   7.010
 3160SOL     OW10378   6.148   4.615   0.770
 3160SOL    HW110379   6.142   4.636   0.672
 3160SOL    HW210380   6.073   4.554   0.796
 3161SOL     OW10381   0.068   2.305   4.193
 3161SOL    HW110382   0.153   2.305   4.246
 3161SOL    HW210383   0.011   2.227   4.220
 3162SOL     OW10384   0.253   0.458   5.875
 3162SOL    HW110385   0.174   0.423   5.824
 3162SOL    HW210386   0.266   0.402   5.957
 3163SOL     OW10387   1.482   4.162   5.341
 3163SOL    HW110388   1.520   4.252   5.321
 3163SOL    HW210389   1.556   4.098   5.360
 3164SOL     OW10390   6.180   5.229   6.082
 3164SOL    HW110391   6.247   5.244   6.009
 3164SOL    HW210392   6.220   5.174   6.155
 3165SOL     OW10393   0.150   2.577   1.498
 3165SOL    HW110394   0.217   2.504   1.488
 3165SOL    HW210395   0.196   2.665   1.502
 3166SOL     OW10396   3.940   3.241   6.372
 3166SOL    HW110397   3.853   3.200   6.397
 3166SOL    HW210398   3.936   3.340   6.385
 3167SOL     OW10399   0.015   4.820   1.911
 3167SOL    HW110400   0.034   4.916   1.933
 3167SOL    HW210401   0.083   4.762   1.957
 3168SOL     OW10402   6.475   3.534   0.446
 3168SOL    HW110403   6.455   3.507   0.352
 3168SOL    HW210404   6.446   3.461   0.509
 3169SOL     OW10405   3.140   1.744   5.527
 3169SOL    HW110406   3.212   1.733   5.458
 3169SOL    HW210407   3.169   1.700   5.612
 3170SOL     OW10408   3.302   0.731   4.367
 3170SOL    HW110409   3.246   0.805   4.329
 3170SOL    HW210410   3.250   0.646   4.365
 3171SOL     OW10411   6.406   5.423   2.529
 3171SOL    HW110412   6.407   5.459   2.436
 3171SOL    HW210413   6.330   5.464   2.581
 3172SOL     OW10414   5.403   6.562   4.872
 3172SOL    HW110415   5.377   6.656   4.891
 3172SOL    HW210416   5.390   6.506   4.954
 3173SOL     OW10417   1.685   0.783   1.280
 3173SOL    HW110418   1.727   0.856   1.226
 3173SOL    HW210419   1.704   0.799   1.377
 3174SOL     OW10420   2.366   2.894   0.221
 3174SOL    HW110421   2.389   2.905   0.124
 3174SOL    HW210422   2.273   2.857   0.229
 3175SOL     OW10423   0.342   5.770   0.621
 3175SOL    HW110424   0.403   5.752   0.698
 3175SOL    HW210425   0.247   5.769   0.652
 3176SOL     OW10426   1.051   5.218   0.088
 3176SOL    HW110427   1.059   5.299   0.147
 3176SOL    HW210428   1.055   5.246   7.017
 3177SOL     OW10429   1.264   0.445   3.564
 3177SOL    HW110430   1.330   0.520   3.578
 3177SOL    HW210431   1.248   0.433   3.466
 3178SOL     OW10432   3.574   3.523   0.230
 3178SOL    HW110433   3.666   3.486   0.217
 3178SOL    HW210434   3.509   3.449   0.247
 3179SOL     OW10435   1.301   2.764   4.446
 3179SOL    HW110436   1.270   2.811   4.364
 3179SOL    HW210437   1.401   2.766   4.449
 3180SOL     OW10438   6.634   1.294   6.582
 3180SOL    HW110439   6.579   1.260   6.505
 3180SOL    HW210440   6.615   1.392   6.596
 3181SOL     OW10441   6.505   1.757   1.976
 3181SOL    HW110442   6.469   1.744   2.068
 3181SOL    HW210443   6.472   1.683   1.916
 3182SOL     OW10444   1.208   6.531   5.912
 3182SOL    HW110445   1.253   6.620   5.908
 3182SOL    HW210446   1.110   6.543   5.923
 3183SOL     OW10447   4.751   3.508   0.979
 3183SOL    HW110448   4.760   3.503   0.880
 3183SOL    HW210449   4.793   3.427   1.021
 3184SOL     OW10450   6.796   1.937   2.639
 3184SOL    HW110451   6.763   1.905   2.550
 3184SOL    HW210452   6.719   1.967   2.695
 3185SOL     OW10453   0.226   6.357   0.338
 3185SOL    HW110454   0.215   6.334   0.242
 3185SOL    HW210455   0.162   6.303   0.393
 3186SOL     OW10456   3.752   0.487   1.077
 3186SOL    HW110457   3.714   0.544   1.004
 3186SOL    HW210458   3.838   0.527   1.110
 3187SOL     OW10459   3.721   4.527   0.709
 3187SOL    HW110460   3.678   4.442   0.678
 3187SOL    HW210461   3.650   4.590   0.741
 3188SOL     OW10462   3.411   0.408   4.060
 3188SOL    HW110463   3.453   0.329   4.015
 3188SOL    HW210464   3.445   0.414   4.154
 3189SOL     OW10465   5.232   6.129   1.483
 3189SOL    HW110466   5.227   6.030   1.495
 3189SOL    HW210467   5.322   6.161   1.515
 3190SOL     OW10468   0.676   0.832   2.678
 3190SOL    HW110469   0.648   0.746   2.634
 3190SOL    HW210470   0.774   0.846   2.665
 3191SOL     OW10471   3.325   1.523   0.967
 3191SOL    HW110472   3.316   1.618   0.995
 3191SOL    HW210473   3.397   1.478   1.020
 3192SOL     OW10474   5.714   3.291   4.309
 3192SOL    HW110475   5.759   3.224   4.250
 3192SOL    HW210476   5.782   3.356   4.342
 3193SOL     OW10477   5.665   4.512   1.976
 3193SOL    HW110478   5.681   4.493   1.880
 3193SOL    HW210479   5.567   4.515   1.994
 3194SOL     OW10480   3.196   5.432   4.646
 3194SOL    HW110481   3.217   5.337   4.621
 3194SOL    HW210482   3.177   5.485   4.563
 3195SOL     OW10483   6.939   4.175   4.189
 3195SOL    HW110484   6.953   4.175   4.090
 3195SOL    HW210485   6.844   4.151   4.210
 3196SOL     OW10486   0.068   6.187   6.906
 3196SOL    HW110487   0.080   6.267   6.846
 3196SOL    HW210488   0.057   6.105   6.851
 3197SOL     OW10489   0.708   4.286   5.817
 3197SOL    HW110490   0.644   4.217   5.785
 3197SOL    HW210491   0.694   4.302   5.915
 3198SOL     OW10492   5.713   0.250   0.858
 3198SOL    HW110493   5.800   0.269   0.814
 3198SOL    HW210494   5.729   0.202   0.944
 3199SOL     OW10495   3.099   2.217   3.303
 3199SOL    HW110496   3.159   2.185   3.230
 3199SOL    HW210497   3.114   2.161   3.385
 3200SOL     OW10498   6.673   1.524   0.122
 3200SOL    HW110499   6.651   1.532   0.024
 3200SOL    HW210500   6.594   1.553   0.176
 3201SOL     OW10501   4.074   5.819   3.755
 3201SOL    HW110502   4.022   5.781   3.679
 3201SOL    HW210503   4.146   5.878   3.721
 3202SOL     OW10504   1.324   4.881   2.168
 3202SOL    HW110505   1.315   4.848   2.261
 3202SOL    HW210506   1.418   4.910   2.151
 3203SOL     OW10507   5.105   6.783   0.663
 3203SOL    HW110508   5.134   6.824   0.750
 3203SOL    HW210509   5.068   6.853   0.603
 3204SOL     OW10510   6.246   6.473   2.404
 3204SOL    HW110511   6.298   6.549   2.364
 3204SOL    HW210512   6.154   6.470   2.363
 3205SOL     OW10513   2.056   4.511   4.410
 3205SOL    HW110514   2.015   4.516   4.501
 3205SOL    HW210515   2.152   4.485   4.419
 3206SOL     OW10516   2.337   6.441   0.408
 3206SOL    HW110517   2.422   6.489   0.430
 3206SOL    HW210518   2.282   6.431   0.491
 3207SOL     OW10519   1.693   1.074   3.079
 3207SOL    HW110520   1.688   1.172   3.062
 3207SOL    HW210521   1.652   1.025   3.002
 3208SOL     OW10522   6.235   6.076   6.328
 3208SOL    HW110523   6.245   5.977   6.333
 3208SOL    HW210524   6.285   6.111   6.249
 3209SOL     OW10525   0.927   6.818   3.099
 3209SOL    HW110526   1.014   6.772   3.113
 3209SOL    HW210527   0.911   6.883   3.173
 3210SOL     OW10528   0.502   5.978   2.225
 3210SOL    HW110529   0.440   6.056   2.229
 3210SOL    HW210530   0.475   5.910   2.292
 3211SOL     OW10531   0.235   4.673   3.942
 3211SOL    HW110532   0.283   4.745   3.992
 3211SOL    HW210533   0.275   4.584   3.966
 3212SOL     OW10534   4.733   2.351   4.801
 3212SOL    HW110535   4.752   2.255   4.778
 3212SOL    HW210536   4.634   2.364   4.808
 3213SOL     OW10537   5.598   0.153   2.197
 3213SOL    HW110538   5.612   0.113   2.287
 3213SOL    HW210539   5.500   0.162   2.179
 3214SOL     OW10540   4.467   3.508   0.829
 3214SOL    HW110541   4.496   3.413   0.841
 3214SOL    HW210542   4.371   3.510   0.801
 3215SOL     OW10543   6.682   1.516   6.835
 3215SOL    HW110544   6.730   1.429   6.846
 3215SOL    HW210545   6.742   1.581   6.787
 3216SOL     OW10546   5.227   6.995   5.735
 3216SOL    HW110547   5.263   6.903   5.727
 3216SOL    HW210548   5.224   7.021   5.832
 3217SOL     OW10549   0.119   4.678   6.828
 3217SOL    HW110550   0.219   4.691   6.830
 3217SOL    HW210551   0.074   4.767   6.827
 3218SOL     OW10552   4.109   2.458   1.202
 3218SOL    HW110553   4.133   2.427   1.294
 3218SOL    HW210554   4.023   2.508   1.206
 3219SOL     OW10555   0.687   2.386   2.963
 3219SOL    HW110556   0.741   2.427   2.890
 3219SOL    HW210557   0.590   2.410   2.951
 3220SOL     OW10558   6.971   2.702   6.287
 3220SOL    HW110559   6.946   2.786   6.238
 3220SOL    HW210560   6.929   2.624   6.242
 3221SOL     OW10561   3.954   0.958   0.976
 3221SOL    HW110562   3.990   1.047   1.003
 3221SOL    HW210563   3.902   0.918   1.052
 3222SOL     OW10564   6.180   3.913   2.265
 3222SOL    HW110565   6.195   3.933   2.168
 3222SOL    HW210566   6.087   3.938   2.290
 3223SOL     OW10567   1.065   4.527   5.711
 3223SOL    HW110568   0.966   4.519   5.694
 3223SOL    HW210569   1.100   4.440   5.745
 3224SOL     OW10570   2.735   6.966   1.714
 3224SOL    HW110571   2.703   0.003   1.786
 3224SOL    HW210572   2.676   6.974   1.634
 3225SOL     OW10573   1.050   1.559   7.018
 3225SOL    HW110574   0.955   1.539   6.991
 3225SOL    HW210575   1.051   1.593   0.088
 3226SOL     OW10576   6.867   1.482   3.174
 3226SOL    HW110577   6.955   1.490   3.126
 3226SOL    HW210578   6.854   1.563   3.232
 3227SOL     OW10579   2.159   1.834   4.906
 3227SOL    HW110580   2.216   1.905   4.946
 3227SOL    HW210581   2.102   1.793   4.978
 3228SOL     OW10582   5.156   3.412   4.855
 3228SOL    HW110583   5.230   3.474   4.884
 3228SOL    HW210584   5.196   3.330   4.816
 3229SOL     OW10585   4.693   1.573   4.626
 3229SOL    HW110586   4.688   1.474   4.609
 3229SOL    HW210587   4.608   1.603   4.671
 3230SOL     OW10588   1.081   6.872   4.225
 3230SOL    HW110589   1.049   6.829   4.309
 3230SOL    HW210590   1.006   6.924   4.183
 3231SOL     OW10591   4.072   4.473   0.286
 3231SOL    HW110592   4.109   4.517   0.367
 3231SOL    HW210593   3.989   4.521   0.256
 3232SOL     OW10594   1.591   4.212   3.571
 3232SOL    HW110595   1.618   4.302   3.535
 3232SOL    HW210596   1.661   4.181   3.636
 3233SOL     OW10597   2.877   3.883   1.361
 3233SOL    HW110598   2.856   3.972   1.322
 3233SOL    HW210599   2.848   3.811   1.298
 3234SOL     OW10600   6.863   2.474   4.188
 3234SOL    HW110601   6.918   2.392   4.205
 3234SOL    HW210602   6.778   2.469   4.240
 3235SOL     OW10603   6.572   0.468   2.049
 3235SOL    HW110604   6.507   0.488   1.976
 3235SOL    HW210605   6.594   0.370   2.049
 3236SOL     OW10606   0.486   1.314   0.983
 3236SOL    HW110607   0.506   1.247   0.912
 3236SOL    HW210608   0.388   1.336   0.981
 3237SOL     OW10609   3.004   5.105   4.784
 3237SOL    HW110610   2.989   5.075   4.878
 3237SOL    HW210611   3.068   5.043   4.739
 3238SOL     OW10612   0.435   6.258   6.542
 3238SOL    HW110613   0.377   6.226   6.468
 3238SOL    HW210614   0.498   6.185   6.570
 3239SOL     OW10615   2.382   6.705   6.469
 3239SOL    HW110616   2.318   6.732   6.396
 3239SOL    HW210617   2.439   6.783   6.494
 3240SOL     OW10618   1.194   2.475   4.415
 3240SOL    HW110619   1.195   2.575   4.418
 3240SOL    HW210620   1.100   2.442   4.424
 3241SOL     OW10621   3.973   5.962   5.303
 3241SOL    HW110622   3.879   5.995   5.298
 3241SOL    HW210623   4.037   6.037   5.289
 3242SOL     OW10624   3.097   1.409   0.860
 3242SOL    HW110625   3.105   1.322   0.910
 3242SOL    HW210626   3.175   1.467   0.882
 3243SOL     OW10627   3.307   6.050   2.683
 3243SOL    HW110628   3.231   6.034   2.746
 3243SOL    HW210629   3.330   6.147   2.682
 3244SOL     OW10630   1.580   0.370   5.192
 3244SOL    HW110631   1.533   0.439   5.137
 3244SOL    HW210632   1.672   0.355   5.155
 3245SOL     OW10633   3.701   2.379   6.264
 3245SOL    HW110634   3.685   2.281   6.271
 3245SOL    HW210635   3.765   2.408   6.335
 3246SOL     OW10636   6.217   0.011   1.408
 3246SOL    HW110637   6.205   0.002   1.507
 3246SOL    HW210638   6.291   6.976   1.378
 3247SOL     OW10639   6.016   2.890   4.763
 3247SOL    HW110640   5.934   2.868   4.816
 3247SOL    HW210641   6.053   2.806   4.723
 3248SOL     OW10642   5.160   3.722   3.204
 3248SOL    HW110643   5.062   3.710   3.217
 3248SOL    HW210644   5.177   3.812   3.164
 3249SOL     OW10645   3.686   4.767   5.888
 3249SOL    HW110646   3.695   4.844   5.951
 3249SOL    HW210647   3.757   4.700   5.908
 3250SOL     OW10648   3.929   4.959   0.494
 3250SOL    HW110649   3.900   4.864   0.496
 3250SOL    HW210650   3.981   4.976   0.410
 3251SOL     OW10651   2.304   1.316   2.895
 3251SOL    HW110652   2.244   1.391   2.923
 3251SOL    HW210653   2.319   1.321   2.796
 3252SOL     OW10654   3.331   2.122   2.857
 3252SOL    HW110655   3.361   2.059   2.786
 3252SOL    HW210656   3.239   2.156   2.836
 3253SOL     OW10657   5.141   4.195   2.146
 3253SOL    HW110658   5.182   4.204   2.237
 3253SOL    HW210659   5.119   4.285   2.110
 3254SOL     OW10660   6.340   3.711   3.250
 3254SOL    HW110661   6.244   3.718   3.225
 3254SOL    HW210662   6.389   3.657   3.182
 3255SOL     OW10663   2.765   4.582   0.749
 3255SOL    HW110664   2.860   4.568   0.722
 3255SOL    HW210665   2.727   4.660   0.699
 3256SOL     OW10666   6.035   6.142   5.763
 3256SOL    HW110667   6.130   6.153   5.793
 3256SOL    HW210668   6.034   6.093   5.676
 3257SOL     OW10669   2.697   0.739   1.764
 3257SOL    HW110670   2.677   0.742   1.666
 3257SOL    HW210671   2.794   0.759   1.779
 3258SOL     OW10672   4.729   6.773   1.957
 3258SOL    HW110673   4.742   6.860   2.006
 3258SOL    HW210674   4.659   6.719   2.002
 3259SOL     OW10675   5.794   6.024   4.129
 3259SOL    HW110676   5.702   6.056   4.104
 3259SOL    HW210677   5.833   5.974   4.052
 3260SOL     OW10678   1.591   1.401   1.078
 3260SOL    HW110679   1.606   1.499   1.064
 3260SOL    HW210680   1.672   1.361   1.119
 3261SOL     OW10681   4.968   6.351   4.323
 3261SOL    HW110682   5.026   6.311   4.394
 3261SOL    HW210683   4.881   6.302   4.319
 3262SOL     OW10684   4.849   2.745   3.841
 3262SOL    HW110685   4.910   2.774   3.766
 3262SOL    HW210686   4.848   2.645   3.846
 3263SOL     OW10687   3.114   4.857   2.768
 3263SOL    HW110688   3.206   4.847   2.804
 3263SOL    HW210689   3.049   4.813   2.830
 3264SOL     OW10690   4.950   3.748   6.042
 3264SOL    HW110691   5.009   3.796   6.107
 3264SOL    HW210692   4.987   3.656   6.025
 3265SOL     OW10693   5.507   6.837   5.473
 3265SOL    HW110694   5.605   6.819   5.472
 3265SOL    HW210695   5.459   6.760   5.516
 3266SOL     OW10696   1.717   2.342   5.987
 3266SOL    HW110697   1.767   2.291   5.917
 3266SOL    HW210698   1.672   2.278   6.049
 3267SOL     OW10699   5.419   4.193   0.475
 3267SOL    HW110700   5.495   4.146   0.519
 3267SOL    HW210701   5.334   4.141   0.489
 3268SOL     OW10702   2.480   5.397   0.684
 3268SOL    HW110703   2.557   5.375   0.745
 3268SOL    HW210704   2.477   5.329   0.610
 3269SOL     OW10705   4.472   3.666   1.552
 3269SOL    HW110706   4.384   3.695   1.515
 3269SOL    HW210707   4.517   3.743   1.598
 3270SOL     OW10708   6.066   6.234   3.110
 3270SOL    HW110709   5.984   6.286   3.086
 3270SOL    HW210710   6.040   6.141   3.135
 3271SOL     OW10711   4.809   6.934   0.124
 3271SOL    HW110712   4.772   6.917   0.033
 3271SOL    HW210713   4.791   0.005   0.150
 3272SOL     OW10714   4.455   6.452   6.817
 3272SOL    HW110715   4.417   6.505   6.894
 3272SOL    HW210716   4.386   6.444   6.745
 3273SOL     OW10717   6.365   0.962   2.844
 3273SOL    HW110718   6.428   0.908   2.789
 3273SOL    HW210719   6.361   1.055   2.808
 3274SOL     OW10720   3.385   0.282   1.585
 3274SOL    HW110721   3.337   0.295   1.498
 3274SOL    HW210722   3.333   0.221   1.643
 3275SOL     OW10723   4.885   0.549   6.179
 3275SOL    HW110724   4.844   0.468   6.137
 3275SOL    HW210725   4.850   0.632   6.134
 3276SOL     OW10726   1.763   5.534   1.506
 3276SOL    HW110727   1.792   5.552   1.412
 3276SOL    HW210728   1.789   5.440   1.532
 3277SOL     OW10729   0.938   6.087   6.685
 3277SOL    HW110730   1.015   6.148   6.705
 3277SOL    HW210731   0.901   6.051   6.770
 3278SOL     OW10732   0.939   6.533   6.972
 3278SOL    HW110733   0.925   6.540   6.873
 3278SOL    HW210734   0.947   6.625   7.011
 3279SOL     OW10735   1.937   6.520   2.179
 3279SOL    HW110736   2.001   6.580   2.132
 3279SOL    HW210737   1.986   6.468   2.249
 3280SOL     OW10738   3.024   5.506   3.767
 3280SOL    HW110739   3.078   5.453   3.702
 3280SOL    HW210740   2.996   5.447   3.843
 3281SOL     OW10741   1.915   6.966   1.504
 3281SOL    HW110742   1.997   7.021   1.488
 3281SOL    HW210743   1.880   6.931   1.417
 3282SOL     OW10744   1.149   4.558   2.303
 3282SOL    HW110745   1.157   4.466   2.342
 3282SOL    HW210746   1.190   4.558   2.211
 3283SOL     OW10747   1.698   0.488   3.920
 3283SOL    HW110748   1.710   0.530   4.009
 3283SOL    HW210749   1.783   0.442   3.893
 3284SOL     OW10750   2.394   6.545   6.100
 3284SOL    HW110751   2.368   6.448   6.104
 3284SOL    HW210752   2.490   6.555   6.126
 3285SOL     OW10753   1.308   3.629   4.292
 3285SOL    HW110754   1.259   3.716   4.287
 3285SOL    HW210755   1.242   3.555   4.308
 3286SOL     OW10756   5.051   4.854   0.564
 3286SOL    HW110757   5.022   4.839   0.658
 3286SOL    HW210758   5.109   4.779   0.534
 3287SOL     OW10759   0.407   1.819   1.243
 3287SOL    HW110760   0.408   1.908   1.197
 3287SOL    HW210761   0.441   1.749   1.179
 3288SOL     OW10762   1.410   6.545   0.729
 3288SOL    HW110763   1.336   6.545   0.796
 3288SOL    HW210764   1.372   6.545   0.636
 3289SOL     OW10765   1.635   0.888   4.080
 3289SOL    HW110766   1.703   0.831   4.127
 3289SOL    HW210767   1.639   0.981   4.116
 3290SOL     OW10768   0.201   4.489   4.598
 3290SOL    HW110769   0.285   4.539   4.621
 3290SOL    HW210770   0.214   4.392   4.619
 3291SOL     OW10771   1.807   1.284   1.894
 3291SOL    HW110772   1.752   1.292   1.978
 3291SOL    HW210773   1.808   1.371   1.846
 3292SOL     OW10774   1.269   6.650   3.887
 3292SOL    HW110775   1.327   6.717   3.839
 3292SOL    HW210776   1.286   6.656   3.986
 3293SOL     OW10777   5.562   1.438   3.152
 3293SOL    HW110778   5.567   1.531   3.188
 3293SOL    HW210779   5.627   1.380   3.201
 3294SOL     OW10780   0.038   6.634   1.591
 3294SOL    HW110781   0.063   6.572   1.516
 3294SOL    HW210782   7.019   6.581   1.664
 3295SOL     OW10783   2.805   3.006   6.608
 3295SOL    HW110784   2.812   2.908   6.590
 3295SOL    HW210785   2.888   3.052   6.577
 3296SOL     OW10786   1.306   6.530   1.854
 3296SOL    HW110787   1.211   6.549   1.877
 3296SOL    HW210788   1.342   6.460   1.917
 3297SOL     OW10789   3.792   0.468   5.200
 3297SOL    HW110790   3.821   0.449   5.294
 3297SOL    HW210791   3.810   0.564   5.179
 3298SOL     OW10792   6.632   5.232   3.360
 3298SOL    HW110793   6.651   5.325   3.391
 3298SOL    HW210794   6.577   5.185   3.429
 3299SOL     OW10795   2.576   1.525   5.007
 3299SOL    HW110796   2.645   1.465   4.969
 3299SOL    HW210797   2.603   1.621   4.992
 3300SOL     OW10798   0.637   0.056   4.203
 3300SOL    HW110799   0.554   0.093   4.163
 3300SOL    HW210800   0.629   0.055   4.303
 3301SOL     OW10801   6.242   4.226   2.162
 3301SOL    HW110802   6.273   4.199   2.254
 3301SOL    HW210803   6.269   4.320   2.145
 3302SOL     OW10804   1.910   6.092   5.543
 3302SOL    HW110805   1.818   6.052   5.545
 3302SOL    HW210806   1.934   6.126   5.634
 3303SOL     OW10807   3.497   3.589   5.354
 3303SOL    HW110808   3.529   3.633   5.270
 3303SOL    HW210809   3.404   3.619   5.375
 3304SOL     OW10810   2.405   1.090   3.803
 3304SOL    HW110811   2.316   1.136   3.804
 3304SOL    HW210812   2.392   0.992   3.795
 3305SOL     OW10813   1.616   2.458   0.931
 3305SOL    HW110814   1.620   2.540   0.875
 3305SOL    HW210815   1.565   2.477   1.015
 3306SOL     OW10816   1.053   1.666   0.739
 3306SOL    HW110817   0.995   1.721   0.679
 3306SOL    HW210818   1.148   1.697   0.731
 3307SOL     OW10819   0.358   6.445   0.546
 3307SOL    HW110820   0.319   6.414   0.458
 3307SOL    HW210821   0.442   6.496   0.529
 3308SOL     OW10822   5.630   5.139   0.467
 3308SOL    HW110823   5.649   5.165   0.372
 3308SOL    HW210824   5.709   5.091   0.505
 3309SOL     OW10825   0.428   4.096   2.073
 3309SOL    HW110826   0.337   4.128   2.098
 3309SOL    HW210827   0.492   4.118   2.146
 3310SOL     OW10828   2.190   0.379   2.453
 3310SOL    HW110829   2.248   0.330   2.388
 3310SOL    HW210830   2.241   0.396   2.537
 3311SOL     OW10831   3.867   5.036   0.840
 3311SOL    HW110832   3.824   4.980   0.910
 3311SOL    HW210833   3.893   4.979   0.762
 3312SOL     OW10834   1.831   2.322   5.719
 3312SOL    HW110835   1.928   2.301   5.707
 3312SOL    HW210836   1.782   2.309   5.633
 3313SOL     OW10837   5.194   6.039   5.470
 3313SOL    HW110838   5.139   5.996   5.399
 3313SOL    HW210839   5.285   6.062   5.433
 3314SOL     OW10840   0.579   4.277   6.792
 3314SOL    HW110841   0.592   4.358   6.735
 3314SOL    HW210842   0.638   4.283   6.872
 3315SOL     OW10843   6.984   3.607   3.632
 3315SOL    HW110844   0.031   3.676   3.641
 3315SOL    HW210845   6.953   3.603   3.537
 3316SOL     OW10846   3.757   0.089   6.607
 3316SOL    HW110847   3.752   0.012   6.543
 3316SOL    HW210848   3.851   0.125   6.607
 3317SOL     OW10849   6.413   2.385   1.194
 3317SOL    HW110850   6.392   2.406   1.098
 3317SOL    HW210851   6.338   2.417   1.252
 3318SOL     OW10852   2.214   5.002   6.246
 3318SOL    HW110853   2.244   5.008   6.150
 3318SOL    HW210854   2.203   4.907   6.272
 3319SOL     OW10855   1.411   6.194   6.223
 3319SOL    HW110856   1.457   6.257   6.161
 3319SOL    HW210857   1.312   6.198   6.207
 3320SOL     OW10858   1.807   0.829   0.786
 3320SOL    HW110859   1.721   0.874   0.809
 3320SOL    HW210860   1.841   0.780   0.867
 3321SOL     OW10861   4.178   3.540   4.862
 3321SOL    HW110862   4.162   3.604   4.787
 3321SOL    HW210863   4.276   3.526   4.874
 3322SOL     OW10864   5.648   3.431   2.772
 3322SOL    HW110865   5.591   3.350   2.784
 3322SOL    HW210866   5.599   3.500   2.720
 3323SOL     OW10867   1.930   3.852   0.496
 3323SOL    HW110868   1.909   3.754   0.505
 3323SOL    HW210869   1.912   3.880   0.402
 3324SOL     OW10870   6.235   3.234   1.407
 3324SOL    HW110871   6.329   3.201   1.401
 3324SOL    HW210872   6.185   3.181   1.476
 3325SOL     OW10873   1.390   4.853   5.727
 3325SOL    HW110874   1.425   4.865   5.634
 3325SOL    HW210875   1.467   4.855   5.791
 3326SOL     OW10876   4.002   6.995   2.156
 3326SOL    HW110877   4.033   6.921   2.095
 3326SOL    HW210878   3.968   0.046   2.101
 3327SOL     OW10879   5.064   6.709   2.200
 3327SOL    HW110880   5.025   6.772   2.267
 3327SOL    HW210881   5.050   6.744   2.108
 3328SOL     OW10882   6.461   6.086   3.319
 3328SOL    HW110883   6.374   6.040   3.302
 3328SOL    HW210884   6.528   6.059   3.250
 3329SOL     OW10885   5.876   0.053   5.656
 3329SOL    HW110886   5.923   7.002   5.612
 3329SOL    HW210887   5.889   0.047   5.755
 3330SOL     OW10888   5.322   1.034   3.446
 3330SOL    HW110889   5.386   0.977   3.497
 3330SOL    HW210890   5.339   1.023   3.348
 3331SOL     OW10891   0.613   3.279   2.851
 3331SOL    HW110892   0.691   3.288   2.790
 3331SOL    HW210893   0.634   3.319   2.939
 3332SOL     OW10894   4.013   4.936   1.381
 3332SOL    HW110895   3.949   4.869   1.417
 3332SOL    HW210896   4.106   4.897   1.380
 3333SOL     OW10897   2.068   3.761   1.225
 3333SOL    HW110898   2.004   3.788   1.297
 3333SOL    HW210899   2.162   3.768   1.259
 3334SOL     OW10900   2.013   2.575   2.255
 3334SOL    HW110901   1.966   2.489   2.279
 3334SOL    HW210902   2.109   2.556   2.235
 3335SOL     OW10903   4.403   3.955   6.687
 3335SOL    HW110904   4.343   3.991   6.758
 3335SOL    HW210905   4.387   3.857   6.675
 3336SOL     OW10906   3.434   6.196   6.236
 3336SOL    HW110907   3.528   6.166   6.253
 3336SOL    HW210908   3.401   6.249   6.314
 3337SOL     OW10909   3.035   3.843   4.525
 3337SOL    HW110910   2.993   3.862   4.613
 3337SOL    HW210911   3.001   3.755   4.490
 3338SOL     OW10912   3.312   2.889   1.502
 3338SOL    HW110913   3.218   2.879   1.535
 3338SOL    HW210914   3.344   2.982   1.520
 3339SOL     OW10915   0.790   6.872   5.652
 3339SOL    HW110916   0.814   6.878   5.555
 3339SOL    HW210917   0.873   6.858   5.706
 3340SOL     OW10918   4.347   2.269   6.442
 3340SOL    HW110919   4.255   2.249   6.408
 3340SOL    HW210920   4.368   2.366   6.427
 3341SOL     OW10921   1.165   3.866   1.545
 3341SOL    HW110922   1.249   3.888   1.595
 3341SOL    HW210923   1.157   3.767   1.534
 3342SOL     OW10924   5.737   0.510   3.678
 3342SOL    HW110925   5.704   0.459   3.757
 3342SOL    HW210926   5.836   0.518   3.682
 3343SOL     OW10927   2.923   5.346   6.977
 3343SOL    HW110928   2.894   5.261   7.022
 3343SOL    HW210929   3.019   5.364   6.998
 3344SOL     OW10930   2.421   3.734   0.136
 3344SOL    HW110931   2.398   3.642   0.168
 3344SOL    HW210932   2.383   3.802   0.198
 3345SOL     OW10933   4.046   5.236   0.342
 3345SOL    HW110934   4.117   5.258   0.275
 3345SOL    HW210935   3.971   5.301   0.334
 3346SOL     OW10936   0.848   0.574   0.369
 3346SOL    HW110937   0.931   0.604   0.416
 3346SOL    HW210938   0.777   0.643   0.379
 3347SOL     OW10939   1.288   3.069   6.112
 3347SOL    HW110940   1.196   3.108   6.109
 3347SOL    HW210941   1.320   3.052   6.019
 3348SOL     OW10942   2.772   4.309   5.707
 3348SOL    HW110943   2.707   4.385   5.709
 3348SOL    HW210944   2.864   4.343   5.687
 3349SOL     OW10945   2.570   5.371   1.652
 3349SOL    HW110946   2.567   5.276   1.684
 3349SOL    HW210947   2.613   5.428   1.722
 3350SOL     OW10948   3.386   5.131   4.231
 3350SOL    HW110949   3.432   5.212   4.267
 3350SOL    HW210950   3.450   5.054   4.233
 3351SOL     OW10951   4.088   6.844   1.949
 3351SOL    HW110952   4.164   6.810   2.004
 3351SOL    HW210953   4.121   6.872   1.859
 3352SOL     OW10954   5.781   0.585   0.472
 3352SOL    HW110955   5.849   0.612   0.540
 3352SOL    HW210956   5.811   0.501   0.426
 3353SOL     OW10957   5.192   0.077   6.008
 3353SOL    HW110958   5.139   0.162   6.007
 3353SOL    HW210959   5.288   0.098   6.029
 3354SOL     OW10960   3.844   1.658   0.541
 3354SOL    HW110961   3.938   1.625   0.533
 3354SOL    HW210962   3.834   1.744   0.492
 3355SOL     OW10963   0.951   2.027   5.692
 3355SOL    HW110964   0.960   2.112   5.640
 3355SOL    HW210965   1.035   1.974   5.685
 3356SOL     OW10966   3.121   0.336   5.413
 3356SOL    HW110967   3.074   0.399   5.351
 3356SOL    HW210968   3.201   0.298   5.366
 3357SOL     OW10969   2.968   3.347   4.318
 3357SOL    HW110970   2.936   3.265   4.364
 3357SOL    HW210971   3.053   3.327   4.269
 3358SOL     OW10972   0.247   1.848   1.757
 3358SOL    HW110973   0.256   1.861   1.658
 3358SOL    HW210974   0.280   1.929   1.805
 3359SOL     OW10975   0.472   0.076   3.085
 3359SOL    HW110976   0.492   0.132   3.005
 3359SOL    HW210977   0.534   7.022   3.088
 3360SOL     OW10978   1.437   5.780   4.648
 3360SOL    HW110979   1.421   5.846   4.575
 3360SOL    HW210980   1.349   5.738   4.675
 3361SOL     OW10981   0.895   0.164   4.383
 3361SOL    HW110982   0.953   0.083   4.378
 3361SOL    HW210983   0.952   0.246   4.394
 3362SOL     OW10984   4.232   0.695   5.183
 3362SOL    HW110985   4.287   0.631   5.129
 3362SOL    HW210986   4.208   0.774   5.127
 3363SOL     OW10987   4.970   3.411   0.390
 3363SOL    HW110988   4.952   3.436   0.485
 3363SOL    HW210989   4.894   3.440   0.333
 3364SOL     OW10990   2.508   3.696   1.127
 3364SOL    HW110991   2.565   3.777   1.114
 3364SOL    HW210992   2.563   3.614   1.115
 3365SOL     OW10993   0.364   3.473   2.813
 3365SOL    HW110994   0.433   3.401   2.818
 3365SOL    HW210995   0.388   3.547   2.875
 3366SOL     OW10996   5.460   2.677   3.526
 3366SOL    HW110997   5.522   2.673   3.605
 3366SOL    HW210998   5.512   2.658   3.442
 3367SOL     OW10999   3.309   4.098   3.139
 3367SOL    HW111000   3.220   4.098   3.184
 3367SOL    HW211001   3.300   4.059   3.047
 3368SOL     OW11002   1.215   0.902   3.716
 3368SOL    HW111003   1.133   0.846   3.719
 3368SOL    HW211004   1.246   0.912   3.622
 3369SOL     OW11005   6.311   2.912   0.554
 3369SOL    HW111006   6.257   2.948   0.478
 3369SOL    HW211007   6.334   2.817   0.535
 3370SOL     OW11008   0.361   5.875   3.532
 3370SOL    HW111009   0.266   5.848   3.548
 3370SOL    HW211010   0.370   5.911   3.439
 3371SOL     OW11011   2.621   2.512   1.198
 3371SOL    HW111012   2.659   2.590   1.147
 3371SOL    HW211013   2.668   2.428   1.171
 3372SOL     OW11014   5.729   2.878   3.787
 3372SOL    HW111015   5.659   2.914   3.849
 3372SOL    HW211016   5.805   2.942   3.781
 3373SOL     OW11017   0.816   4.598   1.102
 3373SOL    HW111018   0.774   4.526   1.158
 3373SOL    HW211019   0.912   4.610   1.129
 3374SOL     OW11020   0.862   5.381   4.406
 3374SOL    HW111021   0.917   5.462   4.426
 3374SOL    HW211022   0.922   5.305   4.381
 3375SOL     OW11023   0.111   6.615   5.613
 3375SOL    HW111024   0.210   6.628   5.617
 3375SOL    HW211025   0.066   6.673   5.681
 3376SOL     OW11026   3.272   3.685   4.884
 3376SOL    HW111027   3.296   3.771   4.840
 3376SOL    HW211028   3.354   3.640   4.917
 3377SOL     OW11029   5.729   5.599   4.966
 3377SOL    HW111030   5.822   5.599   5.004
 3377SOL    HW211031   5.666   5.559   5.033
 3378SOL     OW11032   0.621   5.748   6.693
 3378SOL    HW111033   0.590   5.670   6.748
 3378SOL    HW211034   0.630   5.719   6.598
 3379SOL     OW11035   5.893   4.439   3.531
 3379SOL    HW111036   5.819   4.489   3.576
 3379SOL    HW211037   5.940   4.499   3.467
 3380SOL     OW11038   1.123   4.306   1.968
 3380SOL    HW111039   1.193   4.374   1.991
 3380SOL    HW211040   1.082   4.329   1.880
 3381SOL     OW11041   2.867   4.854   0.158
 3381SOL    HW111042   2.846   4.793   0.082
 3381SOL    HW211043   2.964   4.846   0.182
 3382SOL     OW11044   0.366   3.279   0.078
 3382SOL    HW111045   0.373   3.335   0.160
 3382SOL    HW211046   0.449   3.224   0.068
 3383SOL     OW11047   3.324   5.877   6.478
 3383SOL    HW111048   3.390   5.889   6.404
 3383SOL    HW211049   3.337   5.950   6.545
 3384SOL     OW11050   2.861   2.757   6.535
 3384SOL    HW111051   2.858   2.702   6.619
 3384SOL    HW211052   2.953   2.753   6.496
 3385SOL     OW11053   6.749   1.709   4.280
 3385SOL    HW111054   6.673   1.725   4.217
 3385SOL    HW211055   6.735   1.761   4.364
 3386SOL     OW11056   6.702   4.633   5.473
 3386SOL    HW111057   6.770   4.697   5.509
 3386SOL    HW211058   6.719   4.542   5.510
 3387SOL     OW11059   5.617   1.540   2.912
 3387SOL    HW111060   5.569   1.471   2.966
 3387SOL    HW211061   5.612   1.516   2.815
 3388SOL     OW11062   1.227   3.932   1.255
 3388SOL    HW111063   1.191   3.913   1.346
 3388SOL    HW211064   1.155   3.973   1.198
 3389SOL     OW11065   6.072   5.380   6.554
 3389SOL    HW111066   6.036   5.364   6.462
 3389SOL    HW211067   6.026   5.319   6.618
 3390SOL     OW11068   3.191   4.307   0.802
 3390SOL    HW111069   3.286   4.286   0.824
 3390SOL    HW211070   3.152   4.365   0.874
 3391SOL     OW11071   6.247   4.331   5.880
 3391SOL    HW111072   6.226   4.427   5.864
 3391SOL    HW211073   6.286   4.321   5.972
 3392SOL     OW11074   4.645   5.671   5.892
 3392SOL    HW111075   4.739   5.639   5.890
 3392SOL    HW211076   4.628   5.721   5.977
 3393SOL     OW11077   3.283   1.067   0.911
 3393SOL    HW111078   3.188   1.036   0.904
 3393SOL    HW211079   3.320   1.082   0.819
 3394SOL     OW11080   3.592   5.610   2.026
 3394SOL    HW111081   3.583   5.702   2.063
 3394SOL    HW211082   3.621   5.548   2.099
 3395SOL     OW11083   1.432   5.780   2.864
 3395SOL    HW111084   1.360   5.838   2.827
 3395SOL    HW211085   1.442   5.799   2.962
 3396SOL     OW11086   3.931   0.216   3.819
 3396SOL    HW111087   4.022   0.215   3.777
 3396SOL    HW211088   3.932   0.161   3.903
 3397SOL     OW11089   3.143   6.270   2.322
 3397SOL    HW111090   3.171   6.347   2.380
 3397SOL    HW211091   3.175   6.286   2.228
 3398SOL     OW11092   6.514   0.171   1.054
 3398SOL    HW111093   6.583   0.243   1.060
 3398SOL    HW211094   6.546   0.101   0.990
 3399SOL     OW11095   5.869   6.613   2.721
 3399SOL    HW111096   5.965   6.604   2.696
 3399SOL    HW211097   5.819   6.532   2.690
 3400SOL     OW11098   3.293   3.172   5.625
 3400SOL    HW111099   3.348   3.255   5.635
 3400SOL    HW211100   3.204   3.195   5.585
 3401SOL     OW11101   6.549   4.222   3.483
 3401SOL    HW111102   6.467   4.180   3.445
 3401SOL    HW211103   6.525   4.274   3.565
 3402SOL     OW11104   6.637   3.788   0.516
 3402SOL    HW111105   6.614   3.691   0.521
 3402SOL    HW211106   6.700   3.804   0.441
 3403SOL     OW11107   5.588   6.916   3.933
 3403SOL    HW111108   5.684   6.900   3.909
 3403SOL    HW211109   5.583   6.952   4.027
 3404SOL     OW11110   5.278   4.735   2.896
 3404SOL    HW111111   5.294   4.794   2.975
 3404SOL    HW211112   5.191   4.687   2.906
 3405SOL     OW11113   4.928   0.528   0.287
 3405SOL    HW111114   4.910   0.455   0.352
 3405SOL    HW211115   5.006   0.582   0.318
 3406SOL     OW11116   4.785   4.318   0.823
 3406SOL    HW111117   4.729   4.400   0.806
 3406SOL    HW211118   4.740   4.239   0.783
 3407SOL     OW11119   2.333   1.734   0.885
 3407SOL    HW111120   2.298   1.666   0.821
 3407SOL    HW211121   2.256   1.780   0.930
 3408SOL     OW11122   3.307   6.890   4.597
 3408SOL    HW111123   3.213   6.901   4.630
 3408SOL    HW211124   3.363   6.965   4.632
 3409SOL     OW11125   5.138   2.286   0.482
 3409SOL    HW111126   5.186   2.333   0.408
 3409SOL    HW211127   5.044   2.266   0.453
 3410SOL     OW11128   6.241   2.177   2.484
 3410SOL    HW111129   6.197   2.112   2.547
 3410SOL    HW211130   6.188   2.181   2.399
 3411SOL     OW11131   5.206   2.850   6.712
 3411SOL    HW111132   5.188   2.875   6.807
 3411SOL    HW211133   5.275   2.911   6.673
 3412SOL     OW11134   4.918   3.362   2.769
 3412SOL    HW111135   4.988   3.433   2.761
 3412SOL    HW211136   4.835   3.392   2.723
 3413SOL     OW11137   1.466   2.048   0.301
 3413SOL    HW111138   1.414   2.107   0.238
 3413SOL    HW211139   1.564   2.057   0.282
 3414SOL     OW11140   3.250   3.421   1.912
 3414SOL    HW111141   3.259   3.473   1.827
 3414SOL    HW211142   3.274   3.325   1.895
 3415SOL     OW11143   2.616   1.247   0.252
 3415SOL    HW111144   2.532   1.273   0.300
 3415SOL    HW211145   2.675   1.327   0.241
 3416SOL     OW11146   5.006   5.799   6.748
 3416SOL    HW111147   5.035   5.892   6.773
 3416SOL    HW211148   4.998   5.792   6.649
 3417SOL     OW11149   5.360   0.276   2.480
 3417SOL    HW111150   5.332   0.258   2.574
 3417SOL    HW211151   5.327   0.366   2.452
 3418SOL     OW11152   4.307   6.287   1.492
 3418SOL    HW111153   4.356   6.256   1.411
 3418SOL    HW211154   4.310   6.216   1.562
 3419SOL     OW11155   2.524   4.676   5.120
 3419SOL    HW111156   2.620   4.665   5.095
 3419SOL    HW211157   2.512   4.655   5.217
 3420SOL     OW11158   4.762   7.014   2.092
 3420SOL    HW111159   4.820   0.061   2.053
 3420SOL    HW211160   4.780   7.005   2.190
 3421SOL     OW11161   0.884   0.945   4.706
 3421SOL    HW111162   0.953   0.879   4.675
 3421SOL    HW211163   0.836   0.908   4.786
 3422SOL     OW11164   3.156   4.959   1.466
 3422SOL    HW111165   3.155   5.059   1.460
 3422SOL    HW211166   3.178   4.931   1.559
 3423SOL     OW11167   1.933   5.944   5.994
 3423SOL    HW111168   2.001   5.883   6.035
 3423SOL    HW211169   1.857   5.956   6.057
 3424SOL     OW11170   6.455   5.078   2.796
 3424SOL    HW111171   6.374   5.021   2.784
 3424SOL    HW211172   6.528   5.025   2.838
 3425SOL     OW11173   6.299   3.577   6.095
 3425SOL    HW111174   6.206   3.600   6.065
 3425SOL    HW211175   6.359   3.568   6.016
 3426SOL     OW11176   6.939   4.921   6.335
 3426SOL    HW111177   6.871   4.865   6.382
 3426SOL    HW211178   7.019   4.865   6.315
 3427SOL     OW11179   1.961   0.870   6.467
 3427SOL    HW111180   2.032   0.810   6.504
 3427SOL    HW211181   1.997   0.962   6.458
 3428SOL     OW11182   3.968   1.209   4.171
 3428SOL    HW111183   4.065   1.186   4.162
 3428SOL    HW211184   3.915   1.156   4.105
 3429SOL     OW11185   6.255   5.541   0.285
 3429SOL    HW111186   6.354   5.538   0.298
 3429SOL    HW211187   6.219   5.448   0.279
 3430SOL     OW11188   2.448   4.688   0.249
 3430SOL    HW111189   2.419   4.767   0.195
 3430SOL    HW211190   2.388   4.611   0.229
 3431SOL     OW11191   1.618   3.462   1.675
 3431SOL    HW111192   1.576   3.510   1.751
 3431SOL    HW211193   1.707   3.502   1.655
 3432SOL     OW11194   0.013   5.857   6.990
 3432SOL    HW111195   0.103   5.828   7.022
 3432SOL    HW211196   0.023   5.911   6.907
 3433SOL     OW11197   0.262   1.279   0.174
 3433SOL    HW111198   0.343   1.224   0.156
 3433SOL    HW211199   0.224   1.256   0.263
 3434SOL     OW11200   3.976   2.850   1.480
 3434SOL    HW111201   3.882   2.866   1.510
 3434SOL    HW211202   4.026   2.801   1.552
 3435SOL     OW11203   3.236   2.679   1.345
 3435SOL    HW111204   3.267   2.756   1.400
 3435SOL    HW211205   3.199   2.608   1.404
 3436SOL     OW11206   4.672   5.288   4.883
 3436SOL    HW111207   4.702   5.282   4.979
 3436SOL    HW211208   4.633   5.379   4.867
 3437SOL     OW11209   3.166   5.919   0.347
 3437SOL    HW111210   3.072   5.917   0.311
 3437SOL    HW211211   3.172   5.987   0.420
 3438SOL     OW11212   2.191   3.950   0.904
 3438SOL    HW111213   2.182   4.041   0.862
 3438SOL    HW211214   2.241   3.958   0.990
 3439SOL     OW11215   3.176   5.731   1.039
 3439SOL    HW111216   3.136   5.640   1.031
 3439SOL    HW211217   3.215   5.743   1.130
 3440SOL     OW11218   4.092   4.627   5.823
 3440SOL    HW111219   4.165   4.579   5.872
 3440SOL    HW211220   4.013   4.637   5.883
 3441SOL     OW11221   0.626   5.831   5.298
 3441SOL    HW111222   0.716   5.843   5.256
 3441SOL    HW211223   0.578   5.919   5.300
 3442SOL     OW11224   1.752   2.157   6.626
 3442SOL    HW111225   1.685   2.114   6.686
 3442SOL    HW211226   1.710   2.235   6.580
 3443SOL     OW11227   6.941   6.500   1.793
 3443SOL    HW111228   6.876   6.575   1.810
 3443SOL    HW211229   6.890   6.417   1.769
 3444SOL     OW11230   1.536   3.780   5.822
 3444SOL    HW111231   1.591   3.722   5.882
 3444SOL    HW211232   1.596   3.840   5.769
 3445SOL     OW11233   5.808   4.186   3.373
 3445SOL    HW111234   5.838   4.274   3.410
 3445SOL    HW211235   5.881   4.147   3.316
 3446SOL     OW11236   5.776   1.085   6.928
 3446SOL    HW111237   5.736   1.060   6.840
 3446SOL    HW211238   5.784   1.185   6.934
 3447SOL     OW11239   5.602   1.473   6.553
 3447SOL    HW111240   5.594   1.374   6.536
 3447SOL    HW211241   5.525   1.520   6.509
 3448SOL     OW11242   0.928   5.662   4.954
 3448SOL    HW111243   0.866   5.585   4.946
 3448SOL    HW211244   0.903   5.733   4.888
 3449SOL     OW11245   1.164   4.350   4.385
 3449SOL    HW111246   1.258   4.364   4.417
 3449SOL    HW211247   1.106   4.422   4.421
 3450SOL     OW11248   2.377   6.949   3.434
 3450SOL    HW111249   2.309   6.927   3.364
 3450SOL    HW211250   2.342   6.924   3.524
 3451SOL     OW11251   2.542   1.871   1.072
 3451SOL    HW111252   2.583   1.787   1.035
 3451SOL    HW211253   2.487   1.915   1.001
 3452SOL     OW11254   4.662   1.054   4.966
 3452SOL    HW111255   4.592   1.122   4.945
 3452SOL    HW211256   4.724   1.089   5.036
 3453SOL     OW11257   4.731   6.245   6.001
 3453SOL    HW111258   4.811   6.190   6.027
 3453SOL    HW211259   4.692   6.208   5.916
 3454SOL     OW11260   1.841   3.222   3.780
 3454SOL    HW111261   1.850   3.267   3.869
 3454SOL    HW211262   1.837   3.123   3.793
 3455SOL     OW11263   2.160   3.888   6.222
 3455SOL    HW111264   2.163   3.979   6.263
 3455SOL    HW211265   2.252   3.863   6.191
 3456SOL     OW11266   5.162   5.057   2.737
 3456SOL    HW111267   5.223   5.132   2.711
 3456SOL    HW211268   5.174   4.981   2.673
 3457SOL     OW11269   4.583   4.478   0.157
 3457SOL    HW111270   4.525   4.483   0.237
 3457SOL    HW211271   4.640   4.395   0.162
 3458SOL     OW11272   4.466   1.746   1.070
 3458SOL    HW111273   4.374   1.783   1.080
 3458SOL    HW211274   4.503   1.773   0.981
 3459SOL     OW11275   6.217   1.303   2.411
 3459SOL    HW111276   6.200   1.297   2.510
 3459SOL    HW211277   6.152   1.244   2.363
 3460SOL     OW11278   5.000   1.875   5.179
 3460SOL    HW111279   4.963   1.953   5.228
 3460SOL    HW211280   4.952   1.791   5.207
 3461SOL     OW11281   5.139   4.467   5.054
 3461SOL    HW111282   5.103   4.383   5.014
 3461SOL    HW211283   5.065   4.535   5.061
 3462SOL     OW11284   1.107   3.543   6.743
 3462SOL    HW111285   1.145   3.555   6.651
 3462SOL    HW211286   1.068   3.630   6.775
 3463SOL     OW11287   6.179   3.579   7.004
 3463SOL    HW111288   6.262   3.632   6.986
 3463SOL    HW211289   6.190   3.486   6.968
 3464SOL     OW11290   0.875   4.726   4.772
 3464SOL    HW111291   0.932   4.757   4.696
 3464SOL    HW211292   0.934   4.689   4.844
 3465SOL     OW11293   1.064   2.410   0.717
 3465SOL    HW111294   1.034   2.445   0.806
 3465SOL    HW211295   1.161   2.432   0.704
 3466SOL     OW11296   4.911   3.632   3.209
 3466SOL    HW111297   4.890   3.631   3.111
 3466SOL    HW211298   4.922   3.538   3.241
 3467SOL     OW11299   1.739   1.216   6.442
 3467SOL    HW111300   1.696   1.285   6.501
 3467SOL    HW211301   1.672   1.184   6.375
 3468SOL     OW11302   5.797   5.138   1.922
 3468SOL    HW111303   5.758   5.191   1.847
 3468SOL    HW211304   5.759   5.170   2.009
 3469SOL     OW11305   5.765   3.067   0.951
 3469SOL    HW111306   5.828   3.016   0.893
 3469SOL    HW211307   5.723   3.142   0.898
 3470SOL     OW11308   5.956   5.788   6.220
 3470SOL    HW111309   5.934   5.759   6.313
 3470SOL    HW211310   5.877   5.832   6.178
 3471SOL     OW11311   3.973   6.571   4.764
 3471SOL    HW111312   3.892   6.588   4.821
 3471SOL    HW211313   3.951   6.588   4.668
 3472SOL     OW11314   3.525   0.674   3.993
 3472SOL    HW111315   3.461   0.598   4.009
 3472SOL    HW211316   3.618   0.643   4.008
 3473SOL     OW11317   4.236   0.197   3.456
 3473SOL    HW111318   4.224   0.287   3.414
 3473SOL    HW211319   4.334   0.179   3.469
 3474SOL     OW11320   6.594   5.290   1.395
 3474SOL    HW111321   6.551   5.335   1.473
 3474SOL    HW211322   6.670   5.345   1.361
 3475SOL     OW11323   2.182   5.871   5.088
 3475SOL    HW111324   2.136   5.800   5.142
 3475SOL    HW211325   2.144   5.873   4.996
 3476SOL     OW11326   2.087   2.167   3.024
 3476SOL    HW111327   2.114   2.073   3.001
 3476SOL    HW211328   2.078   2.220   2.940
 3477SOL     OW11329   5.107   5.687   2.136
 3477SOL    HW111330   5.031   5.744   2.166
 3477SOL    HW211331   5.073   5.601   2.099
 3478SOL     OW11332   3.685   5.016   0.039
 3478SOL    HW111333   3.778   5.039   0.013
 3478SOL    HW211334   3.667   5.051   0.132
 3479SOL     OW11335   1.725   1.442   0.273
 3479SOL    HW111336   1.812   1.439   0.323
 3479SOL    HW211337   1.734   1.505   0.196
 3480SOL     OW11338   2.235   0.089   5.204
 3480SOL    HW111339   2.263   0.184   5.197
 3480SOL    HW211340   2.273   0.038   5.126
 3481SOL     OW11341   1.616   4.062   6.963
 3481SOL    HW111342   1.527   4.066   6.918
 3481SOL    HW211343   1.623   3.977   7.015
 3482SOL     OW11344   0.286   2.126   0.861
 3482SOL    HW111345   0.304   2.131   0.763
 3482SOL    HW211346   0.204   2.179   0.882
 3483SOL     OW11347   4.104   1.547   1.658
 3483SOL    HW111348   4.057   1.462   1.684
 3483SOL    HW211349   4.154   1.531   1.572
 3484SOL     OW11350   3.620   4.152   4.848
 3484SOL    HW111351   3.653   4.124   4.939
 3484SOL    HW211352   3.527   4.117   4.835
 3485SOL     OW11353   6.275   3.200   3.867
 3485SOL    HW111354   6.303   3.188   3.963
 3485SOL    HW211355   6.295   3.117   3.816
 3486SOL     OW11356   6.118   2.019   2.670
 3486SOL    HW111357   6.030   2.058   2.698
 3486SOL    HW211358   6.128   1.928   2.710
 3487SOL     OW11359   1.835   6.236   2.165
 3487SOL    HW111360   1.831   6.189   2.253
 3487SOL    HW211361   1.866   6.330   2.179
 3488SOL     OW11362   0.119   2.989   4.897
 3488SOL    HW111363   0.035   3.014   4.945
 3488SOL    HW211364   0.098   2.916   4.831
 3489SOL     OW11365   1.688   5.976   6.561
 3489SOL    HW111366   1.643   6.055   6.521
 3489SOL    HW211367   1.768   5.951   6.506
 3490SOL     OW11368   4.997   2.745   0.091
 3490SOL    HW111369   4.986   2.679   0.016
 3490SOL    HW211370   4.917   2.741   0.151
 3491SOL     OW11371   6.308   2.404   5.548
 3491SOL    HW111372   6.321   2.478   5.614
 3491SOL    HW211373   6.218   2.412   5.505
 3492SOL     OW11374   1.434   4.097   6.486
 3492SOL    HW111375   1.431   4.062   6.392
 3492SOL    HW211376   1.476   4.188   6.486
 3493SOL     OW11377   0.415   5.115   1.179
 3493SOL    HW111378   0.325   5.153   1.201
 3493SOL    HW211379   0.446   5.059   1.256
 3494SOL     OW11380   3.341   6.694   1.024
 3494SOL    HW111381   3.302   6.726   1.110
 3494SOL    HW211382   3.425   6.745   1.004
 3495SOL     OW11383   5.493   4.524   5.931
 3495SOL    HW111384   5.449   4.464   5.864
 3495SOL    HW211385   5.512   4.613   5.888
 3496SOL     OW11386   0.716   6.284   1.417
 3496SOL    HW111387   0.729   6.288   1.318
 3496SOL    HW211388   0.804   6.264   1.461
 3497SOL     OW11389   3.005   0.584   4.567
 3497SOL    HW111390   2.952   0.500   4.580
 3497SOL    HW211391   3.051   0.581   4.478
 3498SOL     OW11392   1.475   1.816   0.622
 3498SOL    HW111393   1.474   1.915   0.637
 3498SOL    HW211394   1.453   1.796   0.526
 3499SOL     OW11395   0.116   4.275   3.199
 3499SOL    HW111396   0.130   4.302   3.104
 3499SOL    HW211397   0.038   4.324   3.238
 3500SOL     OW11398   6.732   2.424   0.486
 3500SOL    HW111399   6.737   2.524   0.482
 3500SOL    HW211400   6.681   2.390   0.408
 3501SOL     OW11401   7.004   4.910   3.231
 3501SOL    HW111402   6.918   4.951   3.203
 3501SOL    HW211403   0.003   4.835   3.168
 3502SOL     OW11404   0.753   6.552   1.467
 3502SOL    HW111405   0.814   6.575   1.543
 3502SOL    HW211406   0.750   6.452   1.457
 3503SOL     OW11407   2.962   0.608   3.361
 3503SOL    HW111408   2.974   0.565   3.272
 3503SOL    HW211409   2.864   0.616   3.382
 3504SOL     OW11410   1.579   2.223   1.989
 3504SOL    HW111411   1.530   2.268   1.914
 3504SOL    HW211412   1.674   2.208   1.963
 3505SOL     OW11413   4.123   0.327   4.112
 3505SOL    HW111414   4.117   0.399   4.182
 3505SOL    HW211415   4.164   0.365   4.029
 3506SOL     OW11416   6.155   3.447   3.484
 3506SOL    HW111417   6.204   3.435   3.571
 3506SOL    HW211418   6.217   3.429   3.408
 3507SOL     OW11419   7.024   6.472   4.909
 3507SOL    HW111420   6.968   6.551   4.936
 3507SOL    HW211421   0.084   6.505   4.867
 3508SOL     OW11422   0.794   4.313   0.412
 3508SOL    HW111423   0.853   4.303   0.492
 3508SOL    HW211424   0.829   4.255   0.338
 3509SOL     OW11425   3.805   0.303   0.177
 3509SOL    HW111426   3.903   0.324   0.171
 3509SOL    HW211427   3.791   0.205   0.164
 3510SOL     OW11428   2.613   1.821   2.831
 3510SOL    HW111429   2.527   1.871   2.815
 3510SOL    HW211430   2.602   1.727   2.799
 3511SOL     OW11431   0.356   1.238   3.700
 3511SOL    HW111432   0.325   1.150   3.736
 3511SOL    HW211433   0.447   1.258   3.736
 3512SOL     OW11434   3.042   3.035   2.199
 3512SOL    HW111435   3.139   3.061   2.201
 3512SOL    HW211436   3.033   2.942   2.162
 3513SOL     OW11437   6.704   4.971   6.738
 3513SOL    HW111438   6.648   5.023   6.673
 3513SOL    HW211439   6.654   4.889   6.766
 3514SOL     OW11440   2.734   5.388   3.829
 3514SOL    HW111441   2.754   5.365   3.924
 3514SOL    HW211442   2.736   5.305   3.773
 3515SOL     OW11443   3.745   5.502   4.272
 3515SOL    HW111444   3.658   5.452   4.267
 3515SOL    HW211445   3.808   5.465   4.204
 3516SOL     OW11446   1.413   1.274   6.943
 3516SOL    HW111447   1.467   1.205   6.896
 3516SOL    HW211448   1.468   1.356   6.958
 3517SOL     OW11449   0.550   1.262   6.267
 3517SOL    HW111450   0.546   1.249   6.168
 3517SOL    HW211451   0.458   1.264   6.305
 3518SOL     OW11452   4.601   3.746   6.159
 3518SOL    HW111453   4.531   3.814   6.139
 3518SOL    HW211454   4.691   3.785   6.138
 3519SOL     OW11455   4.102   0.562   6.349
 3519SOL    HW111456   4.039   0.582   6.425
 3519SOL    HW211457   4.059   0.588   6.263
 3520SOL     OW11458   3.842   4.797   1.507
 3520SOL    HW111459   3.874   4.705   1.530
 3520SOL    HW211460   3.848   4.855   1.588
 3521SOL     OW11461   0.169   1.725   5.016
 3521SOL    HW111462   0.093   1.769   4.968
 3521SOL    HW211463   0.213   1.660   4.954
 3522SOL     OW11464   2.420   0.398   0.757
 3522SOL    HW111465   2.509   0.360   0.780
 3522SOL    HW211466   2.410   0.489   0.799
 3523SOL     OW11467   2.361   4.378   4.315
 3523SOL    HW111468   2.351   4.313   4.391
 3523SOL    HW211469   2.370   4.471   4.352
 3524SOL     OW11470   2.638   1.363   2.953
 3524SOL    HW111471   2.600   1.431   2.891
 3524SOL    HW211472   2.662   1.406   3.040
 3525SOL     OW11473   1.754   3.072   3.574
 3525SOL    HW111474   1.812   2.993   3.596
 3525SOL    HW211475   1.779   3.148   3.634
 3526SOL     OW11476   3.842   6.327   4.063
 3526SOL    HW111477   3.840   6.253   4.130
 3526SOL    HW211478   3.919   6.314   4.001
 3527SOL     OW11479   6.714   3.891   0.277
 3527SOL    HW111480   6.682   3.986   0.287
 3527SOL    HW211481   6.805   3.891   0.235
 3528SOL     OW11482   0.927   6.826   3.958
 3528SOL    HW111483   0.855   6.813   3.889
 3528SOL    HW211484   0.978   6.741   3.969
 3529SOL     OW11485   3.707   0.539   0.282
 3529SOL    HW111486   3.766   0.618   0.298
 3529SOL    HW211487   3.762   0.463   0.247
 3530SOL     OW11488   2.395   5.838   2.345
 3530SOL    HW111489   2.488   5.858   2.314
 3530SOL    HW211490   2.332   5.905   2.306
 3531SOL     OW11491   5.314   4.004   6.972
 3531SOL    HW111492   5.297   4.007   0.046
 3531SOL    HW211493   5.303   4.096   6.933
 3532SOL     OW11494   2.227   0.363   6.420
 3532SOL    HW111495   2.184   0.313   6.494
 3532SOL    HW211496   2.168   0.439   6.392
 3533SOL     OW11497   1.363   1.217   2.560
 3533SOL    HW111498   1.456   1.248   2.578
 3533SOL    HW211499   1.301   1.296   2.562
 3534SOL     OW11500   4.870   6.664   4.641
 3534SOL    HW111501   4.942   6.682   4.709
 3534SOL    HW211502   4.814   6.747   4.629
 3535SOL     OW11503   3.385   4.257   0.079
 3535SOL    HW111504   3.368   4.179   0.019
 3535SOL    HW211505   3.471   4.301   0.052
 3536SOL     OW11506   1.974   2.838   2.336
 3536SOL    HW111507   1.907   2.857   2.408
 3536SOL    HW211508   1.976   2.740   2.316
 3537SOL     OW11509   3.444   5.172   1.629
 3537SOL    HW111510   3.367   5.181   1.567
 3537SOL    HW211511   3.523   5.136   1.580
 3538SOL     OW11512   2.759   0.203   4.453
 3538SOL    HW111513   2.810   0.247   4.527
 3538SOL    HW211514   2.821   0.146   4.399
 3539SOL     OW11515   5.271   5.141   6.007
 3539SOL    HW111516   5.289   5.207   6.079
 3539SOL    HW211517   5.309   5.052   6.032
 3540SOL     OW11518   5.540   3.593   6.608
 3540SOL    HW111519   5.499   3.536   6.679
 3540SOL    HW211520   5.485   3.676   6.596
 3541SOL     OW11521   0.283   2.872   2.562
 3541SOL    HW111522   0.270   2.832   2.471
 3541SOL    HW211523   0.263   2.970   2.558
 3542SOL     OW11524   5.820   0.665   6.621
 3542SOL    HW111525   5.857   0.745   6.573
 3542SOL    HW211526   5.784   0.693   6.710
 3543SOL     OW11527   0.393   3.341   5.109
 3543SOL    HW111528   0.434   3.322   5.198
 3543SOL    HW211529   0.307   3.290   5.100
 3544SOL     OW11530   4.393   4.970   5.877
 3544SOL    HW111531   4.434   5.060   5.887
 3544SOL    HW211532   4.465   4.900   5.879
 3545SOL     OW11533   2.570   6.639   1.959
 3545SOL    HW111534   2.535   6.546   1.946
 3545SOL    HW211535   2.514   6.704   1.908
 3546SOL     OW11536   6.592   3.533   1.491
 3546SOL    HW111537   6.588   3.627   1.524
 3546SOL    HW211538   6.625   3.473   1.564
 3547SOL     OW11539   2.144   4.382   4.120
 3547SOL    HW111540   2.103   4.472   4.106
 3547SOL    HW211541   2.205   4.385   4.199
 3548SOL     OW11542   6.686   6.074   5.468
 3548SOL    HW111543   6.636   6.073   5.554
 3548SOL    HW211544   6.758   6.143   5.472
 3549SOL     OW11545   0.903   6.826   0.319
 3549SOL    HW111546   0.849   6.743   0.333
 3549SOL    HW211547   0.984   6.823   0.377
 3550SOL     OW11548   6.704   2.960   4.732
 3550SOL    HW111549   6.791   2.935   4.692
 3550SOL    HW211550   6.651   3.015   4.667
 3551SOL     OW11551   6.109   1.946   5.015
 3551SOL    HW111552   6.159   2.032   5.026
 3551SOL    HW211553   6.156   1.873   5.066
 3552SOL     OW11554   6.440   1.187   4.405
 3552SOL    HW111555   6.493   1.205   4.322
 3552SOL    HW211556   6.475   1.105   4.450
 3553SOL     OW11557   5.410   5.533   6.577
 3553SOL    HW111558   5.442   5.558   6.668
 3553SOL    HW211559   5.439   5.602   6.511
 3554SOL     OW11560   5.593   3.326   0.548
 3554SOL    HW111561   5.683   3.359   0.517
 3554SOL    HW211562   5.521   3.384   0.509
 3555SOL     OW11563   3.217   1.304   4.743
 3555SOL    HW111564   3.233   1.208   4.763
 3555SOL    HW211565   3.140   1.337   4.797
 3556SOL     OW11566   4.998   1.754   0.317
 3556SOL    HW111567   4.992   1.665   0.270
 3556SOL    HW211568   4.908   1.797   0.318
 3557SOL     OW11569   4.930   0.540   1.084
 3557SOL    HW111570   4.922   0.635   1.054
 3557SOL    HW211571   4.996   0.493   1.025
 3558SOL     OW11572   4.547   5.853   3.828
 3558SOL    HW111573   4.484   5.784   3.793
 3558SOL    HW211574   4.641   5.822   3.815
 3559SOL     OW11575   4.127   6.765   0.132
 3559SOL    HW111576   4.089   6.675   0.109
 3559SOL    HW211577   4.054   6.822   0.171
 3560SOL     OW11578   2.015   5.821   4.436
 3560SOL    HW111579   2.105   5.851   4.403
 3560SOL    HW211580   2.016   5.819   4.536
 3561SOL     OW11581   4.885   3.035   6.866
 3561SOL    HW111582   4.944   3.116   6.865
 3561SOL    HW211583   4.898   2.983   6.781
 3562SOL     OW11584   3.078   0.917   0.810
 3562SOL    HW111585   2.990   0.950   0.845
 3562SOL    HW211586   3.094   0.824   0.843
 3563SOL     OW11587   5.920   2.663   6.806
 3563SOL    HW111588   5.878   2.578   6.837
 3563SOL    HW211589   5.994   2.642   6.742
 3564SOL     OW11590   5.849   2.741   3.395
 3564SOL    HW111591   5.923   2.806   3.411
 3564SOL    HW211592   5.794   2.771   3.316
 3565SOL     OW11593   5.385   6.370   5.051
 3565SOL    HW111594   5.303   6.336   5.096
 3565SOL    HW211595   5.455   6.388   5.120
 3566SOL     OW11596   0.840   0.894   4.300
 3566SOL    HW111597   0.927   0.858   4.333
 3566SOL    HW211598   0.787   0.931   4.377
 3567SOL     OW11599   1.693   4.185   0.355
 3567SOL    HW111600   1.652   4.095   0.368
 3567SOL    HW211601   1.638   4.254   0.403
 3568SOL     OW11602   1.724   3.248   5.904
 3568SOL    HW111603   1.689   3.325   5.851
 3568SOL    HW211604   1.813   3.219   5.867
 3569SOL     OW11605   0.584   0.163   3.459
 3569SOL    HW111606   0.641   0.221   3.517
 3569SOL    HW211607   0.558   0.214   3.376
 3570SOL     OW11608   0.038   2.455   5.140
 3570SOL    HW111609   7.006   2.491   5.066
 3570SOL    HW211610   7.009   2.453   5.224
 3571SOL     OW11611   0.301   5.401   5.184
 3571SOL    HW111612   0.357   5.483   5.175
 3571SOL    HW211613   0.284   5.383   5.281
 3572SOL     OW11614   5.287   6.931   5.358
 3572SOL    HW111615   5.232   6.847   5.358
 3572SOL    HW211616   5.379   6.911   5.393
 3573SOL     OW11617   0.526   2.828   1.695
 3573SOL    HW111618   0.530   2.728   1.684
 3573SOL    HW211619   0.470   2.850   1.774
 3574SOL     OW11620   1.121   3.366   0.523
 3574SOL    HW111621   1.167   3.308   0.589
 3574SOL    HW211622   1.147   3.340   0.430
 3575SOL     OW11623   6.529   0.747   2.457
 3575SOL    HW111624   6.557   0.815   2.389
 3575SOL    HW211625   6.439   0.711   2.432
 3576SOL     OW11626   0.407   0.923   0.898
 3576SOL    HW111627   0.498   0.937   0.858
 3576SOL    HW211628   0.399   0.977   0.982
 3577SOL     OW11629   2.068   4.498   1.009
 3577SOL    HW111630   2.151   4.449   1.037
 3577SOL    HW211631   2.081   4.596   1.022
 3578SOL     OW11632   3.624   5.529   1.329
 3578SOL    HW111633   3.628   5.437   1.292
 3578SOL    HW211634   3.556   5.532   1.402
 3579SOL     OW11635   2.049   2.661   6.821
 3579SOL    HW111636   2.089   2.591   6.881
 3579SOL    HW211637   2.104   2.670   6.738
 3580SOL     OW11638   5.883   1.003   2.529
 3580SOL    HW111639   5.868   1.046   2.440
 3580SOL    HW211640   5.979   0.976   2.538
 3581SOL     OW11641   6.638   1.644   2.799
 3581SOL    HW111642   6.622   1.733   2.843
 3581SOL    HW211643   6.555   1.613   2.754
 3582SOL     OW11644   0.559   1.035   5.997
 3582SOL    HW111645   0.603   0.955   6.039
 3582SOL    HW211646   0.462   1.015   5.984
 3583SOL     OW11647   0.483   6.720   2.625
 3583SOL    HW111648   0.383   6.728   2.626
 3583SOL    HW211649   0.522   6.782   2.693
 3584SOL     OW11650   5.666   0.262   4.220
 3584SOL    HW111651   5.759   0.286   4.193
 3584SOL    HW211652   5.601   0.313   4.164
 3585SOL     OW11653   2.076   5.086   2.505
 3585SOL    HW111654   2.067   5.164   2.567
 3585SOL    HW211655   2.163   5.093   2.455
 3586SOL     OW11656   1.710   0.816   6.386
 3586SOL    HW111657   1.800   0.846   6.417
 3586SOL    HW211658   1.717   0.780   6.293
 3587SOL     OW11659   3.353   5.985   5.533
 3587SOL    HW111660   3.407   6.069   5.525
 3587SOL    HW211661   3.387   5.917   5.469
 3588SOL     OW11662   2.684   2.197   5.587
 3588SOL    HW111663   2.765   2.181   5.644
 3588SOL    HW211664   2.712   2.204   5.491
 3589SOL     OW11665   3.237   6.127   4.895
 3589SOL    HW111666   3.222   6.037   4.935
 3589SOL    HW211667   3.201   6.129   4.802
 3590SOL     OW11668   1.184   6.899   7.023
 3590SOL    HW111669   1.243   6.838   6.970
 3590SOL    HW211670   1.239   6.971   0.039
 3591SOL     OW11671   5.148   2.163   4.782
 3591SOL    HW111672   5.183   2.070   4.791
 3591SOL    HW211673   5.082   2.167   4.707
 3592SOL     OW11674   5.630   0.793   1.234
 3592SOL    HW111675   5.581   0.770   1.150
 3592SOL    HW211676   5.690   0.717   1.259
 3593SOL     OW11677   1.223   5.041   4.982
 3593SOL    HW111678   1.159   5.041   5.059
 3593SOL    HW211679   1.175   5.064   4.898
 3594SOL     OW11680   4.906   1.288   4.279
 3594SOL    HW111681   4.912   1.358   4.209
 3594SOL    HW211682   4.922   1.329   4.369
 3595SOL     OW11683   1.977   6.711   6.710
 3595SOL    HW111684   2.020   6.622   6.726
 3595SOL    HW211685   1.999   6.743   6.618
 3596SOL     OW11686   6.242   3.202   2.824
 3596SOL    HW111687   6.297   3.232   2.746
 3596SOL    HW211688   6.156   3.163   2.791
 3597SOL     OW11689   4.469   0.532   3.542
 3597SOL    HW111690   4.540   0.472   3.579
 3597SOL    HW211691   4.507   0.585   3.467
 3598SOL     OW11692   2.326   0.123   0.724
 3598SOL    HW111693   2.304   0.220   0.722
 3598SOL    HW211694   2.424   0.111   0.741
 3599SOL     OW11695   0.115   2.162   4.435
 3599SOL    HW111696   0.111   2.072   4.479
 3599SOL    HW211697   0.111   2.233   4.505
 3600SOL     OW11698   6.536   5.948   1.220
 3600SOL    HW111699   6.592   5.944   1.303
 3600SOL    HW211700   6.482   6.032   1.220
 3601SOL     OW11701   0.587   3.938   6.215
 3601SOL    HW111702   0.661   3.982   6.266
 3601SOL    HW211703   0.610   3.936   6.118
 3602SOL     OW11704   4.034   2.051   0.771
 3602SOL    HW111705   3.940   2.044   0.805
 3602SOL    HW211706   4.085   2.117   0.826
 3603SOL     OW11707   3.333   5.279   5.191
 3603SOL    HW111708   3.245   5.284   5.239
 3603SOL    HW211709   3.396   5.221   5.243
 3604SOL     OW11710   5.557   4.442   3.349
 3604SOL    HW111711   5.485   4.511   3.339
 3604SOL    HW211712   5.567   4.418   3.446
 3605SOL     OW11713   5.708   1.206   6.455
 3605SOL    HW111714   5.723   1.155   6.370
 3605SOL    HW211715   5.797   1.233   6.493
 3606SOL     OW11716   1.501   4.200   2.224
 3606SOL    HW111717   1.555   4.220   2.305
 3606SOL    HW211718   1.536   4.116   2.181
 3607SOL     OW11719   4.403   6.367   4.968
 3607SOL    HW111720   4.328   6.400   5.025
 3607SOL    HW211721   4.370   6.295   4.907
 3608SOL     OW11722   0.328   2.804   2.823
 3608SOL    HW111723   0.242   2.805   2.874
 3608SOL    HW211724   0.311   2.828   2.728
 3609SOL     OW11725   1.447   1.055   4.425
 3609SOL    HW111726   1.437   0.962   4.390
 3609SOL    HW211727   1.358   1.101   4.424
 3610SOL     OW11728   1.493   4.607   5.581
 3610SOL    HW111729   1.575   4.607   5.638
 3610SOL    HW211730   1.505   4.543   5.505
 3611SOL     OW11731   4.498   4.750   0.198
 3611SOL    HW111732   4.531   4.797   0.116
 3611SOL    HW211733   4.509   4.651   0.187
 3612SOL     OW11734   3.193   5.828   1.902
 3612SOL    HW111735   3.115   5.801   1.846
 3612SOL    HW211736   3.227   5.748   1.952
 3613SOL     OW11737   5.101   4.114   6.695
 3613SOL    HW111738   5.027   4.068   6.744
 3613SOL    HW211739   5.073   4.207   6.672
 3614SOL     OW11740   3.771   3.140   5.206
 3614SOL    HW111741   3.866   3.172   5.208
 3614SOL    HW211742   3.762   3.060   5.265
 3615SOL     OW11743   6.166   6.835   6.534
 3615SOL    HW111744   6.161   6.752   6.589
 3615SOL    HW211745   6.191   6.912   6.593
 3616SOL     OW11746   0.236   1.452   4.289
 3616SOL    HW111747   0.165   1.523   4.295
 3616SOL    HW211748   0.253   1.415   4.380
 3617SOL     OW11749   0.240   0.909   1.421
 3617SOL    HW111750   0.172   0.929   1.350
 3617SOL    HW211751   0.327   0.952   1.397
 3618SOL     OW11752   3.424   5.660   6.217
 3618SOL    HW111753   3.354   5.698   6.156
 3618SOL    HW211754   3.385   5.585   6.269
 3619SOL     OW11755   4.903   3.449   3.663
 3619SOL    HW111756   4.986   3.496   3.631
 3619SOL    HW211757   4.886   3.370   3.604
 3620SOL     OW11758   5.682   2.097   5.777
 3620SOL    HW111759   5.772   2.138   5.792
 3620SOL    HW211760   5.691   1.997   5.773
 3621SOL     OW11761   2.277   2.546   6.617
 3621SOL    HW111762   2.314   2.490   6.691
 3621SOL    HW211763   2.352   2.578   6.559
 3622SOL     OW11764   1.470   3.632   0.954
 3622SOL    HW111765   1.530   3.696   0.905
 3622SOL    HW211766   1.498   3.627   1.050
 3623SOL     OW11767   5.904   4.999   4.731
 3623SOL    HW111768   5.904   4.924   4.664
 3623SOL    HW211769   5.836   4.981   4.801
 3624SOL     OW11770   1.914   6.808   1.740
 3624SOL    HW111771   1.953   6.874   1.804
 3624SOL    HW211772   1.894   6.855   1.653
 3625SOL     OW11773   1.693   2.718   4.653
 3625SOL    HW111774   1.788   2.715   4.622
 3625SOL    HW211775   1.691   2.746   4.749
 3626SOL     OW11776   2.282   2.729   5.086
 3626SOL    HW111777   2.184   2.743   5.069
 3626SOL    HW211778   2.334   2.806   5.049
 3627SOL     OW11779   4.073   3.228   4.530
 3627SOL    HW111780   4.076   3.217   4.629
 3627SOL    HW211781   4.047   3.141   4.488
 3628SOL     OW11782   2.834   5.276   4.050
 3628SOL    HW111783   2.806   5.188   4.012
 3628SOL    HW211784   2.912   5.263   4.111
 3629SOL     OW11785   6.209   4.278   4.921
 3629SOL    HW111786   6.177   4.332   4.843
 3629SOL    HW211787   6.179   4.322   5.006
 3630SOL     OW11788   6.564   2.295   4.517
 3630SOL    HW111789   6.498   2.358   4.559
 3630SOL    HW211790   6.518   2.208   4.497
 3631SOL     OW11791   2.322   1.180   4.980
 3631SOL    HW111792   2.292   1.085   4.973
 3631SOL    HW211793   2.294   1.230   4.898
 3632SOL     OW11794   5.055   6.587   6.611
 3632SOL    HW111795   5.099   6.538   6.536
 3632SOL    HW211796   5.088   6.681   6.614
 3633SOL     OW11797   0.946   2.905   5.830
 3633SOL    HW111798   0.914   2.951   5.913
 3633SOL    HW211799   0.949   2.970   5.754
 3634SOL     OW11800   2.070   4.438   6.557
 3634SOL    HW111801   2.136   4.498   6.602
 3634SOL    HW211802   1.977   4.469   6.579
 3635SOL     OW11803   1.235   2.143   3.916
 3635SOL    HW111804   1.312   2.133   3.979
 3635SOL    HW211805   1.241   2.230   3.868
 3636SOL     OW11806   1.053   6.670   1.115
 3636SOL    HW111807   1.110   6.697   1.192
 3636SOL    HW211808   1.103   6.603   1.059
 3637SOL     OW11809   5.627   1.615   2.473
 3637SOL    HW111810   5.652   1.635   2.379
 3637SOL    HW211811   5.604   1.700   2.521
 3638SOL     OW11812   6.765   5.340   2.992
 3638SOL    HW111813   6.682   5.317   3.043
 3638SOL    HW211814   6.841   5.349   3.056
 3639SOL     OW11815   2.218   5.897   6.478
 3639SOL    HW111816   2.247   5.960   6.550
 3639SOL    HW211817   2.167   5.821   6.520
 3640SOL     OW11818   2.659   6.957   3.430
 3640SOL    HW111819   2.567   6.950   3.470
 3640SOL    HW211820   2.721   6.897   3.480
 3641SOL     OW11821   2.675   6.999   5.512
 3641SOL    HW111822   2.770   7.018   5.486
 3641SOL    HW211823   2.618   0.052   5.486
 3642SOL     OW11824   5.772   1.273   2.789
 3642SOL    HW111825   5.782   1.304   2.695
 3642SOL    HW211826   5.721   1.187   2.790
 3643SOL     OW11827   3.538   6.389   3.537
 3643SOL    HW111828   3.497   6.303   3.567
 3643SOL    HW211829   3.627   6.400   3.582
 3644SOL     OW11830   5.845   0.569   1.023
 3644SOL    HW111831   5.812   0.599   1.112
 3644SOL    HW211832   5.817   0.634   0.953
 3645SOL     OW11833   4.866   5.417   3.755
 3645SOL    HW111834   4.774   5.377   3.758
 3645SOL    HW211835   4.897   5.437   3.849
 3646SOL     OW11836   0.105   5.969   4.896
 3646SOL    HW111837   0.119   5.891   4.957
 3646SOL    HW211838   0.058   5.939   4.814
 3647SOL     OW11839   3.924   2.649   0.300
 3647SOL    HW111840   3.853   2.666   0.232
 3647SOL    HW211841   3.985   2.576   0.268
 3648SOL     OW11842   2.399   6.161   4.035
 3648SOL    HW111843   2.495   6.182   4.057
 3648SOL    HW211844   2.382   6.064   4.052
 3649SOL     OW11845   3.346   2.944   3.240
 3649SOL    HW111846   3.347   2.907   3.147
 3649SOL    HW211847   3.420   2.902   3.293
 3650SOL     OW11848   5.883   5.744   2.381
 3650SOL    HW111849   5.941   5.681   2.433
 3650SOL    HW211850   5.856   5.702   2.295
 3651SOL     OW11851   1.719   5.836   1.688
 3651SOL    HW111852   1.752   5.802   1.600
 3651SOL    HW211853   1.708   5.758   1.751
 3652SOL     OW11854   3.859   6.916   3.596
 3652SOL    HW111855   3.857   7.010   3.629
 3652SOL    HW211856   3.920   6.909   3.517
 3653SOL     OW11857   0.148   3.607   3.065
 3653SOL    HW111858   0.115   3.535   3.004
 3653SOL    HW211859   0.071   3.658   3.101
 3654SOL     OW11860   1.768   0.091   2.282
 3654SOL    HW111861   1.677   0.102   2.241
 3654SOL    HW211862   1.760   0.039   2.367
 3655SOL     OW11863   6.547   1.237   4.152
 3655SOL    HW111864   6.626   1.298   4.160
 3655SOL    HW211865   6.511   1.241   4.059
 3656SOL     OW11866   1.596   1.534   2.719
 3656SOL    HW111867   1.692   1.558   2.729
 3656SOL    HW211868   1.558   1.582   2.640
 3657SOL     OW11869   6.416   5.124   1.223
 3657SOL    HW111870   6.448   5.191   1.290
 3657SOL    HW211871   6.469   5.134   1.139
 3658SOL     OW11872   2.779   4.269   5.411
 3658SOL    HW111873   2.710   4.247   5.342
 3658SOL    HW211874   2.738   4.266   5.502
 3659SOL     OW11875   1.227   3.259   0.294
 3659SOL    HW111876   1.189   3.177   0.336
 3659SOL    HW211877   1.326   3.250   0.287
 3660SOL     OW11878   5.555   3.598   0.738
 3660SOL    HW111879   5.640   3.583   0.788
 3660SOL    HW211880   5.532   3.516   0.685
 3661SOL     OW11881   5.224   0.919   2.315
 3661SOL    HW111882   5.313   0.950   2.280
 3661SOL    HW211883   5.171   0.879   2.240
 3662SOL     OW11884   2.165   6.641   4.549
 3662SOL    HW111885   2.234   6.687   4.605
 3662SOL    HW211886   2.200   6.553   4.518
 3663SOL     OW11887   2.985   2.633   5.750
 3663SOL    HW111888   3.079   2.650   5.720
 3663SOL    HW211889   2.929   2.713   5.728
 3664SOL     OW11890   4.002   7.019   1.605
 3664SOL    HW111891   3.998   6.921   1.587
 3664SOL    HW211892   4.097   0.021   1.621
 3665SOL     OW11893   2.535   1.783   5.195
 3665SOL    HW111894   2.550   1.871   5.240
 3665SOL    HW211895   2.592   1.777   5.113
 3666SOL     OW11896   0.976   4.771   3.030
 3666SOL    HW111897   0.926   4.827   3.096
 3666SOL    HW211898   1.064   4.743   3.068
 3667SOL     OW11899   0.318   1.069   6.758
 3667SOL    HW111900   0.295   1.146   6.818
 3667SOL    HW211901   0.408   1.032   6.784
 3668SOL     OW11902   2.200   0.296   0.969
 3668SOL    HW111903   2.101   0.288   0.956
 3668SOL    HW211904   2.236   0.367   0.909
 3669SOL     OW11905   5.349   1.482   4.672
 3669SOL    HW111906   5.325   1.579   4.669
 3669SOL    HW211907   5.447   1.472   4.688
 3670SOL     OW11908   3.485   4.672   6.282
 3670SOL    HW111909   3.441   4.594   6.326
 3670SOL    HW211910   3.483   4.659   6.183
 3671SOL     OW11911   1.421   1.410   2.901
 3671SOL    HW111912   1.474   1.467   2.839
 3671SOL    HW211913   1.325   1.408   2.872
 3672SOL     OW11914   5.919   6.193   6.911
 3672SOL    HW111915   5.945   6.225   6.820
 3672SOL    HW211916   5.898   6.272   6.969
 3673SOL     OW11917   3.904   0.178   5.737
 3673SOL    HW111918   3.826   0.115   5.732
 3673SOL    HW211919   3.988   0.126   5.753
 3674SOL     OW11920   1.897   6.632   0.990
 3674SOL    HW111921   1.823   6.659   0.928
 3674SOL    HW211922   1.984   6.668   0.955
 3675SOL     OW11923   1.611   2.053   4.117
 3675SOL    HW111924   1.659   2.140   4.110
 3675SOL    HW211925   1.517   2.068   4.148
 3676SOL     OW11926   0.570   4.294   2.519
 3676SOL    HW111927   0.472   4.305   2.504
 3676SOL    HW211928   0.592   4.319   2.613
 3677SOL     OW11929   6.593   1.324   3.504
 3677SOL    HW111930   6.675   1.329   3.447
 3677SOL    HW211931   6.574   1.228   3.525
 3678SOL     OW11932   0.820   2.523   4.088
 3678SOL    HW111933   0.742   2.559   4.139
 3678SOL    HW211934   0.791   2.447   4.031
 3679SOL     OW11935   6.305   1.159   1.090
 3679SOL    HW111936   6.242   1.199   1.157
 3679SOL    HW211937   6.255   1.092   1.033
 3680SOL     OW11938   6.622   4.788   5.273
 3680SOL    HW111939   6.690   4.861   5.282
 3680SOL    HW211940   6.639   4.718   5.341
 3681SOL     OW11941   5.633   0.424   3.939
 3681SOL    HW111942   5.563   0.495   3.944
 3681SOL    HW211943   5.589   0.336   3.917
 3682SOL     OW11944   0.703   1.733   0.139
 3682SOL    HW111945   0.661   1.805   0.194
 3682SOL    HW211946   0.802   1.733   0.153
 3683SOL     OW11947   4.315   6.834   4.279
 3683SOL    HW111948   4.351   6.829   4.372
 3683SOL    HW211949   4.321   6.743   4.237
 3684SOL     OW11950   2.086   3.944   1.965
 3684SOL    HW111951   2.143   4.013   2.008
 3684SOL    HW211952   2.050   3.882   2.036
 3685SOL     OW11953   5.421   5.968   6.168
 3685SOL    HW111954   5.457   6.062   6.170
 3685SOL    HW211955   5.389   5.943   6.260
 3686SOL     OW11956   0.416   4.088   0.410
 3686SOL    HW111957   0.472   4.032   0.472
 3686SOL    HW211958   0.333   4.038   0.386
 3687SOL     OW11959   3.760   1.259   1.017
 3687SOL    HW111960   3.759   1.358   1.007
 3687SOL    HW211961   3.746   1.216   0.928
 3688SOL     OW11962   0.349   1.869   6.147
 3688SOL    HW111963   0.260   1.872   6.192
 3688SOL    HW211964   0.402   1.950   6.172
 3689SOL     OW11965   1.128   6.432   3.784
 3689SOL    HW111966   1.140   6.433   3.685
 3689SOL    HW211967   1.172   6.513   3.824
 3690SOL     OW11968   5.004   4.386   5.857
 3690SOL    HW111969   4.931   4.384   5.787
 3690SOL    HW211970   5.093   4.381   5.812
 3691SOL     OW11971   3.212   3.221   6.582
 3691SOL    HW111972   3.186   3.304   6.533
 3691SOL    HW211973   3.146   3.148   6.563
 3692SOL     OW11974   6.639   0.822   5.257
 3692SOL    HW111975   6.604   0.813   5.164
 3692SOL    HW211976   6.602   0.749   5.314
 3693SOL     OW11977   1.865   1.470   3.336
 3693SOL    HW111978   1.888   1.542   3.402
 3693SOL    HW211979   1.765   1.460   3.333
 3694SOL     OW11980   2.114   4.306   3.769
 3694SOL    HW111981   2.205   4.340   3.743
 3694SOL    HW211982   2.125   4.227   3.830
 3695SOL     OW11983   2.601   1.694   0.842
 3695SOL    HW111984   2.605   1.594   0.840
 3695SOL    HW211985   2.508   1.722   0.865
 3696SOL     OW11986   2.755   5.884   5.998
 3696SOL    HW111987   2.688   5.953   5.973
 3696SOL    HW211988   2.843   5.928   6.017
 3697SOL     OW11989   5.393   1.692   3.599
 3697SOL    HW111990   5.368   1.597   3.583
 3697SOL    HW211991   5.490   1.705   3.579
 3698SOL     OW11992   2.622   0.887   5.369
 3698SOL    HW111993   2.588   0.871   5.276
 3698SOL    HW211994   2.602   0.981   5.396
 3699SOL     OW11995   1.149   5.177   2.342
 3699SOL    HW111996   1.212   5.184   2.265
 3699SOL    HW211997   1.142   5.082   2.371
 3700SOL     OW11998   6.070   6.616   3.754
 3700SOL    HW111999   6.027   6.543   3.807
 3700SOL    HW212000   6.017   6.700   3.762
 3701SOL     OW12001   4.529   1.769   3.771
 3701SOL    HW112002   4.575   1.700   3.717
 3701SOL    HW212003   4.494   1.841   3.711
 3702SOL     OW12004   5.337   0.851   6.196
 3702SOL    HW112005   5.366   0.793   6.119
 3702SOL    HW212006   5.392   0.829   6.276
 3703SOL     OW12007   3.381   4.776   0.434
 3703SOL    HW112008   3.423   4.719   0.504
 3703SOL    HW212009   3.290   4.742   0.414
 3704SOL     OW12010   3.566   5.973   0.885
 3704SOL    HW112011   3.468   5.976   0.902
 3704SOL    HW212012   3.597   5.878   0.888
 3705SOL     OW12013   6.774   1.448   4.057
 3705SOL    HW112014   6.710   1.518   4.090
 3705SOL    HW212015   6.822   1.482   3.976
 3706SOL     OW12016   2.460   2.682   3.100
 3706SOL    HW112017   2.415   2.653   3.185
 3706SOL    HW212018   2.546   2.632   3.090
 3707SOL     OW12019   3.997   1.143   5.417
 3707SOL    HW112020   4.058   1.201   5.363
 3707SOL    HW212021   4.043   1.119   5.503
 3708SOL     OW12022   6.288   6.314   0.664
 3708SOL    HW112023   6.308   6.405   0.700
 3708SOL    HW212024   6.374   6.266   0.647
 3709SOL     OW12025   1.118   6.189   6.355
 3709SOL    HW112026   1.088   6.097   6.382
 3709SOL    HW212027   1.093   6.205   6.259
 3710SOL     OW12028   0.933   5.336   6.576
 3710SOL    HW112029   0.920   5.237   6.576
 3710SOL    HW212030   0.949   5.368   6.482
 3711SOL     OW12031   6.432   4.632   1.972
 3711SOL    HW112032   6.529   4.645   1.995
 3711SOL    HW212033   6.425   4.597   1.879
 3712SOL     OW12034   1.416   0.590   5.433
 3712SOL    HW112035   1.348   0.536   5.385
 3712SOL    HW212036   1.486   0.620   5.368
 3713SOL     OW12037   2.968   4.712   5.829
 3713SOL    HW112038   2.881   4.751   5.797
 3713SOL    HW212039   3.002   4.766   5.906
 3714SOL     OW12040   4.597   2.792   5.127
 3714SOL    HW112041   4.547   2.857   5.071
 3714SOL    HW212042   4.689   2.827   5.145
 3715SOL     OW12043   4.283   4.754   4.226
 3715SOL    HW112044   4.284   4.663   4.185
 3715SOL    HW212045   4.195   4.798   4.206
 3716SOL     OW12046   1.647   1.572   4.604
 3716SOL    HW112047   1.716   1.563   4.532
 3716SOL    HW212048   1.559   1.539   4.569
 3717SOL     OW12049   6.053   0.517   6.537
 3717SOL    HW112050   6.040   0.436   6.479
 3717SOL    HW212051   5.967   0.566   6.545
 3718SOL     OW12052   0.875   7.003   6.268
 3718SOL    HW112053   0.822   0.032   6.203
 3718SOL    HW212054   0.825   6.993   6.354
 3719SOL     OW12055   3.439   3.941   0.242
 3719SOL    HW112056   3.417   3.950   0.145
 3719SOL    HW212057   3.382   3.871   0.283
 3720SOL     OW12058   6.673   1.424   6.088
 3720SOL    HW112059   6.577   1.400   6.069
 3720SOL    HW212060   6.726   1.340   6.100
 3721SOL     OW12061   5.788   2.145   0.640
 3721SOL    HW112062   5.828   2.225   0.685
 3721SOL    HW212063   5.750   2.083   0.709
 3722SOL     OW12064   4.589   5.703   1.107
 3722SOL    HW112065   4.621   5.711   1.201
 3722SOL    HW212066   4.624   5.780   1.053
 3723SOL     OW12067   3.436   1.532   0.677
 3723SOL    HW112068   3.353   1.586   0.665
 3723SOL    HW212069   3.440   1.498   0.771
 3724SOL     OW12070   1.578   3.690   6.388
 3724SOL    HW112071   1.607   3.717   6.480
 3724SOL    HW212072   1.587   3.769   6.327
 3725SOL     OW12073   4.746   6.297   2.062
 3725SOL    HW112074   4.820   6.336   2.117
 3725SOL    HW212075   4.679   6.368   2.040
 3726SOL     OW12076   6.264   3.790   2.501
 3726SOL    HW112077   6.324   3.845   2.560
 3726SOL    HW212078   6.239   3.845   2.421
 3727SOL     OW12079   1.989   2.038   5.666
 3727SOL    HW112080   1.889   2.040   5.656
 3727SOL    HW212081   2.014   1.975   5.740
 3728SOL     OW12082   0.994   3.487   6.985
 3728SOL    HW112083   1.053   3.503   6.906
 3728SOL    HW212084   0.901   3.516   6.964
 3729SOL     OW12085   1.387   3.506   3.580
 3729SOL    HW112086   1.449   3.563   3.633
 3729SOL    HW212087   1.426   3.488   3.490
 3730SOL     OW12088   2.149   0.122   1.488
 3730SOL    HW112089   2.097   0.195   1.532
 3730SOL    HW212090   2.140   0.129   1.389
 3731SOL     OW12091   2.276   6.056   0.269
 3731SOL    HW112092   2.376   6.052   0.265
 3731SOL    HW212093   2.247   6.074   0.363
 3732SOL     OW12094   2.017   4.139   4.166
 3732SOL    HW112095   2.046   4.234   4.155
 3732SOL    HW212096   2.056   4.102   4.250
 3733SOL     OW12097   3.653   3.441   1.604
 3733SOL    HW112098   3.739   3.389   1.602
 3733SOL    HW212099   3.595   3.413   1.527
 3734SOL     OW12100   4.063   1.542   3.408
 3734SOL    HW112101   4.020   1.491   3.334
 3734SOL    HW212102   3.992   1.581   3.467
 3735SOL     OW12103   3.541   2.112   1.697
 3735SOL    HW112104   3.605   2.038   1.673
 3735SOL    HW212105   3.585   2.173   1.763
 3736SOL     OW12106   5.290   0.571   5.803
 3736SOL    HW112107   5.205   0.523   5.781
 3736SOL    HW212108   5.332   0.529   5.883
 3737SOL     OW12109   2.860   6.789   3.508
 3737SOL    HW112110   2.949   6.758   3.541
 3737SOL    HW212111   2.867   6.815   3.412
 3738SOL     OW12112   0.513   0.228   4.652
 3738SOL    HW112113   0.590   0.276   4.694
 3738SOL    HW212114   0.442   0.294   4.628
 3739SOL     OW12115   6.758   3.482   0.512
 3739SOL    HW112116   6.682   3.490   0.448
 3739SOL    HW212117   6.723   3.480   0.605
 3740SOL     OW12118   5.719   6.531   0.306
 3740SOL    HW112119   5.668   6.546   0.221
 3740SOL    HW212120   5.759   6.440   0.305
 3741SOL     OW12121   4.287   0.494   6.818
 3741SOL    HW112122   4.338   0.462   6.898
 3741SOL    HW212123   4.189   0.477   6.832
 3742SOL     OW12124   3.787   3.149   6.058
 3742SOL    HW112125   3.872   3.178   6.103
 3742SOL    HW212126   3.806   3.134   5.961
 3743SOL     OW12127   1.600   5.664   5.281
 3743SOL    HW112128   1.531   5.639   5.350
 3743SOL    HW212129   1.663   5.588   5.268
 3744SOL     OW12130   6.141   4.974   3.848
 3744SOL    HW112131   6.120   4.990   3.945
 3744SOL    HW212132   6.056   4.969   3.796
 3745SOL     OW12133   5.272   4.904   1.600
 3745SOL    HW112134   5.280   4.941   1.693
 3745SOL    HW212135   5.362   4.876   1.568
 3746SOL     OW12136   4.222   1.059   1.238
 3746SOL    HW112137   4.260   1.105   1.318
 3746SOL    HW212138   4.202   1.126   1.167
 3747SOL     OW12139   3.314   6.359   1.294
 3747SOL    HW112140   3.296   6.364   1.196
 3747SOL    HW212141   3.330   6.264   1.320
 3748SOL     OW12142   5.367   0.441   1.768
 3748SOL    HW112143   5.328   0.513   1.710
 3748SOL    HW212144   5.315   0.435   1.853
 3749SOL     OW12145   0.727   0.904   3.689
 3749SOL    HW112146   0.680   0.992   3.696
 3749SOL    HW212147   0.763   0.893   3.597
 3750SOL     OW12148   0.196   3.998   0.329
 3750SOL    HW112149   0.184   3.982   0.231
 3750SOL    HW212150   0.117   3.963   0.378
 3751SOL     OW12151   2.065   4.937   1.743
 3751SOL    HW112152   2.092   5.026   1.705
 3751SOL    HW212153   2.092   4.932   1.839
 3752SOL     OW12154   5.842   5.493   6.777
 3752SOL    HW112155   5.864   5.571   6.836
 3752SOL    HW212156   5.808   5.528   6.690
 3753SOL     OW12157   0.441   1.362   3.446
 3753SOL    HW112158   0.381   1.333   3.520
 3753SOL    HW212159   0.511   1.423   3.481
 3754SOL     OW12160   3.733   1.003   1.679
 3754SOL    HW112161   3.716   1.098   1.704
 3754SOL    HW212162   3.647   0.959   1.654
 3755SOL     OW12163   2.680   6.581   4.607
 3755SOL    HW112164   2.744   6.513   4.571
 3755SOL    HW212165   2.611   6.601   4.538
 3756SOL     OW12166   1.021   6.300   0.878
 3756SOL    HW112167   0.995   6.396   0.867
 3756SOL    HW212168   1.007   6.251   0.792
 3757SOL     OW12169   1.358   5.212   0.195
 3757SOL    HW112170   1.345   5.246   0.102
 3757SOL    HW212171   1.454   5.190   0.209
 3758SOL     OW12172   6.815   5.711   4.311
 3758SOL    HW112173   6.859   5.749   4.229
 3758SOL    HW212174   6.725   5.752   4.322
 3759SOL     OW12175   4.868   0.586   3.325
 3759SOL    HW112176   4.931   0.534   3.383
 3759SOL    HW212177   4.864   0.681   3.357
 3760SOL     OW12178   0.588   1.102   3.407
 3760SOL    HW112179   0.524   1.155   3.462
 3760SOL    HW212180   0.551   1.009   3.394
 3761SOL     OW12181   4.248   1.009   4.394
 3761SOL    HW112182   4.255   0.975   4.488
 3761SOL    HW212183   4.299   1.095   4.386
 3762SOL     OW12184   6.287   2.147   3.834
 3762SOL    HW112185   6.191   2.134   3.813
 3762SOL    HW212186   6.337   2.168   3.750
 3763SOL     OW12187   0.409   6.858   6.440
 3763SOL    HW112188   0.372   6.875   6.531
 3763SOL    HW212189   0.496   6.810   6.448
 3764SOL     OW12190   4.821   2.201   2.935
 3764SOL    HW112191   4.821   2.286   2.988
 3764SOL    HW212192   4.899   2.201   2.873
 3765SOL     OW12193   5.315   3.847   1.908
 3765SOL    HW112194   5.334   3.785   1.831
 3765SOL    HW212195   5.255   3.921   1.876
 3766SOL     OW12196   2.207   2.259   2.487
 3766SOL    HW112197   2.140   2.282   2.417
 3766SOL    HW212198   2.219   2.338   2.548
 3767SOL     OW12199   1.736   5.436   5.249
 3767SOL    HW112200   1.689   5.392   5.326
 3767SOL    HW212201   1.795   5.369   5.203
 3768SOL     OW12202   1.299   6.742   4.132
 3768SOL    HW112203   1.222   6.791   4.171
 3768SOL    HW212204   1.382   6.798   4.138
 3769SOL     OW12205   4.529   5.236   5.851
 3769SOL    HW112206   4.628   5.226   5.836
 3769SOL    HW212207   4.496   5.316   5.801
 3770SOL     OW12208   2.428   0.111   6.805
 3770SOL    HW112209   2.504   0.069   6.854
 3770SOL    HW212210   2.376   0.169   6.867
 3771SOL     OW12211   6.523   5.881   5.912
 3771SOL    HW112212   6.519   5.784   5.936
 3771SOL    HW212213   6.618   5.907   5.895
 3772SOL     OW12214   2.790   5.350   1.497
 3772SOL    HW112215   2.697   5.352   1.533
 3772SOL    HW212216   2.788   5.356   1.397
 3773SOL     OW12217   4.896   3.967   6.799
 3773SOL    HW112218   4.863   3.873   6.802
 3773SOL    HW212219   4.830   4.024   6.750
 3774SOL     OW12220   0.190   4.194   1.582
 3774SOL    HW112221   0.094   4.166   1.586
 3774SOL    HW212222   0.248   4.114   1.574
 3775SOL     OW12223   6.474   6.207   4.869
 3775SOL    HW112224   6.419   6.229   4.950
 3775SOL    HW212225   6.414   6.203   4.788
 3776SOL     OW12226   4.143   2.551   6.627
 3776SOL    HW112227   4.060   2.606   6.632
 3776SOL    HW212228   4.223   2.611   6.635
 3777SOL     OW12229   3.247   5.194   3.169
 3777SOL    HW112230   3.150   5.216   3.178
 3777SOL    HW212231   3.267   5.166   3.075
 3778SOL     OW12232   2.425   5.096   6.787
 3778SOL    HW112233   2.461   5.178   6.742
 3778SOL    HW212234   2.500   5.043   6.826
 3779SOL     OW12235   6.733   4.803   6.475
 3779SOL    HW112236   6.755   4.711   6.441
 3779SOL    HW212237   6.643   4.801   6.518
 3780SOL     OW12238   5.967   1.925   0.987
 3780SOL    HW112239   5.904   1.878   0.925
 3780SOL    HW212240   5.926   2.011   1.017
 3781SOL     OW12241   1.117   0.696   6.588
 3781SOL    HW112242   1.050   0.707   6.514
 3781SOL    HW212243   1.166   0.782   6.602
 3782SOL     OW12244   2.979   5.457   6.747
 3782SOL    HW112245   2.995   5.556   6.747
 3782SOL    HW212246   2.957   5.427   6.840
 3783SOL     OW12247   4.317   5.375   5.469
 3783SOL    HW112248   4.265   5.453   5.434
 3783SOL    HW212249   4.302   5.367   5.568
 3784SOL     OW12250   5.615   4.215   5.407
 3784SOL    HW112251   5.665   4.301   5.419
 3784SOL    HW212252   5.519   4.235   5.387
 3785SOL     OW12253   1.083   3.509   2.293
 3785SOL    HW112254   1.176   3.487   2.326
 3785SOL    HW212255   1.086   3.594   2.242
 3786SOL     OW12256   3.640   2.814   6.335
 3786SOL    HW112257   3.695   2.811   6.418
 3786SOL    HW212258   3.700   2.817   6.255
 3787SOL     OW12259   5.485   5.799   5.716
 3787SOL    HW112260   5.411   5.741   5.682
 3787SOL    HW212261   5.571   5.776   5.671
 3788SOL     OW12262   5.221   2.656   5.710
 3788SOL    HW112263   5.259   2.566   5.689
 3788SOL    HW212264   5.232   2.675   5.808
 3789SOL     OW12265   1.833   4.758   2.277
 3789SOL    HW112266   1.833   4.669   2.232
 3789SOL    HW212267   1.742   4.799   2.271
 3790SOL     OW12268   3.188   0.158   1.703
 3790SOL    HW112269   3.117   0.093   1.675
 3790SOL    HW212270   3.155   0.213   1.780
 3791SOL     OW12271   4.916   0.744   4.044
 3791SOL    HW112272   4.856   0.729   3.965
 3791SOL    HW212273   4.885   0.823   4.096
 3792SOL     OW12274   5.658   0.469   2.980
 3792SOL    HW112275   5.668   0.524   2.897
 3792SOL    HW212276   5.691   0.522   3.058
 3793SOL     OW12277   4.498   3.574   0.330
 3793SOL    HW112278   4.441   3.536   0.257
 3793SOL    HW212279   4.460   3.661   0.361
 3794SOL     OW12280   1.836   4.930   5.725
 3794SOL    HW112281   1.846   4.836   5.759
 3794SOL    HW212282   1.875   4.936   5.633
 3795SOL     OW12283   3.824   6.164   0.353
 3795SOL    HW112284   3.813   6.085   0.293
 3795SOL    HW212285   3.749   6.167   0.418
 3796SOL     OW12286   5.193   0.910   0.344
 3796SOL    HW112287   5.222   0.993   0.392
 3796SOL    HW212288   5.128   0.934   0.272
 3797SOL     OW12289   6.799   1.468   0.629
 3797SOL    HW112290   6.855   1.387   0.611
 3797SOL    HW212291   6.856   1.550   0.623
 3798SOL     OW12292   6.950   3.836   4.201
 3798SOL    HW112293   0.025   3.845   4.215
 3798SOL    HW212294   6.912   3.925   4.177
 3799SOL     OW12295   6.515   2.623   2.086
 3799SOL    HW112296   6.445   2.634   2.015
 3799SOL    HW212297   6.546   2.528   2.088
 3800SOL     OW12298   5.838   3.122   1.447
 3800SOL    HW112299   5.829   3.155   1.353
 3800SOL    HW212300   5.916   3.060   1.453
 3801SOL     OW12301   5.041   1.029   0.146
 3801SOL    HW112302   5.050   1.105   0.083
 3801SOL    HW212303   4.962   1.043   0.206
 3802SOL     OW12304   6.141   3.757   3.762
 3802SOL    HW112305   6.133   3.825   3.834
 3802SOL    HW212306   6.237   3.751   3.733
 3803SOL     OW12307   3.830   4.370   6.612
 3803SOL    HW112308   3.838   4.468   6.632
 3803SOL    HW212309   3.915   4.338   6.570
 3804SOL     OW12310   4.071   6.186   3.587
 3804SOL    HW112311   4.142   6.116   3.596
 3804SOL    HW212312   4.060   6.234   3.674
 3805SOL     OW12313   2.521   1.814   0.097
 3805SOL    HW112314   2.578   1.734   0.119
 3805SOL    HW212315   2.425   1.791   0.109
 3806SOL     OW12316   2.166   4.587   2.127
 3806SOL    HW112317   2.208   4.663   2.176
 3806SOL    HW212318   2.073   4.573   2.160
 3807SOL     OW12319   6.808   4.132   4.569
 3807SOL    HW112320   6.743   4.159   4.498
 3807SOL    HW212321   6.900   4.130   4.530
 3808SOL     OW12322   2.878   6.725   6.445
 3808SOL    HW112323   2.869   6.630   6.413
 3808SOL    HW212324   2.968   6.760   6.421
 3809SOL     OW12325   5.376   1.869   1.326
 3809SOL    HW112326   5.463   1.919   1.333
 3809SOL    HW212327   5.304   1.932   1.295
 3810SOL     OW12328   5.006   1.980   4.462
 3810SOL    HW112329   4.993   2.073   4.496
 3810SOL    HW212330   4.919   1.930   4.465
 3811SOL     OW12331   0.782   6.198   5.595
 3811SOL    HW112332   0.740   6.137   5.528
 3811SOL    HW212333   0.811   6.282   5.550
 3812SOL     OW12334   4.710   5.458   0.164
 3812SOL    HW112335   4.698   5.360   0.181
 3812SOL    HW212336   4.725   5.472   0.066
 3813SOL     OW12337   0.032   3.910   6.657
 3813SOL    HW112338   0.115   3.894   6.605
 3813SOL    HW212339   7.002   3.826   6.662
 3814SOL     OW12340   0.338   0.407   5.002
 3814SOL    HW112341   0.421   0.442   5.045
 3814SOL    HW212342   0.362   0.334   4.937
 3815SOL     OW12343   4.737   1.706   5.781
 3815SOL    HW112344   4.704   1.616   5.812
 3815SOL    HW212345   4.724   1.773   5.853
 3816SOL     OW12346   6.611   6.534   2.231
 3816SOL    HW112347   6.660   6.457   2.271
 3816SOL    HW212348   6.566   6.505   2.146
 3817SOL     OW12349   4.115   3.480   2.736
 3817SOL    HW112350   4.038   3.422   2.711
 3817SOL    HW212351   4.135   3.469   2.833
 3818SOL     OW12352   4.784   5.464   1.914
 3818SOL    HW112353   4.853   5.499   1.851
 3818SOL    HW212354   4.739   5.540   1.961
 3819SOL     OW12355   6.150   3.173   3.092
 3819SOL    HW112356   6.185   3.246   3.151
 3819SOL    HW212357   6.160   3.199   2.996
 3820SOL     OW12358   4.196   6.856   6.005
 3820SOL    HW112359   4.147   6.834   5.921
 3820SOL    HW212360   4.136   6.910   6.065
 3821SOL     OW12361   1.458   6.464   1.585
 3821SOL    HW112362   1.382   6.494   1.528
 3821SOL    HW212363   1.451   6.505   1.675
 3822SOL     OW12364   6.555   6.156   0.691
 3822SOL    HW112365   6.541   6.114   0.781
 3822SOL    HW212366   6.650   6.185   0.682
 3823SOL     OW12367   6.003   4.804   4.518
 3823SOL    HW112368   6.058   4.802   4.435
 3823SOL    HW212369   6.063   4.802   4.598
 3824SOL     OW12370   1.646   2.658   0.755
 3824SOL    HW112371   1.732   2.670   0.707
 3824SOL    HW212372   1.601   2.747   0.767
 3825SOL     OW12373   0.439   4.922   5.711
 3825SOL    HW112374   0.411   4.905   5.617
 3825SOL    HW212375   0.513   4.860   5.736
 3826SOL     OW12376   4.413   4.660   3.905
 3826SOL    HW112377   4.441   4.627   3.995
 3826SOL    HW212378   4.468   4.616   3.834
 3827SOL     OW12379   0.997   0.980   0.154
 3827SOL    HW112380   1.031   0.934   0.072
 3827SOL    HW212381   0.899   0.998   0.144
 3828SOL     OW12382   2.589   3.513   5.955
 3828SOL    HW112383   2.496   3.549   5.944
 3828SOL    HW212384   2.585   3.415   5.974
 3829SOL     OW12385   6.974   2.128   1.141
 3829SOL    HW112386   6.922   2.210   1.166
 3829SOL    HW212387   0.017   2.152   1.071
 3830SOL     OW12388   5.385   6.304   3.760
 3830SOL    HW112389   5.343   6.298   3.851
 3830SOL    HW212390   5.485   6.313   3.771
 3831SOL     OW12391   5.386   1.753   4.550
 3831SOL    HW112392   5.416   1.693   4.476
 3831SOL    HW212393   5.464   1.802   4.588
 3832SOL     OW12394   6.319   1.506   4.106
 3832SOL    HW112395   6.223   1.492   4.080
 3832SOL    HW212396   6.324   1.535   4.201
 3833SOL     OW12397   2.169   3.267   5.333
 3833SOL    HW112398   2.178   3.361   5.301
 3833SOL    HW212399   2.260   3.229   5.352
 3834SOL     OW12400   4.295   5.209   0.593
 3834SOL    HW112401   4.296   5.174   0.499
 3834SOL    HW212402   4.355   5.152   0.649
 3835SOL     OW12403   4.696   5.150   4.344
 3835SOL    HW112404   4.599   5.126   4.333
 3835SOL    HW212405   4.704   5.245   4.372
 3836SOL     OW12406   0.671   0.173   5.761
 3836SOL    HW112407   0.707   0.166   5.668
 3836SOL    HW212408   0.652   0.269   5.782
 3837SOL     OW12409   4.784   4.674   5.750
 3837SOL    HW112410   4.871   4.706   5.786
 3837SOL    HW212411   4.798   4.588   5.701
 3838SOL     OW12412   0.401   1.916   3.374
 3838SOL    HW112413   0.329   1.980   3.400
 3838SOL    HW212414   0.487   1.966   3.361
 3839SOL     OW12415   4.689   1.554   3.727
 3839SOL    HW112416   4.778   1.543   3.681
 3839SOL    HW212417   4.632   1.473   3.709
 3840SOL     OW12418   4.002   2.307   5.857
 3840SOL    HW112419   3.924   2.291   5.918
 3840SOL    HW212420   4.005   2.235   5.788
 3841SOL     OW12421   5.779   4.206   2.713
 3841SOL    HW112422   5.767   4.106   2.709
 3841SOL    HW212423   5.721   4.243   2.786
 3842SOL     OW12424   1.814   4.012   5.193
 3842SOL    HW112425   1.871   3.930   5.188
 3842SOL    HW212426   1.719   3.987   5.171
 3843SOL     OW12427   5.658   2.439   6.724
 3843SOL    HW112428   5.560   2.458   6.725
 3843SOL    HW212429   5.684   2.389   6.806
 3844SOL     OW12430   5.538   5.890   0.392
 3844SOL    HW112431   5.536   5.955   0.468
 3844SOL    HW212432   5.631   5.884   0.356
 3845SOL     OW12433   2.199   5.821   0.775
 3845SOL    HW112434   2.104   5.814   0.745
 3845SOL    HW212435   2.236   5.729   0.791
 3846SOL     OW12436   6.657   3.237   2.764
 3846SOL    HW112437   6.701   3.323   2.793
 3846SOL    HW212438   6.613   3.195   2.843
 3847SOL     OW12439   6.926   0.826   6.713
 3847SOL    HW112440   6.828   0.837   6.699
 3847SOL    HW212441   6.975   0.901   6.668
 3848SOL     OW12442   5.938   5.201   2.581
 3848SOL    HW112443   5.989   5.176   2.499
 3848SOL    HW212444   5.906   5.117   2.626
 3849SOL     OW12445   0.349   3.307   5.716
 3849SOL    HW112446   0.272   3.319   5.777
 3849SOL    HW212447   0.321   3.325   5.622
 3850SOL     OW12448   3.092   3.091   1.082
 3850SOL    HW112449   3.069   2.996   1.105
 3850SOL    HW212450   3.063   3.152   1.155
 3851SOL     OW12451   0.525   4.950   2.041
 3851SOL    HW112452   0.471   4.903   2.111
 3851SOL    HW212453   0.613   4.979   2.079
 3852SOL     OW12454   3.494   0.401   5.463
 3852SOL    HW112455   3.556   0.477   5.445
 3852SOL    HW212456   3.456   0.409   5.555
 3853SOL     OW12457   1.878   0.663   3.388
 3853SOL    HW112458   1.847   0.739   3.446
 3853SOL    HW212459   1.961   0.691   3.339
 3854SOL     OW12460   6.808   1.574   2.205
 3854SOL    HW112461   6.790   1.477   2.193
 3854SOL    HW212462   6.795   1.621   2.117
 3855SOL     OW12463   2.652   5.853   6.641
 3855SOL    HW112464   2.581   5.900   6.589
 3855SOL    HW212465   2.651   5.883   6.736
 3856SOL     OW12466   7.016   2.722   6.562
 3856SOL    HW112467   7.011   2.711   6.463
 3856SOL    HW212468   0.002   2.819   6.584
 3857SOL     OW12469   1.127   0.106   5.747
 3857SOL    HW112470   1.085   0.098   5.838
 3857SOL    HW212471   1.117   0.200   5.715
 3858SOL     OW12472   3.233   0.989   4.651
 3858SOL    HW112473   3.286   0.905   4.644
 3858SOL    HW212474   3.138   0.971   4.629
 3859SOL     OW12475   5.414   6.094   3.341
 3859SOL    HW112476   5.347   6.099   3.267
 3859SOL    HW212477   5.369   6.117   3.428
 3860SOL     OW12478   1.907   6.779   4.986
 3860SOL    HW112479   1.919   6.705   5.053
 3860SOL    HW212480   1.820   6.767   4.938
 3861SOL     OW12481   2.273   6.300   2.773
 3861SOL    HW112482   2.341   6.309   2.846
 3861SOL    HW212483   2.186   6.337   2.803
 3862SOL     OW12484   2.184   0.531   4.157
 3862SOL    HW112485   2.194   0.458   4.089
 3862SOL    HW212486   2.223   0.502   4.244
 3863SOL     OW12487   4.305   6.750   1.434
 3863SOL    HW112488   4.291   6.690   1.355
 3863SOL    HW212489   4.403   6.768   1.444
 3864SOL     OW12490   0.313   1.120   5.005
 3864SOL    HW112491   0.249   1.047   4.982
 3864SOL    HW212492   0.276   1.172   5.082
 3865SOL     OW12493   4.785   1.473   0.090
 3865SOL    HW112494   4.743   1.397   0.140
 3865SOL    HW212495   4.806   1.443   7.021
 3866SOL     OW12496   3.745   1.207   6.787
 3866SOL    HW112497   3.702   1.251   6.708
 3866SOL    HW212498   3.813   1.141   6.754
 3867SOL     OW12499   6.646   3.528   2.468
 3867SOL    HW112500   6.738   3.503   2.499
 3867SOL    HW212501   6.641   3.517   2.369
 3868SOL     OW12502   4.206   0.952   0.052
 3868SOL    HW112503   4.184   0.857   0.074
 3868SOL    HW212504   4.274   0.954   7.003
 3869SOL     OW12505   2.904   0.992   3.425
 3869SOL    HW112506   2.868   0.961   3.337
 3869SOL    HW212507   2.879   0.926   3.496
 3870SOL     OW12508   6.361   2.082   6.040
 3870SOL    HW112509   6.316   1.999   6.073
 3870SOL    HW212510   6.352   2.088   5.941
 3871SOL     OW12511   3.024   4.844   4.112
 3871SOL    HW112512   3.074   4.844   4.199
 3871SOL    HW212513   2.937   4.797   4.123
 3872SOL     OW12514   3.095   3.954   5.398
 3872SOL    HW112515   3.059   3.944   5.306
 3872SOL    HW212516   3.164   4.027   5.399
 3873SOL     OW12517   5.901   3.085   6.612
 3873SOL    HW112518   5.823   3.145   6.595
 3873SOL    HW212519   5.868   2.994   6.639
 3874SOL     OW12520   1.657   0.292   2.022
 3874SOL    HW112521   1.743   0.323   2.064
 3874SOL    HW212522   1.653   0.192   2.026
 3875SOL     OW12523   0.320   0.705   6.341
 3875SOL    HW112524   0.319   0.631   6.409
 3875SOL    HW212525   0.404   0.701   6.289
 3876SOL     OW12526   3.293   5.221   1.863
 3876SOL    HW112527   3.360   5.219   1.789
 3876SOL    HW212528   3.273   5.127   1.892
 3877SOL     OW12529   0.714   1.579   5.599
 3877SOL    HW112530   0.662   1.663   5.589
 3877SOL    HW212531   0.694   1.538   5.688
 3878SOL     OW12532   4.137   1.333   5.190
 3878SOL    HW112533   4.063   1.300   5.132
 3878SOL    HW212534   4.128   1.432   5.202
 3879SOL     OW12535   5.577   5.286   6.523
 3879SOL    HW112536   5.642   5.359   6.506
 3879SOL    HW212537   5.484   5.319   6.505
 3880SOL     OW12538   4.583   5.627   3.058
 3880SOL    HW112539   4.500   5.571   3.054
 3880SOL    HW212540   4.657   5.574   3.099
 3881SOL     OW12541   2.043   2.914   6.998
 3881SOL    HW112542   1.946   2.933   7.014
 3881SOL    HW212543   2.052   2.833   6.940
 3882SOL     OW12544   0.222   2.875   5.869
 3882SOL    HW112545   0.262   2.966   5.877
 3882SOL    HW212546   0.199   2.840   5.960
 3883SOL     OW12547   3.708   5.795   4.382
 3883SOL    HW112548   3.762   5.817   4.463
 3883SOL    HW212549   3.707   5.695   4.369
 3884SOL     OW12550   6.803   2.841   1.816
 3884SOL    HW112551   6.798   2.746   1.785
 3884SOL    HW212552   6.840   2.898   1.743
 3885SOL     OW12553   4.193   5.591   2.271
 3885SOL    HW112554   4.159   5.685   2.269
 3885SOL    HW212555   4.136   5.536   2.331
 3886SOL     OW12556   2.886   5.313   6.502
 3886SOL    HW112557   2.913   5.393   6.557
 3886SOL    HW212558   2.906   5.229   6.553
 3887SOL     OW12559   2.154   5.737   2.042
 3887SOL    HW112560   2.121   5.646   2.065
 3887SOL    HW212561   2.139   5.799   2.119
 3888SOL     OW12562   4.961   5.349   2.718
 3888SOL    HW112563   5.046   5.400   2.720
 3888SOL    HW212564   4.884   5.411   2.700
 3889SOL     OW12565   5.031   2.714   0.606
 3889SOL    HW112566   5.116   2.734   0.656
 3889SOL    HW212567   5.032   2.765   0.520
 3890SOL     OW12568   4.743   4.508   4.007
 3890SOL    HW112569   4.833   4.531   4.044
 3890SOL    HW212570   4.753   4.451   3.926
 3891SOL     OW12571   5.019   4.487   3.735
 3891SOL    HW112572   4.976   4.575   3.713
 3891SOL    HW212573   5.082   4.499   3.811
 3892SOL     OW12574   0.172   1.558   1.340
 3892SOL    HW112575   0.236   1.611   1.286
 3892SOL    HW212576   0.107   1.511   1.280
 3893SOL     OW12577   3.160   3.235   3.175
 3893SOL    HW112578   3.255   3.228   3.207
 3893SOL    HW212579   3.101   3.179   3.233
 3894SOL     OW12580   4.287   0.439   6.183
 3894SOL    HW112581   4.252   0.504   6.250
 3894SOL    HW212582   4.283   0.347   6.222
 3895SOL     OW12583   1.150   0.271   4.595
 3895SOL    HW112584   1.114   0.338   4.530
 3895SOL    HW212585   1.146   0.308   4.687
 3896SOL     OW12586   1.911   1.951   6.498
 3896SOL    HW112587   1.854   1.921   6.422
 3896SOL    HW212588   1.866   2.026   6.546
 3897SOL     OW12589   3.723   6.182   0.917
 3897SOL    HW112590   3.808   6.174   0.866
 3897SOL    HW212591   3.674   6.095   0.917
 3898SOL     OW12592   4.216   3.382   0.740
 3898SOL    HW112593   4.285   3.385   0.667
 3898SOL    HW212594   4.216   3.291   0.782
 3899SOL     OW12595   3.412   6.725   5.050
 3899SOL    HW112596   3.470   6.786   5.103
 3899SOL    HW212597   3.461   6.693   4.968
 3900SOL     OW12598   4.085   4.815   2.527
 3900SOL    HW112599   4.123   4.762   2.450
 3900SOL    HW212600   4.102   4.912   2.512
 3901SOL     OW12601   3.513   1.551   6.835
 3901SOL    HW112602   3.528   1.562   6.934
 3901SOL    HW212603   3.464   1.466   6.818
 3902SOL     OW12604   4.653   2.697   2.718
 3902SOL    HW112605   4.625   2.646   2.637
 3902SOL    HW212606   4.667   2.793   2.693
 3903SOL     OW12607   3.539   5.092   6.847
 3903SOL    HW112608   3.597   5.051   6.917
 3903SOL    HW212609   3.559   5.190   6.841
 3904SOL     OW12610   1.627   6.595   1.138
 3904SOL    HW112611   1.629   6.670   1.204
 3904SOL    HW212612   1.605   6.631   1.047
 3905SOL     OW12613   0.476   6.499   5.458
 3905SOL    HW112614   0.437   6.591   5.451
 3905SOL    HW212615   0.519   6.474   5.371
 3906SOL     OW12616   0.714   6.167   5.316
 3906SOL    HW112617   0.786   6.099   5.304
 3906SOL    HW212618   0.630   6.134   5.272
 3907SOL     OW12619   5.399   2.133   4.348
 3907SOL    HW112620   5.431   2.049   4.391
 3907SOL    HW212621   5.347   2.111   4.265
 3908SOL     OW12622   2.851   3.942   5.973
 3908SOL    HW112623   2.872   3.871   6.040
 3908SOL    HW212624   2.789   3.905   5.904
 3909SOL     OW12625   4.549   6.294   4.055
 3909SOL    HW112626   4.582   6.341   3.973
 3909SOL    HW212627   4.592   6.334   4.136
 3910SOL     OW12628   3.172   3.688   2.759
 3910SOL    HW112629   3.214   3.615   2.706
 3910SOL    HW212630   3.124   3.750   2.697
 3911SOL     OW12631   5.390   2.180   5.305
 3911SOL    HW112632   5.464   2.160   5.370
 3911SOL    HW212633   5.426   2.236   5.230
 3912SOL     OW12634   5.616   3.163   6.561
 3912SOL    HW112635   5.591   3.165   6.658
 3912SOL    HW212636   5.632   3.256   6.528
 3913SOL     OW12637   0.979   0.079   0.913
 3913SOL    HW112638   1.066   0.111   0.877
 3913SOL    HW212639   0.924   0.040   0.839
 3914SOL     OW12640   2.982   5.907   5.625
 3914SOL    HW112641   3.019   5.821   5.589
 3914SOL    HW212642   3.050   5.980   5.612
 3915SOL     OW12643   5.362   5.650   2.121
 3915SOL    HW112644   5.266   5.677   2.131
 3915SOL    HW212645   5.382   5.576   2.185
 3916SOL     OW12646   6.865   0.014   3.480
 3916SOL    HW112647   6.787   6.976   3.479
 3916SOL    HW212648   6.878   0.051   3.572
 3917SOL     OW12649   3.069   0.067   6.706
 3917SOL    HW112650   3.064   6.994   6.681
 3917SOL    HW212651   3.143   0.081   6.772
 3918SOL     OW12652   6.491   3.129   0.597
 3918SOL    HW112653   6.434   3.210   0.587
 3918SOL    HW212654   6.435   3.047   0.583
 3919SOL     OW12655   3.298   6.295   0.758
 3919SOL    HW112656   3.287   6.286   0.857
 3919SOL    HW212657   3.386   6.338   0.738
 3920SOL     OW12658   2.320   1.030   6.149
 3920SOL    HW112659   2.341   1.128   6.145
 3920SOL    HW212660   2.332   0.997   6.242
 3921SOL     OW12661   0.345   2.968   0.966
 3921SOL    HW112662   0.384   2.992   1.055
 3921SOL    HW212663   0.343   3.049   0.907
 3922SOL     OW12664   0.155   5.149   1.246
 3922SOL    HW112665   0.140   5.100   1.332
 3922SOL    HW212666   0.099   5.231   1.244
 3923SOL     OW12667   0.312   5.730   0.335
 3923SOL    HW112668   0.398   5.766   0.300
 3923SOL    HW212669   0.300   5.759   0.430
 3924SOL     OW12670   6.624   5.178   4.166
 3924SOL    HW112671   6.604   5.162   4.069
 3924SOL    HW212672   6.540   5.203   4.214
 3925SOL     OW12673   0.582   4.953   1.349
 3925SOL    HW112674   0.645   4.912   1.283
 3925SOL    HW212675   0.617   4.937   1.442
 3926SOL     OW12676   2.900   6.058   3.059
 3926SOL    HW112677   2.858   5.998   2.991
 3926SOL    HW212678   2.984   6.097   3.021
 3927SOL     OW12679   2.527   3.577   6.490
 3927SOL    HW112680   2.517   3.478   6.499
 3927SOL    HW212681   2.445   3.622   6.525
 3928SOL     OW12682   0.173   6.850   6.280
 3928SOL    HW112683   0.253   6.865   6.339
 3928SOL    HW212684   0.112   6.929   6.287
 3929SOL     OW12685   1.066   1.458   4.573
 3929SOL    HW112686   1.112   1.431   4.658
 3929SOL    HW212687   1.023   1.378   4.532
 3930SOL     OW12688   3.228   1.572   3.972
 3930SOL    HW112689   3.150   1.513   3.954
 3930SOL    HW212690   3.307   1.515   3.997
 3931SOL     OW12691   3.841   6.231   2.141
 3931SOL    HW112692   3.905   6.155   2.128
 3931SOL    HW212693   3.842   6.260   2.237
 3932SOL     OW12694   2.178   3.803   3.103
 3932SOL    HW112695   2.090   3.799   3.150
 3932SOL    HW212696   2.231   3.721   3.124
 3933SOL     OW12697   2.151   0.767   5.797
 3933SOL    HW112698   2.250   0.756   5.808
 3933SOL    HW212699   2.133   0.849   5.743
 3934SOL     OW12700   5.079   5.629   0.498
 3934SOL    HW112701   5.009   5.624   0.427
 3934SOL    HW212702   5.169   5.614   0.457
 3935SOL     OW12703   4.411   6.903   1.910
 3935SOL    HW112704   4.427   6.868   2.002
 3935SOL    HW212705   4.400   6.827   1.847
 3936SOL     OW12706   1.118   3.840   2.614
 3936SOL    HW112707   1.095   3.810   2.706
 3936SOL    HW212708   1.035   3.851   2.561
 3937SOL     OW12709   6.977   1.850   2.950
 3937SOL    HW112710   0.031   1.829   3.009
 3937SOL    HW212711   6.999   1.822   2.856
 3938SOL     OW12712   6.150   3.314   2.501
 3938SOL    HW112713   6.152   3.352   2.408
 3938SOL    HW212714   6.212   3.235   2.505
 3939SOL     OW12715   1.526   2.818   1.919
 3939SOL    HW112716   1.526   2.892   1.853
 3939SOL    HW212717   1.572   2.738   1.880
 3940SOL     OW12718   4.391   4.379   1.429
 3940SOL    HW112719   4.339   4.408   1.510
 3940SOL    HW212720   4.408   4.458   1.370
 3941SOL     OW12721   5.299   3.349   0.460
 3941SOL    HW112722   5.258   3.408   0.530
 3941SOL    HW212723   5.280   3.387   0.369
 3942SOL     OW12724   6.022   6.623   0.799
 3942SOL    HW112725   6.038   6.669   0.712
 3942SOL    HW212726   5.969   6.540   0.784
 3943SOL     OW12727   6.992   3.253   4.387
 3943SOL    HW112728   0.064   3.276   4.371
 3943SOL    HW212729   6.985   3.155   4.405
 3944SOL     OW12730   5.622   2.385   4.957
 3944SOL    HW112731   5.629   2.406   5.054
 3944SOL    HW212732   5.635   2.468   4.903
 3945SOL     OW12733   0.159   0.054   0.914
 3945SOL    HW112734   0.229   0.045   0.985
 3945SOL    HW212735   0.195   0.110   0.839
 3946SOL     OW12736   3.645   4.896   3.688
 3946SOL    HW112737   3.739   4.903   3.720
 3946SOL    HW212738   3.583   4.912   3.764
 3947SOL     OW12739   0.201   4.535   5.939
 3947SOL    HW112740   0.276   4.525   5.874
 3947SOL    HW212741   0.234   4.583   6.021
 3948SOL     OW12742   6.197   3.110   1.673
 3948SOL    HW112743   6.105   3.148   1.686
 3948SOL    HW212744   6.263   3.161   1.728
 3949SOL     OW12745   5.564   6.167   2.598
 3949SOL    HW112746   5.562   6.231   2.675
 3949SOL    HW212747   5.658   6.135   2.584
 3950SOL     OW12748   2.179   6.331   0.218
 3950SOL    HW112749   2.119   6.407   0.196
 3950SOL    HW212750   2.241   6.357   0.292
 3951SOL     OW12751   5.609   5.739   2.081
 3951SOL    HW112752   5.518   5.708   2.110
 3951SOL    HW212753   5.679   5.696   2.139
 3952SOL     OW12754   6.698   0.873   0.022
 3952SOL    HW112755   6.670   0.778   0.008
 3952SOL    HW212756   6.747   0.881   0.108
 3953SOL     OW12757   2.998   3.930   2.672
 3953SOL    HW112758   2.934   3.940   2.596
 3953SOL    HW212759   3.084   3.977   2.649
 3954SOL     OW12760   4.450   4.044   5.797
 3954SOL    HW112761   4.394   3.995   5.864
 3954SOL    HW212762   4.421   4.018   5.705
 3955SOL     OW12763   4.200   1.451   4.880
 3955SOL    HW112764   4.142   1.392   4.937
 3955SOL    HW212765   4.236   1.399   4.804
 3956SOL     OW12766   2.294   1.282   0.719
 3956SOL    HW112767   2.392   1.260   0.722
 3956SOL    HW212768   2.243   1.218   0.776
 3957SOL     OW12769   4.399   1.964   4.080
 3957SOL    HW112770   4.438   2.026   4.012
 3957SOL    HW212771   4.468   1.896   4.106
 3958SOL     OW12772   5.184   6.472   5.667
 3958SOL    HW112773   5.162   6.451   5.762
 3958SOL    HW212774   5.164   6.393   5.610
 3959SOL     OW12775   5.671   6.310   6.530
 3959SOL    HW112776   5.639   6.377   6.464
 3959SOL    HW212777   5.696   6.225   6.483
 3960SOL     OW12778   6.532   2.653   4.115
 3960SOL    HW112779   6.523   2.644   4.016
 3960SOL    HW212780   6.618   2.698   4.137
 3961SOL     OW12781   5.070   0.024   4.260
 3961SOL    HW112782   5.095   6.954   4.234
 3961SOL    HW212783   5.152   0.075   4.283
 3962SOL     OW12784   6.403   5.269   4.268
 3962SOL    HW112785   6.387   5.349   4.209
 3962SOL    HW212786   6.405   5.298   4.363
 3963SOL     OW12787   3.440   6.043   1.916
 3963SOL    HW112788   3.362   6.017   1.973
 3963SOL    HW212789   3.521   6.056   1.974
 3964SOL     OW12790   6.307   2.298   4.056
 3964SOL    HW112791   6.300   2.244   3.973
 3964SOL    HW212792   6.273   2.390   4.039
 3965SOL     OW12793   4.954   4.366   4.376
 3965SOL    HW112794   4.938   4.458   4.411
 3965SOL    HW212795   4.871   4.311   4.388
 3966SOL     OW12796   3.346   6.061   6.696
 3966SOL    HW112797   3.303   6.019   6.776
 3966SOL    HW212798   3.422   6.118   6.725
 3967SOL     OW12799   2.138   3.806   4.012
 3967SOL    HW112800   2.107   3.811   4.107
 3967SOL    HW212801   2.238   3.807   4.010
 3968SOL     OW12802   4.540   6.605   0.445
 3968SOL    HW112803   4.618   6.649   0.401
 3968SOL    HW212804   4.455   6.648   0.413
 3969SOL     OW12805   0.338   4.407   3.316
 3969SOL    HW112806   0.312   4.380   3.408
 3969SOL    HW212807   0.291   4.349   3.249
 3970SOL     OW12808   4.359   6.537   1.270
 3970SOL    HW112809   4.404   6.448   1.261
 3970SOL    HW212810   4.262   6.524   1.291
 3971SOL     OW12811   1.013   6.134   3.555
 3971SOL    HW112812   0.979   6.174   3.639
 3971SOL    HW212813   1.036   6.206   3.490
 3972SOL     OW12814   1.406   3.633   6.976
 3972SOL    HW112815   1.315   3.597   6.999
 3972SOL    HW212816   1.459   3.562   6.929
 3973SOL     OW12817   1.706   4.129   1.009
 3973SOL    HW112818   1.785   4.158   1.063
 3973SOL    HW212819   1.669   4.044   1.046
 3974SOL     OW12820   2.724   0.400   5.923
 3974SOL    HW112821   2.783   0.345   5.982
 3974SOL    HW212822   2.697   0.345   5.843
 3975SOL     OW12823   6.904   2.714   0.024
 3975SOL    HW112824   6.838   2.646   0.055
 3975SOL    HW212825   6.867   2.763   6.969
 3976SOL     OW12826   0.947   3.961   2.402
 3976SOL    HW112827   0.890   3.950   2.320
 3976SOL    HW212828   0.913   4.038   2.456
 3977SOL     OW12829   0.238   2.751   6.690
 3977SOL    HW112830   0.290   2.788   6.613
 3977SOL    HW212831   0.146   2.725   6.659
 3978SOL     OW12832   5.346   4.093   3.457
 3978SOL    HW112833   5.439   4.114   3.485
 3978SOL    HW212834   5.343   4.002   3.415
 3979SOL     OW12835   3.428   6.313   5.676
 3979SOL    HW112836   3.460   6.262   5.756
 3979SOL    HW212837   3.332   6.337   5.688
 3980SOL     OW12838   5.052   4.848   5.623
 3980SOL    HW112839   5.058   4.758   5.580
 3980SOL    HW212840   5.081   4.842   5.718
 3981SOL     OW12841   4.726   5.570   6.598
 3981SOL    HW112842   4.693   5.634   6.668
 3981SOL    HW212843   4.707   5.606   6.507
 3982SOL     OW12844   2.765   5.943   2.839
 3982SOL    HW112845   2.727   5.862   2.884
 3982SOL    HW212846   2.740   5.941   2.742
 3983SOL     OW12847   3.834   6.117   4.271
 3983SOL    HW112848   3.813   6.156   4.361
 3983SOL    HW212849   3.817   6.018   4.273
 3984SOL     OW12850   6.319   3.343   3.238
 3984SOL    HW112851   6.330   3.396   3.154
 3984SOL    HW212852   6.406   3.337   3.285
 3985SOL     OW12853   4.349   5.430   6.221
 3985SOL    HW112854   4.250   5.442   6.211
 3985SOL    HW212855   4.379   5.355   6.161
 3986SOL     OW12856   5.375   0.945   2.716
 3986SOL    HW112857   5.419   0.911   2.633
 3986SOL    HW212858   5.276   0.938   2.706
 3987SOL     OW12859   3.494   5.303   5.730
 3987SOL    HW112860   3.427   5.341   5.794
 3987SOL    HW212861   3.492   5.203   5.735
 3988SOL     OW12862   4.468   5.689   0.689
 3988SOL    HW112863   4.421   5.622   0.631
 3988SOL    HW212864   4.404   5.725   0.757
 3989SOL     OW12865   0.119   2.718   1.199
 3989SOL    HW112866   0.151   2.753   1.111
 3989SOL    HW212867   0.025   2.686   1.191
 3990SOL     OW12868   6.882   1.700   1.517
 3990SOL    HW112869   6.870   1.753   1.601
 3990SOL    HW212870   6.906   1.606   1.542
 3991SOL     OW12871   4.691   1.296   3.221
 3991SOL    HW112872   4.607   1.270   3.269
 3991SOL    HW212873   4.704   1.395   3.228
 3992SOL     OW12874   3.801   1.989   1.704
 3992SOL    HW112875   3.822   2.081   1.739
 3992SOL    HW212876   3.832   1.921   1.770
 3993SOL     OW12877   1.283   3.344   1.714
 3993SOL    HW112878   1.294   3.276   1.787
 3993SOL    HW212879   1.340   3.319   1.636
 3994SOL     OW12880   2.926   5.552   4.384
 3994SOL    HW112881   2.886   5.597   4.304
 3994SOL    HW212882   3.025   5.543   4.372
 3995SOL     OW12883   1.147   1.726   3.618
 3995SOL    HW112884   1.074   1.711   3.684
 3995SOL    HW212885   1.207   1.799   3.650
 3996SOL     OW12886   6.498   5.693   4.658
 3996SOL    HW112887   6.530   5.599   4.648
 3996SOL    HW212888   6.496   5.738   4.569
 3997SOL     OW12889   2.931   0.127   3.170
 3997SOL    HW112890   2.861   0.170   3.113
 3997SOL    HW212891   2.990   0.070   3.112
 3998SOL     OW12892   4.056   1.870   3.173
 3998SOL    HW112893   4.069   1.966   3.148
 3998SOL    HW212894   4.107   1.850   3.257
 3999SOL     OW12895   4.641   1.251   4.350
 3999SOL    HW112896   4.660   1.238   4.448
 3999SOL    HW212897   4.725   1.280   4.304
 4000SOL     OW12898   5.041   5.330   4.639
 4000SOL    HW112899   4.969   5.397   4.621
 4000SOL    HW212900   5.002   5.238   4.636
 4001SOL     OW12901   0.660   1.762   4.758
 4001SOL    HW112902   0.715   1.729   4.681
 4001SOL    HW212903   0.704   1.842   4.799
 4002SOL     OW12904   1.931   5.046   2.263
 4002SOL    HW112905   1.969   5.064   2.354
 4002SOL    HW212906   1.907   4.950   2.256
 4003SOL     OW12907   3.777   1.476   4.561
 4003SOL    HW112908   3.694   1.512   4.519
 4003SOL    HW212909   3.835   1.436   4.490
 4004SOL     OW12910   6.574   1.818   6.354
 4004SOL    HW112911   6.625   1.860   6.279
 4004SOL    HW212912   6.487   1.865   6.365
 4005SOL     OW12913   6.760   5.299   4.791
 4005SOL    HW112914   6.766   5.303   4.691
 4005SOL    HW212915   6.851   5.311   4.831
 4006SOL     OW12916   3.478   6.038   3.289
 4006SOL    HW112917   3.443   6.047   3.382
 4006SOL    HW212918   3.458   6.122   3.238
 4007SOL     OW12919   0.253   1.835   5.544
 4007SOL    HW112920   0.219   1.928   5.533
 4007SOL    HW212921   0.185   1.770   5.510
 4008SOL     OW12922   3.519   1.599   5.088
 4008SOL    HW112923   3.569   1.513   5.080
 4008SOL    HW212924   3.435   1.595   5.033
 4009SOL     OW12925   3.952   3.954   3.015
 4009SOL    HW112926   4.031   4.014   3.026
 4009SOL    HW212927   3.909   3.971   2.926
 4010SOL     OW12928   1.106   3.176   1.110
 4010SOL    HW112929   1.117   3.077   1.097
 4010SOL    HW212930   1.137   3.201   1.202
 4011SOL     OW12931   0.503   1.433   0.661
 4011SOL    HW112932   0.503   1.475   0.570
 4011SOL    HW212933   0.562   1.487   0.721
 4012SOL     OW12934   5.165   3.433   3.567
 4012SOL    HW112935   5.236   3.400   3.504
 4012SOL    HW212936   5.159   3.532   3.561
 4013SOL     OW12937   5.376   2.770   3.050
 4013SOL    HW112938   5.285   2.812   3.048
 4013SOL    HW212939   5.415   2.779   3.142
 4014SOL     OW12940   5.462   4.502   2.617
 4014SOL    HW112941   5.412   4.443   2.681
 4014SOL    HW212942   5.560   4.488   2.630
 4015SOL     OW12943   5.187   3.764   0.272
 4015SOL    HW112944   5.097   3.768   0.315
 4015SOL    HW212945   5.218   3.857   0.250
 4016SOL     OW12946   3.214   6.443   4.742
 4016SOL    HW112947   3.304   6.400   4.745
 4016SOL    HW212948   3.180   6.442   4.648
 4017SOL     OW12949   4.935   6.484   6.248
 4017SOL    HW112950   4.881   6.492   6.331
 4017SOL    HW212951   4.876   6.493   6.168
 4018SOL     OW12952   1.690   0.084   6.794
 4018SOL    HW112953   1.608   0.091   6.737
 4018SOL    HW212954   1.706   7.012   6.816
 4019SOL     OW12955   5.317   6.973   3.934
 4019SOL    HW112956   5.280   6.941   4.021
 4019SOL    HW212957   5.410   6.939   3.922
 4020SOL     OW12958   5.762   1.694   4.644
 4020SOL    HW112959   5.854   1.654   4.645
 4020SOL    HW212960   5.756   1.766   4.714
 4021SOL     OW12961   4.594   2.998   6.864
 4021SOL    HW112962   4.689   3.029   6.861
 4021SOL    HW212963   4.565   2.987   6.959
 4022SOL     OW12964   5.170   1.168   1.133
 4022SOL    HW112965   5.162   1.244   1.069
 4022SOL    HW212966   5.121   1.089   1.097
 4023SOL     OW12967   7.014   5.677   5.343
 4023SOL    HW112968   6.967   5.755   5.385
 4023SOL    HW212969   6.955   5.597   5.346
 4024SOL     OW12970   4.090   4.198   6.158
 4024SOL    HW112971   4.128   4.105   6.162
 4024SOL    HW212972   4.025   4.203   6.082
 4025SOL     OW12973   0.189   3.873   4.180
 4025SOL    HW112974   0.245   3.954   4.159
 4025SOL    HW212975   0.246   3.792   4.179
 4026SOL     OW12976   5.798   1.162   5.322
 4026SOL    HW112977   5.721   1.110   5.284
 4026SOL    HW212978   5.879   1.146   5.267
 4027SOL     OW12979   2.677   5.383   2.584
 4027SOL    HW112980   2.712   5.394   2.491
 4027SOL    HW212981   2.750   5.400   2.649
 4028SOL     OW12982   1.408   5.580   2.478
 4028SOL    HW112983   1.428   5.484   2.498
 4028SOL    HW212984   1.339   5.614   2.542
 4029SOL     OW12985   1.910   4.026   3.318
 4029SOL    HW112986   1.919   3.949   3.255
 4029SOL    HW212987   1.975   4.016   3.393
 4030SOL     OW12988   2.686   1.113   5.771
 4030SOL    HW112989   2.628   1.054   5.826
 4030SOL    HW212990   2.780   1.078   5.773
 4031SOL     OW12991   6.642   6.365   3.920
 4031SOL    HW112992   6.607   6.282   3.964
 4031SOL    HW212993   6.698   6.339   3.841
 4032SOL     OW12994   3.847   0.157   4.788
 4032SOL    HW112995   3.805   0.246   4.803
 4032SOL    HW212996   3.947   0.165   4.796
 4033SOL     OW12997   3.638   3.865   6.522
 4033SOL    HW112998   3.651   3.864   6.621
 4033SOL    HW212999   3.672   3.952   6.485
 4034SOL     OW13000   6.254   3.551   5.015
 4034SOL    HW113001   6.335   3.499   5.042
 4034SOL    HW213002   6.265   3.583   4.921
 4035SOL     OW13003   0.026   6.207   2.510
 4035SOL    HW113004   0.122   6.234   2.509
 4035SOL    HW213005   6.996   6.272   2.457
 4036SOL     OW13006   5.851   6.168   1.521
 4036SOL    HW113007   5.915   6.187   1.447
 4036SOL    HW213008   5.759   6.156   1.484
 4037SOL     OW13009   1.060   4.035   6.350
 4037SOL    HW113010   1.093   4.100   6.418
 4037SOL    HW213011   1.100   3.945   6.368
 4038SOL     OW13012   6.264   5.213   3.389
 4038SOL    HW113013   6.177   5.177   3.422
 4038SOL    HW213014   6.334   5.199   3.459
 4039SOL     OW13015   2.689   5.048   1.440
 4039SOL    HW113016   2.737   5.121   1.392
 4039SOL    HW213017   2.638   4.992   1.375
 4040SOL     OW13018   2.938   6.973   0.071
 4040SOL    HW113019   2.922   6.885   0.026
 4040SOL    HW213020   3.029   6.972   0.113
 4041SOL     OW13021   0.307   5.996   3.201
 4041SOL    HW113022   0.383   6.058   3.219
 4041SOL    HW213023   0.319   5.954   3.111
 4042SOL     OW13024   5.239   5.085   1.194
 4042SOL    HW113025   5.273   5.102   1.101
 4042SOL    HW213026   5.227   4.987   1.207
 4043SOL     OW13027   6.714   3.556   0.811
 4043SOL    HW113028   6.755   3.465   0.819
 4043SOL    HW213029   6.737   3.610   0.892
 4044SOL     OW13030   5.233   4.659   2.620
 4044SOL    HW113031   5.296   4.584   2.599
 4044SOL    HW213032   5.249   4.690   2.714
 4045SOL     OW13033   3.151   5.204   5.522
 4045SOL    HW113034   3.158   5.106   5.505
 4045SOL    HW213035   3.188   5.225   5.613
 4046SOL     OW13036   0.687   3.821   0.870
 4046SOL    HW113037   0.763   3.863   0.920
 4046SOL    HW213038   0.706   3.724   0.856
 4047SOL     OW13039   3.343   4.032   3.762
 4047SOL    HW113040   3.393   3.951   3.733
 4047SOL    HW213041   3.298   4.073   3.683
 4048SOL     OW13042   5.096   2.713   0.944
 4048SOL    HW113043   5.005   2.715   0.903
 4048SOL    HW213044   5.112   2.798   0.993
 4049SOL     OW13045   6.169   6.306   0.032
 4049SOL    HW113046   6.192   6.222   0.081
 4049SOL    HW213047   6.073   6.328   0.047
 4050SOL     OW13048   2.191   1.069   1.929
 4050SOL    HW113049   2.148   1.019   2.004
 4050SOL    HW213050   2.290   1.060   1.936
 4051SOL     OW13051   3.035   4.118   1.021
 4051SOL    HW113052   3.116   4.063   1.037
 4051SOL    HW213053   2.993   4.091   0.934
 4052SOL     OW13054   1.236   0.120   0.767
 4052SOL    HW113055   1.297   0.054   0.810
 4052SOL    HW213056   1.200   0.082   0.682
 4053SOL     OW13057   2.808   5.697   2.017
 4053SOL    HW113058   2.722   5.732   2.055
 4053SOL    HW213059   2.875   5.685   2.091
 4054SOL     OW13060   5.253   1.581   6.753
 4054SOL    HW113061   5.299   1.668   6.768
 4054SOL    HW213062   5.320   1.507   6.752
 4055SOL     OW13063   4.800   3.944   6.099
 4055SOL    HW113064   4.822   3.976   6.190
 4055SOL    HW213065   4.855   3.864   6.077
 4056SOL     OW13066   4.332   3.471   6.964
 4056SOL    HW113067   4.356   3.559   6.922
 4056SOL    HW213068   4.379   3.397   6.915
 4057SOL     OW13069   6.765   2.324   0.870
 4057SOL    HW113070   6.737   2.234   0.904
 4057SOL    HW213071   6.864   2.334   0.882
 4058SOL     OW13072   1.262   3.888   3.858
 4058SOL    HW113073   1.332   3.860   3.924
 4058SOL    HW213074   1.293   3.866   3.766
 4059SOL     OW13075   6.742   2.163   4.870
 4059SOL    HW113076   6.809   2.093   4.894
 4059SOL    HW213077   6.771   2.210   4.786
 4060SOL     OW13078   2.222   6.746   6.227
 4060SOL    HW113079   2.264   6.665   6.187
 4060SOL    HW213080   2.207   6.814   6.155
 4061SOL     OW13081   1.973   2.690   1.900
 4061SOL    HW113082   1.907   2.649   1.963
 4061SOL    HW213083   1.933   2.696   1.809
 4062SOL     OW13084   2.401   0.952   3.285
 4062SOL    HW113085   2.354   1.010   3.351
 4062SOL    HW213086   2.403   0.997   3.196
 4063SOL     OW13087   4.166   6.592   5.814
 4063SOL    HW113088   4.077   6.605   5.771
 4063SOL    HW213089   4.153   6.545   5.902
 4064SOL     OW13090   6.292   0.087   4.448
 4064SOL    HW113091   6.263   0.150   4.376
 4064SOL    HW213092   6.361   0.131   4.505
 4065SOL     OW13093   0.636   4.768   5.849
 4065SOL    HW113094   0.618   4.752   5.946
 4065SOL    HW213095   0.706   4.704   5.817
 4066SOL     OW13096   4.867   3.930   2.107
 4066SOL    HW113097   4.912   3.959   2.022
 4066SOL    HW213098   4.822   3.842   2.092
 4067SOL     OW13099   5.144   0.234   1.709
 4067SOL    HW113100   5.120   0.262   1.616
 4067SOL    HW213101   5.156   0.316   1.766
 4068SOL     OW13102   5.285   0.097   4.438
 4068SOL    HW113103   5.339   0.155   4.499
 4068SOL    HW213104   5.256   0.015   4.488
 4069SOL     OW13105   6.300   5.936   0.795
 4069SOL    HW113106   6.311   5.926   0.696
 4069SOL    HW213107   6.266   5.851   0.834
 4070SOL     OW13108   0.407   3.704   3.081
 4070SOL    HW113109   0.325   3.646   3.075
 4070SOL    HW213110   0.443   3.720   2.989
 4071SOL     OW13111   2.739   6.885   4.650
 4071SOL    HW113112   2.677   6.954   4.687
 4071SOL    HW213113   2.717   6.869   4.553
 4072SOL     OW13114   0.034   0.486   4.796
 4072SOL    HW113115   7.007   0.553   4.742
 4072SOL    HW213116   0.129   0.485   4.766
 4073SOL     OW13117   2.560   4.502   1.578
 4073SOL    HW113118   2.607   4.537   1.497
 4073SOL    HW213119   2.624   4.448   1.633
 4074SOL     OW13120   0.003   2.528   1.770
 4074SOL    HW113121   0.031   2.574   1.855
 4074SOL    HW213122   0.083   2.515   1.712
 4075SOL     OW13123   6.785   0.769   4.020
 4075SOL    HW113124   6.856   0.796   3.955
 4075SOL    HW213125   6.744   0.850   4.061
 4076SOL     OW13126   1.581   3.436   3.375
 4076SOL    HW113127   1.543   3.379   3.302
 4076SOL    HW213128   1.662   3.392   3.413
 4077SOL     OW13129   3.481   0.552   1.803
 4077SOL    HW113130   3.541   0.563   1.724
 4077SOL    HW213131   3.406   0.617   1.798
 4078SOL     OW13132   4.792   4.123   2.546
 4078SOL    HW113133   4.878   4.074   2.536
 4078SOL    HW213134   4.733   4.103   2.468
 4079SOL     OW13135   4.304   0.778   2.937
 4079SOL    HW113136   4.317   0.875   2.915
 4079SOL    HW213137   4.286   0.726   2.854
 4080SOL     OW13138   4.035   3.666   4.328
 4080SOL    HW113139   3.950   3.625   4.294
 4080SOL    HW213140   4.060   3.743   4.268
 4081SOL     OW13141   2.478   6.673   0.515
 4081SOL    HW113142   2.463   6.738   0.440
 4081SOL    HW213143   2.393   6.662   0.567
 4082SOL     OW13144   1.378   1.413   6.392
 4082SOL    HW113145   1.461   1.364   6.418
 4082SOL    HW213146   1.358   1.483   6.461
 4083SOL     OW13147   5.896   3.909   2.244
 4083SOL    HW113148   5.824   3.907   2.314
 4083SOL    HW213149   5.885   3.992   2.188
 4084SOL     OW13150   4.105   6.098   3.090
 4084SOL    HW113151   4.035   6.161   3.124
 4084SOL    HW213152   4.082   6.005   3.119
 4085SOL     OW13153   1.552   4.428   2.771
 4085SOL    HW113154   1.630   4.389   2.721
 4085SOL    HW213155   1.505   4.355   2.821
 4086SOL     OW13156   6.226   5.090   5.600
 4086SOL    HW113157   6.307   5.067   5.546
 4086SOL    HW213158   6.177   5.006   5.622
 4087SOL     OW13159   1.123   1.356   1.240
 4087SOL    HW113160   1.119   1.451   1.271
 4087SOL    HW213161   1.193   1.348   1.169
 4088SOL     OW13162   0.432   2.017   4.887
 4088SOL    HW113163   0.465   1.980   4.973
 4088SOL    HW213164   0.339   2.052   4.898
 4089SOL     OW13165   6.756   6.366   2.709
 4089SOL    HW113166   6.826   6.298   2.732
 4089SOL    HW213167   6.774   6.402   2.617
 4090SOL     OW13168   3.468   2.426   5.650
 4090SOL    HW113169   3.463   2.436   5.551
 4090SOL    HW213170   3.525   2.499   5.688
 4091SOL     OW13171   4.145   0.021   3.275
 4091SOL    HW113172   4.196   0.065   3.201
 4091SOL    HW213173   4.156   0.075   3.359
 4092SOL     OW13174   4.040   1.860   6.934
 4092SOL    HW113175   4.131   1.825   6.913
 4092SOL    HW213176   4.025   1.855   0.009
 4093SOL     OW13177   5.744   4.292   0.874
 4093SOL    HW113178   5.710   4.209   0.829
 4093SOL    HW213179   5.777   4.269   0.965
 4094SOL     OW13180   6.073   5.887   0.511
 4094SOL    HW113181   6.110   5.933   0.431
 4094SOL    HW213182   5.983   5.849   0.489
 4095SOL     OW13183   1.299   4.534   0.437
 4095SOL    HW113184   1.260   4.626   0.434
 4095SOL    HW213185   1.284   4.489   0.350
 4096SOL     OW13186   1.076   6.130   5.630
 4096SOL    HW113187   1.105   6.223   5.654
 4096SOL    HW213188   0.976   6.125   5.635
 4097SOL     OW13189   1.488   4.181   5.930
 4097SOL    HW113190   1.574   4.171   5.880
 4097SOL    HW213191   1.414   4.142   5.875
 4098SOL     OW13192   1.291   5.829   2.043
 4098SOL    HW113193   1.287   5.729   2.039
 4098SOL    HW213194   1.200   5.865   2.062
 4099SOL     OW13195   0.267   2.643   5.712
 4099SOL    HW113196   0.259   2.730   5.760
 4099SOL    HW213197   0.364   2.624   5.692
 4100SOL     OW13198   1.657   1.350   3.105
 4100SOL    HW113199   1.591   1.387   3.039
 4100SOL    HW213200   1.620   1.360   3.198
 4101SOL     OW13201   5.580   5.824   5.971
 4101SOL    HW113202   5.515   5.856   6.041
 4101SOL    HW213203   5.534   5.820   5.883
 4102SOL     OW13204   3.180   5.514   0.746
 4102SOL    HW113205   3.260   5.455   0.731
 4102SOL    HW213206   3.206   5.590   0.806
 4103SOL     OW13207   2.373   5.574   2.406
 4103SOL    HW113208   2.391   5.672   2.407
 4103SOL    HW213209   2.408   5.535   2.320
 4104SOL     OW13210   2.464   5.644   5.055
 4104SOL    HW113211   2.464   5.730   5.106
 4104SOL    HW213212   2.533   5.649   4.983
 4105SOL     OW13213   3.915   0.380   1.346
 4105SOL    HW113214   3.903   0.456   1.282
 4105SOL    HW213215   3.939   0.416   1.437
 4106SOL     OW13216   1.626   6.991   2.885
 4106SOL    HW113217   1.587   6.939   2.809
 4106SOL    HW213218   1.687   0.037   2.849
 4107SOL     OW13219   2.810   2.099   1.022
 4107SOL    HW113220   2.733   2.128   1.079
 4107SOL    HW213221   2.825   2.001   1.033
 4108SOL     OW13222   0.856   5.490   5.903
 4108SOL    HW113223   0.881   5.441   5.819
 4108SOL    HW213224   0.820   5.580   5.879
 4109SOL     OW13225   5.932   0.427   4.835
 4109SOL    HW113226   5.864   0.497   4.811
 4109SOL    HW213227   5.923   0.349   4.774
 4110SOL     OW13228   4.831   2.582   0.458
 4110SOL    HW113229   4.885   2.631   0.526
 4110SOL    HW213230   4.799   2.495   0.497
 4111SOL     OW13231   6.187   4.716   4.339
 4111SOL    HW113232   6.169   4.618   4.331
 4111SOL    HW213233   6.283   4.730   4.364
 4112SOL     OW13234   3.581   4.543   5.334
 4112SOL    HW113235   3.681   4.545   5.331
 4112SOL    HW213236   3.551   4.512   5.425
 4113SOL     OW13237   5.475   6.080   5.304
 4113SOL    HW113238   5.508   6.086   5.210
 4113SOL    HW213239   5.505   6.160   5.355
 4114SOL     OW13240   5.707   1.839   3.965
 4114SOL    HW113241   5.663   1.852   4.054
 4114SOL    HW213242   5.796   1.794   3.978
 4115SOL     OW13243   4.842   0.583   4.835
 4115SOL    HW113244   4.798   0.566   4.746
 4115SOL    HW213245   4.818   0.674   4.867
 4116SOL     OW13246   5.775   3.822   2.739
 4116SOL    HW113247   5.865   3.861   2.762
 4116SOL    HW213248   5.774   3.725   2.766
 4117SOL     OW13249   0.368   2.275   2.590
 4117SOL    HW113250   0.369   2.228   2.679
 4117SOL    HW213251   0.287   2.334   2.584
 4118SOL     OW13252   1.019   1.517   1.653
 4118SOL    HW113253   1.042   1.421   1.669
 4118SOL    HW213254   0.943   1.522   1.588
 4119SOL     OW13255   6.177   1.283   4.498
 4119SOL    HW113256   6.265   1.286   4.451
 4119SOL    HW213257   6.110   1.236   4.441
 4120SOL     OW13258   1.517   0.146   0.359
 4120SOL    HW113259   1.494   0.068   0.301
 4120SOL    HW213260   1.438   0.207   0.364
 4121SOL     OW13261   6.465   6.861   1.361
 4121SOL    HW113262   6.461   6.898   1.453
 4121SOL    HW213263   6.512   6.926   1.301
 4122SOL     OW13264   1.113   4.780   3.478
 4122SOL    HW113265   1.209   4.780   3.508
 4122SOL    HW213266   1.095   4.697   3.424
 4123SOL     OW13267   6.175   4.749   1.955
 4123SOL    HW113268   6.115   4.712   1.884
 4123SOL    HW213269   6.267   4.713   1.943
 4124SOL     OW13270   5.455   5.709   0.138
 4124SOL    HW113271   5.487   5.773   0.069
 4124SOL    HW213272   5.466   5.749   0.229
 4125SOL     OW13273   1.508   3.185   0.274
 4125SOL    HW113274   1.533   3.250   0.345
 4125SOL    HW213275   1.547   3.213   0.186
 4126SOL     OW13276   2.132   4.697   2.764
 4126SOL    HW113277   2.053   4.672   2.708
 4126SOL    HW213278   2.198   4.747   2.708
 4127SOL     OW13279   4.668   2.660   4.752
 4127SOL    HW113280   4.717   2.679   4.837
 4127SOL    HW213281   4.626   2.569   4.758
 4128SOL     OW13282   6.271   2.953   6.733
 4128SOL    HW113283   6.300   2.857   6.741
 4128SOL    HW213284   6.235   2.984   6.821
 4129SOL     OW13285   3.211   6.279   2.040
 4129SOL    HW113286   3.124   6.297   1.996
 4129SOL    HW213287   3.240   6.185   2.020
 4130SOL     OW13288   4.744   1.732   0.050
 4130SOL    HW113289   4.764   1.634   0.049
 4130SOL    HW213290   4.829   1.783   0.068
 4131SOL     OW13291   5.531   5.893   4.491
 4131SOL    HW113292   5.616   5.856   4.528
 4131SOL    HW213293   5.457   5.827   4.505
 4132SOL     OW13294   0.036   3.321   2.412
 4132SOL    HW113295   0.026   3.348   2.316
 4132SOL    HW213296   7.018   3.231   2.425
 4133SOL     OW13297   5.093   6.607   3.753
 4133SOL    HW113298   5.151   6.583   3.675
 4133SOL    HW213299   5.007   6.556   3.748
 4134SOL     OW13300   2.261   2.919   1.378
 4134SOL    HW113301   2.355   2.930   1.347
 4134SOL    HW213302   2.260   2.904   1.477
 4135SOL     OW13303   6.318   0.445   0.560
 4135SOL    HW113304   6.375   0.519   0.596
 4135SOL    HW213305   6.371   0.361   0.556
 4136SOL     OW13306   1.060   5.087   0.471
 4136SOL    HW113307   1.002   5.068   0.392
 4136SOL    HW213308   1.114   5.006   0.493
 4137SOL     OW13309   0.523   2.200   5.251
 4137SOL    HW113310   0.544   2.130   5.183
 4137SOL    HW213311   0.599   2.208   5.315
 4138SOL     OW13312   5.643   6.563   6.406
 4138SOL    HW113313   5.564   6.555   6.467
 4138SOL    HW213314   5.612   6.566   6.311
 4139SOL     OW13315   1.329   3.796   1.996
 4139SOL    HW113316   1.263   3.781   1.923
 4139SOL    HW213317   1.283   3.786   2.085
 4140SOL     OW13318   2.126   6.728   0.874
 4140SOL    HW113319   2.199   6.690   0.930
 4140SOL    HW213320   2.126   6.828   0.882
 4141SOL     OW13321   5.445   0.086   5.593
 4141SOL    HW113322   5.362   0.056   5.640
 4141SOL    HW213323   5.497   0.006   5.564
 4142SOL     OW13324   0.578   6.718   2.170
 4142SOL    HW113325   0.623   6.794   2.217
 4142SOL    HW213326   0.617   6.631   2.201
 4143SOL     OW13327   5.930   3.618   0.073
 4143SOL    HW113328   6.019   3.593   0.035
 4143SOL    HW213329   5.934   3.710   0.111
 4144SOL     OW13330   4.911   0.637   1.668
 4144SOL    HW113331   4.875   0.544   1.667
 4144SOL    HW213332   4.915   0.673   1.575
 4145SOL     OW13333   4.117   1.255   0.994
 4145SOL    HW113334   4.060   1.336   0.988
 4145SOL    HW213335   4.140   1.223   0.902
 4146SOL     OW13336   2.983   1.349   1.542
 4146SOL    HW113337   3.077   1.374   1.517
 4146SOL    HW213338   2.919   1.408   1.493
 4147SOL     OW13339   5.534   4.196   0.074
 4147SOL    HW113340   5.542   4.148   7.011
 4147SOL    HW213341   5.469   4.272   0.064
 4148SOL     OW13342   3.366   0.347   6.412
 4148SOL    HW113343   3.267   0.355   6.416
 4148SOL    HW213344   3.392   0.251   6.421
 4149SOL     OW13345   1.514   2.534   6.068
 4149SOL    HW113346   1.515   2.613   6.007
 4149SOL    HW213347   1.593   2.476   6.050
 4150SOL     OW13348   6.377   1.015   0.752
 4150SOL    HW113349   6.323   1.046   0.674
 4150SOL    HW213350   6.316   0.999   0.830
 4151SOL     OW13351   3.507   5.882   4.213
 4151SOL    HW113352   3.523   5.971   4.170
 4151SOL    HW213353   3.584   5.860   4.274
 4152SOL     OW13354   2.756   3.634   1.831
 4152SOL    HW113355   2.764   3.592   1.921
 4152SOL    HW213356   2.670   3.607   1.788
 4153SOL     OW13357   6.022   6.839   6.902
 4153SOL    HW113358   5.976   6.760   6.861
 4153SOL    HW213359   6.040   6.820   6.998
 4154SOL     OW13360   1.016   0.056   3.629
 4154SOL    HW113361   0.978   0.107   3.707
 4154SOL    HW213362   0.943   0.006   3.583
 4155SOL     OW13363   5.104   1.141   2.568
 4155SOL    HW113364   5.004   1.143   2.559
 4155SOL    HW213365   5.146   1.170   2.482
 4156SOL     OW13366   0.487   5.637   6.035
 4156SOL    HW113367   0.530   5.670   5.950
 4156SOL    HW213368   0.543   5.564   6.074
 4157SOL     OW13369   4.219   6.326   0.471
 4157SOL    HW113370   4.319   6.319   0.468
 4157SOL    HW213371   4.180   6.238   0.496
 4158SOL     OW13372   6.594   0.793   6.297
 4158SOL    HW113373   6.648   0.822   6.377
 4158SOL    HW213374   6.628   0.841   6.216
 4159SOL     OW13375   3.665   0.917   4.458
 4159SOL    HW113376   3.622   0.952   4.374
 4159SOL    HW213377   3.729   0.986   4.492
 4160SOL     OW13378   1.003   0.912   5.690
 4160SOL    HW113379   0.928   0.960   5.735
 4160SOL    HW213380   1.090   0.942   5.730
 4161SOL     OW13381   3.086   3.513   4.948
 4161SOL    HW113382   3.161   3.568   4.909
 4161SOL    HW213383   3.122   3.456   5.022
 4162SOL     OW13384   4.893   0.136   1.013
 4162SOL    HW113385   4.835   0.076   1.068
 4162SOL    HW213386   4.905   0.096   0.922
 4163SOL     OW13387   4.440   6.503   1.543
 4163SOL    HW113388   4.429   6.578   1.479
 4163SOL    HW213389   4.383   6.426   1.513
 4164SOL     OW13390   5.618   1.339   0.005
 4164SOL    HW113391   5.715   1.364   0.005
 4164SOL    HW213392   5.602   1.266   0.072
 4165SOL     OW13393   3.427   0.806   4.625
 4165SOL    HW113394   3.515   0.841   4.594
 4165SOL    HW213395   3.387   0.748   4.555
 4166SOL     OW13396   5.676   2.145   2.559
 4166SOL    HW113397   5.586   2.149   2.602
 4166SOL    HW213398   5.692   2.230   2.507
 4167SOL     OW13399   3.830   5.985   5.001
 4167SOL    HW113400   3.871   5.948   5.084
 4167SOL    HW213401   3.891   5.969   4.923
 4168SOL     OW13402   5.793   3.273   6.858
 4168SOL    HW113403   5.852   3.241   6.784
 4168SOL    HW213404   5.807   3.215   6.939
 4169SOL     OW13405   5.292   4.541   6.956
 4169SOL    HW113406   5.379   4.547   7.005
 4169SOL    HW213407   5.225   4.599   7.001
 4170SOL     OW13408   1.128   2.630   5.183
 4170SOL    HW113409   1.194   2.623   5.108
 4170SOL    HW213410   1.049   2.682   5.153
 4171SOL     OW13411   7.000   6.790   5.766
 4171SOL    HW113412   6.991   6.832   5.676
 4171SOL    HW213413   0.018   6.857   5.829
 4172SOL     OW13414   3.264   3.598   0.219
 4172SOL    HW113415   3.334   3.526   0.221
 4172SOL    HW213416   3.277   3.659   0.298
 4173SOL     OW13417   5.610   1.619   5.827
 4173SOL    HW113418   5.530   1.566   5.855
 4173SOL    HW213419   5.667   1.638   5.906
 4174SOL     OW13420   2.449   6.610   3.659
 4174SOL    HW113421   2.543   6.613   3.691
 4174SOL    HW213422   2.447   6.604   3.559
 4175SOL     OW13423   1.881   3.191   6.564
 4175SOL    HW113424   1.904   3.101   6.528
 4175SOL    HW213425   1.917   3.262   6.503
 4176SOL     OW13426   5.069   6.916   4.847
 4176SOL    HW113427   4.985   6.924   4.794
 4176SOL    HW213428   5.107   7.007   4.862
 4177SOL     OW13429   5.186   6.273   3.969
 4177SOL    HW113430   5.130   6.337   4.020
 4177SOL    HW213431   5.147   6.181   3.977
 4178SOL     OW13432   2.508   6.479   1.035
 4178SOL    HW113433   2.516   6.464   1.133
 4178SOL    HW213434   2.594   6.514   0.999
 4179SOL     OW13435   3.706   1.861   0.095
 4179SOL    HW113436   3.659   1.910   0.169
 4179SOL    HW213437   3.718   1.923   0.017
 4180SOL     OW13438   3.796   4.486   0.009
 4180SOL    HW113439   3.806   4.398   0.056
 4180SOL    HW213440   3.704   4.494   6.995
 4181SOL     OW13441   5.044   6.197   5.985
 4181SOL    HW113442   5.088   6.283   6.013
 4181SOL    HW213443   5.051   6.187   5.886
 4182SOL     OW13444   6.110   5.334   5.669
 4182SOL    HW113445   6.167   5.382   5.735
 4182SOL    HW213446   6.153   5.247   5.644
 4183SOL     OW13447   4.695   2.524   6.865
 4183SOL    HW113448   4.620   2.568   6.914
 4183SOL    HW213449   4.659   2.452   6.805
 4184SOL     OW13450   3.559   5.795   3.631
 4184SOL    HW113451   3.481   5.829   3.578
 4184SOL    HW213452   3.630   5.762   3.568
 4185SOL     OW13453   4.400   4.640   3.232
 4185SOL    HW113454   4.433   4.555   3.274
 4185SOL    HW213455   4.476   4.686   3.187
 4186SOL     OW13456   1.920   5.043   1.056
 4186SOL    HW113457   1.908   5.135   1.020
 4186SOL    HW213458   1.842   4.986   1.030
 4187SOL     OW13459   1.319   3.419   6.112
 4187SOL    HW113460   1.417   3.418   6.132
 4187SOL    HW213461   1.271   3.474   6.180
 4188SOL     OW13462   5.333   0.412   6.040
 4188SOL    HW113463   5.330   0.436   6.137
 4188SOL    HW213464   5.385   0.327   6.029
 4189SOL     OW13465   3.881   5.235   4.039
 4189SOL    HW113466   3.936   5.161   4.000
 4189SOL    HW213467   3.817   5.198   4.106
 4190SOL     OW13468   6.655   5.628   2.058
 4190SOL    HW113469   6.728   5.652   1.994
 4190SOL    HW213470   6.571   5.612   2.007
 4191SOL     OW13471   4.884   2.763   6.178
 4191SOL    HW113472   4.899   2.664   6.184
 4191SOL    HW213473   4.789   2.781   6.153
 4192SOL     OW13474   1.968   3.761   6.398
 4192SOL    HW113475   2.062   3.754   6.365
 4192SOL    HW213476   1.959   3.841   6.457
 4193SOL     OW13477   5.075   6.525   1.227
 4193SOL    HW113478   5.089   6.458   1.300
 4193SOL    HW213479   5.114   6.490   1.141
 4194SOL     OW13480   6.200   0.106   6.987
 4194SOL    HW113481   6.179   0.063   6.899
 4194SOL    HW213482   6.274   0.172   6.974
 4195SOL     OW13483   1.877   6.286   0.597
 4195SOL    HW113484   1.933   6.337   0.662
 4195SOL    HW213485   1.936   6.231   0.538
 4196SOL     OW13486   6.331   3.512   2.995
 4196SOL    HW113487   6.236   3.544   2.992
 4196SOL    HW213488   6.381   3.552   2.919
 4197SOL     OW13489   4.352   0.708   6.682
 4197SOL    HW113490   4.265   0.756   6.687
 4197SOL    HW213491   4.349   0.626   6.739
 4198SOL     OW13492   6.335   2.094   1.707
 4198SOL    HW113493   6.418   2.042   1.727
 4198SOL    HW213494   6.301   2.069   1.616
 4199SOL     OW13495   1.192   3.532   0.176
 4199SOL    HW113496   1.210   3.442   0.215
 4199SOL    HW213497   1.139   3.522   0.092
 4200SOL     OW13498   5.227   2.059   2.939
 4200SOL    HW113499   5.284   2.096   3.013
 4200SOL    HW213500   5.160   2.127   2.912
 4201SOL     OW13501   4.795   0.399   5.320
 4201SOL    HW113502   4.721   0.343   5.356
 4201SOL    HW213503   4.854   0.343   5.262
 4202SOL     OW13504   4.314   3.994   1.586
 4202SOL    HW113505   4.394   4.048   1.614
 4202SOL    HW213506   4.294   3.926   1.657
 4203SOL     OW13507   6.369   4.251   4.316
 4203SOL    HW113508   6.370   4.337   4.264
 4203SOL    HW213509   6.280   4.242   4.362
 4204SOL     OW13510   2.704   4.198   5.964
 4204SOL    HW113511   2.733   4.229   5.874
 4204SOL    HW213512   2.723   4.100   5.974
 4205SOL     OW13513   5.215   5.126   6.458
 4205SOL    HW113514   5.137   5.066   6.440
 4205SOL    HW213515   5.228   5.188   6.381
 4206SOL     OW13516   2.173   2.640   4.781
 4206SOL    HW113517   2.176   2.540   4.768
 4206SOL    HW213518   2.252   2.681   4.735
 4207SOL     OW13519   2.578   2.521   1.485
 4207SOL    HW113520   2.591   2.533   1.387
 4207SOL    HW213521   2.663   2.539   1.533
 4208SOL     OW13522   1.535   2.126   3.130
 4208SOL    HW113523   1.435   2.122   3.134
 4208SOL    HW213524   1.563   2.200   3.069
 4209SOL     OW13525   6.857   5.140   2.806
 4209SOL    HW113526   6.807   5.060   2.839
 4209SOL    HW213527   6.814   5.224   2.841
 4210SOL     OW13528   3.289   5.451   5.491
 4210SOL    HW113529   3.284   5.354   5.515
 4210SOL    HW213530   3.384   5.481   5.491
 4211SOL     OW13531   4.848   3.043   6.066
 4211SOL    HW113532   4.769   2.993   6.029
 4211SOL    HW213533   4.832   3.064   6.162
 4212SOL     OW13534   0.061   3.082   2.829
 4212SOL    HW113535   0.095   3.159   2.775
 4212SOL    HW213536   0.138   3.030   2.866
 4213SOL     OW13537   2.944   1.131   3.873
 4213SOL    HW113538   2.855   1.118   3.917
 4213SOL    HW213539   2.960   1.058   3.807
 4214SOL     OW13540   6.520   6.122   4.036
 4214SOL    HW113541   6.422   6.129   4.055
 4214SOL    HW213542   6.570   6.108   4.121
 4215SOL     OW13543   6.478   6.908   4.721
 4215SOL    HW113544   6.453   6.812   4.731
 4215SOL    HW213545   6.487   6.930   4.624
 4216SOL     OW13546   1.695   5.725   2.469
 4216SOL    HW113547   1.606   5.678   2.469
 4216SOL    HW213548   1.752   5.688   2.395
 4217SOL     OW13549   0.660   0.606   2.956
 4217SOL    HW113550   0.670   0.629   2.859
 4217SOL    HW213551   0.671   0.689   3.011
 4218SOL     OW13552   2.781   0.540   2.077
 4218SOL    HW113553   2.779   0.480   2.157
 4218SOL    HW213554   2.747   0.491   1.997
 4219SOL     OW13555   2.650   4.878   1.945
 4219SOL    HW113556   2.743   4.902   1.916
 4219SOL    HW213557   2.635   4.780   1.933
 4220SOL     OW13558   5.453   1.897   0.934
 4220SOL    HW113559   5.401   1.834   0.991
 4220SOL    HW213560   5.400   1.981   0.919
 4221SOL     OW13561   0.496   6.748   0.714
 4221SOL    HW113562   0.440   6.829   0.728
 4221SOL    HW213563   0.459   6.672   0.769
 4222SOL     OW13564   5.770   3.757   4.461
 4222SOL    HW113565   5.799   3.670   4.422
 4222SOL    HW213566   5.843   3.824   4.450
 4223SOL     OW13567   3.594   4.054   2.769
 4223SOL    HW113568   3.561   4.085   2.680
 4223SOL    HW213569   3.531   3.986   2.806
 4224SOL     OW13570   4.670   4.177   5.304
 4224SOL    HW113571   4.707   4.139   5.389
 4224SOL    HW213572   4.570   4.169   5.305
 4225SOL     OW13573   0.721   1.596   5.916
 4225SOL    HW113574   0.630   1.624   5.888
 4225SOL    HW213575   0.723   1.584   6.016
 4226SOL     OW13576   4.664   5.267   3.985
 4226SOL    HW113577   4.597   5.235   4.053
 4226SOL    HW213578   4.756   5.259   4.023
 4227SOL     OW13579   6.652   5.571   1.091
 4227SOL    HW113580   6.696   5.632   1.026
 4227SOL    HW213581   6.720   5.531   1.152
 4228SOL     OW13582   1.589   5.193   3.724
 4228SOL    HW113583   1.595   5.102   3.765
 4228SOL    HW213584   1.579   5.184   3.625
 4229SOL     OW13585   6.239   6.260   5.968
 4229SOL    HW113586   6.163   6.202   5.998
 4229SOL    HW213587   6.325   6.222   6.002
 4230SOL     OW13588   0.070   2.081   2.472
 4230SOL    HW113589   7.012   2.128   2.506
 4230SOL    HW213590   0.042   2.007   2.411
 4231SOL     OW13591   0.497   0.088   5.521
 4231SOL    HW113592   0.484   0.166   5.583
 4231SOL    HW213593   0.519   0.006   5.575
 4232SOL     OW13594   2.265   4.362   2.257
 4232SOL    HW113595   2.192   4.416   2.214
 4232SOL    HW213596   2.353   4.407   2.239
 4233SOL     OW13597   4.809   5.382   2.467
 4233SOL    HW113598   4.759   5.420   2.545
 4233SOL    HW213599   4.874   5.313   2.499
 4234SOL     OW13600   2.918   5.293   6.218
 4234SOL    HW113601   2.939   5.376   6.165
 4234SOL    HW213602   2.910   5.316   6.315
 4235SOL     OW13603   6.417   6.013   0.536
 4235SOL    HW113604   6.473   5.956   0.477
 4235SOL    HW213605   6.476   6.061   0.601
 4236SOL     OW13606   0.407   5.321   4.282
 4236SOL    HW113607   0.312   5.350   4.296
 4236SOL    HW213608   0.469   5.395   4.308
 4237SOL     OW13609   0.092   5.033   4.867
 4237SOL    HW113610   0.101   4.983   4.780
 4237SOL    HW213611   0.140   4.982   4.939
 4238SOL     OW13612   1.702   5.728   3.622
 4238SOL    HW113613   1.765   5.805   3.608
 4238SOL    HW213614   1.659   5.704   3.535
 4239SOL     OW13615   4.115   1.155   3.346
 4239SOL    HW113616   4.059   1.109   3.277
 4239SOL    HW213617   4.135   1.248   3.316
 4240SOL     OW13618   4.328   0.566   1.290
 4240SOL    HW113619   4.324   0.649   1.345
 4240SOL    HW213620   4.269   0.496   1.330
 4241SOL     OW13621   0.773   4.363   6.372
 4241SOL    HW113622   0.777   4.278   6.320
 4241SOL    HW213623   0.858   4.415   6.357
 4242SOL     OW13624   3.398   1.971   2.621
 4242SOL    HW113625   3.390   1.873   2.643
 4242SOL    HW213626   3.482   1.987   2.570
 4243SOL     OW13627   2.401   2.217   2.867
 4243SOL    HW113628   2.421   2.205   2.964
 4243SOL    HW213629   2.486   2.222   2.815
 4244SOL     OW13630   2.762   2.695   5.425
 4244SOL    HW113631   2.761   2.786   5.383
 4244SOL    HW213632   2.675   2.649   5.409
 4245SOL     OW13633   6.364   0.524   5.551
 4245SOL    HW113634   6.414   0.456   5.603
 4245SOL    HW213635   6.415   0.610   5.550
 4246SOL     OW13636   1.448   5.349   5.921
 4246SOL    HW113637   1.425   5.445   5.938
 4246SOL    HW213638   1.405   5.319   5.836
 4247SOL     OW13639   0.307   4.501   5.285
 4247SOL    HW113640   0.345   4.552   5.208
 4247SOL    HW213641   0.260   4.564   5.347
 4248SOL     OW13642   1.962   3.348   6.782
 4248SOL    HW113643   1.889   3.410   6.812
 4248SOL    HW213644   1.932   3.299   6.700
 4249SOL     OW13645   5.035   3.243   6.037
 4249SOL    HW113646   5.105   3.218   6.105
 4249SOL    HW213647   4.966   3.171   6.033
 4250SOL     OW13648   6.974   4.105   3.933
 4250SOL    HW113649   7.014   4.177   3.875
 4250SOL    HW213650   6.919   4.044   3.876
 4251SOL     OW13651   5.660   4.941   6.114
 4251SOL    HW113652   5.687   4.977   6.024
 4251SOL    HW213653   5.726   4.871   6.142
 4252SOL     OW13654   6.809   5.034   5.913
 4252SOL    HW113655   6.864   5.073   5.987
 4252SOL    HW213656   6.843   4.942   5.891
 4253SOL     OW13657   3.117   0.346   3.659
 4253SOL    HW113658   3.145   0.431   3.614
 4253SOL    HW213659   3.022   0.325   3.635
 4254SOL     OW13660   4.064   3.816   3.717
 4254SOL    HW113661   4.000   3.880   3.676
 4254SOL    HW213662   4.125   3.864   3.779
 4255SOL     OW13663   0.826   2.057   4.565
 4255SOL    HW113664   0.858   2.021   4.478
 4255SOL    HW213665   0.863   2.002   4.640
 4256SOL     OW13666   1.064   0.847   1.231
 4256SOL    HW113667   1.102   0.930   1.190
 4256SOL    HW213668   1.111   0.767   1.194
 4257SOL     OW13669   4.276   2.298   4.815
 4257SOL    HW113670   4.192   2.277   4.764
 4257SOL    HW213671   4.251   2.340   4.902
 4258SOL     OW13672   5.689   6.464   2.251
 4258SOL    HW113673   5.737   6.381   2.224
 4258SOL    HW213674   5.601   6.468   2.204
 4259SOL     OW13675   2.582   2.972   1.571
 4259SOL    HW113676   2.557   2.889   1.621
 4259SOL    HW213677   2.544   2.967   1.478
 4260SOL     OW13678   4.282   5.433   5.142
 4260SOL    HW113679   4.219   5.428   5.220
 4260SOL    HW213680   4.369   5.389   5.166
 4261SOL     OW13681   0.598   1.154   2.284
 4261SOL    HW113682   0.553   1.108   2.207
 4261SOL    HW213683   0.660   1.089   2.330
 4262SOL     OW13684   1.242   6.801   5.037
 4262SOL    HW113685   1.335   6.765   5.029
 4262SOL    HW213686   1.196   6.795   4.948
 4263SOL     OW13687   4.501   5.749   0.051
 4263SOL    HW113688   4.454   5.726   0.137
 4263SOL    HW213689   4.436   5.743   7.000
 4264SOL     OW13690   1.711   0.842   1.581
 4264SOL    HW113691   1.622   0.883   1.558
 4264SOL    HW213692   1.739   0.874   1.672
 4265SOL     OW13693   2.089   1.525   1.036
 4265SOL    HW113694   2.115   1.618   1.060
 4265SOL    HW213695   2.053   1.523   0.943
 4266SOL     OW13696   2.335   5.130   0.221
 4266SOL    HW113697   2.326   5.230   0.221
 4266SOL    HW213698   2.361   5.099   0.312
 4267SOL     OW13699   1.574   3.182   5.255
 4267SOL    HW113700   1.542   3.093   5.224
 4267SOL    HW213701   1.648   3.213   5.195
 4268SOL     OW13702   0.487   1.829   0.874
 4268SOL    HW113703   0.430   1.755   0.908
 4268SOL    HW213704   0.468   1.912   0.926
 4269SOL     OW13705   3.163   3.830   1.619
 4269SOL    HW113706   3.178   3.884   1.536
 4269SOL    HW213707   3.070   3.796   1.620
 4270SOL     OW13708   3.660   3.233   0.389
 4270SOL    HW113709   3.594   3.201   0.321
 4270SOL    HW213710   3.736   3.280   0.343
 4271SOL     OW13711   2.131   0.700   0.445
 4271SOL    HW113712   2.063   0.758   0.400
 4271SOL    HW213713   2.189   0.756   0.504
 4272SOL     OW13714   1.429   4.619   3.869
 4272SOL    HW113715   1.459   4.552   3.938
 4272SOL    HW213716   1.361   4.577   3.810
 4273SOL     OW13717   0.161   6.359   3.758
 4273SOL    HW113718   0.119   6.373   3.847
 4273SOL    HW213719   0.252   6.319   3.770
 4274SOL     OW13720   1.512   0.172   3.461
 4274SOL    HW113721   1.515   0.231   3.542
 4274SOL    HW213722   1.488   0.227   3.381
 4275SOL     OW13723   0.188   0.702   5.788
 4275SOL    HW113724   0.266   0.745   5.743
 4275SOL    HW213725   0.208   0.607   5.807
 4276SOL     OW13726   2.171   3.345   3.347
 4276SOL    HW113727   2.241   3.316   3.281
 4276SOL    HW213728   2.144   3.266   3.403
 4277SOL     OW13729   0.863   6.211   5.946
 4277SOL    HW113730   0.853   6.289   5.884
 4277SOL    HW213731   0.849   6.241   6.040
 4278SOL     OW13732   1.282   6.406   6.458
 4278SOL    HW113733   1.317   6.433   6.368
 4278SOL    HW213734   1.257   6.309   6.456
 4279SOL     OW13735   4.268   5.965   4.170
 4279SOL    HW113736   4.325   5.994   4.093
 4279SOL    HW213737   4.214   5.885   4.144
 4280SOL     OW13738   4.972   3.195   4.220
 4280SOL    HW113739   5.065   3.200   4.182
 4280SOL    HW213740   4.912   3.148   4.156
 4281SOL     OW13741   2.305   4.203   4.515
 4281SOL    HW113742   2.315   4.122   4.572
 4281SOL    HW213743   2.310   4.285   4.572
 4282SOL     OW13744   1.339   0.985   6.626
 4282SOL    HW113745   1.410   0.915   6.622
 4282SOL    HW213746   1.323   1.010   6.722
 4283SOL     OW13747   2.560   1.590   4.037
 4283SOL    HW113748   2.536   1.597   3.940
 4283SOL    HW213749   2.620   1.665   4.062
 4284SOL     OW13750   6.865   2.999   3.076
 4284SOL    HW113751   6.932   3.071   3.059
 4284SOL    HW213752   6.852   2.946   2.992
 4285SOL     OW13753   0.894   6.537   4.246
 4285SOL    HW113754   0.918   6.449   4.204
 4285SOL    HW213755   0.976   6.579   4.285
 4286SOL     OW13756   5.053   5.403   0.674
 4286SOL    HW113757   5.073   5.489   0.626
 4286SOL    HW213758   5.010   5.339   0.610
 4287SOL     OW13759   3.690   6.202   5.859
 4287SOL    HW113760   3.708   6.166   5.767
 4287SOL    HW213761   3.679   6.126   5.923
 4288SOL     OW13762   0.750   6.278   4.505
 4288SOL    HW113763   0.836   6.328   4.504
 4288SOL    HW213764   0.673   6.342   4.499
 4289SOL     OW13765   1.180   4.351   6.744
 4289SOL    HW113766   1.113   4.419   6.772
 4289SOL    HW213767   1.272   4.385   6.764
 4290SOL     OW13768   1.413   1.772   2.687
 4290SOL    HW113769   1.343   1.706   2.660
 4290SOL    HW213770   1.401   1.856   2.633
 4291SOL     OW13771   6.612   3.125   1.940
 4291SOL    HW113772   6.652   3.198   1.996
 4291SOL    HW213773   6.629   3.037   1.984
 4292SOL     OW13774   5.702   5.826   5.306
 4292SOL    HW113775   5.746   5.893   5.247
 4292SOL    HW213776   5.605   5.820   5.282
 4293SOL     OW13777   0.792   2.021   0.641
 4293SOL    HW113778   0.714   1.963   0.616
 4293SOL    HW213779   0.760   2.114   0.658
 4294SOL     OW13780   4.909   2.492   5.136
 4294SOL    HW113781   4.884   2.400   5.165
 4294SOL    HW213782   4.913   2.495   5.036
 4295SOL     OW13783   3.126   4.680   5.598
 4295SOL    HW113784   3.060   4.713   5.666
 4295SOL    HW213785   3.211   4.654   5.643
 4296SOL     OW13786   1.935   1.881   2.312
 4296SOL    HW113787   2.004   1.855   2.245
 4296SOL    HW213788   1.973   1.875   2.405
 4297SOL     OW13789   6.086   6.986   0.167
 4297SOL    HW113790   6.131   6.901   0.194
 4297SOL    HW213791   6.143   0.010   0.101
 4298SOL     OW13792   1.214   4.564   1.749
 4298SOL    HW113793   1.262   4.507   1.683
 4298SOL    HW213794   1.132   4.603   1.706
 4299SOL     OW13795   1.045   5.563   4.452
 4299SOL    HW113796   1.131   5.514   4.463
 4299SOL    HW213797   1.059   5.660   4.471
 4300SOL     OW13798   6.458   0.338   5.770
 4300SOL    HW113799   6.528   0.282   5.815
 4300SOL    HW213800   6.375   0.283   5.756
 4301SOL     OW13801   2.464   0.415   0.471
 4301SOL    HW113802   2.440   0.447   0.563
 4301SOL    HW213803   2.390   0.436   0.408
 4302SOL     OW13804   0.589   0.840   0.138
 4302SOL    HW113805   0.604   0.803   0.230
 4302SOL    HW213806   0.624   0.775   0.070
 4303SOL     OW13807   0.111   4.164   2.551
 4303SOL    HW113808   0.140   4.176   2.457
 4303SOL    HW213809   0.142   4.075   2.585
 4304SOL     OW13810   2.474   3.292   6.469
 4304SOL    HW113811   2.434   3.293   6.560
 4304SOL    HW213812   2.402   3.297   6.400
 4305SOL     OW13813   0.726   1.351   4.755
 4305SOL    HW113814   0.815   1.310   4.774
 4305SOL    HW213815   0.653   1.284   4.773
 4306SOL     OW13816   5.586   5.433   5.918
 4306SOL    HW113817   5.679   5.439   5.955
 4306SOL    HW213818   5.519   5.446   5.991
 4307SOL     OW13819   6.240   3.712   1.444
 4307SOL    HW113820   6.164   3.650   1.426
 4307SOL    HW213821   6.278   3.746   1.358
 4308SOL     OW13822   3.402   0.030   5.587
 4308SOL    HW113823   3.474   0.056   5.522
 4308SOL    HW213824   3.401   6.955   5.597
 4309SOL     OW13825   1.033   0.999   1.457
 4309SOL    HW113826   1.016   0.936   1.533
 4309SOL    HW213827   1.063   0.947   1.377
 4310SOL     OW13828   1.286   6.874   2.706
 4310SOL    HW113829   1.263   6.971   2.707
 4310SOL    HW213830   1.205   6.821   2.681
 4311SOL     OW13831   0.726   4.876   5.024
 4311SOL    HW113832   0.722   4.836   4.932
 4311SOL    HW213833   0.649   4.938   5.035
 4312SOL     OW13834   2.101   5.491   2.091
 4312SOL    HW113835   2.011   5.463   2.058
 4312SOL    HW213836   2.102   5.492   2.191
 4313SOL     OW13837   5.053   1.386   0.979
 4313SOL    HW113838   4.971   1.368   1.034
 4313SOL    HW213839   5.047   1.478   0.939
 4314SOL     OW13840   6.939   2.569   1.353
 4314SOL    HW113841   6.873   2.639   1.379
 4314SOL    HW213842   7.021   2.579   1.409
 4315SOL     OW13843   1.283   0.918   1.739
 4315SOL    HW113844   1.373   0.876   1.752
 4315SOL    HW213845   1.279   1.005   1.788
 4316SOL     OW13846   6.540   1.193   2.614
 4316SOL    HW113847   6.479   1.136   2.559
 4316SOL    HW213848   6.588   1.258   2.555
 4317SOL     OW13849   3.881   0.508   3.167
 4317SOL    HW113850   3.929   0.537   3.084
 4317SOL    HW213851   3.803   0.567   3.184
 4318SOL     OW13852   0.193   2.410   4.882
 4318SOL    HW113853   0.162   2.455   4.966
 4318SOL    HW213854   0.277   2.453   4.850
 4319SOL     OW13855   4.578   3.186   6.423
 4319SOL    HW113856   4.661   3.131   6.422
 4319SOL    HW213857   4.515   3.151   6.493
 4320SOL     OW13858   0.669   6.681   3.418
 4320SOL    HW113859   0.699   6.761   3.469
 4320SOL    HW213860   0.741   6.612   3.419
 4321SOL     OW13861   0.151   6.992   4.189
 4321SOL    HW113862   0.085   6.971   4.117
 4321SOL    HW213863   0.111   0.034   4.253
 4322SOL     OW13864   0.173   0.821   6.834
 4322SOL    HW113865   0.212   0.912   6.817
 4322SOL    HW213866   0.075   0.823   6.814
 4323SOL     OW13867   6.940   2.893   4.592
 4323SOL    HW113868   6.993   2.823   4.640
 4323SOL    HW213869   6.995   2.930   4.517
 4324SOL     OW13870   5.730   2.774   5.697
 4324SOL    HW113871   5.828   2.790   5.710
 4324SOL    HW213872   5.690   2.739   5.781
 4325SOL     OW13873   2.557   2.150   6.650
 4325SOL    HW113874   2.592   2.201   6.572
 4325SOL    HW213875   2.577   2.053   6.638
 4326SOL     OW13876   0.726   2.253   5.458
 4326SOL    HW113877   0.714   2.314   5.536
 4326SOL    HW213878   0.813   2.274   5.412
 4327SOL     OW13879   4.796   0.465   3.077
 4327SOL    HW113880   4.809   0.513   3.164
 4327SOL    HW213881   4.725   0.395   3.088
 4328SOL     OW13882   6.357   5.265   0.850
 4328SOL    HW113883   6.373   5.182   0.904
 4328SOL    HW213884   6.383   5.345   0.905
 4329SOL     OW13885   5.182   1.307   6.488
 4329SOL    HW113886   5.120   1.258   6.425
 4329SOL    HW213887   5.274   1.270   6.480
 4330SOL     OW13888   0.943   0.375   6.224
 4330SOL    HW113889   1.010   0.333   6.162
 4330SOL    HW213890   0.987   0.398   6.311
 4331SOL     OW13891   5.338   2.697   6.251
 4331SOL    HW113892   5.428   2.685   6.210
 4331SOL    HW213893   5.317   2.618   6.308
 4332SOL     OW13894   6.330   4.476   2.170
 4332SOL    HW113895   6.357   4.567   2.138
 4332SOL    HW213896   6.321   4.477   2.269
 4333SOL     OW13897   6.514   2.017   4.865
 4333SOL    HW113898   6.608   2.045   4.847
 4333SOL    HW213899   6.452   2.095   4.852
 4334SOL     OW13900   4.310   6.974   1.677
 4334SOL    HW113901   4.296   6.878   1.653
 4334SOL    HW213902   4.373   6.981   1.754
 4335SOL     OW13903   4.418   4.455   6.335
 4335SOL    HW113904   4.354   4.517   6.380
 4335SOL    HW213905   4.405   4.459   6.236
 4336SOL     OW13906   0.815   0.309   5.560
 4336SOL    HW113907   0.894   0.327   5.619
 4336SOL    HW213908   0.776   0.396   5.530
 4337SOL     OW13909   1.501   5.943   6.261
 4337SOL    HW113910   1.459   6.033   6.249
 4337SOL    HW213911   1.600   5.950   6.242
 4338SOL     OW13912   5.101   6.634   2.872
 4338SOL    HW113913   5.064   6.591   2.789
 4338SOL    HW213914   5.036   6.620   2.947
 4339SOL     OW13915   6.929   1.263   0.499
 4339SOL    HW113916   6.864   1.281   0.425
 4339SOL    HW213917   6.976   1.177   0.482
 4340SOL     OW13918   5.073   3.281   1.413
 4340SOL    HW113919   5.066   3.318   1.320
 4340SOL    HW213920   5.169   3.269   1.438
 4341SOL     OW13921   1.239   3.576   0.679
 4341SOL    HW113922   1.315   3.515   0.702
 4341SOL    HW213923   1.177   3.530   0.616
 4342SOL     OW13924   6.473   2.813   3.253
 4342SOL    HW113925   6.464   2.803   3.154
 4342SOL    HW213926   6.398   2.869   3.288
 4343SOL     OW13927   3.399   3.713   1.460
 4343SOL    HW113928   3.381   3.807   1.430
 4343SOL    HW213929   3.446   3.715   1.548
 4344SOL     OW13930   2.557   3.530   1.670
 4344SOL    HW113931   2.481   3.497   1.727
 4344SOL    HW213932   2.603   3.452   1.628
 4345SOL     OW13933   2.680   0.664   5.812
 4345SOL    HW113934   2.720   0.717   5.887
 4345SOL    HW213935   2.671   0.568   5.840
 4346SOL     OW13936   6.733   3.735   1.810
 4346SOL    HW113937   6.817   3.694   1.775
 4346SOL    HW213938   6.688   3.670   1.872
 4347SOL     OW13939   5.103   6.304   2.479
 4347SOL    HW113940   5.073   6.322   2.385
 4347SOL    HW213941   5.202   6.288   2.480
 4348SOL     OW13942   0.759   2.930   0.363
 4348SOL    HW113943   0.823   2.997   0.326
 4348SOL    HW213944   0.747   2.946   0.461
 4349SOL     OW13945   6.011   0.940   0.726
 4349SOL    HW113946   5.983   0.845   0.739
 4349SOL    HW213947   6.067   0.969   0.803
 4350SOL     OW13948   3.421   0.432   3.430
 4350SOL    HW113949   3.371   0.365   3.376
 4350SOL    HW213950   3.372   0.520   3.428
 4351SOL     OW13951   3.713   0.057   0.105
 4351SOL    HW113952   3.699   6.983   0.093
 4351SOL    HW213953   3.709   0.103   0.017
 4352SOL     OW13954   6.163   1.775   1.108
 4352SOL    HW113955   6.146   1.871   1.132
 4352SOL    HW213956   6.077   1.731   1.084
 4353SOL     OW13957   3.296   5.973   0.927
 4353SOL    HW113958   3.234   6.048   0.905
 4353SOL    HW213959   3.248   5.905   0.983
 4354SOL     OW13960   2.395   1.568   1.639
 4354SOL    HW113961   2.325   1.640   1.638
 4354SOL    HW213962   2.485   1.610   1.631
 4355SOL     OW13963   4.716   0.364   6.645
 4355SOL    HW113964   4.726   0.443   6.585
 4355SOL    HW213965   4.635   0.312   6.618
 4356SOL     OW13966   3.988   3.440   1.095
 4356SOL    HW113967   4.017   3.365   1.037
 4356SOL    HW213968   3.910   3.411   1.151
 4357SOL     OW13969   5.203   0.759   0.970
 4357SOL    HW113970   5.133   0.820   0.934
 4357SOL    HW213971   5.229   0.692   0.900
 4358SOL     OW13972   6.381   0.533   0.305
 4358SOL    HW113973   6.352   0.520   0.400
 4358SOL    HW213974   6.435   0.617   0.297
 4359SOL     OW13975   0.039   4.121   4.429
 4359SOL    HW113976   0.063   4.025   4.441
 4359SOL    HW213977   0.005   4.136   4.336
 4360SOL     OW13978   2.742   3.095   1.211
 4360SOL    HW113979   2.825   3.145   1.235
 4360SOL    HW213980   2.735   3.013   1.267
 4361SOL     OW13981   5.039   1.917   3.070
 4361SOL    HW113982   5.075   1.844   3.128
 4361SOL    HW213983   5.114   1.980   3.045
 4362SOL     OW13984   5.127   4.183   2.819
 4362SOL    HW113985   5.129   4.126   2.902
 4362SOL    HW213986   5.179   4.137   2.747
 4363SOL     OW13987   5.285   0.040   6.624
 4363SOL    HW113988   5.289   0.068   6.528
 4363SOL    HW213989   5.321   0.114   6.682
 4364SOL     OW13990   4.403   4.126   5.338
 4364SOL    HW113991   4.333   4.054   5.333
 4364SOL    HW213992   4.359   4.215   5.345
 4365SOL     OW13993   4.747   2.732   0.232
 4365SOL    HW113994   4.802   2.679   0.298
 4365SOL    HW213995   4.668   2.677   0.204
 4366SOL     OW13996   4.868   4.518   0.608
 4366SOL    HW113997   4.909   4.582   0.673
 4366SOL    HW213998   4.790   4.562   0.563
 4367SOL     OW13999   5.859   6.615   1.052
 4367SOL    HW114000   5.798   6.552   1.003
 4367SOL    HW214001   5.952   6.578   1.051
 4368SOL     OW14002   4.023   6.105   1.955
 4368SOL    HW114003   4.002   6.008   1.940
 4368SOL    HW214004   3.973   6.160   1.888
 4369SOL     OW14005   3.002   5.518   1.604
 4369SOL    HW114006   2.926   5.457   1.581
 4369SOL    HW214007   3.082   5.463   1.632
 4370SOL     OW14008   5.185   3.807   1.365
 4370SOL    HW114009   5.262   3.866   1.389
 4370SOL    HW214010   5.176   3.805   1.265
 4371SOL     OW14011   1.362   1.288   2.074
 4371SOL    HW114012   1.325   1.329   1.990
 4371SOL    HW214013   1.294   1.295   2.147
 4372SOL     OW14014   4.495   0.166   3.551
 4372SOL    HW114015   4.501   0.208   3.642
 4372SOL    HW214016   4.525   0.071   3.557
 4373SOL     OW14017   0.917   1.836   5.402
 4373SOL    HW114018   0.901   1.873   5.494
 4373SOL    HW214019   0.997   1.882   5.362
 4374SOL     OW14020   3.882   1.394   0.175
 4374SOL    HW114021   3.841   1.399   0.084
 4374SOL    HW214022   3.973   1.354   0.168
 4375SOL     OW14023   3.519   5.288   4.700
 4375SOL    HW114024   3.510   5.196   4.739
 4375SOL    HW214025   3.434   5.339   4.713
 4376SOL     OW14026   0.137   2.364   2.914
 4376SOL    HW114027   0.088   2.278   2.906
 4376SOL    HW214028   0.110   2.425   2.839
 4377SOL     OW14029   0.444   5.197   5.764
 4377SOL    HW114030   0.488   5.236   5.683
 4377SOL    HW214031   0.472   5.101   5.774
 4378SOL     OW14032   3.496   1.437   4.023
 4378SOL    HW114033   3.438   1.366   4.062
 4378SOL    HW214034   3.585   1.437   4.070
 4379SOL     OW14035   3.362   1.537   6.068
 4379SOL    HW114036   3.325   1.629   6.083
 4379SOL    HW214037   3.354   1.484   6.152
 4380SOL     OW14038   6.405   2.247   3.602
 4380SOL    HW114039   6.461   2.308   3.658
 4380SOL    HW214040   6.454   2.225   3.518
 4381SOL     OW14041   0.884   4.653   6.839
 4381SOL    HW114042   0.916   4.582   6.901
 4381SOL    HW214043   0.936   4.737   6.854
 4382SOL     OW14044   1.480   4.926   4.857
 4382SOL    HW114045   1.383   4.947   4.872
 4382SOL    HW214046   1.490   4.869   4.776
 4383SOL     OW14047   0.312   4.280   0.229
 4383SOL    HW114048   0.348   4.222   0.303
 4383SOL    HW214049   0.246   4.228   0.176
 4384SOL     OW14050   4.533   0.264   4.297
 4384SOL    HW114051   4.454   0.236   4.243
 4384SOL    HW214052   4.568   0.185   4.347
 4385SOL     OW14053   5.069   0.352   6.006
 4385SOL    HW114054   5.014   0.387   6.082
 4385SOL    HW214055   5.163   0.386   6.014
 4386SOL     OW14056   1.839   2.804   3.601
 4386SOL    HW114057   1.779   2.724   3.595
 4386SOL    HW214058   1.917   2.782   3.659
 4387SOL     OW14059   4.167   2.286   0.876
 4387SOL    HW114060   4.090   2.349   0.864
 4387SOL    HW214061   4.237   2.304   0.807
 4388SOL     OW14062   6.193   3.085   0.341
 4388SOL    HW114063   6.236   3.174   0.352
 4388SOL    HW214064   6.100   3.088   0.378
 4389SOL     OW14065   2.502   1.406   6.398
 4389SOL    HW114066   2.438   1.479   6.424
 4389SOL    HW214067   2.453   1.333   6.352
 4390SOL     OW14068   0.099   1.087   1.570
 4390SOL    HW114069   0.155   1.021   1.520
 4390SOL    HW214070   0.005   1.053   1.576
 4391SOL     OW14071   6.738   6.291   2.345
 4391SOL    HW114072   6.720   6.225   2.418
 4391SOL    HW214073   6.823   6.340   2.365
 4392SOL     OW14074   2.028   2.494   6.451
 4392SOL    HW114075   2.120   2.492   6.489
 4392SOL    HW214076   1.976   2.568   6.493
 4393SOL     OW14077   6.172   6.976   1.706
 4393SOL    HW114078   6.251   7.003   1.760
 4393SOL    HW214079   6.088   7.001   1.754
 4394SOL     OW14080   6.359   1.522   3.033
 4394SOL    HW114081   6.452   1.500   3.062
 4394SOL    HW214082   6.299   1.526   3.114
 4395SOL     OW14083   2.152   3.210   0.923
 4395SOL    HW114084   2.171   3.131   0.864
 4395SOL    HW214085   2.160   3.294   0.869
 4396SOL     OW14086   2.185   1.480   2.444
 4396SOL    HW114087   2.187   1.580   2.454
 4396SOL    HW214088   2.123   1.455   2.371
 4397SOL     OW14089   4.005   0.855   4.580
 4397SOL    HW114090   4.011   0.885   4.485
 4397SOL    HW214091   4.093   0.817   4.609
 4398SOL     OW14092   2.718   2.971   5.915
 4398SOL    HW114093   2.701   3.060   5.956
 4398SOL    HW214094   2.767   2.913   5.981
 4399SOL     OW14095   3.253   5.985   2.133
 4399SOL    HW114096   3.229   5.958   2.226
 4399SOL    HW214097   3.209   5.924   2.068
 4400SOL     OW14098   1.659   5.945   5.263
 4400SOL    HW114099   1.750   5.956   5.224
 4400SOL    HW214100   1.629   5.850   5.253
 4401SOL     OW14101   3.016   0.464   5.738
 4401SOL    HW114102   3.005   0.365   5.741
 4401SOL    HW214103   2.932   0.507   5.705
 4402SOL     OW14104   0.315   0.749   2.018
 4402SOL    HW114105   0.256   0.669   2.030
 4402SOL    HW214106   0.292   0.795   1.933
 4403SOL     OW14107   6.477   6.567   2.862
 4403SOL    HW114108   6.424   6.561   2.778
 4403SOL    HW214109   6.414   6.574   2.940
 4404SOL     OW14110   0.817   5.930   5.130
 4404SOL    HW114111   0.814   5.946   5.032
 4404SOL    HW214112   0.910   5.942   5.163
 4405SOL     OW14113   1.036   5.635   3.162
 4405SOL    HW114114   1.013   5.647   3.066
 4405SOL    HW214115   1.001   5.546   3.194
 4406SOL     OW14116   5.769   4.215   2.357
 4406SOL    HW114117   5.839   4.177   2.296
 4406SOL    HW214118   5.740   4.145   2.422
 4407SOL     OW14119   5.038   0.508   1.356
 4407SOL    HW114120   4.981   0.485   1.277
 4407SOL    HW214121   5.033   0.606   1.373
 4408SOL     OW14122   4.981   0.329   6.985
 4408SOL    HW114123   5.034   0.407   6.954
 4408SOL    HW214124   5.042   0.257   7.019
 4409SOL     OW14125   3.882   0.690   4.035
 4409SOL    HW114126   3.912   0.781   4.006
 4409SOL    HW214127   3.911   0.622   3.968
 4410SOL     OW14128   1.612   0.653   0.638
 4410SOL    HW114129   1.676   0.723   0.670
 4410SOL    HW214130   1.560   0.617   0.715
 4411SOL     OW14131   4.672   4.355   4.635
 4411SOL    HW114132   4.641   4.307   4.553
 4411SOL    HW214133   4.700   4.289   4.704
 4412SOL     OW14134   4.870   6.622   0.635
 4412SOL    HW114135   4.786   6.646   0.684
 4412SOL    HW214136   4.937   6.695   0.645
 4413SOL     OW14137   5.247   6.398   4.711
 4413SOL    HW114138   5.313   6.441   4.773
 4413SOL    HW214139   5.261   6.433   4.619
 4414SOL     OW14140   5.957   3.990   1.117
 4414SOL    HW114141   6.044   4.010   1.161
 4414SOL    HW214142   5.916   3.908   1.158
 4415SOL     OW14143   0.761   4.351   1.265
 4415SOL    HW114144   0.797   4.264   1.299
 4415SOL    HW214145   0.664   4.341   1.245
 4416SOL     OW14146   5.012   3.469   4.305
 4416SOL    HW114147   4.977   3.542   4.246
 4416SOL    HW214148   4.996   3.381   4.262
 4417SOL     OW14149   0.150   3.838   1.788
 4417SOL    HW114150   0.248   3.835   1.808
 4417SOL    HW214151   0.130   3.918   1.732
 4418SOL     OW14152   6.201   2.664   5.013
 4418SOL    HW114153   6.120   2.648   5.071
 4418SOL    HW214154   6.267   2.719   5.064
 4419SOL     OW14155   6.054   6.254   6.430
 4419SOL    HW114156   6.103   6.175   6.392
 4419SOL    HW214157   6.017   6.309   6.356
 4420SOL     OW14158   4.325   0.234   0.373
 4420SOL    HW114159   4.260   0.172   0.417
 4420SOL    HW214160   4.277   0.315   0.339
 4421SOL     OW14161   2.325   2.128   0.222
 4421SOL    HW114162   2.278   2.172   0.299
 4421SOL    HW214163   2.388   2.058   0.256
 4422SOL     OW14164   0.566   2.682   6.570
 4422SOL    HW114165   0.543   2.609   6.635
 4422SOL    HW214166   0.662   2.672   6.542
 4423SOL     OW14167   5.866   3.993   3.867
 4423SOL    HW114168   5.804   4.000   3.789
 4423SOL    HW214169   5.901   4.084   3.890
 4424SOL     OW14170   3.487   5.035   2.212
 4424SOL    HW114171   3.507   5.119   2.162
 4424SOL    HW214172   3.391   5.011   2.200
 4425SOL     OW14173   0.430   6.037   0.574
 4425SOL    HW114174   0.382   5.950   0.588
 4425SOL    HW214175   0.382   6.110   0.622
 4426SOL     OW14176   1.131   0.792   4.320
 4426SOL    HW114177   1.211   0.847   4.295
 4426SOL    HW214178   1.107   0.732   4.244
 4427SOL     OW14179   4.008   6.308   0.113
 4427SOL    HW114180   3.922   6.288   0.161
 4427SOL    HW214181   4.046   6.394   0.146
 4428SOL     OW14182   6.529   5.840   2.728
 4428SOL    HW114183   6.549   5.937   2.740
 4428SOL    HW214184   6.488   5.803   2.811
 4429SOL     OW14185   2.016   5.302   2.673
 4429SOL    HW114186   1.963   5.343   2.748
 4429SOL    HW214187   2.068   5.374   2.627
 4430SOL     OW14188   5.462   4.173   4.287
 4430SOL    HW114189   5.496   4.081   4.272
 4430SOL    HW214190   5.444   4.187   4.385
 4431SOL     OW14191   5.093   0.422   4.632
 4431SOL    HW114192   5.024   0.350   4.635
 4431SOL    HW214193   5.110   0.448   4.537
 4432SOL     OW14194   2.199   3.430   6.442
 4432SOL    HW114195   2.245   3.469   6.362
 4432SOL    HW214196   2.121   3.376   6.412
 4433SOL     OW14197   0.606   0.538   5.064
 4433SOL    HW114198   0.549   0.614   5.093
 4433SOL    HW214199   0.644   0.492   5.144
 4434SOL     OW14200   6.566   0.451   2.438
 4434SOL    HW114201   6.486   0.496   2.477
 4434SOL    HW214202   6.628   0.520   2.401
 4435SOL     OW14203   1.800   4.574   1.889
 4435SOL    HW114204   1.876   4.525   1.847
 4435SOL    HW214205   1.780   4.657   1.837
 4436SOL     OW14206   5.106   1.866   1.632
 4436SOL    HW114207   5.187   1.815   1.603
 4436SOL    HW214208   5.077   1.928   1.560
 4437SOL     OW14209   0.176   5.973   0.206
 4437SOL    HW114210   0.133   5.985   0.295
 4437SOL    HW214211   0.188   5.876   0.188
 4438SOL     OW14212   3.504   2.043   4.659
 4438SOL    HW114213   3.510   2.065   4.561
 4438SOL    HW214214   3.414   2.069   4.693
 4439SOL     OW14215   2.840   5.315   2.078
 4439SOL    HW114216   2.926   5.361   2.054
 4439SOL    HW214217   2.815   5.250   2.007
 4440SOL     OW14218   2.226   5.319   6.090
 4440SOL    HW114219   2.141   5.337   6.139
 4440SOL    HW214220   2.206   5.292   5.996
 4441SOL     OW14221   6.243   1.360   0.892
 4441SOL    HW114222   6.172   1.422   0.926
 4441SOL    HW214223   6.270   1.298   0.965
 4442SOL     OW14224   1.260   4.278   1.058
 4442SOL    HW114225   1.249   4.179   1.050
 4442SOL    HW214226   1.337   4.299   1.119
 4443SOL     OW14227   1.269   5.986   5.364
 4443SOL    HW114228   1.350   6.026   5.321
 4443SOL    HW214229   1.249   5.898   5.322
 4444SOL     OW14230   4.326   6.761   0.320
 4444SOL    HW114231   4.248   6.778   0.261
 4444SOL    HW214232   4.305   6.790   0.413
 4445SOL     OW14233   1.886   3.278   0.779
 4445SOL    HW114234   1.812   3.346   0.782
 4445SOL    HW214235   1.902   3.242   0.871
 4446SOL     OW14236   6.005   2.286   1.518
 4446SOL    HW114237   5.941   2.362   1.517
 4446SOL    HW214238   5.976   2.218   1.585
 4447SOL     OW14239   4.869   5.288   6.083
 4447SOL    HW114240   4.937   5.217   6.102
 4447SOL    HW214241   4.777   5.250   6.093
 4448SOL     OW14242   2.051   6.530   2.923
 4448SOL    HW114243   1.996   6.614   2.921
 4448SOL    HW214244   2.036   6.479   2.838
 4449SOL     OW14245   3.562   2.113   5.316
 4449SOL    HW114246   3.561   2.031   5.259
 4449SOL    HW214247   3.655   2.146   5.325
 4450SOL     OW14248   2.762   5.630   0.681
 4450SOL    HW114249   2.678   5.594   0.723
 4450SOL    HW214250   2.764   5.729   0.690
 4451SOL     OW14251   4.777   5.817   2.454
 4451SOL    HW114252   4.783   5.892   2.519
 4451SOL    HW214253   4.860   5.762   2.459
 4452SOL     OW14254   5.172   4.904   3.646
 4452SOL    HW114255   5.181   4.996   3.684
 4452SOL    HW214256   5.084   4.865   3.672
 4453SOL     OW14257   0.157   5.534   1.472
 4453SOL    HW114258   0.089   5.606   1.484
 4453SOL    HW214259   0.157   5.474   1.552
 4454SOL     OW14260   0.080   0.815   0.249
 4454SOL    HW114261   0.065   0.717   0.255
 4454SOL    HW214262   0.143   0.835   0.175
 4455SOL     OW14263   0.935   0.851   3.892
 4455SOL    HW114264   0.930   0.766   3.945
 4455SOL    HW214265   0.843   0.874   3.858
 4456SOL     OW14266   1.761   5.883   4.633
 4456SOL    HW114267   1.760   5.784   4.624
 4456SOL    HW214268   1.750   5.925   4.543
 4457SOL     OW14269   1.582   2.218   4.545
 4457SOL    HW114270   1.566   2.143   4.609
 4457SOL    HW214271   1.659   2.196   4.486
 4458SOL     OW14272   1.731   2.025   5.579
 4458SOL    HW114273   1.720   2.015   5.480
 4458SOL    HW214274   1.658   2.082   5.616
 4459SOL     OW14275   1.987   4.423   3.557
 4459SOL    HW114276   2.031   4.348   3.607
 4459SOL    HW214277   1.890   4.427   3.582
 4460SOL     OW14278   6.938   3.605   5.068
 4460SOL    HW114279   6.996   3.541   5.018
 4460SOL    HW214280   6.969   3.698   5.051
 4461SOL     OW14281   2.631   0.015   0.830
 4461SOL    HW114282   2.623   6.974   0.906
 4461SOL    HW214283   2.618   6.991   0.743
 4462SOL     OW14284   0.402   4.434   2.964
 4462SOL    HW114285   0.478   4.424   3.029
 4462SOL    HW214286   0.410   4.365   2.893
 4463SOL     OW14287   5.367   1.871   6.704
 4463SOL    HW114288   5.275   1.886   6.738
 4463SOL    HW214289   5.431   1.933   6.748
 4464SOL     OW14290   0.652   3.198   1.216
 4464SOL    HW114291   0.630   3.288   1.180
 4464SOL    HW214292   0.570   3.141   1.218
 4465SOL     OW14293   4.470   4.443   0.780
 4465SOL    HW114294   4.448   4.536   0.809
 4465SOL    HW214295   4.459   4.435   0.680
 4466SOL     OW14296   0.740   2.771   2.303
 4466SOL    HW114297   0.816   2.831   2.324
 4466SOL    HW214298   0.731   2.701   2.374
 4467SOL     OW14299   4.941   4.582   1.580
 4467SOL    HW114300   4.971   4.655   1.641
 4467SOL    HW214301   4.841   4.585   1.571
 4468SOL     OW14302   1.824   3.497   0.323
 4468SOL    HW114303   1.804   3.548   0.407
 4468SOL    HW214304   1.923   3.486   0.314
 4469SOL     OW14305   1.107   6.605   2.304
 4469SOL    HW114306   1.188   6.655   2.272
 4469SOL    HW214307   1.099   6.520   2.252
 4470SOL     OW14308   0.240   6.890   3.218
 4470SOL    HW114309   0.296   6.966   3.186
 4470SOL    HW214310   0.295   6.829   3.275
 4471SOL     OW14311   1.556   0.497   6.505
 4471SOL    HW114312   1.528   0.436   6.431
 4471SOL    HW214313   1.534   0.455   6.593
 4472SOL     OW14314   2.274   3.313   1.169
 4472SOL    HW114315   2.248   3.267   1.084
 4472SOL    HW214316   2.199   3.373   1.199
 4473SOL     OW14317   1.189   3.183   5.587
 4473SOL    HW114318   1.263   3.205   5.650
 4473SOL    HW214319   1.222   3.192   5.493
 4474SOL     OW14320   1.670   6.312   1.687
 4474SOL    HW114321   1.733   6.388   1.699
 4474SOL    HW214322   1.591   6.342   1.634
 4475SOL     OW14323   1.326   3.221   0.925
 4475SOL    HW114324   1.250   3.219   0.990
 4475SOL    HW214325   1.413   3.213   0.975
 4476SOL     OW14326   4.528   0.807   3.388
 4476SOL    HW114327   4.481   0.759   3.314
 4476SOL    HW214328   4.591   0.874   3.350
 4477SOL     OW14329   6.702   1.559   4.897
 4477SOL    HW114330   6.615   1.608   4.898
 4477SOL    HW214331   6.695   1.481   4.834
 4478SOL     OW14332   0.869   0.631   2.378
 4478SOL    HW114333   0.909   0.608   2.467
 4478SOL    HW214334   0.922   0.587   2.305
 4479SOL     OW14335   3.024   3.441   0.234
 4479SOL    HW114336   3.056   3.375   0.302
 4479SOL    HW214337   3.089   3.517   0.229
 4480SOL     OW14338   6.810   1.082   3.570
 4480SOL    HW114339   6.710   1.090   3.575
 4480SOL    HW214340   6.849   1.169   3.539
 4481SOL     OW14341   2.227   4.510   6.338
 4481SOL    HW114342   2.145   4.483   6.390
 4481SOL    HW214343   2.308   4.473   6.383
 4482SOL     OW14344   2.952   0.052   1.578
 4482SOL    HW114345   3.001   6.990   1.571
 4482SOL    HW214346   2.858   0.035   1.610
 4483SOL     OW14347   1.630   2.617   1.776
 4483SOL    HW114348   1.675   2.638   1.689
 4483SOL    HW214349   1.661   2.528   1.809
 4484SOL     OW14350   4.445   7.013   0.509
 4484SOL    HW114351   4.350   6.991   0.487
 4484SOL    HW214352   4.495   0.010   0.424
 4485SOL     OW14353   0.473   2.258   5.766
 4485SOL    HW114354   0.374   2.266   5.781
 4485SOL    HW214355   0.498   2.307   5.683
 4486SOL     OW14356   5.429   5.279   3.690
 4486SOL    HW114357   5.362   5.205   3.700
 4486SOL    HW214358   5.507   5.262   3.750
 4487SOL     OW14359   0.249   3.708   0.005
 4487SOL    HW114360   0.210   3.692   6.939
 4487SOL    HW214361   0.205   3.786   0.048
 4488SOL     OW14362   5.637   4.886   3.263
 4488SOL    HW114363   5.564   4.954   3.257
 4488SOL    HW214364   5.636   4.844   3.353
 4489SOL     OW14365   3.153   6.346   5.759
 4489SOL    HW114366   3.129   6.356   5.856
 4489SOL    HW214367   3.180   6.434   5.721
 4490SOL     OW14368   4.650   1.840   1.639
 4490SOL    HW114369   4.698   1.925   1.660
 4490SOL    HW214370   4.712   1.776   1.594
 4491SOL     OW14371   0.096   4.744   2.810
 4491SOL    HW114372   0.060   4.775   2.898
 4491SOL    HW214373   0.196   4.741   2.814
 4492SOL     OW14374   6.516   0.835   1.745
 4492SOL    HW114375   6.578   0.762   1.716
 4492SOL    HW214376   6.464   0.867   1.666
 4493SOL     OW14377   5.465   1.147   5.781
 4493SOL    HW114378   5.430   1.062   5.817
 4493SOL    HW214379   5.523   1.192   5.849
 4494SOL     OW14380   0.387   1.555   2.314
 4494SOL    HW114381   0.295   1.569   2.279
 4494SOL    HW214382   0.454   1.581   2.245
 4495SOL     OW14383   3.984   6.125   1.585
 4495SOL    HW114384   3.971   6.150   1.489
 4495SOL    HW214385   3.907   6.070   1.616
 4496SOL     OW14386   2.477   4.956   5.468
 4496SOL    HW114387   2.399   4.895   5.462
 4496SOL    HW214388   2.562   4.905   5.451
 4497SOL     OW14389   5.986   6.395   4.738
 4497SOL    HW114390   6.032   6.350   4.814
 4497SOL    HW214391   5.975   6.492   4.757
 4498SOL     OW14392   1.939   5.321   3.411
 4498SOL    HW114393   1.920   5.348   3.506
 4498SOL    HW214394   1.916   5.224   3.400
 4499SOL     OW14395   5.189   2.259   2.317
 4499SOL    HW114396   5.178   2.161   2.299
 4499SOL    HW214397   5.285   2.283   2.308
 4500SOL     OW14398   3.580   6.236   0.486
 4500SOL    HW114399   3.629   6.311   0.532
 4500SOL    HW214400   3.519   6.192   0.550
 4501SOL     OW14401   5.352   0.999   3.165
 4501SOL    HW114402   5.290   0.947   3.106
 4501SOL    HW214403   5.357   1.094   3.133
 4502SOL     OW14404   0.624   3.301   0.222
 4502SOL    HW114405   0.707   3.345   0.256
 4502SOL    HW214406   0.648   3.212   0.183
 4503SOL     OW14407   3.090   1.181   3.182
 4503SOL    HW114408   3.084   1.221   3.273
 4503SOL    HW214409   3.000   1.181   3.140
 4504SOL     OW14410   0.818   3.218   3.892
 4504SOL    HW114411   0.869   3.298   3.925
 4504SOL    HW214412   0.869   3.175   3.818
 4505SOL     OW14413   6.258   3.675   4.041
 4505SOL    HW114414   6.235   3.773   4.038
 4505SOL    HW214415   6.309   3.650   3.959
 4506SOL     OW14416   4.074   4.187   0.009
 4506SOL    HW114417   3.983   4.144   0.009
 4506SOL    HW214418   4.068   4.278   6.993
 4507SOL     OW14419   5.499   2.202   3.050
 4507SOL    HW114420   5.460   2.239   3.135
 4507SOL    HW214421   5.465   2.254   2.972
 4508SOL     OW14422   6.707   4.322   1.300
 4508SOL    HW114423   6.738   4.230   1.327
 4508SOL    HW214424   6.678   4.321   1.205
 4509SOL     OW14425   4.665   1.502   2.496
 4509SOL    HW114426   4.598   1.475   2.427
 4509SOL    HW214427   4.671   1.602   2.499
 4510SOL     OW14428   4.800   1.803   3.482
 4510SOL    HW114429   4.719   1.836   3.432
 4510SOL    HW214430   4.809   1.854   3.567
 4511SOL     OW14431   0.647   3.744   0.300
 4511SOL    HW114432   0.596   3.671   0.254
 4511SOL    HW214433   0.627   3.742   0.398
 4512SOL     OW14434   2.795   3.881   6.531
 4512SOL    HW114435   2.813   3.963   6.477
 4512SOL    HW214436   2.882   3.839   6.557
 4513SOL     OW14437   0.285   2.342   0.587
 4513SOL    HW114438   0.291   2.250   0.549
 4513SOL    HW214439   0.239   2.402   0.522
 4514SOL     OW14440   4.072   5.500   7.013
 4514SOL    HW114441   4.068   5.521   6.916
 4514SOL    HW214442   3.992   5.446   0.015
 4515SOL     OW14443   4.918   6.782   5.811
 4515SOL    HW114444   4.920   6.683   5.799
 4515SOL    HW214445   4.838   6.808   5.865
 4516SOL     OW14446   3.659   1.788   4.717
 4516SOL    HW114447   3.580   1.725   4.717
 4516SOL    HW214448   3.627   1.881   4.699
 4517SOL     OW14449   3.650   0.280   3.948
 4517SOL    HW114450   3.732   0.283   4.005
 4517SOL    HW214451   3.666   0.333   3.865
 4518SOL     OW14452   6.812   6.047   0.573
 4518SOL    HW114453   6.827   6.091   0.662
 4518SOL    HW214454   6.748   5.971   0.584
 4519SOL     OW14455   5.211   6.434   5.960
 4519SOL    HW114456   5.302   6.466   5.935
 4519SOL    HW214457   5.177   6.487   6.038
 4520SOL     OW14458   5.021   5.301   5.369
 4520SOL    HW114459   4.948   5.293   5.301
 4520SOL    HW214460   4.989   5.267   5.457
 4521SOL     OW14461   5.158   2.622   3.978
 4521SOL    HW114462   5.190   2.585   3.891
 4521SOL    HW214463   5.072   2.579   4.003
 4522SOL     OW14464   5.657   4.266   3.817
 4522SOL    HW114465   5.599   4.261   3.898
 4522SOL    HW214466   5.753   4.260   3.845
 4523SOL     OW14467   1.063   2.566   0.265
 4523SOL    HW114468   0.992   2.608   0.209
 4523SOL    HW214469   1.023   2.535   0.351
 4524SOL     OW14470   1.701   3.794   1.633
 4524SOL    HW114471   1.702   3.892   1.655
 4524SOL    HW214472   1.788   3.768   1.590
 4525SOL     OW14473   3.234   1.761   6.105
 4525SOL    HW114474   3.139   1.749   6.074
 4525SOL    HW214475   3.235   1.802   6.196
 4526SOL     OW14476   0.944   6.819   5.065
 4526SOL    HW114477   0.986   6.807   4.975
 4526SOL    HW214478   0.867   6.882   5.057
 4527SOL     OW14479   1.363   2.560   2.932
 4527SOL    HW114480   1.306   2.478   2.925
 4527SOL    HW214481   1.358   2.596   3.025
 4528SOL     OW14482   4.793   2.044   4.139
 4528SOL    HW114483   4.742   1.965   4.173
 4528SOL    HW214484   4.744   2.128   4.163
 4529SOL     OW14485   1.047   2.537   3.058
 4529SOL    HW114486   0.956   2.539   3.099
 4529SOL    HW214487   1.065   2.624   3.012
 4530SOL     OW14488   4.659   4.428   6.475
 4530SOL    HW114489   4.573   4.431   6.423
 4530SOL    HW214490   4.699   4.519   6.478
 4531SOL     OW14491   1.514   6.159   5.222
 4531SOL    HW114492   1.565   6.073   5.228
 4531SOL    HW214493   1.573   6.231   5.187
 4532SOL     OW14494   5.786   0.436   2.328
 4532SOL    HW114495   5.726   0.408   2.403
 4532SOL    HW214496   5.736   0.436   2.242
 4533SOL     OW14497   2.801   6.241   0.874
 4533SOL    HW114498   2.711   6.200   0.863
 4533SOL    HW214499   2.871   6.176   0.847
 4534SOL     OW14500   6.246   1.791   5.171
 4534SOL    HW114501   6.290   1.702   5.158
 4534SOL    HW214502   6.273   1.829   5.259
 4535SOL     OW14503   1.839   6.855   0.746
 4535SOL    HW114504   1.935   6.838   0.770
 4535SOL    HW214505   1.833   6.880   0.650
 4536SOL     OW14506   4.159   0.633   5.431
 4536SOL    HW114507   4.201   0.650   5.341
 4536SOL    HW214508   4.081   0.695   5.443
 4537SOL     OW14509   3.810   3.438   3.615
 4537SOL    HW114510   3.812   3.509   3.686
 4537SOL    HW214511   3.776   3.353   3.653
 4538SOL     OW14512   1.855   2.677   0.368
 4538SOL    HW114513   1.826   2.595   0.318
 4538SOL    HW214514   1.780   2.743   0.369
 4539SOL     OW14515   0.572   4.353   5.073
 4539SOL    HW114516   0.545   4.332   4.979
 4539SOL    HW214517   0.509   4.310   5.137
 4540SOL     OW14518   1.520   1.022   6.240
 4540SOL    HW114519   1.557   0.937   6.277
 4540SOL    HW214520   1.562   1.041   6.151
 4541SOL     OW14521   4.054   2.828   0.606
 4541SOL    HW114522   4.105   2.751   0.643
 4541SOL    HW214523   3.956   2.806   0.607
 4542SOL     OW14524   6.651   2.399   0.209
 4542SOL    HW114525   6.591   2.327   0.176
 4542SOL    HW214526   6.652   2.475   0.144
 4543SOL     OW14527   4.238   1.391   0.458
 4543SOL    HW114528   4.253   1.293   0.466
 4543SOL    HW214529   4.296   1.440   0.523
 4544SOL     OW14530   4.533   6.162   6.812
 4544SOL    HW114531   4.542   6.145   6.910
 4544SOL    HW214532   4.568   6.253   6.791
 4545SOL     OW14533   3.050   3.035   6.485
 4545SOL    HW114534   3.103   2.959   6.523
 4545SOL    HW214535   3.064   3.040   6.386
 4546SOL     OW14536   4.837   6.316   5.038
 4546SOL    HW114537   4.833   6.348   4.943
 4546SOL    HW214538   4.784   6.377   5.096
 4547SOL     OW14539   7.021   6.715   1.255
 4547SOL    HW114540   6.967   6.703   1.171
 4547SOL    HW214541   7.019   6.811   1.282
 4548SOL     OW14542   3.977   0.610   1.177
 4548SOL    HW114543   3.991   0.706   1.201
 4548SOL    HW214544   4.057   0.576   1.128
 4549SOL     OW14545   6.888   5.379   3.511
 4549SOL    HW114546   6.882   5.329   3.598
 4549SOL    HW214547   6.969   5.349   3.460
 4550SOL     OW14548   2.408   5.546   6.786
 4550SOL    HW114549   2.481   5.492   6.829
 4550SOL    HW214550   2.351   5.485   6.730
 4551SOL     OW14551   3.653   3.245   6.478
 4551SOL    HW114552   3.607   3.168   6.432
 4551SOL    HW214553   3.592   3.324   6.479
 4552SOL     OW14554   5.723   0.464   6.162
 4552SOL    HW114555   5.686   0.475   6.254
 4552SOL    HW214556   5.680   0.385   6.118
 4553SOL     OW14557   0.543   0.105   0.644
 4553SOL    HW114558   0.526   0.203   0.634
 4553SOL    HW214559   0.462   0.061   0.683
 4554SOL     OW14560   5.245   5.916   2.878
 4554SOL    HW114561   5.242   5.956   2.786
 4554SOL    HW214562   5.215   5.984   2.945
 4555SOL     OW14563   0.799   0.589   3.736
 4555SOL    HW114564   0.888   0.545   3.726
 4555SOL    HW214565   0.804   0.683   3.702
 4556SOL     OW14566   5.284   5.079   4.627
 4556SOL    HW114567   5.369   5.027   4.619
 4556SOL    HW214568   5.301   5.174   4.599
 4557SOL     OW14569   1.095   6.194   5.061
 4557SOL    HW114570   1.057   6.135   5.132
 4557SOL    HW214571   1.186   6.162   5.036
 4558SOL     OW14572   0.494   3.869   3.836
 4558SOL    HW114573   0.551   3.946   3.807
 4558SOL    HW214574   0.399   3.887   3.814
 4559SOL     OW14575   0.553   3.259   3.855
 4559SOL    HW114576   0.540   3.188   3.786
 4559SOL    HW214577   0.645   3.251   3.894
 4560SOL     OW14578   6.300   2.865   4.101
 4560SOL    HW114579   6.276   2.962   4.105
 4560SOL    HW214580   6.337   2.844   4.010
 4561SOL     OW14581   5.070   3.648   5.115
 4561SOL    HW114582   5.000   3.630   5.046
 4561SOL    HW214583   5.151   3.686   5.072
 4562SOL     OW14584   5.197   0.629   0.330
 4562SOL    HW114585   5.230   0.597   0.419
 4562SOL    HW214586   5.205   0.728   0.325
 4563SOL     OW14587   0.992   3.233   2.565
 4563SOL    HW114588   0.914   3.294   2.554
 4563SOL    HW214589   0.968   3.142   2.528
 4564SOL     OW14590   2.097   3.664   2.662
 4564SOL    HW114591   2.175   3.602   2.668
 4564SOL    HW214592   2.035   3.634   2.589
 4565SOL     OW14593   2.366   6.792   5.071
 4565SOL    HW114594   2.310   6.835   5.000
 4565SOL    HW214595   2.307   6.753   5.142
 4566SOL     OW14596   6.808   4.938   2.336
 4566SOL    HW114597   6.797   5.025   2.384
 4566SOL    HW214598   6.766   4.865   2.390
 4567SOL     OW14599   1.523   0.938   0.247
 4567SOL    HW114600   1.445   0.989   0.283
 4567SOL    HW214601   1.493   0.884   0.167
 4568SOL     OW14602   0.021   4.441   4.215
 4568SOL    HW114603   7.007   4.349   4.215
 4568SOL    HW214604   7.013   4.491   4.134
 4569SOL     OW14605   6.625   3.093   3.949
 4569SOL    HW114606   6.673   3.006   3.939
 4569SOL    HW214607   6.691   3.168   3.951
 4570SOL     OW14608   4.944   5.667   1.788
 4570SOL    HW114609   4.970   5.762   1.805
 4570SOL    HW214610   5.026   5.610   1.789
 4571SOL     OW14611   2.170   2.342   4.837
 4571SOL    HW114612   2.147   2.336   4.740
 4571SOL    HW214613   2.262   2.306   4.851
 4572SOL     OW14614   5.335   3.278   1.426
 4572SOL    HW114615   5.384   3.204   1.473
 4572SOL    HW214616   5.352   3.271   1.328
 4573SOL     OW14617   2.837   4.494   1.222
 4573SOL    HW114618   2.813   4.591   1.220
 4573SOL    HW214619   2.870   4.470   1.313
 4574SOL     OW14620   4.958   0.133   1.934
 4574SOL    HW114621   5.018   0.130   1.854
 4574SOL    HW214622   5.012   0.157   2.015
 4575SOL     OW14623   0.062   1.637   5.463
 4575SOL    HW114624   0.071   1.621   5.561
 4575SOL    HW214625   0.004   1.566   5.423
 4576SOL     OW14626   3.131   4.086   6.732
 4576SOL    HW114627   3.205   4.140   6.692
 4576SOL    HW214628   3.049   4.143   6.740
 4577SOL     OW14629   6.672   1.371   2.436
 4577SOL    HW114630   6.691   1.355   2.339
 4577SOL    HW214631   6.728   1.447   2.468
 4578SOL     OW14632   1.882   0.764   2.440
 4578SOL    HW114633   1.976   0.785   2.466
 4578SOL    HW214634   1.819   0.805   2.507
 4579SOL     OW14635   3.513   0.881   2.337
 4579SOL    HW114636   3.544   0.893   2.243
 4579SOL    HW214637   3.438   0.814   2.339
 4580SOL     OW14638   0.817   6.814   1.648
 4580SOL    HW114639   0.882   6.739   1.638
 4580SOL    HW214640   0.805   6.859   1.559
 4581SOL     OW14641   3.665   0.018   1.233
 4581SOL    HW114642   3.583   0.074   1.237
 4581SOL    HW214643   3.724   0.040   1.310
 4582SOL     OW14644   5.781   1.055   4.446
 4582SOL    HW114645   5.721   1.006   4.383
 4582SOL    HW214646   5.833   1.124   4.395
 4583SOL     OW14647   1.834   6.312   6.777
 4583SOL    HW114648   1.854   6.284   6.683
 4583SOL    HW214649   1.792   6.402   6.777
 4584SOL     OW14650   6.618   0.579   4.247
 4584SOL    HW114651   6.554   0.652   4.223
 4584SOL    HW214652   6.689   0.616   4.308
 4585SOL     OW14653   1.674   3.341   2.065
 4585SOL    HW114654   1.579   3.340   2.034
 4585SOL    HW214655   1.691   3.426   2.116
 4586SOL     OW14656   0.587   4.435   6.581
 4586SOL    HW114657   0.614   4.525   6.616
 4586SOL    HW214658   0.645   4.411   6.504
 4587SOL     OW14659   4.198   3.314   6.251
 4587SOL    HW114660   4.142   3.357   6.180
 4587SOL    HW214661   4.140   3.258   6.310
 4588SOL     OW14662   2.023   5.307   6.839
 4588SOL    HW114663   1.940   5.293   6.894
 4588SOL    HW214664   2.098   5.254   6.879
 4589SOL     OW14665   4.426   6.053   2.025
 4589SOL    HW114666   4.430   5.959   1.992
 4589SOL    HW214667   4.502   6.070   2.089
 4590SOL     OW14668   1.702   4.933   1.925
 4590SOL    HW114669   1.627   4.986   1.885
 4590SOL    HW214670   1.765   4.904   1.853
 4591SOL     OW14671   1.960   1.829   5.882
 4591SOL    HW114672   2.056   1.807   5.895
 4591SOL    HW214673   1.903   1.771   5.940
 4592SOL     OW14674   2.586   2.412   2.383
 4592SOL    HW114675   2.662   2.348   2.378
 4592SOL    HW214676   2.577   2.447   2.477
 4593SOL     OW14677   1.921   5.013   5.463
 4593SOL    HW114678   1.968   5.014   5.374
 4593SOL    HW214679   1.838   5.068   5.457
 4594SOL     OW14680   0.778   6.574   2.874
 4594SOL    HW114681   0.751   6.569   2.970
 4594SOL    HW214682   0.790   6.670   2.848
 4595SOL     OW14683   5.532   1.637   0.061
 4595SOL    HW114684   5.554   1.569   7.015
 4595SOL    HW214685   5.565   1.605   0.150
 4596SOL     OW14686   0.186   1.765   2.013
 4596SOL    HW114687   0.200   1.785   1.916
 4596SOL    HW214688   0.201   1.848   2.066
 4597SOL     OW14689   2.205   5.113   0.927
 4597SOL    HW114690   2.187   5.154   0.837
 4597SOL    HW214691   2.119   5.105   0.977
 4598SOL     OW14692   0.016   3.116   0.852
 4598SOL    HW114693   0.034   3.063   0.769
 4598SOL    HW214694   0.033   3.059   0.932
 4599SOL     OW14695   2.840   6.022   3.336
 4599SOL    HW114696   2.878   6.051   3.248
 4599SOL    HW214697   2.792   5.935   3.325
 4600SOL     OW14698   0.362   6.553   5.780
 4600SOL    HW114699   0.347   6.652   5.790
 4600SOL    HW214700   0.425   6.536   5.704
 4601SOL     OW14701   1.632   1.212   5.056
 4601SOL    HW114702   1.728   1.235   5.039
 4601SOL    HW214703   1.587   1.192   4.969
 4602SOL     OW14704   4.659   0.020   5.711
 4602SOL    HW114705   4.572   0.052   5.747
 4602SOL    HW214706   4.734   0.061   5.762
 4603SOL     OW14707   4.544   6.753   6.890
 4603SOL    HW114708   4.544   6.741   6.989
 4603SOL    HW214709   4.464   6.707   6.851
 4604SOL     OW14710   6.856   0.142   3.731
 4604SOL    HW114711   6.953   0.119   3.746
 4604SOL    HW214712   6.850   0.234   3.691
 4605SOL     OW14713   4.181   1.476   1.974
 4605SOL    HW114714   4.143   1.398   2.023
 4605SOL    HW214715   4.205   1.548   2.038
 4606SOL     OW14716   6.392   0.174   4.096
 4606SOL    HW114717   6.425   0.259   4.055
 4606SOL    HW214718   6.469   0.120   4.130
 4607SOL     OW14719   2.416   1.700   1.302
 4607SOL    HW114720   2.396   1.745   1.215
 4607SOL    HW214721   2.420   1.768   1.375
 4608SOL     OW14722   0.425   3.093   5.934
 4608SOL    HW114723   0.500   3.082   5.999
 4608SOL    HW214724   0.458   3.142   5.853
 4609SOL     OW14725   5.427   4.410   6.459
 4609SOL    HW114726   5.396   4.335   6.518
 4609SOL    HW214727   5.349   4.449   6.410
 4610SOL     OW14728   4.695   3.975   6.379
 4610SOL    HW114729   4.712   3.877   6.385
 4610SOL    HW214730   4.598   3.993   6.390
 4611SOL     OW14731   0.558   0.326   6.578
 4611SOL    HW114732   0.597   0.330   6.486
 4611SOL    HW214733   0.484   0.392   6.585
 4612SOL     OW14734   1.125   0.854   2.360
 4612SOL    HW114735   1.086   0.888   2.274
 4612SOL    HW214736   1.194   0.918   2.393
 4613SOL     OW14737   1.230   5.117   4.043
 4613SOL    HW114738   1.233   5.076   4.134
 4613SOL    HW214739   1.135   5.142   4.021
 4614SOL     OW14740   6.488   4.957   1.801
 4614SOL    HW114741   6.500   4.932   1.897
 4614SOL    HW214742   6.531   4.889   1.743
 4615SOL     OW14743   0.644   4.680   6.687
 4615SOL    HW114744   0.724   4.672   6.746
 4615SOL    HW214745   0.583   4.751   6.723
 4616SOL     OW14746   1.615   4.919   5.884
 4616SOL    HW114747   1.626   4.937   5.982
 4616SOL    HW214748   1.687   4.967   5.834
 4617SOL     OW14749   1.149   3.977   4.973
 4617SOL    HW114750   1.184   4.041   5.041
 4617SOL    HW214751   1.151   3.884   5.011
 4618SOL     OW14752   2.243   4.120   5.356
 4618SOL    HW114753   2.234   4.074   5.444
 4618SOL    HW214754   2.302   4.067   5.296
 4619SOL     OW14755   5.226   5.956   6.444
 4619SOL    HW114756   5.184   6.005   6.521
 4619SOL    HW214757   5.325   5.956   6.455
 4620SOL     OW14758   0.592   4.983   2.673
 4620SOL    HW114759   0.602   5.053   2.743
 4620SOL    HW214760   0.674   4.980   2.616
 4621SOL     OW14761   3.056   6.714   2.099
 4621SOL    HW114762   3.042   6.757   2.010
 4621SOL    HW214763   3.143   6.666   2.099
 4622SOL     OW14764   6.286   6.593   0.741
 4622SOL    HW114765   6.266   6.643   0.657
 4622SOL    HW214766   6.228   6.627   0.814
 4623SOL     OW14767   2.806   5.156   1.861
 4623SOL    HW114768   2.872   5.125   1.793
 4623SOL    HW214769   2.713   5.133   1.830
 4624SOL     OW14770   5.402   1.282   0.290
 4624SOL    HW114771   5.350   1.281   0.376
 4624SOL    HW214772   5.339   1.297   0.214
 4625SOL     OW14773   1.094   0.342   1.897
 4625SOL    HW114774   1.167   0.368   1.960
 4625SOL    HW214775   1.117   0.254   1.855
 4626SOL     OW14776   3.933   3.949   2.256
 4626SOL    HW114777   3.998   4.024   2.272
 4626SOL    HW214778   3.925   3.933   2.158
 4627SOL     OW14779   5.962   6.108   4.635
 4627SOL    HW114780   5.869   6.094   4.668
 4627SOL    HW214781   5.979   6.206   4.624
 4628SOL     OW14782   6.687   2.899   2.053
 4628SOL    HW114783   6.751   2.881   1.978
 4628SOL    HW214784   6.629   2.819   2.068
 4629SOL     OW14785   1.017   5.403   1.118
 4629SOL    HW114786   1.116   5.406   1.131
 4629SOL    HW214787   0.991   5.460   1.041
 4630SOL     OW14788   1.648   3.205   1.482
 4630SOL    HW114789   1.613   3.133   1.542
 4630SOL    HW214790   1.706   3.267   1.534
 4631SOL     OW14791   5.368   1.659   1.127
 4631SOL    HW114792   5.410   1.694   1.211
 4631SOL    HW214793   5.395   1.564   1.113
 4632SOL     OW14794   2.279   5.397   4.122
 4632SOL    HW114795   2.368   5.417   4.080
 4632SOL    HW214796   2.254   5.302   4.104
 4633SOL     OW14797   5.264   3.810   4.511
 4633SOL    HW114798   5.292   3.852   4.597
 4633SOL    HW214799   5.338   3.752   4.476
 4634SOL     OW14800   3.293   2.875   5.043
 4634SOL    HW114801   3.245   2.938   4.981
 4634SOL    HW214802   3.236   2.795   5.060
 4635SOL     OW14803   3.534   0.167   2.339
 4635SOL    HW114804   3.506   0.126   2.252
 4635SOL    HW214805   3.634   0.175   2.341
 4636SOL     OW14806   1.589   6.225   6.493
 4636SOL    HW114807   1.623   6.313   6.525
 4636SOL    HW214808   1.531   6.239   6.413
 4637SOL     OW14809   1.657   2.602   3.622
 4637SOL    HW114810   1.656   2.505   3.597
 4637SOL    HW214811   1.598   2.617   3.701
 4638SOL     OW14812   4.037   4.482   6.959
 4638SOL    HW114813   3.938   4.489   6.967
 4638SOL    HW214814   4.080   4.524   0.014
 4639SOL     OW14815   3.952   2.711   1.219
 4639SOL    HW114816   3.998   2.766   1.149
 4639SOL    HW214817   3.954   2.761   1.306
 4640SOL     OW14818   0.576   2.101   0.402
 4640SOL    HW114819   0.493   2.142   0.365
 4640SOL    HW214820   0.644   2.173   0.419
 4641SOL     OW14821   1.187   6.562   4.637
 4641SOL    HW114822   1.281   6.559   4.670
 4641SOL    HW214823   1.186   6.554   4.538
 4642SOL     OW14824   5.821   1.352   6.080
 4642SOL    HW114825   5.791   1.440   6.117
 4642SOL    HW214826   5.876   1.368   5.998
 4643SOL     OW14827   1.023   1.896   0.000
 4643SOL    HW114828   0.943   1.935   0.046
 4643SOL    HW214829   1.022   1.922   6.928
 4644SOL     OW14830   1.392   1.597   0.979
 4644SOL    HW114831   1.427   1.635   0.893
 4644SOL    HW214832   1.430   1.648   1.056
 4645SOL     OW14833   5.479   2.864   5.598
 4645SOL    HW114834   5.563   2.822   5.633
 4645SOL    HW214835   5.420   2.794   5.558
 4646SOL     OW14836   1.196   3.900   2.273
 4646SOL    HW114837   1.111   3.882   2.322
 4646SOL    HW214838   1.185   3.980   2.214
 4647SOL     OW14839   1.745   6.281   2.437
 4647SOL    HW114840   1.711   6.201   2.486
 4647SOL    HW214841   1.683   6.358   2.452
 4648SOL     OW14842   2.876   1.462   4.167
 4648SOL    HW114843   2.790   1.428   4.206
 4648SOL    HW214844   2.905   1.544   4.216
 4649SOL     OW14845   5.120   4.176   1.156
 4649SOL    HW114846   5.178   4.203   1.079
 4649SOL    HW214847   5.040   4.126   1.122
 4650SOL     OW14848   3.571   4.429   0.358
 4650SOL    HW114849   3.495   4.381   0.313
 4650SOL    HW214850   3.547   4.449   0.453
 4651SOL     OW14851   1.566   3.404   0.402
 4651SOL    HW114852   1.658   3.435   0.380
 4651SOL    HW214853   1.505   3.483   0.412
 4652SOL     OW14854   6.427   6.709   6.190
 4652SOL    HW114855   6.526   6.698   6.189
 4652SOL    HW214856   6.395   6.714   6.285
 4653SOL     OW14857   1.163   6.740   0.723
 4653SOL    HW114858   1.261   6.728   0.710
 4653SOL    HW214859   1.133   6.689   0.803
 4654SOL     OW14860   0.499   0.818   5.230
 4654SOL    HW114861   0.476   0.778   5.319
 4654SOL    HW214862   0.546   0.905   5.244
 4655SOL     OW14863   5.542   5.481   3.516
 4655SOL    HW114864   5.559   5.555   3.582
 4655SOL    HW214865   5.481   5.413   3.558
 4656SOL     OW14866   6.643   0.646   1.346
 4656SOL    HW114867   6.630   0.694   1.259
 4656SOL    HW214868   6.698   0.564   1.330
 4657SOL     OW14869   3.564   1.911   2.292
 4657SOL    HW114870   3.637   1.978   2.290
 4657SOL    HW214871   3.570   1.857   2.376
 4658SOL     OW14872   1.777   0.907   6.931
 4658SOL    HW114873   1.790   0.834   6.865
 4658SOL    HW214874   1.841   0.896   7.007
 4659SOL     OW14875   2.442   5.367   1.083
 4659SOL    HW114876   2.510   5.294   1.076
 4659SOL    HW214877   2.489   5.456   1.084
 4660SOL     OW14878   0.347   4.620   4.863
 4660SOL    HW114879   0.420   4.552   4.860
 4660SOL    HW214880   0.259   4.574   4.868
 4661SOL     OW14881   0.056   0.789   4.686
 4661SOL    HW114882   0.018   0.850   4.618
 4661SOL    HW214883   7.012   0.769   4.756
 4662SOL     OW14884   2.751   0.382   6.925
 4662SOL    HW114885   2.659   0.363   6.891
 4662SOL    HW214886   2.810   0.303   6.905
 4663SOL     OW14887   0.527   6.835   1.156
 4663SOL    HW114888   0.588   6.793   1.089
 4663SOL    HW214889   0.448   6.776   1.171
 4664SOL     OW14890   6.920   6.248   5.417
 4664SOL    HW114891   6.932   6.193   5.334
 4664SOL    HW214892   6.963   6.337   5.405
 4665SOL     OW14893   6.419   1.483   2.669
 4665SOL    HW114894   6.479   1.463   2.592
 4665SOL    HW214895   6.332   1.435   2.657
 4666SOL     OW14896   1.964   2.673   5.617
 4666SOL    HW114897   1.955   2.631   5.708
 4666SOL    HW214898   2.038   2.628   5.567
 4667SOL     OW14899   6.233   2.036   0.947
 4667SOL    HW114900   6.207   2.115   0.891
 4667SOL    HW214901   6.165   1.964   0.937
 4668SOL     OW14902   4.783   1.769   5.528
 4668SOL    HW114903   4.715   1.729   5.466
 4668SOL    HW214904   4.776   1.727   5.618
 4669SOL     OW14905   5.848   6.656   6.143
 4669SOL    HW114906   5.767   6.715   6.132
 4669SOL    HW214907   5.857   6.597   6.063
 4670SOL     OW14908   0.885   3.125   0.233
 4670SOL    HW114909   0.887   3.110   0.134
 4670SOL    HW214910   0.888   3.223   0.251
 4671SOL     OW14911   6.935   2.126   1.494
 4671SOL    HW114912   6.842   2.091   1.485
 4671SOL    HW214913   7.000   2.058   1.459
 4672SOL     OW14914   3.901   3.245   0.640
 4672SOL    HW114915   3.865   3.160   0.600
 4672SOL    HW214916   3.923   3.229   0.736
 4673SOL     OW14917   4.761   1.878   0.395
 4673SOL    HW114918   4.741   1.969   0.432
 4673SOL    HW214919   4.676   1.836   0.364
 4674SOL     OW14920   0.556   2.870   0.175
 4674SOL    HW114921   0.462   2.878   0.206
 4674SOL    HW214922   0.618   2.902   0.247
 4675SOL     OW14923   1.532   6.716   0.430
 4675SOL    HW114924   1.475   6.634   0.436
 4675SOL    HW214925   1.623   6.691   0.395
 4676SOL     OW14926   0.187   5.790   4.423
 4676SOL    HW114927   0.147   5.762   4.511
 4676SOL    HW214928   0.276   5.745   4.411
 4677SOL     OW14929   5.653   6.966   0.002
 4677SOL    HW114930   5.612   6.894   0.057
 4677SOL    HW214931   5.714   7.021   0.058
 4678SOL     OW14932   2.499   5.223   0.483
 4678SOL    HW114933   2.475   5.129   0.507
 4678SOL    HW214934   2.534   5.226   0.389
 4679SOL     OW14935   2.151   6.411   5.573
 4679SOL    HW114936   2.162   6.510   5.578
 4679SOL    HW214937   2.069   6.390   5.520
 4680SOL     OW14938   1.717   5.716   5.853
 4680SOL    HW114939   1.682   5.801   5.813
 4680SOL    HW214940   1.683   5.707   5.947
 4681SOL     OW14941   0.123   6.039   6.092
 4681SOL    HW114942   0.197   5.983   6.130
 4681SOL    HW214943   0.133   6.044   5.993
 4682SOL     OW14944   2.977   6.774   0.934
 4682SOL    HW114945   3.038   6.852   0.920
 4682SOL    HW214946   2.971   6.721   0.850
 4683SOL     OW14947   0.284   5.487   3.708
 4683SOL    HW114948   0.383   5.497   3.703
 4683SOL    HW214949   0.240   5.563   3.661
 4684SOL     OW14950   1.734   1.399   4.073
 4684SOL    HW114951   1.782   1.451   4.143
 4684SOL    HW214952   1.779   1.411   3.985
 4685SOL     OW14953   5.416   5.021   3.915
 4685SOL    HW114954   5.327   5.055   3.882
 4685SOL    HW214955   5.407   4.994   4.011
 4686SOL     OW14956   4.143   5.480   5.858
 4686SOL    HW114957   4.170   5.554   5.797
 4686SOL    HW214958   4.162   5.392   5.815
 4687SOL     OW14959   4.588   0.632   5.031
 4687SOL    HW114960   4.561   0.695   5.104
 4687SOL    HW214961   4.664   0.670   4.980
 4688SOL     OW14962   0.126   0.453   0.976
 4688SOL    HW114963   0.213   0.407   0.990
 4688SOL    HW214964   0.142   0.551   0.964
 4689SOL     OW14965   2.008   6.262   4.682
 4689SOL    HW114966   1.969   6.351   4.704
 4689SOL    HW214967   2.026   6.256   4.584
 4690SOL     OW14968   3.335   2.418   0.320
 4690SOL    HW114969   3.366   2.509   0.345
 4690SOL    HW214970   3.383   2.350   0.376
 4691SOL     OW14971   2.614   4.608   6.976
 4691SOL    HW114972   2.583   4.555   0.030
 4691SOL    HW214973   2.712   4.626   6.985
 4692SOL     OW14974   0.998   5.039   3.713
 4692SOL    HW114975   1.040   5.118   3.758
 4692SOL    HW214976   0.965   5.065   3.623
 4693SOL     OW14977   7.001   1.769   2.706
 4693SOL    HW114978   6.914   1.811   2.681
 4693SOL    HW214979   0.044   1.786   2.633
 4694SOL     OW14980   1.957   0.695   4.932
 4694SOL    HW114981   1.919   0.779   4.893
 4694SOL    HW214982   2.038   0.718   4.987
 4695SOL     OW14983   3.410   3.446   2.878
 4695SOL    HW114984   3.434   3.401   2.792
 4695SOL    HW214985   3.322   3.491   2.868
 4696SOL     OW14986   0.597   2.158   6.622
 4696SOL    HW114987   0.501   2.186   6.615
 4696SOL    HW214988   0.608   2.101   6.704
 4697SOL     OW14989   0.913   5.086   6.804
 4697SOL    HW114990   0.959   5.166   6.842
 4697SOL    HW214991   0.815   5.106   6.793
 4698SOL     OW14992   5.967   3.095   2.152
 4698SOL    HW114993   5.882   3.047   2.131
 4698SOL    HW214994   5.957   3.191   2.129
 4699SOL     OW14995   6.554   0.725   3.242
 4699SOL    HW114996   6.617   0.795   3.276
 4699SOL    HW214997   6.605   0.644   3.216
 4700SOL     OW14998   5.339   6.839   4.884
 4700SOL    HW114999   5.397   6.867   4.808
 4700SOL    HW215000   5.244   6.859   4.863
 4701SOL     OW15001   2.538   1.347   5.787
 4701SOL    HW115002   2.604   1.272   5.777
 4701SOL    HW215003   2.578   1.432   5.752
 4702SOL     OW15004   3.514   3.402   0.560
 4702SOL    HW115005   3.580   3.355   0.502
 4702SOL    HW215006   3.448   3.336   0.596
 4703SOL     OW15007   0.951   6.550   1.649
 4703SOL    HW115008   0.965   6.457   1.616
 4703SOL    HW215009   0.983   6.557   1.743
 4704SOL     OW15010   4.678   7.008   6.052
 4704SOL    HW115011   4.737   0.042   5.997
 4704SOL    HW215012   4.662   0.027   6.141
 4705SOL     OW15013   3.079   3.082   5.141
 4705SOL    HW115014   3.020   3.143   5.194
 4705SOL    HW215015   3.069   2.989   5.174
 4706SOL     OW15016   5.541   3.071   0.641
 4706SOL    HW115017   5.614   3.007   0.615
 4706SOL    HW215018   5.569   3.164   0.618
 4707SOL     OW15019   2.887   3.808   1.613
 4707SOL    HW115020   2.882   3.838   1.518
 4707SOL    HW215021   2.806   3.753   1.634
 4708SOL     OW15022   2.278   2.482   2.233
 4708SOL    HW115023   2.303   2.420   2.308
 4708SOL    HW215024   2.301   2.439   2.146
 4709SOL     OW15025   2.703   4.022   0.565
 4709SOL    HW115026   2.763   4.028   0.485
 4709SOL    HW215027   2.666   4.112   0.586
 4710SOL     OW15028   4.399   2.303   1.398
 4710SOL    HW115029   4.307   2.303   1.436
 4710SOL    HW215030   4.464   2.268   1.466
 4711SOL     OW15031   2.496   0.524   3.118
 4711SOL    HW115032   2.435   0.447   3.137
 4711SOL    HW215033   2.457   0.581   3.046
 4712SOL     OW15034   1.436   3.353   6.850
 4712SOL    HW115035   1.415   3.358   6.752
 4712SOL    HW215036   1.364   3.301   6.897
 4713SOL     OW15037   0.600   6.085   0.764
 4713SOL    HW115038   0.534   6.046   0.699
 4713SOL    HW215039   0.573   6.061   0.857
 4714SOL     OW15040   4.138   1.651   0.778
 4714SOL    HW115041   4.216   1.590   0.789
 4714SOL    HW215042   4.160   1.721   0.710
 4715SOL     OW15043   5.271   3.848   5.244
 4715SOL    HW115044   5.302   3.765   5.197
 4715SOL    HW215045   5.313   3.852   5.335
 4716SOL     OW15046   1.858   5.629   6.622
 4716SOL    HW115047   1.769   5.648   6.663
 4716SOL    HW215048   1.851   5.549   6.563
 4717SOL     OW15049   2.041   5.032   5.209
 4717SOL    HW115050   1.991   4.949   5.183
 4717SOL    HW215051   2.138   5.019   5.190
 4718SOL     OW15052   5.128   0.113   0.023
 4718SOL    HW115053   5.201   0.107   0.092
 4718SOL    HW215054   5.097   0.021   7.023
 4719SOL     OW15055   4.141   2.813   1.042
 4719SOL    HW115056   4.161   2.716   1.055
 4719SOL    HW215057   4.196   2.867   1.105
 4720SOL     OW15058   2.460   1.760   3.581
 4720SOL    HW115059   2.464   1.708   3.666
 4720SOL    HW215060   2.419   1.703   3.509
 4721SOL     OW15061   1.760   1.507   1.769
 4721SOL    HW115062   1.820   1.581   1.738
 4721SOL    HW215063   1.680   1.503   1.710
 4722SOL     OW15064   2.036   0.949   2.191
 4722SOL    HW115065   2.026   0.991   2.282
 4722SOL    HW215066   1.957   0.891   2.172
 4723SOL     OW15067   2.951   0.902   5.713
 4723SOL    HW115068   2.981   0.993   5.739
 4723SOL    HW215069   2.935   0.899   5.614
 4724SOL     OW15070   3.764   5.330   0.878
 4724SOL    HW115071   3.804   5.420   0.897
 4724SOL    HW215072   3.836   5.265   0.857
 4725SOL     OW15073   6.245   4.892   2.749
 4725SOL    HW115074   6.267   4.888   2.652
 4725SOL    HW215075   6.151   4.862   2.764
 4726SOL     OW15076   6.297   6.984   3.917
 4726SOL    HW115077   6.318   0.039   3.973
 4726SOL    HW215078   6.344   6.992   3.829
 4727SOL     OW15079   4.906   6.507   1.672
 4727SOL    HW115080   4.827   6.471   1.723
 4727SOL    HW215081   4.875   6.550   1.588
 4728SOL     OW15082   6.716   6.266   6.708
 4728SOL    HW115083   6.742   6.223   6.795
 4728SOL    HW215084   6.692   6.362   6.725
 4729SOL     OW15085   3.355   0.479   1.320
 4729SOL    HW115086   3.341   0.567   1.367
 4729SOL    HW215087   3.451   0.453   1.327
 4730SOL     OW15088   0.934   0.674   6.073
 4730SOL    HW115089   0.901   0.583   6.098
 4730SOL    HW215090   0.991   0.711   6.146
 4731SOL     OW15091   5.171   1.484   6.124
 4731SOL    HW115092   5.126   1.455   6.208
 4731SOL    HW215093   5.169   1.584   6.118
 4732SOL     OW15094   0.776   0.004   6.515
 4732SOL    HW115095   0.785   0.101   6.490
 4732SOL    HW215096   0.760   7.020   6.613
 4733SOL     OW15097   5.468   4.104   2.809
 4733SOL    HW115098   5.522   4.188   2.819
 4733SOL    HW215099   5.399   4.100   2.882
 4734SOL     OW15100   6.260   3.836   5.824
 4734SOL    HW115101   6.281   3.903   5.752
 4734SOL    HW215102   6.163   3.841   5.847
 4735SOL     OW15103   0.783   3.593   3.285
 4735SOL    HW115104   0.702   3.652   3.283
 4735SOL    HW215105   0.773   3.525   3.358
 4736SOL     OW15106   1.341   6.942   2.022
 4736SOL    HW115107   1.375   6.849   2.036
 4736SOL    HW215108   1.257   6.956   2.075
 4737SOL     OW15109   3.411   5.471   2.827
 4737SOL    HW115110   3.469   5.395   2.856
 4737SOL    HW215111   3.422   5.487   2.729
 4738SOL     OW15112   1.252   0.613   3.143
 4738SOL    HW115113   1.192   0.684   3.179
 4738SOL    HW215114   1.254   0.536   3.206
 4739SOL     OW15115   3.821   0.138   1.448
 4739SOL    HW115116   3.893   0.083   1.490
 4739SOL    HW215117   3.858   0.227   1.422
 4740SOL     OW15118   1.081   1.954   5.060
 4740SOL    HW115119   1.006   1.918   5.004
 4740SOL    HW215120   1.070   2.053   5.069
 4741SOL     OW15121   4.085   3.286   4.943
 4741SOL    HW115122   4.158   3.353   4.930
 4741SOL    HW215123   4.050   3.257   4.854
 4742SOL     OW15124   4.320   0.832   3.565
 4742SOL    HW115125   4.406   0.820   3.515
 4742SOL    HW215126   4.340   0.863   3.658
 4743SOL     OW15127   0.348   4.938   0.976
 4743SOL    HW115128   0.405   4.961   0.897
 4743SOL    HW215129   0.386   4.983   1.057
 4744SOL     OW15130   1.183   4.657   2.026
 4744SOL    HW115131   1.247   4.729   2.051
 4744SOL    HW215132   1.206   4.621   1.936
 4745SOL     OW15133   1.787   3.031   0.096
 4745SOL    HW115134   1.807   3.075   0.183
 4745SOL    HW215135   1.726   3.089   0.042
 4746SOL     OW15136   6.199   5.943   4.440
 4746SOL    HW115137   6.126   6.010   4.429
 4746SOL    HW215138   6.172   5.876   4.509
 4747SOL     OW15139   4.513   0.558   0.629
 4747SOL    HW115140   4.451   0.530   0.702
 4747SOL    HW215141   4.563   0.640   0.656
 4748SOL     OW15142   2.263   6.850   3.668
 4748SOL    HW115143   2.310   6.762   3.663
 4748SOL    HW215144   2.325   6.919   3.704
 4749SOL     OW15145   2.867   1.514   1.348
 4749SOL    HW115146   2.910   1.576   1.415
 4749SOL    HW215147   2.794   1.563   1.300
 4750SOL     OW15148   5.692   2.862   6.068
 4750SOL    HW115149   5.597   2.868   6.039
 4750SOL    HW215150   5.709   2.928   6.141
 4751SOL     OW15151   3.509   1.728   2.495
 4751SOL    HW115152   3.461   1.713   2.409
 4751SOL    HW215153   3.458   1.684   2.569
 4752SOL     OW15154   6.353   6.566   6.643
 4752SOL    HW115155   6.298   6.556   6.726
 4752SOL    HW215156   6.356   6.479   6.594
 4753SOL     OW15157   3.240   5.776   5.324
 4753SOL    HW115158   3.194   5.750   5.409
 4753SOL    HW215159   3.279   5.694   5.281
 4754SOL     OW15160   6.015   4.920   0.384
 4754SOL    HW115161   5.976   4.829   0.397
 4754SOL    HW215162   6.106   4.912   0.344
 4755SOL     OW15163   6.570   0.945   2.242
 4755SOL    HW115164   6.530   0.917   2.155
 4755SOL    HW215165   6.657   0.991   2.224
 4756SOL     OW15166   0.128   3.776   4.800
 4756SOL    HW115167   0.221   3.768   4.765
 4756SOL    HW215168   0.066   3.721   4.745
 4757SOL     OW15169   2.316   3.749   1.315
 4757SOL    HW115170   2.386   3.754   1.244
 4757SOL    HW215171   2.360   3.751   1.405
 4758SOL     OW15172   2.026   5.145   2.008
 4758SOL    HW115173   2.125   5.147   1.992
 4758SOL    HW215174   2.005   5.073   2.075
 4759SOL     OW15175   0.663   6.587   3.137
 4759SOL    HW115176   0.691   6.494   3.161
 4759SOL    HW215177   0.677   6.647   3.216
 4760SOL     OW15178   0.919   0.918   2.546
 4760SOL    HW115179   1.002   0.875   2.510
 4760SOL    HW215180   0.846   0.909   2.479
 4761SOL     OW15181   4.184   5.863   2.155
 4761SOL    HW115182   4.184   5.913   2.242
 4761SOL    HW215183   4.270   5.879   2.107
 4762SOL     OW15184   0.503   0.996   2.807
 4762SOL    HW115185   0.569   0.934   2.765
 4762SOL    HW215186   0.489   1.075   2.747
 4763SOL     OW15187   4.935   4.139   1.598
 4763SOL    HW115188   5.020   4.145   1.546
 4763SOL    HW215189   4.866   4.090   1.545
 4764SOL     OW15190   4.415   3.119   6.615
 4764SOL    HW115191   4.320   3.138   6.591
 4764SOL    HW215192   4.422   3.028   6.658
 4765SOL     OW15193   3.562   1.488   5.606
 4765SOL    HW115194   3.599   1.489   5.513
 4765SOL    HW215195   3.516   1.575   5.625
 4766SOL     OW15196   1.224   0.848   2.905
 4766SOL    HW115197   1.227   0.934   2.855
 4766SOL    HW215198   1.317   0.816   2.923
 4767SOL     OW15199   2.678   5.072   2.322
 4767SOL    HW115200   2.774   5.055   2.304
 4767SOL    HW215201   2.668   5.116   2.412
 4768SOL     OW15202   4.430   2.279   6.185
 4768SOL    HW115203   4.346   2.312   6.143
 4768SOL    HW215204   4.415   2.266   6.283
 4769SOL     OW15205   3.332   2.882   0.434
 4769SOL    HW115206   3.384   2.883   0.520
 4769SOL    HW215207   3.239   2.913   0.451
 4770SOL     OW15208   0.050   1.871   3.822
 4770SOL    HW115209   0.140   1.888   3.862
 4770SOL    HW215210   0.032   1.772   3.821
 4771SOL     OW15211   3.057   1.339   4.001
 4771SOL    HW115212   3.018   1.259   3.955
 4771SOL    HW215213   2.985   1.386   4.052
 4772SOL     OW15214   3.232   5.195   2.628
 4772SOL    HW115215   3.249   5.096   2.628
 4772SOL    HW215216   3.164   5.217   2.699
 4773SOL     OW15217   3.427   5.617   3.794
 4773SOL    HW115218   3.362   5.580   3.728
 4773SOL    HW215219   3.479   5.691   3.751
 4774SOL     OW15220   6.862   3.971   0.823
 4774SOL    HW115221   6.913   3.887   0.808
 4774SOL    HW215222   6.924   4.050   0.817
 4775SOL     OW15223   5.263   4.993   4.161
 4775SOL    HW115224   5.335   5.007   4.229
 4775SOL    HW215225   5.230   5.082   4.129
 4776SOL     OW15226   6.764   1.859   5.348
 4776SOL    HW115227   6.766   1.759   5.344
 4776SOL    HW215228   6.792   1.889   5.439
 4777SOL     OW15229   0.857   6.476   3.397
 4777SOL    HW115230   0.820   6.437   3.314
 4777SOL    HW215231   0.863   6.406   3.468
 4778SOL     OW15232   1.181   0.649   1.091
 4778SOL    HW115233   1.223   0.581   1.151
 4778SOL    HW215234   1.123   0.603   1.024
 4779SOL     OW15235   4.739   2.075   4.736
 4779SOL    HW115236   4.781   2.001   4.788
 4779SOL    HW215237   4.639   2.069   4.743
 4780SOL     OW15238   5.069   2.982   4.329
 4780SOL    HW115239   5.047   2.910   4.262
 4780SOL    HW215240   5.022   3.066   4.302
 4781SOL     OW15241   2.966   5.095   1.085
 4781SOL    HW115242   2.952   5.023   1.153
 4781SOL    HW215243   3.064   5.116   1.079
 4782SOL     OW15244   0.861   0.150   3.006
 4782SOL    HW115245   0.837   0.187   2.916
 4782SOL    HW215246   0.955   0.176   3.029
 4783SOL     OW15247   1.099   4.039   6.860
 4783SOL    HW115248   1.016   4.091   6.839
 4783SOL    HW215249   1.074   3.948   6.893
 4784SOL     OW15250   6.389   2.689   6.688
 4784SOL    HW115251   6.478   2.645   6.695
 4784SOL    HW215252   6.362   2.694   6.592
 4785SOL     OW15253   0.368   1.300   4.510
 4785SOL    HW115254   0.416   1.381   4.543
 4785SOL    HW215255   0.397   1.280   4.416
 4786SOL     OW15256   1.442   6.439   0.467
 4786SOL    HW115257   1.537   6.438   0.437
 4786SOL    HW215258   1.397   6.354   0.438
 4787SOL     OW15259   4.338   1.469   5.518
 4787SOL    HW115260   4.374   1.449   5.609
 4787SOL    HW215261   4.253   1.521   5.526
 4788SOL     OW15262   6.793   5.726   0.901
 4788SOL    HW115263   6.876   5.674   0.884
 4788SOL    HW215264   6.740   5.733   0.817
 4789SOL     OW15265   5.326   1.008   1.409
 4789SOL    HW115266   5.351   1.082   1.348
 4789SOL    HW215267   5.304   0.926   1.356
 4790SOL     OW15268   6.988   2.425   6.621
 4790SOL    HW115269   7.012   2.344   6.567
 4790SOL    HW215270   0.017   2.503   6.589
 4791SOL     OW15271   0.892   0.703   6.775
 4791SOL    HW115272   0.990   0.701   6.754
 4791SOL    HW215273   0.840   0.683   6.693
 4792SOL     OW15274   0.600   4.421   1.750
 4792SOL    HW115275   0.537   4.409   1.673
 4792SOL    HW215276   0.587   4.512   1.790
 4793SOL     OW15277   1.408   2.834   5.476
 4793SOL    HW115278   1.507   2.819   5.481
 4793SOL    HW215279   1.377   2.881   5.558
 4794SOL     OW15280   5.654   0.991   6.671
 4794SOL    HW115281   5.638   1.064   6.605
 4794SOL    HW215282   5.585   0.920   6.661
 4795SOL     OW15283   0.276   6.579   6.964
 4795SOL    HW115284   0.272   6.678   6.952
 4795SOL    HW215285   0.212   6.551   0.011
 4796SOL     OW15286   5.665   1.818   5.635
 4796SOL    HW115287   5.629   1.826   5.542
 4796SOL    HW215288   5.629   1.736   5.679
 4797SOL     OW15289   2.987   5.103   5.097
 4797SOL    HW115290   3.001   5.185   5.154
 4797SOL    HW215291   2.933   5.036   5.148
 4798SOL     OW15292   3.685   6.221   6.553
 4798SOL    HW115293   3.644   6.208   6.643
 4798SOL    HW215294   3.750   6.297   6.556
 4799SOL     OW15295   4.473   3.604   1.190
 4799SOL    HW115296   4.568   3.631   1.202
 4799SOL    HW215297   4.463   3.507   1.211
 4800SOL     OW15298   1.023   4.460   6.953
 4800SOL    HW115299   1.066   4.497   0.011
 4800SOL    HW215300   1.052   4.366   6.939
 4801SOL     OW15301   4.873   3.203   3.513
 4801SOL    HW115302   4.892   3.162   3.603
 4801SOL    HW215303   4.865   3.130   3.445
 4802SOL     OW15304   6.650   0.681   4.619
 4802SOL    HW115305   6.709   0.685   4.539
 4802SOL    HW215306   6.556   0.704   4.593
 4803SOL     OW15307   5.480   3.537   5.969
 4803SOL    HW115308   5.447   3.451   6.007
 4803SOL    HW215309   5.580   3.535   5.964
 4804SOL     OW15310   5.908   2.859   1.150
 4804SOL    HW115311   5.948   2.884   1.061
 4804SOL    HW215312   5.979   2.863   1.220
 4805SOL     OW15313   6.111   0.367   5.332
 4805SOL    HW115314   6.026   0.368   5.383
 4805SOL    HW215315   6.092   0.346   5.236
 4806SOL     OW15316   1.313   2.512   3.434
 4806SOL    HW115317   1.391   2.456   3.461
 4806SOL    HW215318   1.310   2.519   3.334
 4807SOL     OW15319   0.717   3.550   0.889
 4807SOL    HW115320   0.645   3.480   0.890
 4807SOL    HW215321   0.768   3.543   0.803
 4808SOL     OW15322   2.362   6.247   3.476
 4808SOL    HW115323   2.264   6.263   3.473
 4808SOL    HW215324   2.384   6.162   3.427
 4809SOL     OW15325   2.703   3.883   1.102
 4809SOL    HW115326   2.792   3.851   1.070
 4809SOL    HW215327   2.680   3.968   1.056
 4810SOL     OW15328   2.058   5.552   4.372
 4810SOL    HW115329   2.026   5.642   4.401
 4810SOL    HW215330   2.137   5.563   4.311
 4811SOL     OW15331   3.087   3.037   4.849
 4811SOL    HW115332   3.058   3.060   4.942
 4811SOL    HW215333   3.109   3.122   4.800
 4812SOL     OW15334   2.001   6.033   1.374
 4812SOL    HW115335   2.083   5.991   1.413
 4812SOL    HW215336   2.008   6.032   1.274
 4813SOL     OW15337   1.219   2.500   4.837
 4813SOL    HW115338   1.206   2.405   4.865
 4813SOL    HW215339   1.132   2.536   4.803
 4814SOL     OW15340   4.669   1.426   0.400
 4814SOL    HW115341   4.704   1.456   0.488
 4814SOL    HW215342   4.588   1.479   0.376
 4815SOL     OW15343   6.534   4.354   3.217
 4815SOL    HW115344   6.556   4.308   3.303
 4815SOL    HW215345   6.612   4.348   3.155
 4816SOL     OW15346   2.801   0.675   2.593
 4816SOL    HW115347   2.854   0.621   2.527
 4816SOL    HW215348   2.857   0.749   2.629
 4817SOL     OW15349   4.796   3.455   6.751
 4817SOL    HW115350   4.717   3.492   6.701
 4817SOL    HW215351   4.858   3.410   6.687
 4818SOL     OW15352   4.807   6.540   5.711
 4818SOL    HW115353   4.839   6.446   5.700
 4818SOL    HW215354   4.738   6.559   5.641
 4819SOL     OW15355   3.684   0.252   0.529
 4819SOL    HW115356   3.721   0.340   0.558
 4819SOL    HW215357   3.584   0.254   0.534
 4820SOL     OW15358   0.846   5.307   1.310
 4820SOL    HW115359   0.905   5.304   1.229
 4820SOL    HW215360   0.896   5.348   1.386
 4821SOL     OW15361   6.540   6.049   0.950
 4821SOL    HW115362   6.619   6.017   1.003
 4821SOL    HW215363   6.495   5.971   0.906
 4822SOL     OW15364   0.637   3.248   2.196
 4822SOL    HW115365   0.637   3.283   2.102
 4822SOL    HW215366   0.688   3.162   2.199
 4823SOL     OW15367   6.525   1.994   2.701
 4823SOL    HW115368   6.437   1.966   2.741
 4823SOL    HW215369   6.513   2.006   2.602
 4824SOL     OW15370   4.996   1.172   2.982
 4824SOL    HW115371   5.034   1.080   2.985
 4824SOL    HW215372   5.035   1.222   2.904
 4825SOL     OW15373   2.246   4.451   4.638
 4825SOL    HW115374   2.254   4.462   4.738
 4825SOL    HW215375   2.265   4.539   4.594
 4826SOL     OW15376   0.818   5.923   6.866
 4826SOL    HW115377   0.854   5.907   6.958
 4826SOL    HW215378   0.755   5.849   6.842
 4827SOL     OW15379   5.480   0.769   6.402
 4827SOL    HW115380   5.434   0.790   6.488
 4827SOL    HW215381   5.577   0.754   6.418
 4828SOL     OW15382   6.615   2.527   6.764
 4828SOL    HW115383   6.579   2.450   6.711
 4828SOL    HW215384   6.712   2.512   6.782
 4829SOL     OW15385   2.191   1.222   5.350
 4829SOL    HW115386   2.255   1.260   5.417
 4829SOL    HW215387   2.232   1.141   5.307
 4830SOL     OW15388   6.432   4.677   4.482
 4830SOL    HW115389   6.492   4.738   4.532
 4830SOL    HW215390   6.354   4.651   4.540
 4831SOL     OW15391   0.072   1.806   6.689
 4831SOL    HW115392   0.015   1.824   6.608
 4831SOL    HW215393   0.156   1.760   6.661
 4832SOL     OW15394   1.375   2.487   6.291
 4832SOL    HW115395   1.422   2.493   6.203
 4832SOL    HW215396   1.352   2.579   6.322
 4833SOL     OW15397   6.535   2.416   1.807
 4833SOL    HW115398   6.553   2.362   1.889
 4833SOL    HW215399   6.622   2.441   1.764
 4834SOL     OW15400   5.583   0.790   3.231
 4834SOL    HW115401   5.503   0.796   3.172
 4834SOL    HW215402   5.653   0.733   3.188
 4835SOL     OW15403   2.042   2.458   5.918
 4835SOL    HW115404   1.971   2.454   5.848
 4835SOL    HW215405   2.037   2.547   5.965
 4836SOL     OW15406   5.796   5.297   3.611
 4836SOL    HW115407   5.775   5.347   3.695
 4836SOL    HW215408   5.712   5.281   3.560
 4837SOL     OW15409   0.047   4.936   2.260
 4837SOL    HW115410   0.100   4.932   2.345
 4837SOL    HW215411   6.975   4.953   2.282
 4838SOL     OW15412   3.004   6.554   3.291
 4838SOL    HW115413   2.915   6.514   3.317
 4838SOL    HW215414   2.992   6.652   3.273
 4839SOL     OW15415   0.524   6.887   5.684
 4839SOL    HW115416   0.502   6.850   5.775
 4839SOL    HW215417   0.623   6.888   5.672
 4840SOL     OW15418   6.192   5.482   5.903
 4840SOL    HW115419   6.279   5.482   5.853
 4840SOL    HW215420   6.194   5.552   5.974
 4841SOL     OW15421   0.958   5.220   2.043
 4841SOL    HW115422   0.925   5.285   2.111
 4841SOL    HW215423   1.050   5.190   2.067
 4842SOL     OW15424   3.161   6.955   0.200
 4842SOL    HW115425   3.162   6.919   0.294
 4842SOL    HW215426   3.254   6.979   0.173
 4843SOL     OW15427   2.317   3.961   0.382
 4843SOL    HW115428   2.365   3.879   0.413
 4843SOL    HW215429   2.253   3.991   0.453
 4844SOL     OW15430   0.404   1.068   5.530
 4844SOL    HW115431   0.316   1.104   5.499
 4844SOL    HW215432   0.461   1.144   5.562
 4845SOL     OW15433   5.921   6.838   3.755
 4845SOL    HW115434   5.977   6.885   3.688
 4845SOL    HW215435   5.907   6.896   3.835
 4846SOL     OW15436   0.012   4.492   5.155
 4846SOL    HW115437   0.043   4.585   5.178
 4846SOL    HW215438   0.019   4.434   5.235
 4847SOL     OW15439   5.499   3.712   4.391
 4847SOL    HW115440   5.483   3.806   4.361
 4847SOL    HW215441   5.596   3.701   4.414
 4848SOL     OW15442   2.996   3.646   1.162
 4848SOL    HW115443   3.080   3.617   1.207
 4848SOL    HW215444   2.926   3.575   1.172
 4849SOL     OW15445   2.822   6.307   7.001
 4849SOL    HW115446   2.758   6.338   0.048
 4849SOL    HW215447   2.842   6.210   7.014
 4850SOL     OW15448   3.586   6.815   3.253
 4850SOL    HW115449   3.512   6.868   3.211
 4850SOL    HW215450   3.605   6.852   3.344
 4851SOL     OW15451   5.525   1.832   5.412
 4851SOL    HW115452   5.440   1.835   5.359
 4851SOL    HW215453   5.590   1.770   5.368
 4852SOL     OW15454   1.136   1.868   1.863
 4852SOL    HW115455   1.206   1.818   1.915
 4852SOL    HW215456   1.078   1.802   1.815
 4853SOL     OW15457   3.322   0.496   1.024
 4853SOL    HW115458   3.317   0.479   1.123
 4853SOL    HW215459   3.304   0.411   0.975
 4854SOL     OW15460   4.730   6.954   5.184
 4854SOL    HW115461   4.728   6.961   5.284
 4854SOL    HW215462   4.698   6.863   5.157
 4855SOL     OW15463   0.182   2.551   2.476
 4855SOL    HW115464   0.103   2.505   2.437
 4855SOL    HW215465   0.212   2.624   2.414
 4856SOL     OW15466   6.779   5.074   3.183
 4856SOL    HW115467   6.711   5.033   3.123
 4856SOL    HW215468   6.735   5.144   3.240
 4857SOL     OW15469   6.401   1.414   5.794
 4857SOL    HW115470   6.375   1.350   5.722
 4857SOL    HW215471   6.353   1.391   5.879
 4858SOL     OW15472   1.340   6.678   2.944
 4858SOL    HW115473   1.332   6.752   2.878
 4858SOL    HW215474   1.282   6.602   2.917
 4859SOL     OW15475   4.014   6.922   5.802
 4859SOL    HW115476   4.087   6.961   5.746
 4859SOL    HW215477   3.999   6.827   5.774
 4860SOL     OW15478   2.692   5.445   6.893
 4860SOL    HW115479   2.766   5.394   6.938
 4860SOL    HW215480   2.671   5.402   6.805
 4861SOL     OW15481   4.328   3.757   5.920
 4861SOL    HW115482   4.374   3.709   5.845
 4861SOL    HW215483   4.312   3.694   5.995
 4862SOL     OW15484   1.727   0.498   0.009
 4862SOL    HW115485   1.803   0.531   6.976
 4862SOL    HW215486   1.757   0.493   0.104
 4863SOL     OW15487   4.755   3.663   5.575
 4863SOL    HW115488   4.819   3.704   5.641
 4863SOL    HW215489   4.795   3.667   5.483
 4864SOL     OW15490   3.527   1.551   3.752
 4864SOL    HW115491   3.491   1.527   3.842
 4864SOL    HW215492   3.609   1.496   3.733
 4865SOL     OW15493   1.236   5.469   4.937
 4865SOL    HW115494   1.269   5.493   5.028
 4865SOL    HW215495   1.183   5.384   4.942
 4866SOL     OW15496   0.351   4.027   5.561
 4866SOL    HW115497   0.380   3.932   5.547
 4866SOL    HW215498   0.254   4.036   5.540
 4867SOL     OW15499   3.954   1.000   3.174
 4867SOL    HW115500   3.921   0.990   3.080
 4867SOL    HW215501   3.891   0.954   3.237
 4868SOL     OW15502   0.180   6.016   1.161
 4868SOL    HW115503   0.235   6.088   1.118
 4868SOL    HW215504   0.231   5.930   1.162
 4869SOL     OW15505   6.825   0.841   0.272
 4869SOL    HW115506   6.905   0.783   0.288
 4869SOL    HW215507   6.787   0.871   0.360
 4870SOL     OW15508   1.923   0.861   0.327
 4870SOL    HW115509   1.940   0.904   0.416
 4870SOL    HW215510   1.831   0.821   0.326
 4871SOL     OW15511   1.221   1.718   4.057
 4871SOL    HW115512   1.285   1.744   3.984
 4871SOL    HW215513   1.135   1.688   4.017
 4872SOL     OW15514   5.416   0.757   2.987
 4872SOL    HW115515   5.357   0.837   2.981
 4872SOL    HW215516   5.504   0.777   2.944
 4873SOL     OW15517   6.528   6.916   3.317
 4873SOL    HW115518   6.499   6.995   3.262
 4873SOL    HW215519   6.466   6.839   3.300
 4874SOL     OW15520   5.743   4.482   2.627
 4874SOL    HW115521   5.746   4.382   2.639
 4874SOL    HW215522   5.781   4.526   2.709
 4875SOL     OW15523   6.590   6.940   4.420
 4875SOL    HW115524   6.566   0.013   4.418
 4875SOL    HW215525   6.680   6.929   4.463
 4876SOL     OW15526   5.914   2.042   2.014
 4876SOL    HW115527   5.886   2.138   2.013
 4876SOL    HW215528   6.006   2.033   1.975
 4877SOL     OW15529   0.602   1.281   0.259
 4877SOL    HW115530   0.557   1.341   0.325
 4877SOL    HW215531   0.583   1.312   0.166
 4878SOL     OW15532   6.334   4.473   4.164
 4878SOL    HW115533   6.236   4.451   4.158
 4878SOL    HW215534   6.351   4.561   4.120
 4879SOL     OW15535   5.360   1.259   3.080
 4879SOL    HW115536   5.431   1.329   3.088
 4879SOL    HW215537   5.330   1.251   2.985
 4880SOL     OW15538   0.301   3.441   6.878
 4880SOL    HW115539   0.267   3.530   6.909
 4880SOL    HW215540   0.298   3.376   6.954
 4881SOL     OW15541   6.809   3.892   2.211
 4881SOL    HW115542   6.714   3.885   2.179
 4881SOL    HW215543   6.870   3.864   2.138
 4882SOL     OW15544   5.238   2.347   4.447
 4882SOL    HW115545   5.308   2.285   4.411
 4882SOL    HW215546   5.283   2.422   4.496
 4883SOL     OW15547   0.252   4.534   6.235
 4883SOL    HW115548   0.310   4.468   6.187
 4883SOL    HW215549   0.231   4.501   6.327
 4884SOL     OW15550   1.847   2.398   1.686
 4884SOL    HW115551   1.815   2.350   1.604
 4884SOL    HW215552   1.874   2.491   1.661
 4885SOL     OW15553   1.342   6.083   6.571
 4885SOL    HW115554   1.333   6.007   6.507
 4885SOL    HW215555   1.426   6.134   6.550
 4886SOL     OW15556   3.261   0.753   2.131
 4886SOL    HW115557   3.175   0.749   2.183
 4886SOL    HW215558   3.322   0.680   2.162
 4887SOL     OW15559   5.594   6.068   0.636
 4887SOL    HW115560   5.608   5.976   0.673
 4887SOL    HW215561   5.530   6.118   0.695
 4888SOL     OW15562   3.847   6.454   2.998
 4888SOL    HW115563   3.944   6.481   3.000
 4888SOL    HW215564   3.791   6.531   3.028
 4889SOL     OW15565   5.324   3.199   3.267
 4889SOL    HW115566   5.407   3.164   3.309
 4889SOL    HW215567   5.304   3.290   3.303
 4890SOL     OW15568   6.465   2.516   4.789
 4890SOL    HW115569   6.398   2.502   4.717
 4890SOL    HW215570   6.476   2.614   4.806
 4891SOL     OW15571   3.490   6.071   0.271
 4891SOL    HW115572   3.419   6.003   0.289
 4891SOL    HW215573   3.473   6.152   0.327
 4892SOL     OW15574   4.674   4.569   1.569
 4892SOL    HW115575   4.651   4.666   1.568
 4892SOL    HW215576   4.645   4.528   1.656
 4893SOL     OW15577   2.426   2.357   0.812
 4893SOL    HW115578   2.378   2.380   0.897
 4893SOL    HW215579   2.375   2.394   0.735
 4894SOL     OW15580   5.052   5.932   0.332
 4894SOL    HW115581   5.041   5.884   0.418
 4894SOL    HW215582   4.995   5.890   0.262
 4895SOL     OW15583   6.331   3.726   5.240
 4895SOL    HW115584   6.284   3.753   5.156
 4895SOL    HW215585   6.285   3.648   5.281
 4896SOL     OW15586   2.274   4.842   5.100
 4896SOL    HW115587   2.362   4.797   5.114
 4896SOL    HW215588   2.224   4.797   5.026
 4897SOL     OW15589   2.696   1.804   6.048
 4897SOL    HW115590   2.683   1.742   6.125
 4897SOL    HW215591   2.791   1.799   6.017
 4898SOL     OW15592   5.202   2.457   3.000
 4898SOL    HW115593   5.290   2.499   2.975
 4898SOL    HW215594   5.130   2.497   2.943
 4899SOL     OW15595   6.390   5.473   1.030
 4899SOL    HW115596   6.343   5.450   1.115
 4899SOL    HW215597   6.484   5.501   1.050
 4900SOL     OW15598   3.191   5.257   5.841
 4900SOL    HW115599   3.092   5.250   5.857
 4900SOL    HW215600   3.230   5.323   5.905
 4901SOL     OW15601   2.396   0.588   6.456
 4901SOL    HW115602   2.394   0.517   6.385
 4901SOL    HW215603   2.433   0.550   6.541
 4902SOL     OW15604   1.934   0.333   5.776
 4902SOL    HW115605   1.892   0.252   5.737
 4902SOL    HW215606   1.865   0.405   5.785
 4903SOL     OW15607   5.199   3.456   3.294
 4903SOL    HW115608   5.104   3.429   3.279
 4903SOL    HW215609   5.205   3.556   3.291
 4904SOL     OW15610   2.739   0.357   2.301
 4904SOL    HW115611   2.651   0.405   2.313
 4904SOL    HW215612   2.742   0.278   2.361
 4905SOL     OW15613   2.126   1.288   1.187
 4905SOL    HW115614   2.169   1.302   1.276
 4905SOL    HW215615   2.094   1.376   1.151
 4906SOL     OW15616   5.370   3.686   5.013
 4906SOL    HW115617   5.390   3.637   4.928
 4906SOL    HW215618   5.441   3.664   5.081
 4907SOL     OW15619   4.786   2.062   0.811
 4907SOL    HW115620   4.793   2.121   0.891
 4907SOL    HW215621   4.849   1.985   0.821
 4908SOL     OW15622   2.643   6.410   0.148
 4908SOL    HW115623   2.561   6.462   0.124
 4908SOL    HW215624   2.663   6.423   0.245
 4909SOL     OW15625   5.163   6.635   5.066
 4909SOL    HW115626   5.131   6.726   5.090
 4909SOL    HW215627   5.249   6.615   5.114
 4910SOL     OW15628   4.204   1.999   6.660
 4910SOL    HW115629   4.285   2.056   6.671
 4910SOL    HW215630   4.230   1.913   6.615
 4911SOL     OW15631   6.181   4.691   3.807
 4911SOL    HW115632   6.171   4.791   3.816
 4911SOL    HW215633   6.202   4.668   3.712
 4912SOL     OW15634   5.877   3.495   4.383
 4912SOL    HW115635   5.924   3.526   4.300
 4912SOL    HW215636   5.945   3.462   4.449
 4913SOL     OW15637   1.336   3.968   5.780
 4913SOL    HW115638   1.407   3.900   5.798
 4913SOL    HW215639   1.278   3.977   5.861
 4914SOL     OW15640   2.784   6.836   4.388
 4914SOL    HW115641   2.791   6.915   4.327
 4914SOL    HW215642   2.867   6.781   4.382
 4915SOL     OW15643   4.856   6.988   4.622
 4915SOL    HW115644   4.824   0.001   4.535
 4915SOL    HW215645   4.842   0.031   4.694
 4916SOL     OW15646   5.915   3.174   3.774
 4916SOL    HW115647   5.962   3.116   3.840
 4916SOL    HW215648   5.917   3.269   3.806
 4917SOL     OW15649   5.013   6.225   6.580
 4917SOL    HW115650   5.051   6.189   6.665
 4917SOL    HW215651   4.952   6.157   6.539
 4918SOL     OW15652   4.544   6.179   4.460
 4918SOL    HW115653   4.489   6.245   4.511
 4918SOL    HW215654   4.500   6.158   4.373
 4919SOL     OW15655   4.820   3.675   1.801
 4919SOL    HW115656   4.859   3.649   1.889
 4919SOL    HW215657   4.754   3.605   1.772
 4920SOL     OW15658   6.421   1.118   5.808
 4920SOL    HW115659   6.437   1.115   5.709
 4920SOL    HW215660   6.323   1.115   5.826
 4921SOL     OW15661   6.095   1.216   2.113
 4921SOL    HW115662   6.192   1.192   2.115
 4921SOL    HW215663   6.061   1.206   2.020
 4922SOL     OW15664   4.239   0.044   5.718
 4922SOL    HW115665   4.311   0.058   5.786
 4922SOL    HW215666   4.268   6.999   5.652
 4923SOL     OW15667   4.080   1.300   2.179
 4923SOL    HW115668   4.000   1.313   2.238
 4923SOL    HW215669   4.067   1.219   2.123
 4924SOL     OW15670   3.255   1.986   4.343
 4924SOL    HW115671   3.183   2.028   4.287
 4924SOL    HW215672   3.315   1.932   4.284
 4925SOL     OW15673   5.258   0.156   3.762
 4925SOL    HW115674   5.264   0.084   3.831
 4925SOL    HW215675   5.243   0.244   3.807
 4926SOL     OW15676   4.636   2.739   1.917
 4926SOL    HW115677   4.600   2.685   1.993
 4926SOL    HW215678   4.656   2.832   1.949
 4927SOL     OW15679   1.838   2.093   0.672
 4927SOL    HW115680   1.796   2.006   0.645
 4927SOL    HW215681   1.769   2.152   0.713
 4928SOL     OW15682   0.601   1.992   1.648
 4928SOL    HW115683   0.564   2.026   1.734
 4928SOL    HW215684   0.641   1.901   1.661
 4929SOL     OW15685   6.389   0.239   5.352
 4929SOL    HW115686   6.303   0.290   5.365
 4929SOL    HW215687   6.408   0.230   5.255
 4930SOL     OW15688   5.000   5.622   2.438
 4930SOL    HW115689   5.064   5.625   2.361
 4930SOL    HW215690   4.933   5.550   2.423
 4931SOL     OW15691   4.173   0.292   0.944
 4931SOL    HW115692   4.153   0.288   1.042
 4931SOL    HW215693   4.089   0.277   0.892
 4932SOL     OW15694   3.753   4.156   4.595
 4932SOL    HW115695   3.762   4.254   4.576
 4932SOL    HW215696   3.708   4.143   4.683
 4933SOL     OW15697   1.945   0.937   5.131
 4933SOL    HW115698   1.902   0.987   5.206
 4933SOL    HW215699   1.876   0.909   5.065
 4934SOL     OW15700   1.856   0.109   2.789
 4934SOL    HW115701   1.910   0.159   2.723
 4934SOL    HW215702   1.903   0.024   2.814
 4935SOL     OW15703   6.376   0.411   4.492
 4935SOL    HW115704   6.323   0.363   4.562
 4935SOL    HW215705   6.473   0.408   4.517
 4936SOL     OW15706   4.764   2.370   0.609
 4936SOL    HW115707   4.788   2.321   0.525
 4936SOL    HW215708   4.716   2.308   0.671
 4937SOL     OW15709   3.508   2.824   5.254
 4937SOL    HW115710   3.599   2.861   5.232
 4937SOL    HW215711   3.461   2.799   5.169
 4938SOL     OW15712   2.577   4.911   6.567
 4938SOL    HW115713   2.574   5.004   6.531
 4938SOL    HW215714   2.491   4.864   6.546
 4939SOL     OW15715   5.107   2.565   6.633
 4939SOL    HW115716   5.165   2.639   6.668
 4939SOL    HW215717   5.021   2.564   6.684
 4940SOL     OW15718   0.976   6.034   2.953
 4940SOL    HW115719   0.877   6.045   2.942
 4940SOL    HW215720   0.998   6.027   3.050
 4941SOL     OW15721   6.816   0.555   0.032
 4941SOL    HW115722   6.864   0.550   6.968
 4941SOL    HW215723   6.871   0.608   0.097
 4942SOL     OW15724   5.196   2.508   6.384
 4942SOL    HW115725   5.106   2.491   6.345
 4942SOL    HW215726   5.189   2.517   6.483
 4943SOL     OW15727   6.680   3.247   1.081
 4943SOL    HW115728   6.735   3.224   1.000
 4943SOL    HW215729   6.595   3.291   1.052
 4944SOL     OW15730   2.104   3.257   2.342
 4944SOL    HW115731   2.152   3.171   2.323
 4944SOL    HW215732   2.144   3.330   2.287
 4945SOL     OW15733   6.523   5.686   4.171
 4945SOL    HW115734   6.522   5.734   4.084
 4945SOL    HW215735   6.586   5.608   4.166
 4946SOL     OW15736   6.595   4.942   3.005
 4946SOL    HW115737   6.641   4.853   3.010
 4946SOL    HW215738   6.520   4.944   3.070
 4947SOL     OW15739   5.613   6.854   0.401
 4947SOL    HW115740   5.542   6.906   0.448
 4947SOL    HW215741   5.585   6.838   0.306
 4948SOL     OW15742   2.371   1.026   2.357
 4948SOL    HW115743   2.423   1.014   2.273
 4948SOL    HW215744   2.427   1.074   2.425
 4949SOL     OW15745   5.527   2.314   5.698
 4949SOL    HW115746   5.597   2.383   5.714
 4949SOL    HW215747   5.542   2.235   5.757
 4950SOL     OW15748   3.843   5.597   3.958
 4950SOL    HW115749   3.815   5.600   3.863
 4950SOL    HW215750   3.768   5.626   4.017
 4951SOL     OW15751   4.304   2.294   4.028
 4951SOL    HW115752   4.301   2.369   4.094
 4951SOL    HW215753   4.397   2.258   4.023
 4952SOL     OW15754   5.880   5.421   4.240
 4952SOL    HW115755   5.945   5.365   4.292
 4952SOL    HW215756   5.915   5.515   4.235
 4953SOL     OW15757   1.208   5.346   1.824
 4953SOL    HW115758   1.194   5.252   1.857
 4953SOL    HW215759   1.288   5.348   1.764
 4954SOL     OW15760   0.659   6.600   5.665
 4954SOL    HW115761   0.684   6.685   5.620
 4954SOL    HW215762   0.615   6.539   5.598
 4955SOL     OW15763   1.329   0.260   2.073
 4955SOL    HW115764   1.348   0.164   2.051
 4955SOL    HW215765   1.416   0.309   2.085
 4956SOL     OW15766   6.048   5.557   2.511
 4956SOL    HW115767   5.970   5.528   2.567
 4956SOL    HW215768   6.122   5.586   2.571
 4957SOL     OW15769   1.304   5.364   4.448
 4957SOL    HW115770   1.343   5.384   4.537
 4957SOL    HW215771   1.374   5.375   4.377
 4958SOL     OW15772   6.232   6.102   0.300
 4958SOL    HW115773   6.304   6.099   0.370
 4958SOL    HW215774   6.265   6.055   0.217
 4959SOL     OW15775   0.781   2.331   0.073
 4959SOL    HW115776   0.729   2.415   0.086
 4959SOL    HW215777   0.755   2.289   7.010
 4960SOL     OW15778   4.267   6.723   5.366
 4960SOL    HW115779   4.263   6.625   5.351
 4960SOL    HW215780   4.316   6.767   5.290
 4961SOL     OW15781   6.109   6.881   4.916
 4961SOL    HW115782   6.161   6.963   4.892
 4961SOL    HW215783   6.055   6.899   4.998
 4962SOL     OW15784   5.917   2.410   2.260
 4962SOL    HW115785   5.898   2.442   2.167
 4962SOL    HW215786   5.956   2.485   2.314
 4963SOL     OW15787   0.928   4.764   2.022
 4963SOL    HW115788   0.871   4.682   2.037
 4963SOL    HW215789   1.024   4.742   2.038
 4964SOL     OW15790   4.242   1.214   4.087
 4964SOL    HW115791   4.259   1.116   4.079
 4964SOL    HW215792   4.250   1.257   3.997
 4965SOL     OW15793   0.053   5.398   5.087
 4965SOL    HW115794   0.033   5.485   5.132
 4965SOL    HW215795   0.144   5.367   5.115
 4966SOL     OW15796   4.731   5.658   6.333
 4966SOL    HW115797   4.829   5.645   6.320
 4966SOL    HW215798   4.682   5.577   6.301
 4967SOL     OW15799   5.420   0.822   6.687
 4967SOL    HW115800   5.466   0.746   6.732
 4967SOL    HW215801   5.323   0.821   6.711
 4968SOL     OW15802   5.476   3.068   6.838
 4968SOL    HW115803   5.446   3.109   6.924
 4968SOL    HW215804   5.399   3.063   6.775
 4969SOL     OW15805   0.885   0.608   1.611
 4969SOL    HW115806   0.789   0.613   1.639
 4969SOL    HW215807   0.919   0.515   1.625
 4970SOL     OW15808   1.881   2.128   6.175
 4970SOL    HW115809   1.961   2.129   6.116
 4970SOL    HW215810   1.900   2.178   6.260
 4971SOL     OW15811   6.243   5.863   3.375
 4971SOL    HW115812   6.302   5.788   3.342
 4971SOL    HW215813   6.154   5.826   3.402
 4972SOL     OW15814   2.323   2.182   4.231
 4972SOL    HW115815   2.362   2.091   4.220
 4972SOL    HW215816   2.319   2.228   4.142
 4973SOL     OW15817   4.236   5.817   2.842
 4973SOL    HW115818   4.253   5.810   2.744
 4973SOL    HW215819   4.323   5.816   2.891
 4974SOL     OW15820   3.728   0.225   6.067
 4974SOL    HW115821   3.752   0.128   6.072
 4974SOL    HW215822   3.642   0.234   6.015
 4975SOL     OW15823   4.139   6.137   6.998
 4975SOL    HW115824   4.086   6.193   0.038
 4975SOL    HW215825   4.155   6.047   0.014
 4976SOL     OW15826   2.967   1.005   5.029
 4976SOL    HW115827   3.052   1.012   4.977
 4976SOL    HW215828   2.913   1.088   5.015
 4977SOL     OW15829   3.747   2.899   1.633
 4977SOL    HW115830   3.680   2.973   1.640
 4977SOL    HW215831   3.807   2.901   1.713
 4978SOL     OW15832   5.961   4.110   6.159
 4978SOL    HW115833   5.952   4.100   6.060
 4978SOL    HW215834   6.032   4.178   6.180
 4979SOL     OW15835   1.391   1.764   3.864
 4979SOL    HW115836   1.393   1.684   3.804
 4979SOL    HW215837   1.352   1.842   3.814
 4980SOL     OW15838   2.470   5.187   2.180
 4980SOL    HW115839   2.476   5.285   2.159
 4980SOL    HW215840   2.558   5.155   2.215
 4981SOL     OW15841   5.264   5.947   5.919
 4981SOL    HW115842   5.312   5.988   5.997
 4981SOL    HW215843   5.325   5.947   5.839
 4982SOL     OW15844   3.096   1.510   6.721
 4982SOL    HW115845   3.044   1.535   6.639
 4982SOL    HW215846   3.096   1.587   6.785
 4983SOL     OW15847   0.186   1.899   4.248
 4983SOL    HW115848   0.112   1.836   4.225
 4983SOL    HW215849   0.197   1.903   4.348
 4984SOL     OW15850   5.276   5.459   4.254
 4984SOL    HW115851   5.268   5.553   4.220
 4984SOL    HW215852   5.357   5.416   4.214
 4985SOL     OW15853   5.830   3.768   1.465
 4985SOL    HW115854   5.899   3.697   1.471
 4985SOL    HW215855   5.745   3.735   1.507
 4986SOL     OW15856   3.123   5.331   3.594
 4986SOL    HW115857   3.217   5.355   3.572
 4986SOL    HW215858   3.120   5.240   3.633
 4987SOL     OW15859   1.860   2.554   0.048
 4987SOL    HW115860   1.927   2.516   7.009
 4987SOL    HW215861   1.831   2.644   0.015
 4988SOL     OW15862   2.149   1.876   4.638
 4988SOL    HW115863   2.086   1.950   4.615
 4988SOL    HW215864   2.154   1.865   4.737
 4989SOL     OW15865   6.939   0.695   1.165
 4989SOL    HW115866   6.942   0.707   1.066
 4989SOL    HW215867   6.939   0.597   1.187
 4990SOL     OW15868   2.368   1.986   6.764
 4990SOL    HW115869   2.429   2.061   6.736
 4990SOL    HW215870   2.273   2.016   6.756
 4991SOL     OW15871   2.535   2.094   5.831
 4991SOL    HW115872   2.584   2.123   5.750
 4991SOL    HW215873   2.548   2.161   5.904
 4992SOL     OW15874   4.602   0.269   4.740
 4992SOL    HW115875   4.558   0.317   4.664
 4992SOL    HW215876   4.696   0.246   4.715
 4993SOL     OW15877   1.190   6.603   4.352
 4993SOL    HW115878   1.220   6.588   4.258
 4993SOL    HW215879   1.231   6.687   4.388
 4994SOL     OW15880   6.810   6.641   2.861
 4994SOL    HW115881   6.713   6.617   2.865
 4994SOL    HW215882   6.862   6.579   2.919
 4995SOL     OW15883   6.348   3.121   4.982
 4995SOL    HW115884   6.302   3.186   4.921
 4995SOL    HW215885   6.349   3.031   4.940
 4996SOL     OW15886   0.846   1.172   3.775
 4996SOL    HW115887   0.915   1.200   3.709
 4996SOL    HW215888   0.884   1.176   3.867
 4997SOL     OW15889   6.756   2.358   3.507
 4997SOL    HW115890   6.680   2.369   3.571
 4997SOL    HW215891   6.797   2.448   3.489
 4998SOL     OW15892   1.012   5.658   5.209
 4998SOL    HW115893   0.944   5.619   5.271
 4998SOL    HW215894   0.978   5.653   5.115
 4999SOL     OW15895   6.588   4.558   1.134
 4999SOL    HW115896   6.616   4.634   1.193
 4999SOL    HW215897   6.490   4.542   1.145
 5000SOL     OW15898   5.854   5.691   3.781
 5000SOL    HW115899   5.878   5.664   3.688
 5000SOL    HW215900   5.760   5.665   3.800
 5001SOL     OW15901   4.968   3.911   5.381
 5001SOL    HW115902   4.980   3.951   5.290
 5001SOL    HW215903   4.955   3.812   5.373
 5002SOL     OW15904   1.306   2.639   1.423
 5002SOL    HW115905   1.233   2.617   1.489
 5002SOL    HW215906   1.351   2.724   1.451
 5003SOL     OW15907   5.610   6.161   4.516
 5003SOL    HW115908   5.602   6.199   4.608
 5003SOL    HW215909   5.584   6.064   4.518
 5004SOL     OW15910   1.953   5.083   6.374
 5004SOL    HW115911   1.920   4.996   6.410
 5004SOL    HW215912   2.051   5.076   6.353
 5005SOL     OW15913   5.013   1.762   6.787
 5005SOL    HW115914   5.040   1.826   6.859
 5005SOL    HW215915   5.082   1.691   6.778
 5006SOL     OW15916   4.144   5.409   1.920
 5006SOL    HW115917   4.223   5.465   1.944
 5006SOL    HW215918   4.111   5.435   1.829
 5007SOL     OW15919   3.204   0.505   4.739
 5007SOL    HW115920   3.131   0.546   4.683
 5007SOL    HW215921   3.284   0.488   4.681
 5008SOL     OW15922   5.951   1.749   4.005
 5008SOL    HW115923   5.958   1.653   4.034
 5008SOL    HW215924   6.035   1.798   4.029
 5009SOL     OW15925   3.419   6.583   2.368
 5009SOL    HW115926   3.483   6.520   2.325
 5009SOL    HW215927   3.325   6.559   2.342
 5010SOL     OW15928   3.326   3.996   6.255
 5010SOL    HW115929   3.345   3.990   6.353
 5010SOL    HW215930   3.240   4.046   6.241
 5011SOL     OW15931   0.745   2.277   5.051
 5011SOL    HW115932   0.763   2.178   5.053
 5011SOL    HW215933   0.778   2.319   5.135
 5012SOL     OW15934   6.153   1.734   6.968
 5012SOL    HW115935   6.154   1.776   6.878
 5012SOL    HW215936   6.087   1.659   6.970
 5013SOL     OW15937   4.783   1.680   5.200
 5013SOL    HW115938   4.724   1.754   5.230
 5013SOL    HW215939   4.751   1.645   5.112
 5014SOL     OW15940   1.254   4.771   6.416
 5014SOL    HW115941   1.202   4.823   6.484
 5014SOL    HW215942   1.250   4.818   6.328
 5015SOL     OW15943   4.736   2.457   4.042
 5015SOL    HW115944   4.674   2.395   4.091
 5015SOL    HW215945   4.689   2.494   3.962
 5016SOL     OW15946   1.859   5.652   1.239
 5016SOL    HW115947   1.832   5.731   1.294
 5016SOL    HW215948   1.954   5.629   1.258
 5017SOL     OW15949   6.641   1.143   1.571
 5017SOL    HW115950   6.679   1.222   1.523
 5017SOL    HW215951   6.716   1.083   1.600
 5018SOL     OW15952   5.708   5.445   4.439
 5018SOL    HW115953   5.747   5.513   4.501
 5018SOL    HW215954   5.767   5.437   4.358
 5019SOL     OW15955   2.957   5.749   4.891
 5019SOL    HW115956   3.015   5.699   4.827
 5019SOL    HW215957   2.884   5.796   4.841
 5020SOL     OW15958   4.907   5.120   0.286
 5020SOL    HW115959   4.960   5.094   0.205
 5020SOL    HW215960   4.885   5.038   0.340
 5021SOL     OW15961   2.623   4.972   5.027
 5021SOL    HW115962   2.552   4.908   5.056
 5021SOL    HW215963   2.699   4.969   5.092
 5022SOL     OW15964   1.565   2.666   6.511
 5022SOL    HW115965   1.657   2.662   6.549
 5022SOL    HW215966   1.502   2.702   6.580
 5023SOL     OW15967   6.468   3.565   3.883
 5023SOL    HW115968   6.439   3.500   3.813
 5023SOL    HW215969   6.558   3.601   3.859
 5024SOL     OW15970   5.227   4.120   5.727
 5024SOL    HW115971   5.306   4.069   5.761
 5024SOL    HW215972   5.146   4.096   5.781
 5025SOL     OW15973   6.232   6.632   4.894
 5025SOL    HW115974   6.326   6.652   4.920
 5025SOL    HW215975   6.178   6.716   4.898
 5026SOL     OW15976   1.052   5.784   2.491
 5026SOL    HW115977   1.103   5.843   2.428
 5026SOL    HW215978   0.982   5.838   2.537
 5027SOL     OW15979   1.245   5.526   2.742
 5027SOL    HW115980   1.262   5.619   2.774
 5027SOL    HW215981   1.276   5.461   2.812
 5028SOL     OW15982   0.262   6.627   2.372
 5028SOL    HW115983   0.241   6.709   2.319
 5028SOL    HW215984   0.203   6.624   2.454
 5029SOL     OW15985   5.520   1.258   3.790
 5029SOL    HW115986   5.438   1.263   3.735
 5029SOL    HW215987   5.572   1.343   3.782
 5030SOL     OW15988   1.582   5.951   0.692
 5030SOL    HW115989   1.540   6.023   0.638
 5030SOL    HW215990   1.647   5.992   0.757
 5031SOL     OW15991   5.368   0.276   7.000
 5031SOL    HW115992   5.303   0.200   7.001
 5031SOL    HW215993   5.324   0.359   0.011
 5032SOL     OW15994   1.659   5.545   3.067
 5032SOL    HW115995   1.746   5.539   3.116
 5032SOL    HW215996   1.636   5.640   3.050
 5033SOL     OW15997   1.197   4.703   4.831
 5033SOL    HW115998   1.144   4.685   4.914
 5033SOL    HW215999   1.271   4.636   4.823
 5034SOL     OW16000   0.913   2.379   5.887
 5034SOL    HW116001   1.005   2.396   5.923
 5034SOL    HW216002   0.873   2.300   5.934
 5035SOL     OW16003   6.813   4.532   0.980
 5035SOL    HW116004   6.894   4.493   1.022
 5035SOL    HW216005   6.741   4.544   1.049
 5036SOL     OW16006   0.754   1.415   2.180
 5036SOL    HW116007   0.744   1.316   2.195
 5036SOL    HW216008   0.664   1.454   2.158
 5037SOL     OW16009   5.646   4.052   0.758
 5037SOL    HW116010   5.602   4.002   0.683
 5037SOL    HW216011   5.657   3.992   0.836
 5038SOL     OW16012   2.953   5.453   5.848
 5038SOL    HW116013   2.861   5.468   5.885
 5038SOL    HW216014   2.954   5.473   5.750
 5039SOL     OW16015   0.957   1.824   3.828
 5039SOL    HW116016   1.004   1.880   3.896
 5039SOL    HW216017   0.864   1.806   3.858
 5040SOL     OW16018   1.964   2.975   6.187
 5040SOL    HW116019   1.880   3.016   6.152
 5040SOL    HW216020   1.960   2.968   6.286
 5041SOL     OW16021   0.504   5.601   0.016
 5041SOL    HW116022   0.508   5.510   7.000
 5041SOL    HW216023   0.588   5.619   0.068
 5042SOL     OW16024   5.916   1.089   6.023
 5042SOL    HW116025   5.896   1.183   6.050
 5042SOL    HW216026   5.863   1.066   5.941
 5043SOL     OW16027   5.398   5.941   3.897
 5043SOL    HW116028   5.376   6.005   3.970
 5043SOL    HW216029   5.323   5.876   3.885
 5044SOL     OW16030   0.494   4.173   2.776
 5044SOL    HW116031   0.435   4.115   2.832
 5044SOL    HW216032   0.586   4.174   2.815
 5045SOL     OW16033   5.141   3.454   5.341
 5045SOL    HW116034   5.240   3.460   5.345
 5045SOL    HW216035   5.107   3.513   5.267
 5046SOL     OW16036   4.255   3.065   5.632
 5046SOL    HW116037   4.155   3.057   5.628
 5046SOL    HW216038   4.297   2.982   5.595
 5047SOL     OW16039   6.639   1.707   1.368
 5047SOL    HW116040   6.719   1.707   1.428
 5047SOL    HW216041   6.624   1.800   1.333
 5048SOL     OW16042   5.521   4.578   6.713
 5048SOL    HW116043   5.617   4.559   6.734
 5048SOL    HW216044   5.484   4.505   6.656
 5049SOL     OW16045   0.707   0.684   6.966
 5049SOL    HW116046   0.770   0.677   6.888
 5049SOL    HW216047   0.735   0.620   0.013
 5050SOL     OW16048   0.975   3.866   0.897
 5050SOL    HW116049   1.009   3.929   0.967
 5050SOL    HW216050   1.013   3.775   0.912
 5051SOL     OW16051   2.438   3.885   5.685
 5051SOL    HW116052   2.520   3.870   5.741
 5051SOL    HW216053   2.435   3.980   5.655
 5052SOL     OW16054   6.616   2.618   1.167
 5052SOL    HW116055   6.561   2.541   1.135
 5052SOL    HW216056   6.605   2.629   1.265
 5053SOL     OW16057   0.514   3.976   1.016
 5053SOL    HW116058   0.578   3.915   0.970
 5053SOL    HW216059   0.545   4.071   1.003
 5054SOL     OW16060   4.442   5.555   4.415
 5054SOL    HW116061   4.375   5.582   4.484
 5054SOL    HW216062   4.395   5.540   4.328
 5055SOL     OW16063   0.888   0.054   4.090
 5055SOL    HW116064   0.883   6.990   4.042
 5055SOL    HW216065   0.803   0.070   4.140
 5056SOL     OW16066   2.985   1.191   6.994
 5056SOL    HW116067   3.012   1.280   0.008
 5056SOL    HW216068   2.889   1.173   7.017
 5057SOL     OW16069   0.552   3.688   3.320
 5057SOL    HW116070   0.491   3.707   3.243
 5057SOL    HW216071   0.513   3.614   3.376
 5058SOL     OW16072   3.739   1.993   6.854
 5058SOL    HW116073   3.734   1.922   6.783
 5058SOL    HW216074   3.824   2.044   6.844
 5059SOL     OW16075   5.344   2.566   2.624
 5059SOL    HW116076   5.383   2.538   2.711
 5059SOL    HW216077   5.292   2.490   2.585
 5060SOL     OW16078   0.563   3.154   5.647
 5060SOL    HW116079   0.499   3.228   5.669
 5060SOL    HW216080   0.656   3.190   5.646
 5061SOL     OW16081   4.370   2.522   6.388
 5061SOL    HW116082   4.354   2.583   6.466
 5061SOL    HW216083   4.460   2.543   6.348
 5062SOL     OW16084   5.569   1.720   3.244
 5062SOL    HW116085   5.543   1.817   3.245
 5062SOL    HW216086   5.663   1.710   3.277
 5063SOL     OW16087   0.290   0.802   0.657
 5063SOL    HW116088   0.330   0.734   0.718
 5063SOL    HW216089   0.274   0.887   0.707
 5064SOL     OW16090   6.991   5.108   0.516
 5064SOL    HW116091   6.936   5.075   0.439
 5064SOL    HW216092   7.008   5.032   0.579
 5065SOL     OW16093   0.667   1.893   1.999
 5065SOL    HW116094   0.612   1.965   2.039
 5065SOL    HW216095   0.764   1.914   2.011
 5066SOL     OW16096   0.711   5.314   3.523
 5066SOL    HW116097   0.724   5.395   3.580
 5066SOL    HW216098   0.714   5.232   3.580
 5067SOL     OW16099   4.253   2.912   0.776
 5067SOL    HW116100   4.182   2.867   0.722
 5067SOL    HW216101   4.273   2.857   0.858
 5068SOL     OW16102   1.529   6.151   1.024
 5068SOL    HW116103   1.546   6.052   1.017
 5068SOL    HW216104   1.546   6.194   0.936
 5069SOL     OW16105   4.205   4.611   6.462
 5069SOL    HW116106   4.175   4.588   6.554
 5069SOL    HW216107   4.169   4.701   6.437
 5070SOL     OW16108   0.954   3.473   6.480
 5070SOL    HW116109   0.885   3.544   6.484
 5070SOL    HW216110   0.917   3.391   6.436
 5071SOL     OW16111   1.491   6.453   3.140
 5071SOL    HW116112   1.529   6.361   3.151
 5071SOL    HW216113   1.433   6.475   3.218
 5072SOL     OW16114   0.585   2.388   2.447
 5072SOL    HW116115   0.642   2.461   2.485
 5072SOL    HW216116   0.511   2.367   2.512
 5073SOL     OW16117   2.063   1.638   4.548
 5073SOL    HW116118   2.024   1.587   4.625
 5073SOL    HW216119   2.083   1.731   4.578
 5074SOL     OW16120   3.140   1.961   1.427
 5074SOL    HW116121   3.123   1.968   1.526
 5074SOL    HW216122   3.178   2.047   1.394
 5075SOL     OW16123   6.014   2.163   6.861
 5075SOL    HW116124   6.053   2.192   6.948
 5075SOL    HW216125   6.074   2.094   6.819
 5076SOL     OW16126   6.842   1.843   5.986
 5076SOL    HW116127   6.875   1.755   6.020
 5076SOL    HW216128   6.911   1.883   5.925
 5077SOL     OW16129   1.248   5.568   4.105
 5077SOL    HW116130   1.293   5.652   4.133
 5077SOL    HW216131   1.236   5.508   4.184
 5078SOL     OW16132   5.768   1.923   2.461
 5078SOL    HW116133   5.765   1.848   2.528
 5078SOL    HW216134   5.731   2.006   2.503
 5079SOL     OW16135   1.915   3.842   5.752
 5079SOL    HW116136   1.926   3.743   5.752
 5079SOL    HW216137   1.959   3.881   5.833
 5080SOL     OW16138   6.574   6.229   6.460
 5080SOL    HW116139   6.483   6.263   6.485
 5080SOL    HW216140   6.636   6.240   6.538
 5081SOL     OW16141   4.072   4.342   6.390
 5081SOL    HW116142   4.158   4.389   6.409
 5081SOL    HW216143   4.076   4.303   6.298
 5082SOL     OW16144   5.646   0.232   3.121
 5082SOL    HW116145   5.597   0.217   3.207
 5082SOL    HW216146   5.625   0.324   3.087
 5083SOL     OW16147   0.386   0.807   3.595
 5083SOL    HW116148   0.394   0.858   3.510
 5083SOL    HW216149   0.385   0.709   3.576
 5084SOL     OW16150   3.787   5.071   5.454
 5084SOL    HW116151   3.755   4.985   5.494
 5084SOL    HW216152   3.869   5.055   5.399
 5085SOL     OW16153   1.249   3.156   6.452
 5085SOL    HW116154   1.166   3.125   6.498
 5085SOL    HW216155   1.230   3.171   6.355
 5086SOL     OW16156   0.851   4.185   2.193
 5086SOL    HW116157   0.946   4.158   2.208
 5086SOL    HW216158   0.840   4.218   2.099
 5087SOL     OW16159   6.380   5.326   1.739
 5087SOL    HW116160   6.344   5.347   1.648
 5087SOL    HW216161   6.452   5.257   1.731
 5088SOL     OW16162   4.552   4.718   2.632
 5088SOL    HW116163   4.560   4.665   2.548
 5088SOL    HW216164   4.642   4.725   2.676
 5089SOL     OW16165   4.147   5.860   6.242
 5089SOL    HW116166   4.067   5.918   6.229
 5089SOL    HW216167   4.189   5.881   6.331
 5090SOL     OW16168   2.330   6.295   4.658
 5090SOL    HW116169   2.233   6.290   4.684
 5090SOL    HW216170   2.386   6.306   4.740
 5091SOL     OW16171   5.955   5.475   4.681
 5091SOL    HW116172   5.875   5.531   4.698
 5091SOL    HW216173   5.927   5.379   4.673
 5092SOL     OW16174   3.537   2.990   4.665
 5092SOL    HW116175   3.440   2.979   4.687
 5092SOL    HW216176   3.551   2.971   4.568
 5093SOL     OW16177   3.171   2.039   3.070
 5093SOL    HW116178   3.162   1.943   3.099
 5093SOL    HW216179   3.235   2.043   2.993
 5094SOL     OW16180   1.876   4.466   4.745
 5094SOL    HW116181   1.953   4.404   4.757
 5094SOL    HW216182   1.790   4.416   4.759
 5095SOL     OW16183   6.039   2.757   3.164
 5095SOL    HW116184   6.068   2.756   3.069
 5095SOL    HW216185   6.026   2.664   3.196
 5096SOL     OW16186   6.448   3.256   5.184
 5096SOL    HW116187   6.472   3.348   5.151
 5096SOL    HW216188   6.419   3.200   5.106
 5097SOL     OW16189   0.822   0.060   5.987
 5097SOL    HW116190   0.774   0.086   5.904
 5097SOL    HW216191   0.919   0.084   5.979
 5098SOL     OW16192   2.578   1.533   0.437
 5098SOL    HW116193   2.637   1.482   0.500
 5098SOL    HW216194   2.509   1.471   0.399
 5099SOL     OW16195   1.738   5.610   1.861
 5099SOL    HW116196   1.773   5.664   1.937
 5099SOL    HW216197   1.779   5.519   1.862
 5100SOL     OW16198   6.903   3.258   1.539
 5100SOL    HW116199   6.963   3.331   1.572
 5100SOL    HW216200   6.839   3.296   1.471
 5101SOL     OW16201   4.532   1.678   6.332
 5101SOL    HW116202   4.577   1.640   6.251
 5101SOL    HW216203   4.467   1.748   6.304
 5102SOL     OW16204   5.858   4.925   5.414
 5102SOL    HW116205   5.793   4.862   5.456
 5102SOL    HW216206   5.837   5.018   5.443
 5103SOL     OW16207   0.321   6.972   5.094
 5103SOL    HW116208   0.277   0.005   5.024
 5103SOL    HW216209   0.377   6.902   5.049
 5104SOL     OW16210   3.510   3.074   4.138
 5104SOL    HW116211   3.465   3.109   4.220
 5104SOL    HW216212   3.441   3.039   4.075
 5105SOL     OW16213   4.568   2.142   6.488
 5105SOL    HW116214   4.589   2.120   6.583
 5105SOL    HW216215   4.484   2.197   6.484
 5106SOL     OW16216   4.397   0.193   0.833
 5106SOL    HW116217   4.312   0.236   0.865
 5106SOL    HW216218   4.474   0.254   0.853
 5107SOL     OW16219   6.213   4.590   0.013
 5107SOL    HW116220   6.294   4.621   0.062
 5107SOL    HW216221   6.197   4.493   0.032
 5108SOL     OW16222   4.403   4.232   0.423
 5108SOL    HW116223   4.365   4.244   0.331
 5108SOL    HW216224   4.415   4.321   0.465
 5109SOL     OW16225   0.742   2.550   2.105
 5109SOL    HW116226   0.658   2.587   2.146
 5109SOL    HW216227   0.790   2.494   2.172
 5110SOL     OW16228   3.707   6.954   4.765
 5110SOL    HW116229   3.746   6.871   4.724
 5110SOL    HW216230   3.774   0.003   4.763
 5111SOL     OW16231   2.571   6.505   6.402
 5111SOL    HW116232   2.498   6.568   6.427
 5111SOL    HW216233   2.659   6.551   6.411
 5112SOL     OW16234   0.631   3.384   2.463
 5112SOL    HW116235   0.722   3.418   2.485
 5112SOL    HW216236   0.622   3.374   2.364
 5113SOL     OW16237   2.942   4.854   1.310
 5113SOL    HW116238   3.003   4.883   1.383
 5113SOL    HW216239   2.879   4.784   1.345
 5114SOL     OW16240   4.647   4.212   1.180
 5114SOL    HW116241   4.598   4.262   1.108
 5114SOL    HW216242   4.582   4.155   1.230
 5115SOL     OW16243   1.503   3.965   0.372
 5115SOL    HW116244   1.420   4.017   0.391
 5115SOL    HW216245   1.486   3.868   0.388
 5116SOL     OW16246   0.916   5.973   6.031
 5116SOL    HW116247   0.839   5.957   6.093
 5116SOL    HW216248   0.915   6.069   6.001
 5117SOL     OW16249   0.696   4.016   4.225
 5117SOL    HW116250   0.736   3.926   4.214
 5117SOL    HW216251   0.601   4.007   4.254
 5118SOL     OW16252   4.866   5.526   0.852
 5118SOL    HW116253   4.935   5.482   0.796
 5118SOL    HW216254   4.888   5.512   0.949
 5119SOL     OW16255   4.871   1.468   6.866
 5119SOL    HW116256   4.891   1.565   6.874
 5119SOL    HW216257   4.938   1.425   6.805
 5120SOL     OW16258   5.190   6.141   0.230
 5120SOL    HW116259   5.173   6.162   0.134
 5120SOL    HW216260   5.135   6.063   0.258
 5121SOL     OW16261   2.212   3.693   6.849
 5121SOL    HW116262   2.225   3.600   6.813
 5121SOL    HW216263   2.183   3.688   6.944
 5122SOL     OW16264   5.021   5.560   3.521
 5122SOL    HW116265   5.096   5.624   3.538
 5122SOL    HW216266   5.003   5.508   3.605
 5123SOL     OW16267   4.859   2.405   1.476
 5123SOL    HW116268   4.914   2.351   1.539
 5123SOL    HW216269   4.798   2.465   1.528
 5124SOL     OW16270   0.439   6.210   4.292
 5124SOL    HW116271   0.489   6.148   4.232
 5124SOL    HW216272   0.497   6.289   4.313
 5125SOL     OW16273   4.932   3.096   3.765
 5125SOL    HW116274   5.030   3.109   3.778
 5125SOL    HW216275   4.916   3.018   3.705
 5126SOL     OW16276   3.206   0.713   2.503
 5126SOL    HW116277   3.174   0.706   2.408
 5126SOL    HW216278   3.204   0.623   2.546
 5127SOL     OW16279   2.274   5.947   1.003
 5127SOL    HW116280   2.264   5.927   0.906
 5127SOL    HW216281   2.308   5.866   1.051
 5128SOL     OW16282   3.835   0.132   2.005
 5128SOL    HW116283   3.806   0.227   2.021
 5128SOL    HW216284   3.783   0.094   1.929
 5129SOL     OW16285   5.733   5.995   6.993
 5129SOL    HW116286   5.787   6.067   6.948
 5129SOL    HW216287   5.764   5.984   0.063
 5130SOL     OW16288   5.807   4.873   1.865
 5130SOL    HW116289   5.802   4.828   1.955
 5130SOL    HW216290   5.827   4.970   1.877
 5131SOL     OW16291   1.927   2.299   2.248
 5131SOL    HW116292   1.982   2.235   2.193
 5131SOL    HW216293   1.830   2.273   2.240
 5132SOL     OW16294   2.837   6.485   6.341
 5132SOL    HW116295   2.934   6.464   6.330
 5132SOL    HW216296   2.784   6.400   6.340
 5133SOL     OW16297   4.211   5.130   5.070
 5133SOL    HW116298   4.248   5.081   4.991
 5133SOL    HW216299   4.229   5.228   5.061
 5134SOL     OW16300   0.646   2.854   6.933
 5134SOL    HW116301   0.603   2.866   7.023
 5134SOL    HW216302   0.582   2.809   6.871
 5135SOL     OW16303   6.129   1.737   2.650
 5135SOL    HW116304   6.180   1.738   2.564
 5135SOL    HW216305   6.106   1.643   2.674
 5136SOL     OW16306   3.581   1.608   0.067
 5136SOL    HW116307   3.605   1.560   0.151
 5136SOL    HW216308   3.623   1.699   0.067
 5137SOL     OW16309   4.009   3.643   0.169
 5137SOL    HW116310   4.051   3.679   0.086
 5137SOL    HW216311   3.986   3.718   0.230
 5138SOL     OW16312   2.292   2.550   6.174
 5138SOL    HW116313   2.313   2.538   6.077
 5138SOL    HW216314   2.195   2.572   6.185
 5139SOL     OW16315   0.281   6.796   3.701
 5139SOL    HW116316   0.257   6.873   3.642
 5139SOL    HW216317   0.271   6.823   3.797
 5140SOL     OW16318   3.228   3.456   2.619
 5140SOL    HW116319   3.215   3.384   2.687
 5140SOL    HW216320   3.260   3.416   2.533
 5141SOL     OW16321   1.857   3.085   5.587
 5141SOL    HW116322   1.896   3.099   5.678
 5141SOL    HW216323   1.924   3.043   5.527
 5142SOL     OW16324   5.054   2.921   1.082
 5142SOL    HW116325   4.959   2.888   1.079
 5142SOL    HW216326   5.074   2.952   1.175
 5143SOL     OW16327   0.098   5.295   6.713
 5143SOL    HW116328   0.172   5.244   6.758
 5143SOL    HW216329   0.017   5.237   6.707
 5144SOL     OW16330   2.221   1.534   5.107
 5144SOL    HW116331   2.191   1.440   5.127
 5144SOL    HW216332   2.236   1.544   5.009
 5145SOL     OW16333   3.669   4.916   6.668
 5145SOL    HW116334   3.647   5.009   6.700
 5145SOL    HW216335   3.587   4.860   6.671
 5146SOL     OW16336   3.562   5.264   1.253
 5146SOL    HW116337   3.571   5.187   1.316
 5146SOL    HW216338   3.540   5.230   1.162
 5147SOL     OW16339   0.612   5.703   5.795
 5147SOL    HW116340   0.599   5.674   5.700
 5147SOL    HW216341   0.667   5.786   5.798
 5148SOL     OW16342   0.116   0.716   1.569
 5148SOL    HW116343   0.182   0.780   1.530
 5148SOL    HW216344   0.026   0.731   1.528
 5149SOL     OW16345   6.220   0.274   4.673
 5149SOL    HW116346   6.131   0.272   4.627
 5149SOL    HW216347   6.206   0.277   4.772
 5150SOL     OW16348   2.567   5.128   6.091
 5150SOL    HW116349   2.534   5.198   6.155
 5150SOL    HW216350   2.493   5.103   6.029
 5151SOL     OW16351   5.075   6.826   6.057
 5151SOL    HW116352   5.012   6.811   5.981
 5151SOL    HW216353   5.092   6.924   6.067
 5152SOL     OW16354   0.458   4.919   6.842
 5152SOL    HW116355   0.435   4.875   6.755
 5152SOL    HW216356   0.424   4.862   6.917
 5153SOL     OW16357   2.794   3.495   1.252
 5153SOL    HW116358   2.794   3.467   1.348
 5153SOL    HW216359   2.704   3.476   1.212
 5154SOL     OW16360   1.514   3.822   5.368
 5154SOL    HW116361   1.418   3.848   5.372
 5154SOL    HW216362   1.550   3.812   5.461
 5155SOL     OW16363   4.073   0.437   2.380
 5155SOL    HW116364   4.138   0.372   2.340
 5155SOL    HW216365   4.097   0.529   2.351
 5156SOL     OW16366   5.680   3.590   5.617
 5156SOL    HW116367   5.709   3.546   5.702
 5156SOL    HW216368   5.580   3.589   5.611
 5157SOL     OW16369   0.140   2.895   4.004
 5157SOL    HW116370   0.178   2.802   4.009
 5157SOL    HW216371   0.214   2.961   3.991
 5158SOL     OW16372   3.523   1.065   1.926
 5158SOL    HW116373   3.442   1.066   1.984
 5158SOL    HW216374   3.502   1.109   1.839
 5159SOL     OW16375   1.735   3.975   4.892
 5159SOL    HW116376   1.672   3.922   4.949
 5159SOL    HW216377   1.818   3.994   4.945
 5160SOL     OW16378   2.626   2.460   3.089
 5160SOL    HW116379   2.550   2.397   3.071
 5160SOL    HW216380   2.691   2.416   3.151
 5161SOL     OW16381   1.335   2.162   0.083
 5161SOL    HW116382   1.331   2.257   0.115
 5161SOL    HW216383   1.281   2.153   7.024
 5162SOL     OW16384   6.032   5.829   5.042
 5162SOL    HW116385   6.104   5.814   5.110
 5162SOL    HW216386   6.030   5.752   4.978
 5163SOL     OW16387   6.106   3.442   0.767
 5163SOL    HW116388   6.133   3.487   0.852
 5163SOL    HW216389   6.008   3.453   0.753
 5164SOL     OW16390   6.655   6.496   5.457
 5164SOL    HW116391   6.750   6.518   5.435
 5164SOL    HW216392   6.637   6.516   5.553
 5165SOL     OW16393   5.772   4.787   4.863
 5165SOL    HW116394   5.721   4.706   4.891
 5165SOL    HW216395   5.857   4.793   4.915
 5166SOL     OW16396   6.941   0.647   2.917
 5166SOL    HW116397   6.943   0.553   2.882
 5166SOL    HW216398   6.924   0.645   3.016
 5167SOL     OW16399   2.114   0.061   4.744
 5167SOL    HW116400   2.045   7.022   4.708
 5167SOL    HW216401   2.080   0.155   4.736
 5168SOL     OW16402   3.080   1.500   2.116
 5168SOL    HW116403   3.110   1.413   2.078
 5168SOL    HW216404   3.014   1.543   2.054
 5169SOL     OW16405   3.580   5.854   6.349
 5169SOL    HW116406   3.515   5.787   6.312
 5169SOL    HW216407   3.631   5.896   6.274
 5170SOL     OW16408   4.039   4.798   4.459
 5170SOL    HW116409   4.091   4.878   4.489
 5170SOL    HW216410   4.043   4.727   4.530
 5171SOL     OW16411   2.416   4.320   5.761
 5171SOL    HW116412   2.502   4.351   5.802
 5171SOL    HW216413   2.433   4.239   5.705
 5172SOL     OW16414   1.942   3.318   6.332
 5172SOL    HW116415   1.909   3.235   6.288
 5172SOL    HW216416   1.924   3.396   6.272
 5173SOL     OW16417   0.799   2.465   4.842
 5173SOL    HW116418   0.846   2.410   4.773
 5173SOL    HW216419   0.778   2.408   4.921
 5174SOL     OW16420   3.085   5.161   6.753
 5174SOL    HW116421   3.092   5.156   6.653
 5174SOL    HW216422   3.051   5.251   6.779
 5175SOL     OW16423   1.118   5.364   0.313
 5175SOL    HW116424   1.202   5.320   0.280
 5175SOL    HW216425   1.088   5.319   0.397
 5176SOL     OW16426   6.062   3.474   6.732
 5176SOL    HW116427   6.064   3.499   6.635
 5176SOL    HW216428   5.967   3.458   6.760
 5177SOL     OW16429   4.688   5.200   0.133
 5177SOL    HW116430   4.766   5.186   0.194
 5177SOL    HW216431   4.607   5.157   0.173
 5178SOL     OW16432   3.042   4.530   0.674
 5178SOL    HW116433   3.062   4.576   0.587
 5178SOL    HW216434   3.119   4.470   0.698
 5179SOL     OW16435   2.550   5.787   5.344
 5179SOL    HW116436   2.533   5.839   5.427
 5179SOL    HW216437   2.473   5.726   5.326
 5180SOL     OW16438   4.902   1.476   5.994
 5180SOL    HW116439   4.955   1.505   5.915
 5180SOL    HW216440   4.906   1.546   6.065
 5181SOL     OW16441   2.838   6.501   2.839
 5181SOL    HW116442   2.799   6.413   2.869
 5181SOL    HW216443   2.802   6.523   2.748
 5182SOL     OW16444   4.827   3.877   0.645
 5182SOL    HW116445   4.753   3.942   0.661
 5182SOL    HW216446   4.793   3.784   0.656
 5183SOL     OW16447   2.803   0.901   3.205
 5183SOL    HW116448   2.721   0.843   3.209
 5183SOL    HW216449   2.782   0.984   3.152
 5184SOL     OW16450   0.642   2.068   3.314
 5184SOL    HW116451   0.708   2.140   3.294
 5184SOL    HW216452   0.685   1.998   3.372
 5185SOL     OW16453   4.764   0.773   1.852
 5185SOL    HW116454   4.823   0.726   1.787
 5185SOL    HW216455   4.690   0.713   1.880
 5186SOL     OW16456   5.537   3.386   6.785
 5186SOL    HW116457   5.586   3.450   6.844
 5186SOL    HW216458   5.570   3.293   6.802
 5187SOL     OW16459   4.879   4.617   4.463
 5187SOL    HW116460   4.872   4.636   4.561
 5187SOL    HW216461   4.870   4.703   4.412
 5188SOL     OW16462   0.849   0.799   3.458
 5188SOL    HW116463   0.852   0.832   3.363
 5188SOL    HW216464   0.942   0.778   3.488
 5189SOL     OW16465   4.949   5.368   5.728
 5189SOL    HW116466   4.904   5.279   5.736
 5189SOL    HW216467   4.941   5.418   5.814
 5190SOL     OW16468   1.640   1.591   2.355
 5190SOL    HW116469   1.672   1.516   2.297
 5190SOL    HW216470   1.606   1.665   2.297
 5191SOL     OW16471   5.325   1.592   2.452
 5191SOL    HW116472   5.410   1.561   2.411
 5191SOL    HW216473   5.263   1.514   2.464
 5192SOL     OW16474   6.525   4.137   2.590
 5192SOL    HW116475   6.546   4.207   2.658
 5192SOL    HW216476   6.601   4.128   2.526
 5193SOL     OW16477   3.759   4.878   3.413
 5193SOL    HW116478   3.857   4.864   3.424
 5193SOL    HW216479   3.718   4.896   3.503
 5194SOL     OW16480   5.357   0.355   0.491
 5194SOL    HW116481   5.416   0.349   0.410
 5194SOL    HW216482   5.409   0.394   0.567
 5195SOL     OW16483   0.226   4.841   5.021
 5195SOL    HW116484   0.185   4.817   5.109
 5195SOL    HW216485   0.268   4.760   4.980
 5196SOL     OW16486   1.468   3.289   3.160
 5196SOL    HW116487   1.405   3.282   3.082
 5196SOL    HW216488   1.466   3.203   3.211
 5197SOL     OW16489   3.033   6.513   5.447
 5197SOL    HW116490   3.027   6.414   5.437
 5197SOL    HW216491   3.018   6.557   5.358
 5198SOL     OW16492   4.332   1.262   6.435
 5198SOL    HW116493   4.335   1.165   6.459
 5198SOL    HW216494   4.369   1.275   6.343
 5199SOL     OW16495   0.874   6.316   3.706
 5199SOL    HW116496   0.817   6.237   3.728
 5199SOL    HW216497   0.892   6.368   3.789
 5200SOL     OW16498   5.875   6.492   5.923
 5200SOL    HW116499   5.950   6.513   5.860
 5200SOL    HW216500   5.787   6.511   5.879
 5201SOL     OW16501   6.796   3.798   5.668
 5201SOL    HW116502   6.763   3.804   5.573
 5201SOL    HW216503   6.825   3.705   5.687
 5202SOL     OW16504   3.529   3.205   6.112
 5202SOL    HW116505   3.500   3.157   6.029
 5202SOL    HW216506   3.629   3.211   6.114
 5203SOL     OW16507   0.142   6.772   4.928
 5203SOL    HW116508   0.115   6.868   4.923
 5203SOL    HW216509   0.100   6.721   4.853
 5204SOL     OW16510   1.893   0.415   2.147
 5204SOL    HW116511   1.875   0.436   2.243
 5204SOL    HW216512   1.947   0.331   2.141
 5205SOL     OW16513   5.886   6.723   1.520
 5205SOL    HW116514   5.978   6.698   1.553
 5205SOL    HW216515   5.849   6.648   1.465
 5206SOL     OW16516   1.031   4.637   5.033
 5206SOL    HW116517   1.008   4.540   5.033
 5206SOL    HW216518   1.020   4.674   5.125
 5207SOL     OW16519   4.452   1.570   5.051
 5207SOL    HW116520   4.398   1.488   5.066
 5207SOL    HW216521   4.425   1.641   5.117
 5208SOL     OW16522   6.855   1.246   0.891
 5208SOL    HW116523   6.831   1.172   0.827
 5208SOL    HW216524   6.863   1.208   0.983
 5209SOL     OW16525   4.273   5.733   2.582
 5209SOL    HW116526   4.349   5.723   2.518
 5209SOL    HW216527   4.228   5.645   2.594
 5210SOL     OW16528   6.462   4.050   2.196
 5210SOL    HW116529   6.407   4.083   2.273
 5210SOL    HW216530   6.465   4.119   2.124
 5211SOL     OW16531   4.928   3.082   4.565
 5211SOL    HW116532   5.001   3.041   4.510
 5211SOL    HW216533   4.856   3.015   4.580
 5212SOL     OW16534   6.912   4.169   0.481
 5212SOL    HW116535   6.849   4.207   0.549
 5212SOL    HW216536   6.959   4.244   0.434
 5213SOL     OW16537   3.288   2.898   4.714
 5213SOL    HW116538   3.334   2.818   4.753
 5213SOL    HW216539   3.220   2.932   4.779
 5214SOL     OW16540   6.005   3.154   5.172
 5214SOL    HW116541   6.094   3.154   5.216
 5214SOL    HW216542   6.000   3.231   5.107
 5215SOL     OW16543   0.339   4.225   5.211
 5215SOL    HW116544   0.304   4.311   5.248
 5215SOL    HW216545   0.269   4.154   5.216
 5216SOL     OW16546   0.622   4.004   0.201
 5216SOL    HW116547   0.621   3.906   0.220
 5216SOL    HW216548   0.582   4.054   0.278
 5217SOL     OW16549   3.096   0.551   1.720
 5217SOL    HW116550   3.089   0.549   1.820
 5217SOL    HW216551   3.025   0.492   1.681
 5218SOL     OW16552   6.542   6.495   0.483
 5218SOL    HW116553   6.561   6.481   0.580
 5218SOL    HW216554   6.466   6.560   0.474
 5219SOL     OW16555   4.093   1.766   4.508
 5219SOL    HW116556   4.102   1.817   4.423
 5219SOL    HW216557   4.015   1.802   4.560
 5220SOL     OW16558   2.385   4.936   4.714
 5220SOL    HW116559   2.419   4.850   4.677
 5220SOL    HW216560   2.462   4.997   4.733
 5221SOL     OW16561   4.135   0.088   0.485
 5221SOL    HW116562   4.045   0.049   0.467
 5221SOL    HW216563   4.162   0.068   0.580
 5222SOL     OW16564   5.658   1.982   1.831
 5222SOL    HW116565   5.604   1.898   1.838
 5222SOL    HW216566   5.699   2.003   1.920
 5223SOL     OW16567   0.069   1.409   0.804
 5223SOL    HW116568   6.995   1.429   0.803
 5223SOL    HW216569   0.084   1.311   0.800
 5224SOL     OW16570   2.692   1.130   4.952
 5224SOL    HW116571   2.668   1.188   4.875
 5224SOL    HW216572   2.674   1.179   5.038
 5225SOL     OW16573   6.771   3.881   5.934
 5225SOL    HW116574   6.771   3.820   5.855
 5225SOL    HW216575   6.709   3.958   5.918
 5226SOL     OW16576   0.636   0.440   4.296
 5226SOL    HW116577   0.650   0.536   4.319
 5226SOL    HW216578   0.716   0.405   4.247
 5227SOL     OW16579   2.658   2.822   6.329
 5227SOL    HW116580   2.587   2.883   6.364
 5227SOL    HW216581   2.741   2.832   6.384
 5228SOL     OW16582   0.178   2.438   6.171
 5228SOL    HW116583   0.173   2.457   6.073
 5228SOL    HW216584   0.248   2.495   6.212
 5229SOL     OW16585   3.860   1.658   1.564
 5229SOL    HW116586   3.939   1.653   1.626
 5229SOL    HW216587   3.878   1.603   1.483
 5230SOL     OW16588   5.454   1.045   2.207
 5230SOL    HW116589   5.507   0.968   2.171
 5230SOL    HW216590   5.513   1.125   2.217
 5231SOL     OW16591   6.750   4.139   2.425
 5231SOL    HW116592   6.725   4.204   2.353
 5231SOL    HW216593   6.775   4.051   2.384
 5232SOL     OW16594   2.387   1.275   6.174
 5232SOL    HW116595   2.312   1.339   6.192
 5232SOL    HW216596   2.463   1.323   6.132
 5233SOL     OW16597   2.426   0.087   4.040
 5233SOL    HW116598   2.496   0.154   4.064
 5233SOL    HW216599   2.351   0.093   4.106
 5234SOL     OW16600   3.526   2.592   6.213
 5234SOL    HW116601   3.601   2.528   6.228
 5234SOL    HW216602   3.556   2.685   6.236
 5235SOL     OW16603   2.298   2.852   1.692
 5235SOL    HW116604   2.384   2.802   1.704
 5235SOL    HW216605   2.305   2.942   1.735
 5236SOL     OW16606   2.573   5.089   1.718
 5236SOL    HW116607   2.577   5.085   1.618
 5236SOL    HW216608   2.545   4.999   1.753
 5237SOL     OW16609   0.812   1.509   1.484
 5237SOL    HW116610   0.750   1.431   1.482
 5237SOL    HW216611   0.796   1.566   1.404
 5238SOL     OW16612   5.814   1.709   3.386
 5238SOL    HW116613   5.808   1.808   3.401
 5238SOL    HW216614   5.847   1.665   3.469
 5239SOL     OW16615   2.427   3.438   0.191
 5239SOL    HW116616   2.507   3.419   0.133
 5239SOL    HW216617   2.435   3.385   0.276
 5240SOL     OW16618   1.497   3.634   4.617
 5240SOL    HW116619   1.580   3.578   4.623
 5240SOL    HW216620   1.521   3.728   4.596
 5241SOL     OW16621   2.293   5.094   2.716
 5241SOL    HW116622   2.263   5.002   2.691
 5241SOL    HW216623   2.243   5.124   2.798
 5242SOL     OW16624   4.659   6.143   5.739
 5242SOL    HW116625   4.739   6.185   5.695
 5242SOL    HW216626   4.681   6.048   5.764
 5243SOL     OW16627   2.344   5.556   3.879
 5243SOL    HW116628   2.357   5.600   3.791
 5243SOL    HW216629   2.420   5.577   3.939
 5244SOL     OW16630   5.871   6.778   6.405
 5244SOL    HW116631   5.872   6.770   6.305
 5244SOL    HW216632   5.854   6.688   6.445
 5245SOL     OW16633   3.156   4.068   2.141
 5245SOL    HW116634   3.058   4.081   2.156
 5245SOL    HW216635   3.174   4.059   2.044
 5246SOL     OW16636   6.894   2.713   5.750
 5246SOL    HW116637   6.899   2.809   5.723
 5246SOL    HW216638   6.870   2.707   5.847
 5247SOL     OW16639   4.643   1.270   4.622
 5247SOL    HW116640   4.561   1.291   4.676
 5247SOL    HW216641   4.714   1.233   4.682
 5248SOL     OW16642   4.093   1.548   2.310
 5248SOL    HW116643   4.081   1.452   2.282
 5248SOL    HW216644   4.163   1.591   2.254
 5249SOL     OW16645   0.932   5.402   2.242
 5249SOL    HW116646   1.014   5.370   2.291
 5249SOL    HW216647   0.851   5.370   2.290
 5250SOL     OW16648   1.325   5.351   6.976
 5250SOL    HW116649   1.404   5.349   6.914
 5250SOL    HW216650   1.241   5.345   6.922
 5251SOL     OW16651   2.437   4.244   6.717
 5251SOL    HW116652   2.366   4.226   6.786
 5251SOL    HW216653   2.469   4.338   6.726
 5252SOL     OW16654   4.059   5.776   4.110
 5252SOL    HW116655   3.979   5.828   4.140
 5252SOL    HW216656   4.043   5.740   4.018
 5253SOL     OW16657   0.520   6.437   3.412
 5253SOL    HW116658   0.452   6.475   3.475
 5253SOL    HW216659   0.572   6.512   3.370
 5254SOL     OW16660   4.615   6.149   2.258
 5254SOL    HW116661   4.547   6.215   2.288
 5254SOL    HW216662   4.689   6.197   2.211
 5255SOL     OW16663   0.685   1.535   6.175
 5255SOL    HW116664   0.587   1.513   6.167
 5255SOL    HW216665   0.734   1.455   6.210
 5256SOL     OW16666   3.761   1.752   2.654
 5256SOL    HW116667   3.842   1.714   2.609
 5256SOL    HW216668   3.683   1.748   2.591
 5257SOL     OW16669   6.032   0.983   6.810
 5257SOL    HW116670   5.949   1.037   6.818
 5257SOL    HW216671   6.097   1.010   6.882
 5258SOL     OW16672   5.796   2.236   5.432
 5258SOL    HW116673   5.707   2.217   5.471
 5258SOL    HW216674   5.845   2.302   5.489
 5259SOL     OW16675   4.806   6.411   4.770
 5259SOL    HW116676   4.795   6.341   4.699
 5259SOL    HW216677   4.853   6.490   4.731
 5260SOL     OW16678   2.026   7.008   2.513
 5260SOL    HW116679   2.005   6.917   2.550
 5260SOL    HW216680   2.124   7.013   2.492
 5261SOL     OW16681   0.058   5.258   0.132
 5261SOL    HW116682   0.044   5.357   0.141
 5261SOL    HW216683   0.156   5.239   0.135
 5262SOL     OW16684   1.319   1.758   2.020
 5262SOL    HW116685   1.298   1.709   2.104
 5262SOL    HW216686   1.415   1.742   1.994
 5263SOL     OW16687   6.809   5.857   1.933
 5263SOL    HW116688   6.824   5.903   2.020
 5263SOL    HW216689   6.719   5.881   1.896
 5264SOL     OW16690   5.995   2.591   2.734
 5264SOL    HW116691   6.018   2.586   2.637
 5264SOL    HW216692   6.001   2.499   2.774
 5265SOL     OW16693   1.634   6.024   5.878
 5265SOL    HW116694   1.695   6.095   5.843
 5265SOL    HW216695   1.644   6.017   5.977
 5266SOL     OW16696   0.773   6.924   6.823
 5266SOL    HW116697   0.712   6.927   6.902
 5266SOL    HW216698   0.864   6.957   6.850
 5267SOL     OW16699   6.517   1.244   4.872
 5267SOL    HW116700   6.499   1.146   4.869
 5267SOL    HW216701   6.604   1.264   4.827
 5268SOL     OW16702   5.562   0.540   5.321
 5268SOL    HW116703   5.569   0.633   5.357
 5268SOL    HW216704   5.476   0.499   5.350
 5269SOL     OW16705   1.927   0.317   4.122
 5269SOL    HW116706   1.926   0.298   4.024
 5269SOL    HW216707   1.984   0.250   4.169
 5270SOL     OW16708   1.595   1.634   6.528
 5270SOL    HW116709   1.686   1.597   6.510
 5270SOL    HW216710   1.538   1.564   6.570
 5271SOL     OW16711   1.392   6.894   6.010
 5271SOL    HW116712   1.360   6.888   5.915
 5271SOL    HW216713   1.319   6.865   6.072
 5272SOL     OW16714   4.012   0.291   6.025
 5272SOL    HW116715   4.036   0.278   6.121
 5272SOL    HW216716   3.922   0.250   6.008
 5273SOL     OW16717   1.973   1.310   3.115
 5273SOL    HW116718   1.992   1.364   3.197
 5273SOL    HW216719   1.906   1.239   3.137
 5274SOL     OW16720   6.152   4.455   1.518
 5274SOL    HW116721   6.066   4.410   1.494
 5274SOL    HW216722   6.229   4.406   1.476
 5275SOL     OW16723   5.611   6.925   6.364
 5275SOL    HW116724   5.603   7.012   6.413
 5275SOL    HW216725   5.693   6.876   6.395
 5276SOL     OW16726   2.605   6.730   1.357
 5276SOL    HW116727   2.702   6.712   1.336
 5276SOL    HW216728   2.597   6.820   1.399
 5277SOL     OW16729   1.484   2.875   1.473
 5277SOL    HW116730   1.574   2.852   1.435
 5277SOL    HW216731   1.496   2.912   1.566
 5278SOL     OW16732   4.034   3.222   5.196
 5278SOL    HW116733   4.042   3.247   5.099
 5278SOL    HW216734   4.109   3.161   5.220
 5279SOL     OW16735   1.307   0.084   2.881
 5279SOL    HW116736   1.376   0.047   2.943
 5279SOL    HW216737   1.255   0.156   2.928
 5280SOL     OW16738   3.820   0.681   3.627
 5280SOL    HW116739   3.830   0.602   3.688
 5280SOL    HW216740   3.908   0.704   3.587
 5281SOL     OW16741   7.001   3.007   3.559
 5281SOL    HW116742   6.991   2.946   3.480
 5281SOL    HW216743   0.070   3.044   3.561
 5282SOL     OW16744   4.929   1.982   1.422
 5282SOL    HW116745   4.987   2.050   1.378
 5282SOL    HW216746   4.859   1.951   1.357
 5283SOL     OW16747   5.841   5.205   5.461
 5283SOL    HW116748   5.923   5.238   5.414
 5283SOL    HW216749   5.761   5.220   5.403
 5284SOL     OW16750   5.456   2.669   3.886
 5284SOL    HW116751   5.519   2.612   3.939
 5284SOL    HW216752   5.396   2.720   3.948
 5285SOL     OW16753   4.577   5.151   2.341
 5285SOL    HW116754   4.540   5.119   2.254
 5285SOL    HW216755   4.601   5.248   2.334
 5286SOL     OW16756   1.599   4.873   2.178
 5286SOL    HW116757   1.577   4.779   2.154
 5286SOL    HW216758   1.664   4.910   2.112
 5287SOL     OW16759   6.733   0.895   3.323
 5287SOL    HW116760   6.748   0.879   3.421
 5287SOL    HW216761   6.739   0.993   3.305
 5288SOL     OW16762   3.989   0.922   0.490
 5288SOL    HW116763   3.984   0.825   0.467
 5288SOL    HW216764   3.941   0.939   0.576
 5289SOL     OW16765   1.743   0.095   1.642
 5289SOL    HW116766   1.809   0.025   1.615
 5289SOL    HW216767   1.693   0.126   1.562
 5290SOL     OW16768   5.382   6.653   6.604
 5290SOL    HW116769   5.347   6.697   6.521
 5290SOL    HW216770   5.323   6.678   6.681
 5291SOL     OW16771   1.009   5.044   1.208
 5291SOL    HW116772   0.975   5.094   1.288
 5291SOL    HW216773   1.109   5.045   1.208
 5292SOL     OW16774   5.482   1.410   1.034
 5292SOL    HW116775   5.475   1.318   1.073
 5292SOL    HW216776   5.483   1.404   0.934
 5293SOL     OW16777   1.983   1.208   3.818
 5293SOL    HW116778   1.897   1.235   3.775
 5293SOL    HW216779   1.969   1.196   3.917
 5294SOL     OW16780   3.500   2.137   6.986
 5294SOL    HW116781   3.584   2.120   6.934
 5294SOL    HW216782   3.516   2.116   0.058
 5295SOL     OW16783   6.746   2.441   3.924
 5295SOL    HW116784   6.781   2.465   4.014
 5295SOL    HW216785   6.725   2.344   3.921
 5296SOL     OW16786   0.276   4.349   6.497
 5296SOL    HW116787   0.370   4.385   6.502
 5296SOL    HW216788   0.227   4.375   6.580
 5297SOL     OW16789   0.912   2.413   2.294
 5297SOL    HW116790   0.858   2.338   2.334
 5297SOL    HW216791   1.007   2.404   2.323
 5298SOL     OW16792   1.385   3.266   2.134
 5298SOL    HW116793   1.347   3.255   2.226
 5298SOL    HW216794   1.370   3.360   2.103
 5299SOL     OW16795   3.761   0.174   6.878
 5299SOL    HW116796   3.734   0.269   6.894
 5299SOL    HW216797   3.785   0.161   6.782
 5300SOL     OW16798   0.137   4.900   4.611
 5300SOL    HW116799   0.235   4.902   4.631
 5300SOL    HW216800   0.105   4.806   4.611
 5301SOL     OW16801   5.602   6.803   5.837
 5301SOL    HW116802   5.520   6.861   5.847
 5301SOL    HW216803   5.645   6.792   5.927
 5302SOL     OW16804   6.990   3.844   3.054
 5302SOL    HW116805   6.918   3.909   3.029
 5302SOL    HW216806   7.023   3.798   2.972
 5303SOL     OW16807   2.551   4.803   2.274
 5303SOL    HW116808   2.591   4.885   2.313
 5303SOL    HW216809   2.615   4.763   2.208
 5304SOL     OW16810   5.794   2.356   6.363
 5304SOL    HW116811   5.728   2.291   6.401
 5304SOL    HW216812   5.874   2.361   6.422
 5305SOL     OW16813   3.906   1.686   5.180
 5305SOL    HW116814   3.879   1.736   5.098
 5305SOL    HW216815   3.824   1.660   5.232
 5306SOL     OW16816   2.012   6.472   3.648
 5306SOL    HW116817   2.101   6.456   3.691
 5306SOL    HW216818   1.978   6.563   3.674
 5307SOL     OW16819   5.110   6.925   6.432
 5307SOL    HW116820   5.033   6.878   6.388
 5307SOL    HW216821   5.195   6.880   6.405
 5308SOL     OW16822   6.101   1.269   0.654
 5308SOL    HW116823   6.121   1.187   0.600
 5308SOL    HW216824   6.180   1.291   0.711
 5309SOL     OW16825   3.448   4.198   6.629
 5309SOL    HW116826   3.530   4.183   6.685
 5309SOL    HW216827   3.475   4.233   6.539
 5310SOL     OW16828   4.974   2.473   0.262
 5310SOL    HW116829   5.067   2.503   0.238
 5310SOL    HW216830   4.947   2.515   0.348
 5311SOL     OW16831   6.760   5.853   6.999
 5311SOL    HW116832   6.737   5.948   6.976
 5311SOL    HW216833   6.859   5.842   6.999
 5312SOL     OW16834   0.749   3.983   1.944
 5312SOL    HW116835   0.724   3.933   1.861
 5312SOL    HW216836   0.786   4.072   1.919
 5313SOL     OW16837   1.148   6.286   6.063
 5313SOL    HW116838   1.158   6.385   6.053
 5313SOL    HW216839   1.104   6.248   5.982
 5314SOL     OW16840   4.803   4.453   1.166
 5314SOL    HW116841   4.893   4.445   1.208
 5314SOL    HW216842   4.770   4.362   1.139
 5315SOL     OW16843   5.253   0.529   3.033
 5315SOL    HW116844   5.295   0.441   3.053
 5315SOL    HW216845   5.324   0.594   3.005
 5316SOL     OW16846   5.325   5.219   5.027
 5316SOL    HW116847   5.271   5.295   4.991
 5316SOL    HW216848   5.420   5.229   4.998
 5317SOL     OW16849   0.469   4.432   1.511
 5317SOL    HW116850   0.381   4.387   1.529
 5317SOL    HW216851   0.453   4.525   1.480
 5318SOL     OW16852   0.069   2.549   3.088
 5318SOL    HW116853   0.094   2.512   3.178
 5318SOL    HW216854   0.091   2.482   3.017
 5319SOL     OW16855   2.612   6.008   2.259
 5319SOL    HW116856   2.579   6.087   2.310
 5319SOL    HW216857   2.711   6.015   2.247
 5320SOL     OW16858   6.418   1.553   0.767
 5320SOL    HW116859   6.413   1.633   0.827
 5320SOL    HW216860   6.363   1.479   0.806
 5321SOL     OW16861   2.273   5.585   0.010
 5321SOL    HW116862   2.312   5.595   6.943
 5321SOL    HW216863   2.176   5.610   0.008
 5322SOL     OW16864   2.823   6.220   6.504
 5322SOL    HW116865   2.886   6.194   6.577
 5322SOL    HW216866   2.731   6.228   6.541
 5323SOL     OW16867   6.439   3.736   0.221
 5323SOL    HW116868   6.523   3.763   0.267
 5323SOL    HW216869   6.425   3.637   0.231
 5324SOL     OW16870   4.041   3.105   2.448
 5324SOL    HW116871   4.081   3.189   2.413
 5324SOL    HW216872   4.112   3.047   2.488
 5325SOL     OW16873   3.331   6.780   5.374
 5325SOL    HW116874   3.323   6.681   5.370
 5325SOL    HW216875   3.291   6.821   5.292
 5326SOL     OW16876   5.418   0.856   3.786
 5326SOL    HW116877   5.477   0.857   3.705
 5326SOL    HW216878   5.395   0.761   3.808
 5327SOL     OW16879   6.409   5.927   3.623
 5327SOL    HW116880   6.331   5.918   3.561
 5327SOL    HW216881   6.452   6.017   3.610
 5328SOL     OW16882   2.336   4.879   5.760
 5328SOL    HW116883   2.387   4.905   5.678
 5328SOL    HW216884   2.276   4.802   5.740
 5329SOL     OW16885   0.592   6.835   5.269
 5329SOL    HW116886   0.616   6.794   5.181
 5329SOL    HW216887   0.675   6.864   5.316
 5330SOL     OW16888   4.358   3.788   0.436
 5330SOL    HW116889   4.277   3.736   0.411
 5330SOL    HW216890   4.365   3.793   0.536
 5331SOL     OW16891   6.183   0.668   6.950
 5331SOL    HW116892   6.163   0.571   6.945
 5331SOL    HW216893   6.204   0.703   6.859
 5332SOL     OW16894   0.998   3.296   6.700
 5332SOL    HW116895   0.914   3.306   6.755
 5332SOL    HW216896   1.011   3.378   6.644
 5333SOL     OW16897   0.294   6.807   3.987
 5333SOL    HW116898   0.388   6.793   4.016
 5333SOL    HW216899   0.246   6.864   4.055
 5334SOL     OW16900   3.422   6.020   0.614
 5334SOL    HW116901   3.443   6.013   0.711
 5334SOL    HW216902   3.462   5.942   0.566
 5335SOL     OW16903   6.800   4.848   1.782
 5335SOL    HW116904   6.894   4.815   1.789
 5335SOL    HW216905   6.750   4.789   1.718
 5336SOL     OW16906   1.746   3.175   6.163
 5336SOL    HW116907   1.657   3.157   6.204
 5336SOL    HW216908   1.735   3.232   6.081
 5337SOL     OW16909   6.385   1.848   0.756
 5337SOL    HW116910   6.408   1.934   0.711
 5337SOL    HW216911   6.363   1.866   0.852
 5338SOL     OW16912   6.852   2.372   1.192
 5338SOL    HW116913   6.918   2.406   1.259
 5338SOL    HW216914   6.786   2.444   1.171
 5339SOL     OW16915   5.058   3.491   2.263
 5339SOL    HW116916   5.119   3.550   2.210
 5339SOL    HW216917   5.101   3.402   2.275
 5340SOL     OW16918   5.703   3.929   1.010
 5340SOL    HW116919   5.798   3.959   1.023
 5340SOL    HW216920   5.642   3.986   1.064
 5341SOL     OW16921   4.785   4.821   3.488
 5341SOL    HW116922   4.804   4.906   3.439
 5341SOL    HW216923   4.794   4.744   3.426
 5342SOL     OW16924   6.364   5.117   4.709
 5342SOL    HW116925   6.398   5.175   4.783
 5342SOL    HW216926   6.434   5.050   4.684
 5343SOL     OW16927   4.487   3.335   1.253
 5343SOL    HW116928   4.567   3.281   1.229
 5343SOL    HW216929   4.404   3.285   1.229
 5344SOL     OW16930   6.493   1.892   6.874
 5344SOL    HW116931   6.556   1.873   6.799
 5344SOL    HW216932   6.498   1.818   6.942
 5345SOL     OW16933   3.808   0.923   6.839
 5345SOL    HW116934   3.800   0.999   6.904
 5345SOL    HW216935   3.870   0.854   6.877
 5346SOL     OW16936   2.157   6.009   3.205
 5346SOL    HW116937   2.101   6.090   3.225
 5346SOL    HW216938   2.254   6.034   3.209
 5347SOL     OW16939   6.348   2.733   5.250
 5347SOL    HW116940   6.269   2.785   5.282
 5347SOL    HW216941   6.318   2.642   5.223
 5348SOL     OW16942   5.685   2.743   5.220
 5348SOL    HW116943   5.587   2.752   5.206
 5348SOL    HW216944   5.731   2.826   5.188
 5349SOL     OW16945   1.076   3.720   0.361
 5349SOL    HW116946   1.099   3.810   0.324
 5349SOL    HW216947   1.102   3.649   0.295
 5350SOL     OW16948   1.290   6.821   6.430
 5350SOL    HW116949   1.201   6.828   6.474
 5350SOL    HW216950   1.361   6.813   6.500
 5351SOL     OW16951   0.796   6.354   3.168
 5351SOL    HW116952   0.881   6.370   3.118
 5351SOL    HW216953   0.756   6.267   3.138
 5352SOL     OW16954   0.135   3.569   6.193
 5352SOL    HW116955   0.166   3.662   6.213
 5352SOL    HW216956   0.194   3.503   6.240
 5353SOL     OW16957   2.750   6.922   2.897
 5353SOL    HW116958   2.719   6.929   2.992
 5353SOL    HW216959   2.672   6.906   2.837
 5354SOL     OW16960   2.140   6.622   1.646
 5354SOL    HW116961   2.078   6.696   1.672
 5354SOL    HW216962   2.150   6.558   1.722
 5355SOL     OW16963   4.726   4.366   5.699
 5355SOL    HW116964   4.676   4.410   5.774
 5355SOL    HW216965   4.663   4.312   5.644
 5356SOL     OW16966   6.237   6.819   1.076
 5356SOL    HW116967   6.184   6.858   1.151
 5356SOL    HW216968   6.289   6.740   1.109
 5357SOL     OW16969   6.283   2.955   2.354
 5357SOL    HW116970   6.286   3.010   2.270
 5357SOL    HW216971   6.376   2.926   2.377
 5358SOL     OW16972   5.605   6.425   5.196
 5358SOL    HW116973   5.630   6.378   5.280
 5358SOL    HW216974   5.683   6.426   5.134
 5359SOL     OW16975   2.959   1.847   5.981
 5359SOL    HW116976   2.973   1.865   5.884
 5359SOL    HW216977   2.955   1.933   6.031
 5360SOL     OW16978   5.185   5.939   2.354
 5360SOL    HW116979   5.170   6.009   2.284
 5360SOL    HW216980   5.186   5.848   2.312
 5361SOL     OW16981   1.262   3.585   2.600
 5361SOL    HW116982   1.251   3.673   2.554
 5361SOL    HW216983   1.180   3.563   2.652
 5362SOL     OW16984   6.584   1.663   4.076
 5362SOL    HW116985   6.546   1.737   4.020
 5362SOL    HW216986   6.510   1.611   4.118
 5363SOL     OW16987   6.208   4.026   6.573
 5363SOL    HW116988   6.186   4.124   6.572
 5363SOL    HW216989   6.291   4.010   6.520
 5364SOL     OW16990   4.784   2.076   1.634
 5364SOL    HW116991   4.841   2.059   1.553
 5364SOL    HW216992   4.843   2.085   1.715
 5365SOL     OW16993   3.189   2.296   6.379
 5365SOL    HW116994   3.143   2.353   6.310
 5365SOL    HW216995   3.126   2.226   6.412
 5366SOL     OW16996   0.045   4.322   3.716
 5366SOL    HW116997   0.083   4.257   3.650
 5366SOL    HW216998   0.086   4.413   3.701
 5367SOL     OW16999   6.635   5.471   1.663
 5367SOL    HW117000   6.593   5.513   1.743
 5367SOL    HW217001   6.628   5.371   1.669
 5368SOL     OW17002   0.200   5.310   4.684
 5368SOL    HW117003   0.117   5.303   4.740
 5368SOL    HW217004   0.244   5.398   4.699
 5369SOL     OW17005   3.959   0.636   2.028
 5369SOL    HW117006   3.930   0.696   1.953
 5369SOL    HW217007   4.059   0.640   2.036
 5370SOL     OW17008   2.043   2.363   6.928
 5370SOL    HW117009   1.967   2.306   6.961
 5370SOL    HW217010   2.096   2.395   7.006
 5371SOL     OW17011   6.350   5.039   3.115
 5371SOL    HW117012   6.418   5.109   3.096
 5371SOL    HW217013   6.264   5.060   3.068
 5372SOL     OW17014   0.969   1.207   4.771
 5372SOL    HW117015   0.949   1.109   4.769
 5372SOL    HW217016   1.049   1.224   4.829
 5373SOL     OW17017   4.752   6.964   1.135
 5373SOL    HW117018   4.736   6.880   1.083
 5373SOL    HW217019   4.821   6.946   1.205
 5374SOL     OW17020   2.007   3.026   1.363
 5374SOL    HW117021   2.104   3.003   1.354
 5374SOL    HW217022   1.972   3.059   1.275
 5375SOL     OW17023   2.831   4.863   5.175
 5375SOL    HW117024   2.913   4.841   5.227
 5375SOL    HW217025   2.811   4.789   5.111
 5376SOL     OW17026   6.403   6.951   2.206
 5376SOL    HW117027   6.392   6.853   2.227
 5376SOL    HW217028   6.482   6.987   2.255
 5377SOL     OW17029   0.541   3.464   1.201
 5377SOL    HW117030   0.461   3.487   1.145
 5377SOL    HW217031   0.597   3.546   1.215
 5378SOL     OW17032   5.068   0.638   5.179
 5378SOL    HW117033   5.004   0.591   5.117
 5378SOL    HW217034   5.052   0.608   5.273
 5379SOL     OW17035   3.658   1.776   4.323
 5379SOL    HW117036   3.699   1.850   4.377
 5379SOL    HW217037   3.634   1.700   4.384
 5380SOL     OW17038   4.608   0.032   1.358
 5380SOL    HW117039   4.617   6.989   1.431
 5380SOL    HW217040   4.641   7.016   1.272
 5381SOL     OW17041   2.716   1.579   2.016
 5381SOL    HW117042   2.686   1.602   2.109
 5381SOL    HW217043   2.767   1.656   1.977
 5382SOL     OW17044   3.501   0.330   2.893
 5382SOL    HW117045   3.407   0.353   2.869
 5382SOL    HW217046   3.562   0.364   2.821
 5383SOL     OW17047   2.164   4.524   5.258
 5383SOL    HW117048   2.212   4.472   5.329
 5383SOL    HW217049   2.150   4.466   5.178
 5384SOL     OW17050   4.848   5.804   5.630
 5384SOL    HW117051   4.925   5.836   5.575
 5384SOL    HW217052   4.845   5.856   5.716
 5385SOL     OW17053   4.103   4.014   0.851
 5385SOL    HW117054   4.164   4.077   0.804
 5385SOL    HW217055   4.024   3.994   0.794
 5386SOL     OW17056   3.973   5.968   3.422
 5386SOL    HW117057   3.900   6.009   3.368
 5386SOL    HW217058   4.025   6.040   3.468
 5387SOL     OW17059   1.182   2.637   5.448
 5387SOL    HW117060   1.257   2.699   5.469
 5387SOL    HW217061   1.172   2.629   5.349
 5388SOL     OW17062   6.712   6.487   3.231
 5388SOL    HW117063   6.765   6.542   3.296
 5388SOL    HW217064   6.639   6.440   3.280
 5389SOL     OW17065   6.978   1.860   5.149
 5389SOL    HW117066   6.924   1.859   5.233
 5389SOL    HW217067   0.036   1.804   5.162
 5390SOL     OW17068   5.826   2.629   4.177
 5390SOL    HW117069   5.734   2.643   4.212
 5390SOL    HW217070   5.836   2.535   4.143
 5391SOL     OW17071   4.992   2.781   1.364
 5391SOL    HW117072   5.047   2.852   1.408
 5391SOL    HW217073   5.026   2.691   1.392
 5392SOL     OW17074   4.882   1.106   3.610
 5392SOL    HW117075   4.896   1.054   3.694
 5392SOL    HW217076   4.971   1.139   3.576
 5393SOL     OW17077   5.119   2.969   2.138
 5393SOL    HW117078   5.093   2.941   2.231
 5393SOL    HW217079   5.050   3.032   2.102
 5394SOL     OW17080   0.467   3.314   3.253
 5394SOL    HW117081   0.467   3.336   3.351
 5394SOL    HW217082   0.374   3.295   3.223
 5395SOL     OW17083   0.438   0.371   1.798
 5395SOL    HW117084   0.402   0.430   1.725
 5395SOL    HW217085   0.470   0.285   1.759
 5396SOL     OW17086   3.502   2.556   6.779
 5396SOL    HW117087   3.508   2.566   6.680
 5396SOL    HW217088   3.413   2.589   6.811
 5397SOL     OW17089   0.070   6.992   2.991
 5397SOL    HW117090   0.106   6.952   3.075
 5397SOL    HW217091   0.081   0.067   2.995
 5398SOL     OW17092   6.031   2.500   3.653
 5398SOL    HW117093   6.020   2.415   3.602
 5398SOL    HW217094   5.950   2.516   3.710
 5399SOL     OW17095   2.805   2.220   0.467
 5399SOL    HW117096   2.806   2.288   0.394
 5399SOL    HW217097   2.774   2.262   0.552
 5400SOL     OW17098   4.296   3.156   0.866
 5400SOL    HW117099   4.288   3.060   0.840
 5400SOL    HW217100   4.392   3.179   0.881
 5401SOL     OW17101   4.509   2.898   1.193
 5401SOL    HW117102   4.414   2.928   1.184
 5401SOL    HW217103   4.517   2.835   1.271
 5402SOL     OW17104   2.177   5.545   0.920
 5402SOL    HW117105   2.183   5.459   0.870
 5402SOL    HW217106   2.249   5.549   0.989
 5403SOL     OW17107   6.958   3.159   5.410
 5403SOL    HW117108   6.882   3.131   5.352
 5403SOL    HW217109   0.013   3.101   5.390
 5404SOL     OW17110   4.171   6.610   6.456
 5404SOL    HW117111   4.190   6.634   6.361
 5404SOL    HW217112   4.152   6.693   6.508
 5405SOL     OW17113   5.896   5.129   6.418
 5405SOL    HW117114   5.926   5.059   6.354
 5405SOL    HW217115   5.841   5.087   6.491
 5406SOL     OW17116   2.320   1.606   4.823
 5406SOL    HW117117   2.288   1.693   4.861
 5406SOL    HW217118   2.413   1.588   4.858
 5407SOL     OW17119   1.862   2.217   2.542
 5407SOL    HW117120   1.769   2.195   2.574
 5407SOL    HW217121   1.874   2.185   2.448
 5408SOL     OW17122   2.751   2.390   3.903
 5408SOL    HW117123   2.764   2.411   3.806
 5408SOL    HW217124   2.837   2.356   3.941
 5409SOL     OW17125   6.414   4.438   3.814
 5409SOL    HW117126   6.393   4.474   3.723
 5409SOL    HW217127   6.453   4.510   3.871
 5410SOL     OW17128   5.895   0.826   0.275
 5410SOL    HW117129   5.888   0.742   0.328
 5410SOL    HW217130   5.960   0.813   0.200
 5411SOL     OW17131   2.720   6.328   2.139
 5411SOL    HW117132   2.798   6.383   2.171
 5411SOL    HW217133   2.753   6.238   2.112
 5412SOL     OW17134   3.033   2.376   6.174
 5412SOL    HW117135   2.965   2.442   6.204
 5412SOL    HW217136   3.070   2.403   6.085
 5413SOL     OW17137   0.148   4.927   6.073
 5413SOL    HW117138   0.084   4.869   6.024
 5413SOL    HW217139   0.143   5.020   6.039
 5414SOL     OW17140   5.681   5.602   6.135
 5414SOL    HW117141   5.769   5.555   6.129
 5414SOL    HW217142   5.673   5.666   6.059
 5415SOL     OW17143   2.574   6.726   0.009
 5415SOL    HW117144   2.528   6.639   7.014
 5415SOL    HW217145   2.515   6.802   7.004
 5416SOL     OW17146   4.178   4.450   5.600
 5416SOL    HW117147   4.127   4.520   5.650
 5416SOL    HW217148   4.276   4.463   5.615
 5417SOL     OW17149   4.770   0.331   2.005
 5417SOL    HW117150   4.717   0.374   1.932
 5417SOL    HW217151   4.832   0.264   1.964
 5418SOL     OW17152   6.870   3.613   6.073
 5418SOL    HW117153   6.859   3.701   6.026
 5418SOL    HW217154   6.967   3.595   6.088
 5419SOL     OW17155   4.178   2.801   5.899
 5419SOL    HW117156   4.235   2.855   5.961
 5419SOL    HW217157   4.234   2.734   5.852
 5420SOL     OW17158   0.935   1.734   0.471
 5420SOL    HW117159   0.912   1.657   0.412
 5420SOL    HW217160   0.857   1.796   0.477
 5421SOL     OW17161   3.872   5.455   0.404
 5421SOL    HW117162   3.906   5.534   0.354
 5421SOL    HW217163   3.899   5.462   0.500
 5422SOL     OW17164   2.482   6.996   3.778
 5422SOL    HW117165   2.546   0.046   3.759
 5422SOL    HW217166   2.458   6.996   3.875
 5423SOL     OW17167   4.579   5.294   3.052
 5423SOL    HW117168   4.588   5.349   2.969
 5423SOL    HW217169   4.545   5.203   3.028
 5424SOL     OW17170   4.341   2.642   5.778
 5424SOL    HW117171   4.381   2.556   5.747
 5424SOL    HW217172   4.353   2.712   5.707
 5425SOL     OW17173   2.277   5.810   4.694
 5425SOL    HW117174   2.276   5.711   4.704
 5425SOL    HW217175   2.372   5.842   4.687
 5426SOL     OW17176   1.016   3.178   7.011
 5426SOL    HW117177   0.977   3.270   7.018
 5426SOL    HW217178   1.102   3.183   6.959
 5427SOL     OW17179   4.291   1.760   0.032
 5427SOL    HW117180   4.270   1.751   0.129
 5427SOL    HW217181   4.267   1.675   7.009
 5428SOL     OW17182   5.016   5.917   1.869
 5428SOL    HW117183   5.103   5.963   1.886
 5428SOL    HW217184   4.949   5.984   1.835
 5429SOL     OW17185   2.769   6.254   2.874
 5429SOL    HW117186   2.822   6.169   2.878
 5429SOL    HW217187   2.752   6.277   2.778
 5430SOL     OW17188   0.618   3.787   5.730
 5430SOL    HW117189   0.545   3.781   5.798
 5430SOL    HW217190   0.592   3.851   5.658
 5431SOL     OW17191   5.136   4.163   1.417
 5431SOL    HW117192   5.223   4.115   1.430
 5431SOL    HW217193   5.120   4.178   1.320
 5432SOL     OW17194   1.271   5.304   5.660
 5432SOL    HW117195   1.219   5.219   5.647
 5432SOL    HW217196   1.214   5.382   5.634
 5433SOL     OW17197   3.484   6.599   1.944
 5433SOL    HW117198   3.556   6.538   1.975
 5433SOL    HW217199   3.516   6.694   1.949
 5434SOL     OW17200   4.634   6.415   4.269
 5434SOL    HW117201   4.661   6.508   4.242
 5434SOL    HW217202   4.576   6.420   4.351
 5435SOL     OW17203   0.634   3.134   6.997
 5435SOL    HW117204   0.667   3.208   6.939
 5435SOL    HW217205   0.653   3.046   6.953
 5436SOL     OW17206   1.707   4.145   0.738
 5436SOL    HW117207   1.680   4.126   0.833
 5436SOL    HW217208   1.647   4.215   0.700
 5437SOL     OW17209   3.159   0.490   5.959
 5437SOL    HW117210   3.233   0.548   5.925
 5437SOL    HW217211   3.105   0.456   5.883
 5438SOL     OW17212   4.495   6.563   3.344
 5438SOL    HW117213   4.452   6.476   3.324
 5438SOL    HW217214   4.425   6.631   3.364
 5439SOL     OW17215   1.875   3.531   2.447
 5439SOL    HW117216   1.960   3.523   2.394
 5439SOL    HW217217   1.850   3.442   2.484
 5440SOL     OW17218   4.820   5.959   2.732
 5440SOL    HW117219   4.729   5.921   2.748
 5440SOL    HW217220   4.888   5.886   2.738
 5441SOL     OW17221   5.908   0.147   4.330
 5441SOL    HW117222   5.965   0.205   4.271
 5441SOL    HW217223   5.817   0.138   4.290
 5442SOL     OW17224   2.702   6.016   6.885
 5442SOL    HW117225   2.660   6.100   6.853
 5442SOL    HW217226   2.640   5.969   6.948
 5443SOL     OW17227   5.333   1.614   3.092
 5443SOL    HW117228   5.317   1.687   3.158
 5443SOL    HW217229   5.424   1.625   3.051
 5444SOL     OW17230   2.335   1.664   6.203
 5444SOL    HW117231   2.297   1.597   6.266
 5444SOL    HW217232   2.351   1.622   6.114
 5445SOL     OW17233   0.499   6.048   5.811
 5445SOL    HW117234   0.500   6.097   5.724
 5445SOL    HW217235   0.591   6.016   5.832
 5446SOL     OW17236   2.416   4.150   0.234
 5446SOL    HW117237   2.468   4.108   0.160
 5446SOL    HW217238   2.393   4.080   0.302
 5447SOL     OW17239   5.204   2.554   1.742
 5447SOL    HW117240   5.239   2.542   1.649
 5447SOL    HW217241   5.224   2.471   1.795
 5448SOL     OW17242   6.188   5.723   1.277
 5448SOL    HW117243   6.278   5.686   1.254
 5448SOL    HW217244   6.123   5.698   1.206
 5449SOL     OW17245   2.503   0.518   2.366
 5449SOL    HW117246   2.434   0.588   2.351
 5449SOL    HW217247   2.544   0.531   2.456
 5450SOL     OW17248   4.414   4.565   2.133
 5450SOL    HW117249   4.429   4.470   2.109
 5450SOL    HW217250   4.445   4.624   2.059
 5451SOL     OW17251   0.373   5.097   3.616
 5451SOL    HW117252   0.335   5.156   3.545
 5451SOL    HW217253   0.395   5.008   3.578
 5452SOL     OW17254   2.290   4.282   3.041
 5452SOL    HW117255   2.197   4.316   3.027
 5452SOL    HW217256   2.345   4.302   2.960
 5453SOL     OW17257   5.861   4.937   4.275
 5453SOL    HW117258   5.782   4.877   4.264
 5453SOL    HW217259   5.899   4.926   4.367
 5454SOL     OW17260   6.794   3.474   2.817
 5454SOL    HW117261   6.785   3.563   2.861
 5454SOL    HW217262   6.795   3.486   2.717
 5455SOL     OW17263   2.054   1.712   2.678
 5455SOL    HW117264   1.987   1.648   2.641
 5455SOL    HW217265   2.052   1.797   2.624
 5456SOL     OW17266   5.899   2.872   0.093
 5456SOL    HW117267   5.988   2.831   0.071
 5456SOL    HW217268   5.851   2.814   0.158
 5457SOL     OW17269   5.661   0.729   0.820
 5457SOL    HW117270   5.628   0.679   0.739
 5457SOL    HW217271   5.602   0.709   0.898
 5458SOL     OW17272   5.972   4.566   6.585
 5458SOL    HW117273   5.982   4.544   6.488
 5458SOL    HW217274   6.062   4.565   6.629
 5459SOL     OW17275   2.030   3.629   4.599
 5459SOL    HW117276   1.997   3.594   4.511
 5459SOL    HW217277   2.047   3.727   4.591
 5460SOL     OW17278   6.731   1.528   0.954
 5460SOL    HW117279   6.762   1.535   1.048
 5460SOL    HW217280   6.722   1.432   0.929
 5461SOL     OW17281   5.913   0.665   5.723
 5461SOL    HW117282   5.886   0.669   5.819
 5461SOL    HW217283   5.837   0.629   5.668
 5462SOL     OW17284   5.622   4.866   0.651
 5462SOL    HW117285   5.716   4.887   0.623
 5462SOL    HW217286   5.578   4.950   0.683
 5463SOL     OW17287   3.090   4.860   6.779
 5463SOL    HW117288   3.128   4.935   6.834
 5463SOL    HW217289   3.132   4.774   6.806
 5464SOL     OW17290   3.175   5.876   4.169
 5464SOL    HW117291   3.219   5.843   4.252
 5464SOL    HW217292   3.132   5.799   4.121
 5465SOL     OW17293   0.399   1.556   5.039
 5465SOL    HW117294   0.487   1.565   4.992
 5465SOL    HW217295   0.412   1.563   5.138
 5466SOL     OW17296   5.914   2.477   4.904
 5466SOL    HW117297   5.925   2.529   4.989
 5466SOL    HW217298   5.823   2.494   4.866
 5467SOL     OW17299   4.373   4.645   2.964
 5467SOL    HW117300   4.370   4.622   3.061
 5467SOL    HW217301   4.280   4.663   2.931
 5468SOL     OW17302   0.433   2.031   1.058
 5468SOL    HW117303   0.487   2.111   1.086
 5468SOL    HW217304   0.368   2.059   0.987
 5469SOL     OW17305   4.239   0.613   2.732
 5469SOL    HW117306   4.155   0.643   2.686
 5469SOL    HW217307   4.277   0.535   2.683
 5470SOL     OW17308   2.761   4.731   2.764
 5470SOL    HW117309   2.694   4.804   2.753
 5470SOL    HW217310   2.815   4.723   2.680
 5471SOL     OW17311   5.709   1.520   3.870
 5471SOL    HW117312   5.714   1.617   3.846
 5471SOL    HW217313   5.724   1.509   3.968
 5472SOL     OW17314   2.694   4.819   0.615
 5472SOL    HW117315   2.768   4.879   0.647
 5472SOL    HW217316   2.674   4.840   0.519
 5473SOL     OW17317   3.234   4.862   1.749
 5473SOL    HW117318   3.312   4.824   1.700
 5473SOL    HW217319   3.253   4.862   1.847
 5474SOL     OW17320   1.463   5.457   1.315
 5474SOL    HW117321   1.496   5.366   1.338
 5474SOL    HW217322   1.444   5.507   1.400
 5475SOL     OW17323   0.210   1.361   5.160
 5475SOL    HW117324   0.248   1.450   5.135
 5475SOL    HW217325   0.114   1.357   5.131
 5476SOL     OW17326   3.243   1.591   4.445
 5476SOL    HW117327   3.270   1.676   4.490
 5476SOL    HW217328   3.211   1.611   4.353
 5477SOL     OW17329   2.228   4.159   2.731
 5477SOL    HW117330   2.262   4.252   2.744
 5477SOL    HW217331   2.199   4.121   2.819
 5478SOL     OW17332   6.644   2.961   5.431
 5478SOL    HW117333   6.686   2.947   5.341
 5478SOL    HW217334   6.714   2.986   5.497
 5479SOL     OW17335   5.424   4.305   4.786
 5479SOL    HW117336   5.374   4.392   4.790
 5479SOL    HW217337   5.461   4.284   4.876
 5480SOL     OW17338   2.625   2.266   6.398
 5480SOL    HW117339   2.545   2.312   6.360
 5480SOL    HW217340   2.700   2.271   6.332
 5481SOL     OW17341   3.314   0.032   1.020
 5481SOL    HW117342   3.377   6.979   1.026
 5481SOL    HW217343   3.222   7.022   0.998
 5482SOL     OW17344   5.608   4.481   2.356
 5482SOL    HW117345   5.644   4.560   2.404
 5482SOL    HW217346   5.660   4.399   2.382
 5483SOL     OW17347   5.913   1.662   1.170
 5483SOL    HW117348   5.946   1.629   1.259
 5483SOL    HW217349   5.838   1.726   1.185
 5484SOL     OW17350   6.016   6.906   5.474
 5484SOL    HW117351   6.080   6.940   5.543
 5484SOL    HW217352   6.000   6.977   5.406
 5485SOL     OW17353   2.398   1.938   4.026
 5485SOL    HW117354   2.481   1.906   3.981
 5485SOL    HW217355   2.362   2.018   3.979
 5486SOL     OW17356   5.491   1.466   4.068
 5486SOL    HW117357   5.444   1.553   4.049
 5486SOL    HW217358   5.455   1.396   4.006
 5487SOL     OW17359   4.239   6.035   1.308
 5487SOL    HW117360   4.180   5.979   1.250
 5487SOL    HW217361   4.185   6.106   1.354
 5488SOL     OW17362   4.932   6.994   6.746
 5488SOL    HW117363   5.017   6.962   6.704
 5488SOL    HW217364   4.908   6.934   6.823
 5489SOL     OW17365   6.941   3.076   2.424
 5489SOL    HW117366   6.929   3.026   2.510
 5489SOL    HW217367   6.879   3.039   2.355
 5490SOL     OW17368   2.923   1.095   6.726
 5490SOL    HW117369   2.874   1.182   6.715
 5490SOL    HW217370   2.961   1.091   6.819
 5491SOL     OW17371   6.208   6.298   1.399
 5491SOL    HW117372   6.140   6.278   1.329
 5491SOL    HW217373   6.264   6.217   1.415
 5492SOL     OW17374   1.342   0.643   5.829
 5492SOL    HW117375   1.387   0.713   5.885
 5492SOL    HW217376   1.244   0.664   5.822
 5493SOL     OW17377   4.153   0.828   6.310
 5493SOL    HW117378   4.084   0.853   6.242
 5493SOL    HW217379   4.137   0.735   6.342
 5494SOL     OW17380   5.743   2.981   2.058
 5494SOL    HW117381   5.670   2.924   2.096
 5494SOL    HW217382   5.728   2.994   1.960
 5495SOL     OW17383   3.389   3.086   5.203
 5495SOL    HW117384   3.297   3.124   5.192
 5495SOL    HW217385   3.387   2.988   5.186
 5496SOL     OW17386   4.526   4.899   1.710
 5496SOL    HW117387   4.608   4.890   1.653
 5496SOL    HW217388   4.452   4.937   1.655
 5497SOL     OW17389   5.556   6.288   0.430
 5497SOL    HW117390   5.468   6.265   0.473
 5497SOL    HW217391   5.630   6.247   0.483
 5498SOL     OW17392   4.069   0.729   3.513
 5498SOL    HW117393   4.160   0.753   3.545
 5498SOL    HW217394   4.075   0.676   3.428
 5499SOL     OW17395   0.814   0.627   4.731
 5499SOL    HW117396   0.773   0.714   4.759
 5499SOL    HW217397   0.888   0.603   4.794
 5500SOL     OW17398   1.108   6.409   0.623
 5500SOL    HW117399   1.070   6.410   0.531
 5500SOL    HW217400   1.052   6.466   0.683
 5501SOL     OW17401   2.345   1.401   2.145
 5501SOL    HW117402   2.398   1.437   2.068
 5501SOL    HW217403   2.248   1.400   2.121
 5502SOL     OW17404   5.534   4.642   0.797
 5502SOL    HW117405   5.579   4.711   0.742
 5502SOL    HW217406   5.513   4.562   0.741
 5503SOL     OW17407   6.710   1.006   4.224
 5503SOL    HW117408   6.796   1.048   4.195
 5503SOL    HW217409   6.634   1.066   4.200
 5504SOL     OW17410   2.408   2.162   4.803
 5504SOL    HW117411   2.398   2.112   4.717
 5504SOL    HW217412   2.382   2.102   4.879
 5505SOL     OW17413   3.467   5.612   0.608
 5505SOL    HW117414   3.523   5.629   0.689
 5505SOL    HW217415   3.509   5.538   0.554
 5506SOL     OW17416   1.521   6.413   5.109
 5506SOL    HW117417   1.532   6.418   5.010
 5506SOL    HW217418   1.506   6.505   5.146
 5507SOL     OW17419   2.278   5.444   4.961
 5507SOL    HW117420   2.303   5.360   5.009
 5507SOL    HW217421   2.342   5.517   4.986
 5508SOL     OW17422   2.546   2.057   5.306
 5508SOL    HW117423   2.514   2.151   5.312
 5508SOL    HW217424   2.484   1.997   5.356
 5509SOL     OW17425   0.097   7.017   5.213
 5509SOL    HW117426   0.093   0.082   5.258
 5509SOL    HW217427   0.187   7.005   5.171
 5510SOL     OW17428   6.888   6.988   5.598
 5510SOL    HW117429   6.834   6.961   5.518
 5510SOL    HW217430   6.947   0.041   5.574
 5511SOL     OW17431   0.281   2.541   0.843
 5511SOL    HW117432   0.186   2.512   0.829
 5511SOL    HW217433   0.334   2.519   0.762
 5512SOL     OW17434   6.751   6.459   0.330
 5512SOL    HW117435   6.760   6.360   0.329
 5512SOL    HW217436   6.666   6.485   0.376
 5513SOL     OW17437   2.747   6.595   5.026
 5513SOL    HW117438   2.662   6.562   5.068
 5513SOL    HW217439   2.825   6.559   5.077
 5514SOL     OW17440   5.942   5.922   3.904
 5514SOL    HW117441   6.041   5.934   3.900
 5514SOL    HW217442   5.918   5.831   3.871
 5515SOL     OW17443   1.920   3.966   3.969
 5515SOL    HW117444   1.933   4.037   4.038
 5515SOL    HW217445   1.979   3.888   3.989
 5516SOL     OW17446   2.158   2.581   0.065
 5516SOL    HW117447   2.098   2.624   0.133
 5516SOL    HW217448   2.248   2.565   0.105
 5517SOL     OW17449   3.159   0.129   2.236
 5517SOL    HW117450   3.243   0.079   2.214
 5517SOL    HW217451   3.110   0.081   2.309
 5518SOL     OW17452   4.783   3.708   6.399
 5518SOL    HW117453   4.847   3.638   6.369
 5518SOL    HW217454   4.698   3.665   6.430
 5519SOL     OW17455   5.439   3.499   2.279
 5519SOL    HW117456   5.384   3.444   2.341
 5519SOL    HW217457   5.381   3.565   2.232
 5520SOL     OW17458   1.086   2.808   1.272
 5520SOL    HW117459   1.171   2.756   1.281
 5520SOL    HW217460   1.085   2.856   1.184
 5521SOL     OW17461   5.356   4.186   6.640
 5521SOL    HW117462   5.272   4.132   6.636
 5521SOL    HW217463   5.435   4.125   6.637
 5522SOL     OW17464   1.866   2.668   1.601
 5522SOL    HW117465   1.822   2.751   1.568
 5522SOL    HW217466   1.964   2.672   1.580
 5523SOL     OW17467   2.398   6.277   1.641
 5523SOL    HW117468   2.391   6.296   1.543
 5523SOL    HW217469   2.315   6.229   1.670
 5524SOL     OW17470   6.542   6.548   5.714
 5524SOL    HW117471   6.535   6.520   5.810
 5524SOL    HW217472   6.466   6.509   5.662
 5525SOL     OW17473   6.581   0.049   2.957
 5525SOL    HW117474   6.658   7.011   2.975
 5525SOL    HW217475   6.497   0.008   2.992
 5526SOL     OW17476   5.372   3.911   4.731
 5526SOL    HW117477   5.301   3.936   4.797
 5526SOL    HW217478   5.461   3.908   4.777
 5527SOL     OW17479   3.128   2.689   0.319
 5527SOL    HW117480   3.118   2.596   0.283
 5527SOL    HW217481   3.170   2.747   0.249
 5528SOL     OW17482   5.657   2.818   2.443
 5528SOL    HW117483   5.757   2.818   2.440
 5528SOL    HW217484   5.625   2.890   2.505
 5529SOL     OW17485   1.226   1.042   4.676
 5529SOL    HW117486   1.237   1.126   4.624
 5529SOL    HW217487   1.196   1.063   4.769
 5530SOL     OW17488   0.257   3.109   6.693
 5530SOL    HW117489   0.292   3.045   6.625
 5530SOL    HW217490   0.279   3.203   6.665
 5531SOL     OW17491   2.810   2.526   0.687
 5531SOL    HW117492   2.747   2.500   0.614
 5531SOL    HW217493   2.903   2.531   0.651
 5532SOL     OW17494   2.130   2.933   2.051
 5532SOL    HW117495   2.106   2.847   2.006
 5532SOL    HW217496   2.178   2.913   2.137
 5533SOL     OW17497   3.055   0.013   0.902
 5533SOL    HW117498   3.002   7.018   0.819
 5533SOL    HW217499   2.994   0.036   0.977
 5534SOL     OW17500   0.374   3.602   5.682
 5534SOL    HW117501   0.418   3.512   5.690
 5534SOL    HW217502   0.422   3.656   5.613
 5535SOL     OW17503   4.848   5.529   3.087
 5535SOL    HW117504   4.852   5.435   3.054
 5535SOL    HW217505   4.921   5.583   3.044
 5536SOL     OW17506   2.565   1.152   4.532
 5536SOL    HW117507   2.513   1.114   4.456
 5536SOL    HW217508   2.663   1.148   4.510
 5537SOL     OW17509   3.719   1.590   3.436
 5537SOL    HW117510   3.782   1.593   3.514
 5537SOL    HW217511   3.711   1.496   3.403
 5538SOL     OW17512   4.615   2.414   3.178
 5538SOL    HW117513   4.536   2.425   3.117
 5538SOL    HW217514   4.611   2.325   3.222
 5539SOL     OW17515   1.090   0.125   6.018
 5539SOL    HW117516   1.181   0.162   6.002
 5539SOL    HW217517   1.079   0.103   6.115
 5540SOL     OW17518   4.446   6.848   4.901
 5540SOL    HW117519   4.463   6.934   4.852
 5540SOL    HW217520   4.354   6.815   4.880
 5541SOL     OW17521   4.800   2.857   5.306
 5541SOL    HW117522   4.751   2.934   5.345
 5541SOL    HW217523   4.763   2.772   5.343
 5542SOL     OW17524   4.991   4.611   6.953
 5542SOL    HW117525   4.913   4.552   6.931
 5542SOL    HW217526   5.016   4.663   6.871
 5543SOL     OW17527   0.617   0.697   5.771
 5543SOL    HW117528   0.621   0.719   5.868
 5543SOL    HW217529   0.695   0.738   5.724
 5544SOL     OW17530   4.017   5.122   6.759
 5544SOL    HW117531   4.111   5.149   6.737
 5544SOL    HW217532   3.962   5.204   6.772
 5545SOL     OW17533   4.949   2.609   2.953
 5545SOL    HW117534   4.996   2.619   2.865
 5545SOL    HW217535   4.863   2.661   2.950
 5546SOL     OW17536   1.022   6.015   4.188
 5546SOL    HW117537   0.956   6.010   4.114
 5546SOL    HW217538   1.043   6.111   4.208
 5547SOL     OW17539   5.012   1.872   4.196
 5547SOL    HW117540   4.935   1.933   4.179
 5547SOL    HW217541   5.049   1.891   4.287
 5548SOL     OW17542   1.311   3.934   4.732
 5548SOL    HW117543   1.234   3.982   4.775
 5548SOL    HW217544   1.276   3.855   4.681
 5549SOL     OW17545   4.188   3.520   0.353
 5549SOL    HW117546   4.151   3.568   0.273
 5549SOL    HW217547   4.116   3.508   0.420
 5550SOL     OW17548   3.216   4.314   1.372
 5550SOL    HW117549   3.275   4.336   1.450
 5550SOL    HW217550   3.121   4.339   1.393
 5551SOL     OW17551   0.760   3.893   2.183
 5551SOL    HW117552   0.769   3.935   2.093
 5551SOL    HW217553   0.695   3.946   2.238
 5552SOL     OW17554   0.252   1.099   1.081
 5552SOL    HW117555   0.186   1.058   1.144
 5552SOL    HW217556   0.246   1.199   1.088
 5553SOL     OW17557   6.182   6.479   1.661
 5553SOL    HW117558   6.170   6.574   1.634
 5553SOL    HW217559   6.103   6.425   1.634
 5554SOL     OW17560   0.348   2.314   1.697
 5554SOL    HW117561   0.422   2.275   1.642
 5554SOL    HW217562   0.261   2.274   1.669
 5555SOL     OW17563   0.932   4.708   2.400
 5555SOL    HW117564   1.006   4.656   2.356
 5555SOL    HW217565   0.845   4.661   2.386
 5556SOL     OW17566   6.565   1.698   5.170
 5556SOL    HW117567   6.577   1.728   5.075
 5556SOL    HW217568   6.484   1.641   5.177
 5557SOL     OW17569   2.988   6.842   3.233
 5557SOL    HW117570   3.007   6.931   3.274
 5557SOL    HW217571   2.977   6.853   3.134
 5558SOL     OW17572   4.177   3.899   6.282
 5558SOL    HW117573   4.118   3.919   6.361
 5558SOL    HW217574   4.199   3.802   6.280
 5559SOL     OW17575   3.590   0.373   3.641
 5559SOL    HW117576   3.543   0.422   3.568
 5559SOL    HW217577   3.586   0.275   3.623
 5560SOL     OW17578   0.231   4.982   3.350
 5560SOL    HW117579   0.165   4.968   3.276
 5560SOL    HW217580   0.184   4.978   3.438
 5561SOL     OW17581   2.768   0.631   3.800
 5561SOL    HW117582   2.717   0.716   3.816
 5561SOL    HW217583   2.866   0.648   3.815
 5562SOL     OW17584   5.410   2.674   1.254
 5562SOL    HW117585   5.458   2.760   1.237
 5562SOL    HW217586   5.401   2.659   1.353
 5563SOL     OW17587   1.186   4.283   2.423
 5563SOL    HW117588   1.105   4.308   2.476
 5563SOL    HW217589   1.251   4.237   2.483
 5564SOL     OW17590   4.319   0.208   6.588
 5564SOL    HW117591   4.355   0.295   6.556
 5564SOL    HW217592   4.341   0.196   6.685
 5565SOL     OW17593   2.724   2.006   6.369
 5565SOL    HW117594   2.668   2.087   6.386
 5565SOL    HW217595   2.665   1.926   6.359
 5566SOL     OW17596   1.444   5.124   5.134
 5566SOL    HW117597   1.383   5.126   5.055
 5566SOL    HW217598   1.497   5.039   5.133
 5567SOL     OW17599   1.786   4.984   6.664
 5567SOL    HW117600   1.886   4.994   6.669
 5567SOL    HW217601   1.746   5.014   6.750
 5568SOL     OW17602   5.218   5.365   2.386
 5568SOL    HW117603   5.307   5.393   2.352
 5568SOL    HW217604   5.228   5.320   2.475
 5569SOL     OW17605   1.783   2.104   2.813
 5569SOL    HW117606   1.754   2.010   2.797
 5569SOL    HW217607   1.834   2.109   2.899
 5570SOL     OW17608   6.738   3.335   1.341
 5570SOL    HW117609   6.695   3.283   1.267
 5570SOL    HW217610   6.667   3.383   1.392
 5571SOL     OW17611   6.831   4.564   6.764
 5571SOL    HW117612   6.910   4.626   6.764
 5571SOL    HW217613   6.850   4.487   6.703
 5572SOL     OW17614   0.792   4.484   5.662
 5572SOL    HW117615   0.798   4.447   5.570
 5572SOL    HW217616   0.749   4.418   5.723
 5573SOL     OW17617   2.855   4.744   3.086
 5573SOL    HW117618   2.954   4.751   3.102
 5573SOL    HW217619   2.836   4.756   2.989
 5574SOL     OW17620   1.443   0.860   5.962
 5574SOL    HW117621   1.484   0.923   5.896
 5574SOL    HW217622   1.388   0.912   6.028
 5575SOL     OW17623   0.803   0.059   2.074
 5575SOL    HW117624   0.733   0.017   2.015
 5575SOL    HW217625   0.827   0.149   2.038
 5576SOL     OW17626   1.697   5.238   3.172
 5576SOL    HW117627   1.782   5.206   3.129
 5576SOL    HW217628   1.671   5.326   3.131
 5577SOL     OW17629   3.512   1.824   5.959
 5577SOL    HW117630   3.524   1.824   6.058
 5577SOL    HW217631   3.429   1.874   5.935
 5578SOL     OW17632   4.121   3.575   3.608
 5578SOL    HW117633   4.090   3.668   3.625
 5578SOL    HW217634   4.149   3.532   3.694
 5579SOL     OW17635   6.362   3.228   1.904
 5579SOL    HW117636   6.455   3.193   1.898
 5579SOL    HW217637   6.309   3.171   1.967
 5580SOL     OW17638   5.744   2.484   5.810
 5580SOL    HW117639   5.823   2.477   5.871
 5580SOL    HW217640   5.670   2.532   5.858
 5581SOL     OW17641   1.183   0.838   5.347
 5581SOL    HW117642   1.114   0.905   5.376
 5581SOL    HW217643   1.163   0.749   5.388
 5582SOL     OW17644   2.816   2.533   6.232
 5582SOL    HW117645   2.838   2.606   6.168
 5582SOL    HW217646   2.760   2.570   6.306
 5583SOL     OW17647   5.330   6.815   1.241
 5583SOL    HW117648   5.310   6.907   1.274
 5583SOL    HW217649   5.324   6.814   1.141
 5584SOL     OW17650   0.339   3.842   5.123
 5584SOL    HW117651   0.437   3.826   5.137
 5584SOL    HW217652   0.294   3.756   5.099
 5585SOL     OW17653   5.980   4.772   1.703
 5585SOL    HW117654   5.890   4.800   1.736
 5585SOL    HW217655   6.032   4.853   1.676
 5586SOL     OW17656   1.734   6.518   1.993
 5586SOL    HW117657   1.827   6.510   2.026
 5586SOL    HW217658   1.692   6.428   1.987
 5587SOL     OW17659   5.955   1.453   4.558
 5587SOL    HW117660   6.037   1.413   4.515
 5587SOL    HW217661   5.888   1.474   4.487
 5588SOL     OW17662   3.226   6.435   1.018
 5588SOL    HW117663   3.127   6.426   1.019
 5588SOL    HW217664   3.251   6.532   1.014
 5589SOL     OW17665   0.118   5.289   5.651
 5589SOL    HW117666   0.203   5.310   5.603
 5589SOL    HW217667   0.116   5.193   5.676
 5590SOL     OW17668   5.214   5.783   3.612
 5590SOL    HW117669   5.309   5.796   3.584
 5590SOL    HW217670   5.163   5.868   3.599
 5591SOL     OW17671   4.565   1.250   2.579
 5591SOL    HW117672   4.607   1.341   2.583
 5591SOL    HW217673   4.503   1.244   2.501
 5592SOL     OW17674   6.748   5.578   4.674
 5592SOL    HW117675   6.780   5.661   4.720
 5592SOL    HW217676   6.817   5.506   4.683
 5593SOL     OW17677   2.229   4.669   1.247
 5593SOL    HW117678   2.294   4.726   1.297
 5593SOL    HW217679   2.235   4.575   1.280
 5594SOL     OW17680   6.245   6.716   5.469
 5594SOL    HW117681   6.154   6.749   5.493
 5594SOL    HW217682   6.314   6.764   5.523
 5595SOL     OW17683   6.803   1.310   1.420
 5595SOL    HW117684   6.761   1.383   1.365
 5595SOL    HW217685   6.882   1.347   1.469
 5596SOL     OW17686   4.374   6.764   3.059
 5596SOL    HW117687   4.371   6.728   2.966
 5596SOL    HW217688   4.285   6.801   3.084
 5597SOL     OW17689   4.902   3.193   2.210
 5597SOL    HW117690   4.843   3.119   2.179
 5597SOL    HW217691   4.940   3.242   2.131
 5598SOL     OW17692   3.030   0.700   3.913
 5598SOL    HW117693   2.988   0.728   3.999
 5598SOL    HW217694   3.087   0.619   3.928
 5599SOL     OW17695   1.286   1.281   3.771
 5599SOL    HW117696   1.363   1.218   3.783
 5599SOL    HW217697   1.258   1.318   3.860
 5600SOL     OW17698   2.516   2.578   5.518
 5600SOL    HW117699   2.458   2.520   5.461
 5600SOL    HW217700   2.553   2.525   5.593
 5601SOL     OW17701   1.379   0.448   0.206
 5601SOL    HW117702   1.397   0.515   0.133
 5601SOL    HW217703   1.449   0.377   0.203
 5602SOL     OW17704   1.697   1.183   0.186
 5602SOL    HW117705   1.694   1.268   0.238
 5602SOL    HW217706   1.640   1.114   0.231
 5603SOL     OW17707   6.586   3.454   5.029
 5603SOL    HW117708   6.578   3.448   4.929
 5603SOL    HW217709   6.681   3.472   5.054
 5604SOL     OW17710   5.341   1.149   6.701
 5604SOL    HW117711   5.316   1.059   6.735
 5604SOL    HW217712   5.366   1.143   6.604
 5605SOL     OW17713   1.620   1.357   6.677
 5605SOL    HW117714   1.648   1.282   6.737
 5605SOL    HW217715   1.526   1.342   6.647
 5606SOL     OW17716   5.854   6.156   3.475
 5606SOL    HW117717   5.916   6.197   3.541
 5606SOL    HW217718   5.805   6.228   3.426
 5607SOL     OW17719   5.271   6.566   0.604
 5607SOL    HW117720   5.246   6.654   0.645
 5607SOL    HW217721   5.365   6.570   0.571
 5608SOL     OW17722   3.752   6.775   5.498
 5608SOL    HW117723   3.719   6.743   5.409
 5608SOL    HW217724   3.846   6.807   5.489
 5609SOL     OW17725   1.714   6.120   4.805
 5609SOL    HW117726   1.742   6.054   4.736
 5609SOL    HW217727   1.792   6.176   4.832
 5610SOL     OW17728   5.341   6.769   6.373
 5610SOL    HW117729   5.431   6.813   6.375
 5610SOL    HW217730   5.337   6.705   6.296
 5611SOL     OW17731   1.989   4.892   4.183
 5611SOL    HW117732   1.999   4.978   4.134
 5611SOL    HW217733   1.894   4.879   4.210
 5612SOL     OW17734   4.165   6.430   4.427
 5612SOL    HW117735   4.076   6.475   4.432
 5612SOL    HW217736   4.160   6.353   4.363
 5613SOL     OW17737   2.326   5.439   2.809
 5613SOL    HW117738   2.264   5.423   2.733
 5613SOL    HW217739   2.324   5.361   2.871
 5614SOL     OW17740   5.401   2.184   4.638
 5614SOL    HW117741   5.365   2.162   4.729
 5614SOL    HW217742   5.328   2.173   4.570
 5615SOL     OW17743   0.672   1.178   1.942
 5615SOL    HW117744   0.597   1.125   1.981
 5615SOL    HW217745   0.635   1.258   1.894
 5616SOL     OW17746   3.202   6.581   4.978
 5616SOL    HW117747   3.284   6.631   5.006
 5616SOL    HW217748   3.217   6.541   4.887
 5617SOL     OW17749   0.295   0.940   5.993
 5617SOL    HW117750   0.259   0.959   5.902
 5617SOL    HW217751   0.326   0.845   5.998
 5618SOL     OW17752   6.572   5.131   3.906
 5618SOL    HW117753   6.578   5.069   3.827
 5618SOL    HW217754   6.507   5.204   3.885
 5619SOL     OW17755   2.248   2.917   3.746
 5619SOL    HW117756   2.280   2.907   3.652
 5619SOL    HW217757   2.236   3.015   3.768
 5620SOL     OW17758   5.433   2.283   6.089
 5620SOL    HW117759   5.419   2.260   6.185
 5620SOL    HW217760   5.501   2.357   6.082
 5621SOL     OW17761   2.700   1.774   4.997
 5621SOL    HW117762   2.680   1.785   4.900
 5621SOL    HW217763   2.779   1.830   5.022
 5622SOL     OW17764   6.016   2.004   4.771
 5622SOL    HW117765   5.960   2.079   4.736
 5622SOL    HW217766   6.032   2.017   4.868
 5623SOL     OW17767   0.614   5.702   6.413
 5623SOL    HW117768   0.553   5.631   6.378
 5623SOL    HW217769   0.568   5.791   6.407
 5624SOL     OW17770   1.425   3.887   2.649
 5624SOL    HW117771   1.408   3.965   2.588
 5624SOL    HW217772   1.339   3.839   2.665
 5625SOL     OW17773   6.019   1.879   6.019
 5625SOL    HW117774   6.107   1.859   6.061
 5625SOL    HW217775   6.025   1.862   5.920
 5626SOL     OW17776   5.760   6.177   5.697
 5626SOL    HW117777   5.836   6.241   5.687
 5626SOL    HW217778   5.794   6.084   5.701
 5627SOL     OW17779   1.230   0.704   1.559
 5627SOL    HW117780   1.263   0.617   1.595
 5627SOL    HW217781   1.256   0.778   1.621
 5628SOL     OW17782   0.971   1.573   4.139
 5628SOL    HW117783   0.875   1.546   4.127
 5628SOL    HW217784   0.984   1.609   4.232
 5629SOL     OW17785   3.642   3.824   3.929
 5629SOL    HW117786   3.599   3.802   4.016
 5629SOL    HW217787   3.633   3.922   3.911
 5630SOL     OW17788   6.270   4.177   1.126
 5630SOL    HW117789   6.302   4.236   1.200
 5630SOL    HW217790   6.329   4.188   1.046
 5631SOL     OW17791   6.332   0.982   6.091
 5631SOL    HW117792   6.296   0.973   6.184
 5631SOL    HW217793   6.259   0.962   6.025
 5632SOL     OW17794   3.109   1.933   1.082
 5632SOL    HW117795   3.031   1.952   1.141
 5632SOL    HW217796   3.081   1.936   0.986
 5633SOL     OW17797   0.169   3.323   5.940
 5633SOL    HW117798   0.176   3.386   6.017
 5633SOL    HW217799   0.100   3.253   5.960
 5634SOL     OW17800   4.310   5.959   5.698
 5634SOL    HW117801   4.341   6.016   5.774
 5634SOL    HW217802   4.389   5.923   5.649
 5635SOL     OW17803   2.747   1.489   0.187
 5635SOL    HW117804   2.839   1.451   0.173
 5635SOL    HW217805   2.753   1.569   0.248
 5636SOL     OW17806   4.661   0.928   4.324
 5636SOL    HW117807   4.637   1.001   4.387
 5636SOL    HW217808   4.728   0.962   4.257
 5637SOL     OW17809   5.909   0.180   3.056
 5637SOL    HW117810   5.915   0.245   2.981
 5637SOL    HW217811   5.813   0.164   3.079
 5638SOL     OW17812   6.955   3.680   0.566
 5638SOL    HW117813   6.928   3.665   0.661
 5638SOL    HW217814   6.926   3.602   0.510
 5639SOL     OW17815   4.031   0.213   6.551
 5639SOL    HW117816   4.107   0.167   6.598
 5639SOL    HW217817   4.012   0.300   6.596
 5640SOL     OW17818   1.333   6.454   3.382
 5640SOL    HW117819   1.259   6.517   3.405
 5640SOL    HW217820   1.332   6.377   3.446
 5641SOL     OW17821   6.554   6.032   4.588
 5641SOL    HW117822   6.536   5.946   4.540
 5641SOL    HW217823   6.468   6.075   4.613
 5642SOL     OW17824   1.321   0.734   0.597
 5642SOL    HW117825   1.420   0.719   0.596
 5642SOL    HW217826   1.299   0.815   0.542
 5643SOL     OW17827   5.103   2.203   0.767
 5643SOL    HW117828   5.051   2.288   0.777
 5643SOL    HW217829   5.055   2.143   0.702
 5644SOL     OW17830   2.639   0.330   5.692
 5644SOL    HW117831   2.685   0.286   5.615
 5644SOL    HW217832   2.552   0.369   5.660
 5645SOL     OW17833   5.200   4.085   4.169
 5645SOL    HW117834   5.195   4.159   4.102
 5645SOL    HW217835   5.294   4.076   4.202
 5646SOL     OW17836   1.242   4.798   2.668
 5646SOL    HW117837   1.255   4.700   2.654
 5646SOL    HW217838   1.330   4.842   2.682
 5647SOL     OW17839   4.322   5.389   2.516
 5647SOL    HW117840   4.314   5.480   2.476
 5647SOL    HW217841   4.315   5.320   2.443
 5648SOL     OW17842   5.827   6.647   3.538
 5648SOL    HW117843   5.857   6.677   3.629
 5648SOL    HW217844   5.824   6.725   3.476
 5649SOL     OW17845   0.889   0.652   4.465
 5649SOL    HW117846   0.856   0.618   4.553
 5649SOL    HW217847   0.974   0.702   4.478
 5650SOL     OW17848   0.830   3.708   6.386
 5650SOL    HW117849   0.879   3.702   6.299
 5650SOL    HW217850   0.883   3.763   6.451
 5651SOL     OW17851   2.995   0.781   1.207
 5651SOL    HW117852   3.060   0.786   1.283
 5651SOL    HW217853   2.958   0.872   1.189
 5652SOL     OW17854   0.010   6.048   2.101
 5652SOL    HW117855   0.057   6.134   2.079
 5652SOL    HW217856   6.938   6.067   2.118
 5653SOL     OW17857   6.927   0.404   2.694
 5653SOL    HW117858   6.863   0.335   2.660
 5653SOL    HW217859   7.012   0.360   2.721
 5654SOL     OW17860   3.281   6.165   6.006
 5654SOL    HW117861   3.312   6.084   5.956
 5654SOL    HW217862   3.324   6.166   6.097
 5655SOL     OW17863   6.127   3.205   4.176
 5655SOL    HW117864   6.128   3.281   4.241
 5655SOL    HW217865   6.219   3.191   4.140
 5656SOL     OW17866   0.308   4.875   1.889
 5656SOL    HW117867   0.330   4.810   1.816
 5656SOL    HW217868   0.393   4.915   1.925
 5657SOL     OW17869   6.424   5.984   5.663
 5657SOL    HW117870   6.432   6.082   5.681
 5657SOL    HW217871   6.437   5.933   5.749
 5658SOL     OW17872   3.142   2.285   5.434
 5658SOL    HW117873   3.181   2.311   5.346
 5658SOL    HW217874   3.066   2.346   5.457
 5659SOL     OW17875   2.459   3.646   5.497
 5659SOL    HW117876   2.376   3.653   5.552
 5659SOL    HW217877   2.539   3.643   5.557
 5660SOL     OW17878   3.902   1.002   3.982
 5660SOL    HW117879   3.833   1.031   3.915
 5660SOL    HW217880   3.993   1.015   3.944
 5661SOL     OW17881   0.759   5.946   5.798
 5661SOL    HW117882   0.818   5.935   5.877
 5661SOL    HW217883   0.791   6.023   5.743
 5662SOL     OW17884   2.858   5.797   0.415
 5662SOL    HW117885   2.830   5.733   0.344
 5662SOL    HW217886   2.948   5.771   0.449
 5663SOL     OW17887   3.531   1.562   6.399
 5663SOL    HW117888   3.569   1.606   6.481
 5663SOL    HW217889   3.586   1.482   6.375
 5664SOL     OW17890   4.656   6.114   5.380
 5664SOL    HW117891   4.747   6.157   5.375
 5664SOL    HW217892   4.635   6.071   5.292
 5665SOL     OW17893   2.125   1.097   0.842
 5665SOL    HW117894   2.108   0.998   0.842
 5665SOL    HW217895   2.039   1.145   0.859
 5666SOL     OW17896   6.122   3.930   4.760
 5666SOL    HW117897   6.091   3.887   4.675
 5666SOL    HW217898   6.201   3.989   4.741
 5667SOL     OW17899   2.797   4.727   4.177
 5667SOL    HW117900   2.854   4.671   4.236
 5667SOL    HW217901   2.741   4.668   4.118
 5668SOL     OW17902   4.530   4.542   4.385
 5668SOL    HW117903   4.606   4.478   4.390
 5668SOL    HW217904   4.526   4.595   4.470
 5669SOL     OW17905   5.468   3.128   5.894
 5669SOL    HW117906   5.418   3.132   5.808
 5669SOL    HW217907   5.434   3.051   5.949
 5670SOL     OW17908   0.946   3.414   4.016
 5670SOL    HW117909   0.905   3.504   4.002
 5670SOL    HW217910   1.045   3.422   4.018
 5671SOL     OW17911   5.877   5.817   2.656
 5671SOL    HW117912   5.864   5.781   2.563
 5671SOL    HW217913   5.975   5.820   2.676
 5672SOL     OW17914   5.862   3.373   4.711
 5672SOL    HW117915   5.884   3.366   4.808
 5672SOL    HW217916   5.790   3.308   4.688
 5673SOL     OW17917   0.924   2.551   0.542
 5673SOL    HW117918   0.973   2.637   0.530
 5673SOL    HW217919   0.970   2.496   0.611
 5674SOL     OW17920   3.176   4.955   5.454
 5674SOL    HW117921   3.131   4.867   5.438
 5674SOL    HW217922   3.273   4.940   5.476
 5675SOL     OW17923   3.391   1.942   0.872
 5675SOL    HW117924   3.469   1.895   0.831
 5675SOL    HW217925   3.357   1.890   0.950
 5676SOL     OW17926   3.606   1.696   2.071
 5676SOL    HW117927   3.590   1.777   2.015
 5676SOL    HW217928   3.683   1.712   2.132
 5677SOL     OW17929   1.166   0.824   6.229
 5677SOL    HW117930   1.189   0.901   6.169
 5677SOL    HW217931   1.250   0.780   6.260
 5678SOL     OW17932   3.779   2.089   2.283
 5678SOL    HW117933   3.860   2.041   2.248
 5678SOL    HW217934   3.738   2.143   2.210
 5679SOL     OW17935   1.333   3.527   5.831
 5679SOL    HW117936   1.393   3.606   5.819
 5679SOL    HW217937   1.301   3.523   5.926
 5680SOL     OW17938   0.878   5.713   3.927
 5680SOL    HW117939   0.855   5.677   4.018
 5680SOL    HW217940   0.877   5.813   3.930
 5681SOL     OW17941   1.716   3.364   3.042
 5681SOL    HW117942   1.746   3.297   2.973
 5681SOL    HW217943   1.630   3.334   3.083
 5682SOL     OW17944   1.876   4.527   0.484
 5682SOL    HW117945   1.947   4.514   0.415
 5682SOL    HW217946   1.899   4.475   0.566
 5683SOL     OW17947   0.056   5.683   6.305
 5683SOL    HW117948   7.010   5.650   6.242
 5683SOL    HW217949   0.126   5.733   6.255
 5684SOL     OW17950   2.140   3.450   3.863
 5684SOL    HW117951   2.108   3.542   3.838
 5684SOL    HW217952   2.070   3.405   3.919
 5685SOL     OW17953   1.829   1.884   1.524
 5685SOL    HW117954   1.774   1.925   1.597
 5685SOL    HW217955   1.887   1.812   1.562
 5686SOL     OW17956   5.616   5.410   5.416
 5686SOL    HW117957   5.584   5.449   5.503
 5686SOL    HW217958   5.592   5.313   5.412
 5687SOL     OW17959   1.224   0.153   0.049
 5687SOL    HW117960   1.163   0.203   7.012
 5687SOL    HW217961   1.319   0.179   0.030
 5688SOL     OW17962   1.458   2.801   2.491
 5688SOL    HW117963   1.475   2.754   2.577
 5688SOL    HW217964   1.362   2.790   2.465
 5689SOL     OW17965   6.868   2.032   0.665
 5689SOL    HW117966   6.815   2.051   0.748
 5689SOL    HW217967   6.857   1.936   0.640
 5690SOL     OW17968   3.222   5.459   6.623
 5690SOL    HW117969   3.267   5.543   6.652
 5690SOL    HW217970   3.128   5.458   6.657
 5691SOL     OW17971   5.209   2.974   3.173
 5691SOL    HW117972   5.229   2.915   3.251
 5691SOL    HW217973   5.259   3.060   3.183
 5692SOL     OW17974   6.664   4.734   2.457
 5692SOL    HW117975   6.651   4.635   2.463
 5692SOL    HW217976   6.584   4.780   2.495
 5693SOL     OW17977   2.957   0.817   1.806
 5693SOL    HW117978   2.984   0.768   1.723
 5693SOL    HW217979   3.032   0.877   1.835
 5694SOL     OW17980   0.004   6.754   0.848
 5694SOL    HW117981   0.088   6.728   0.894
 5694SOL    HW217982   0.026   6.794   0.759
 5695SOL     OW17983   1.515   0.873   2.379
 5695SOL    HW117984   1.434   0.924   2.411
 5695SOL    HW217985   1.527   0.889   2.281
 5696SOL     OW17986   6.540   1.037   3.573
 5696SOL    HW117987   6.472   1.026   3.500
 5696SOL    HW217988   6.534   0.960   3.636
 5697SOL     OW17989   5.973   1.746   0.164
 5697SOL    HW117990   5.885   1.783   0.133
 5697SOL    HW217991   6.041   1.756   0.092
 5698SOL     OW17992   2.992   1.772   2.980
 5698SOL    HW117993   3.044   1.802   2.900
 5698SOL    HW217994   3.053   1.757   3.057
 5699SOL     OW17995   2.546   2.507   2.661
 5699SOL    HW117996   2.630   2.470   2.702
 5699SOL    HW217997   2.487   2.544   2.733
 5700SOL     OW17998   5.505   1.029   1.888
 5700SOL    HW117999   5.444   1.068   1.956
 5700SOL    HW218000   5.530   0.936   1.915
 5701SOL     OW18001   2.021   1.867   6.971
 5701SOL    HW118002   2.114   1.861   6.935
 5701SOL    HW218003   1.958   1.824   6.907
 5702SOL     OW18004   1.837   6.450   4.837
 5702SOL    HW118005   1.739   6.435   4.824
 5702SOL    HW218006   1.866   6.528   4.782
 5703SOL     OW18007   0.945   3.464   5.936
 5703SOL    HW118008   0.867   3.461   5.999
 5703SOL    HW218009   0.998   3.380   5.945
 5704SOL     OW18010   4.934   5.792   4.432
 5704SOL    HW118011   4.859   5.730   4.410
 5704SOL    HW218012   4.911   5.846   4.513
 5705SOL     OW18013   6.032   1.786   4.568
 5705SOL    HW118014   5.998   1.846   4.640
 5705SOL    HW218015   6.111   1.734   4.603
 5706SOL     OW18016   5.532   0.427   1.439
 5706SOL    HW118017   5.588   0.404   1.359
 5706SOL    HW218018   5.461   0.492   1.412
 5707SOL     OW18019   5.615   6.074   1.418
 5707SOL    HW118020   5.574   6.069   1.327
 5707SOL    HW218021   5.575   6.003   1.476
 5708SOL     OW18022   4.774   6.762   1.668
 5708SOL    HW118023   4.761   6.767   1.767
 5708SOL    HW218024   4.856   6.707   1.648
 5709SOL     OW18025   6.548   2.846   2.435
 5709SOL    HW118026   6.583   2.755   2.410
 5709SOL    HW218027   6.512   2.843   2.528
 5710SOL     OW18028   4.901   1.012   0.371
 5710SOL    HW118029   4.816   1.062   0.389
 5710SOL    HW218030   4.906   0.932   0.429
 5711SOL     OW18031   4.475   1.482   2.288
 5711SOL    HW118032   4.394   1.513   2.337
 5711SOL    HW218033   4.487   1.535   2.204
 5712SOL     OW18034   6.659   6.084   6.902
 5712SOL    HW118035   6.616   6.140   6.973
 5712SOL    HW218036   6.590   6.054   6.837
 5713SOL     OW18037   1.542   0.796   6.592
 5713SOL    HW118038   1.621   0.815   6.535
 5713SOL    HW218039   1.518   0.699   6.585
 5714SOL     OW18040   5.094   0.376   0.957
 5714SOL    HW118041   5.070   0.292   1.007
 5714SOL    HW218042   5.122   0.353   0.864
 5715SOL     OW18043   0.396   6.018   0.928
 5715SOL    HW118044   0.329   6.051   0.861
 5715SOL    HW218045   0.391   6.075   1.010
 5716SOL     OW18046   6.803   4.925   5.561
 5716SOL    HW118047   6.726   4.872   5.599
 5716SOL    HW218048   6.781   5.022   5.564
 5717SOL     OW18049   6.776   6.083   2.177
 5717SOL    HW118050   6.726   6.010   2.222
 5717SOL    HW218051   6.750   6.171   2.216
 5718SOL     OW18052   1.707   4.592   5.961
 5718SOL    HW118053   1.716   4.612   5.864
 5718SOL    HW218054   1.628   4.533   5.976
 5719SOL     OW18055   3.760   3.948   2.015
 5719SOL    HW118056   3.696   3.875   2.039
 5719SOL    HW218057   3.720   4.037   2.038
 5720SOL     OW18058   2.295   3.710   6.542
 5720SOL    HW118059   2.217   3.690   6.601
 5720SOL    HW218060   2.300   3.808   6.525
 5721SOL     OW18061   0.737   2.898   0.642
 5721SOL    HW118062   0.766   2.827   0.706
 5721SOL    HW218063   0.790   2.981   0.657
 5722SOL     OW18064   1.488   0.407   5.866
 5722SOL    HW118065   1.445   0.497   5.856
 5722SOL    HW218066   1.431   0.349   5.924
 5723SOL     OW18067   4.470   3.672   6.828
 5723SOL    HW118068   4.476   3.622   6.742
 5723SOL    HW218069   4.562   3.698   6.859
 5724SOL     OW18070   6.780   2.198   6.186
 5724SOL    HW118071   6.880   2.189   6.185
 5724SOL    HW218072   6.738   2.111   6.161
 5725SOL     OW18073   7.002   4.339   5.377
 5725SOL    HW118074   6.927   4.366   5.438
 5725SOL    HW218075   6.968   4.277   5.307
 5726SOL     OW18076   4.256   5.209   1.653
 5726SOL    HW118077   4.194   5.288   1.646
 5726SOL    HW218078   4.342   5.238   1.695
 5727SOL     OW18079   0.867   3.090   6.015
 5727SOL    HW118080   0.820   3.178   6.014
 5727SOL    HW218081   0.928   3.086   6.094
 5728SOL     OW18082   2.282   5.880   4.329
 5728SOL    HW118083   2.361   5.830   4.295
 5728SOL    HW218084   2.312   5.965   4.372
 5729SOL     OW18085   2.567   1.739   4.325
 5729SOL    HW118086   2.506   1.712   4.399
 5729SOL    HW218087   2.531   1.707   4.237
 5730SOL     OW18088   6.358   4.740   4.052
 5730SOL    HW118089   6.318   4.811   4.111
 5730SOL    HW218090   6.300   4.728   3.971
 5731SOL     OW18091   6.382   0.059   2.480
 5731SOL    HW118092   6.400   0.097   2.571
 5731SOL    HW218093   6.469   0.036   2.435
 5732SOL     OW18094   5.144   0.218   3.491
 5732SOL    HW118095   5.166   0.176   3.579
 5732SOL    HW218096   5.229   0.238   3.442
 5733SOL     OW18097   2.888   0.848   5.457
 5733SOL    HW118098   2.946   0.856   5.376
 5733SOL    HW218099   2.793   0.868   5.433
 5734SOL     OW18100   2.928   6.060   4.006
 5734SOL    HW118101   2.987   6.061   3.924
 5734SOL    HW218102   2.961   6.129   4.071
 5735SOL     OW18103   2.664   1.058   1.311
 5735SOL    HW118104   2.626   1.142   1.273
 5735SOL    HW218105   2.751   1.037   1.265
 5736SOL     OW18106   1.765   4.358   1.608
 5736SOL    HW118107   1.832   4.340   1.680
 5736SOL    HW218108   1.801   4.327   1.520
 5737SOL     OW18109   5.626   3.971   0.241
 5737SOL    HW118110   5.664   3.920   0.163
 5737SOL    HW218111   5.595   4.061   0.211
 5738SOL     OW18112   0.789   5.951   4.516
 5738SOL    HW118113   0.765   5.890   4.441
 5738SOL    HW218114   0.744   6.040   4.503
 5739SOL     OW18115   0.663   2.530   1.394
 5739SOL    HW118116   0.699   2.615   1.356
 5739SOL    HW218117   0.704   2.514   1.484
 5740SOL     OW18118   4.440   5.344   6.971
 5740SOL    HW118119   4.526   5.344   7.022
 5740SOL    HW218120   4.396   5.255   6.980
 5741SOL     OW18121   0.355   2.035   1.907
 5741SOL    HW118122   0.291   2.108   1.932
 5741SOL    HW218123   0.422   2.023   1.979
 5742SOL     OW18124   0.071   5.070   3.577
 5742SOL    HW118125   0.090   4.993   3.637
 5742SOL    HW218126   6.996   5.084   3.570
 5743SOL     OW18127   0.671   0.415   4.814
 5743SOL    HW118128   0.640   0.443   4.904
 5743SOL    HW218129   0.714   0.492   4.767
 5744SOL     OW18130   5.705   0.813   2.283
 5744SOL    HW118131   5.653   0.767   2.211
 5744SOL    HW218132   5.641   0.857   2.346
 5745SOL     OW18133   0.137   3.323   2.710
 5745SOL    HW118134   0.139   3.333   2.611
 5745SOL    HW218135   0.208   3.380   2.751
 5746SOL     OW18136   0.780   3.311   6.338
 5746SOL    HW118137   0.710   3.352   6.396
 5746SOL    HW218138   0.790   3.214   6.361
 5747SOL     OW18139   6.849   6.645   3.414
 5747SOL    HW118140   6.835   6.729   3.362
 5747SOL    HW218141   6.947   6.625   3.420
 5748SOL     OW18142   1.238   1.015   4.129
 5748SOL    HW118143   1.277   0.928   4.099
 5748SOL    HW218144   1.148   1.028   4.088
 5749SOL     OW18145   0.556   1.313   3.190
 5749SOL    HW118146   0.507   1.325   3.276
 5749SOL    HW218147   0.603   1.224   3.190
 5750SOL     OW18148   4.390   5.575   2.024
 5750SOL    HW118149   4.346   5.575   2.114
 5750SOL    HW218150   4.454   5.652   2.019
 5751SOL     OW18151   1.290   1.572   6.589
 5751SOL    HW118152   1.287   1.571   6.689
 5751SOL    HW218153   1.196   1.576   6.554
 5752SOL     OW18154   2.526   0.356   6.722
 5752SOL    HW118155   2.573   0.367   6.634
 5752SOL    HW218156   2.478   0.269   6.724
 5753SOL     OW18157   4.086   1.368   6.401
 5753SOL    HW118158   4.039   1.290   6.359
 5753SOL    HW218159   4.177   1.339   6.433
 5754SOL     OW18160   5.934   5.949   0.921
 5754SOL    HW118161   6.005   6.005   0.877
 5754SOL    HW218162   5.887   6.003   0.990
 5755SOL     OW18163   3.110   4.003   2.398
 5755SOL    HW118164   3.167   4.014   2.316
 5755SOL    HW218165   3.043   3.931   2.382
 5756SOL     OW18166   6.150   0.804   3.505
 5756SOL    HW118167   6.248   0.782   3.512
 5756SOL    HW218168   6.134   0.896   3.540
 5757SOL     OW18169   6.764   6.722   1.800
 5757SOL    HW118170   6.670   6.749   1.823
 5757SOL    HW218171   6.805   6.790   1.739
 5758SOL     OW18172   2.852   1.357   5.473
 5758SOL    HW118173   2.804   1.429   5.523
 5758SOL    HW218174   2.940   1.391   5.440
 5759SOL     OW18175   0.114   1.135   5.643
 5759SOL    HW118176   0.137   1.062   5.579
 5759SOL    HW218177   0.137   1.224   5.602
 5760SOL     OW18178   6.779   6.005   1.370
 5760SOL    HW118179   6.806   5.997   1.466
 5760SOL    HW218180   6.760   6.101   1.348
 5761SOL     OW18181   3.601   0.373   4.280
 5761SOL    HW118182   3.567   0.312   4.352
 5761SOL    HW218183   3.630   0.459   4.321
 5762SOL     OW18184   4.802   0.223   1.378
 5762SOL    HW118185   4.768   0.280   1.303
 5762SOL    HW218186   4.741   0.145   1.392
 5763SOL     OW18187   3.872   0.996   0.727
 5763SOL    HW118188   3.924   0.959   0.803
 5763SOL    HW218189   3.776   1.003   0.752
 5764SOL     OW18190   3.198   2.826   6.585
 5764SOL    HW118191   3.208   2.728   6.598
 5764SOL    HW218192   3.282   2.872   6.614
 5765SOL     OW18193   6.850   5.148   6.395
 5765SOL    HW118194   6.942   5.188   6.395
 5765SOL    HW218195   6.853   5.057   6.354
 5766SOL     OW18196   2.473   1.723   3.168
 5766SOL    HW118197   2.403   1.726   3.096
 5766SOL    HW218198   2.560   1.757   3.132
 5767SOL     OW18199   4.335   6.363   0.125
 5767SOL    HW118200   4.315   6.300   0.051
 5767SOL    HW218201   4.336   6.457   0.091
 5768SOL     OW18202   5.284   0.539   2.439
 5768SOL    HW118203   5.203   0.596   2.447
 5768SOL    HW218204   5.361   0.584   2.486
 5769SOL     OW18205   0.004   4.694   3.400
 5769SOL    HW118206   0.001   4.782   3.353
 5769SOL    HW218207   6.955   4.690   3.468
 5770SOL     OW18208   4.602   2.643   0.666
 5770SOL    HW118209   4.664   2.567   0.643
 5770SOL    HW218210   4.606   2.712   0.594
 5771SOL     OW18211   0.766   0.182   1.695
 5771SOL    HW118212   0.767   0.112   1.767
 5771SOL    HW218213   0.676   0.183   1.651
 5772SOL     OW18214   6.508   4.859   5.648
 5772SOL    HW118215   6.486   4.934   5.586
 5772SOL    HW218216   6.436   4.789   5.642
 5773SOL     OW18217   4.817   6.533   5.245
 5773SOL    HW118218   4.906   6.573   5.265
 5773SOL    HW218219   4.751   6.605   5.226
 5774SOL     OW18220   1.494   4.299   1.685
 5774SOL    HW118221   1.574   4.325   1.630
 5774SOL    HW218222   1.525   4.261   1.772
 5775SOL     OW18223   1.520   0.897   7.003
 5775SOL    HW118224   1.614   0.912   6.970
 5775SOL    HW218225   1.458   0.957   6.952
 5776SOL     OW18226   5.101   0.114   5.418
 5776SOL    HW118227   5.057   0.152   5.336
 5776SOL    HW218228   5.172   0.050   5.390
 5777SOL     OW18229   4.624   6.508   4.978
 5777SOL    HW118230   4.687   6.487   4.903
 5777SOL    HW218231   4.540   6.456   4.965
 5778SOL     OW18232   2.499   6.520   3.403
 5778SOL    HW118233   2.420   6.570   3.367
 5778SOL    HW218234   2.470   6.431   3.437
 5779SOL     OW18235   3.539   6.403   2.203
 5779SOL    HW118236   3.511   6.320   2.252
 5779SOL    HW218237   3.614   6.380   2.140
 5780SOL     OW18238   7.012   4.382   0.327
 5780SOL    HW118239   0.008   4.445   0.252
 5780SOL    HW218240   0.035   4.413   0.410
 5781SOL     OW18241   4.735   4.784   6.114
 5781SOL    HW118242   4.637   4.804   6.116
 5781SOL    HW218243   4.750   4.686   6.127
 5782SOL     OW18244   4.473   1.667   2.777
 5782SOL    HW118245   4.535   1.595   2.806
 5782SOL    HW218246   4.501   1.754   2.818
 5783SOL     OW18247   2.565   6.123   3.671
 5783SOL    HW118248   2.540   6.061   3.597
 5783SOL    HW218249   2.484   6.173   3.701
 5784SOL     OW18250   0.332   6.823   2.073
 5784SOL    HW118251   0.344   6.820   1.973
 5784SOL    HW218252   0.392   6.755   2.116
 5785SOL     OW18253   2.385   1.281   5.531
 5785SOL    HW118254   2.438   1.223   5.469
 5785SOL    HW218255   2.444   1.352   5.569
 5786SOL     OW18256   2.035   1.457   5.961
 5786SOL    HW118257   1.959   1.394   5.977
 5786SOL    HW218258   2.017   1.511   5.879
 5787SOL     OW18259   0.609   2.491   6.120
 5787SOL    HW118260   0.676   2.541   6.065
 5787SOL    HW218261   0.609   2.395   6.093
 5788SOL     OW18262   0.477   2.062   2.145
 5788SOL    HW118263   0.472   2.161   2.158
 5788SOL    HW218264   0.556   2.026   2.195
 5789SOL     OW18265   3.596   1.319   6.601
 5789SOL    HW118266   3.500   1.327   6.630
 5789SOL    HW218267   3.600   1.311   6.502
 5790SOL     OW18268   6.164   6.270   2.730
 5790SOL    HW118269   6.109   6.186   2.731
 5790SOL    HW218270   6.231   6.267   2.803
 5791SOL     OW18271   3.873   0.879   1.903
 5791SOL    HW118272   3.801   0.891   1.971
 5791SOL    HW218273   3.836   0.896   1.811
 5792SOL     OW18274   4.881   1.767   2.628
 5792SOL    HW118275   4.889   1.790   2.725
 5792SOL    HW218276   4.784   1.756   2.605
 5793SOL     OW18277   3.981   1.487   0.906
 5793SOL    HW118278   3.905   1.475   0.843
 5793SOL    HW218279   4.055   1.537   0.861
 5794SOL     OW18280   3.672   6.355   0.176
 5794SOL    HW118281   3.650   6.274   0.231
 5794SOL    HW218282   3.600   6.370   0.109
 5795SOL     OW18283   0.724   6.670   1.931
 5795SOL    HW118284   0.651   6.642   1.870
 5795SOL    HW218285   0.685   6.704   2.017
 5796SOL     OW18286   5.067   0.932   5.943
 5796SOL    HW118287   5.040   0.894   5.854
 5796SOL    HW218288   5.101   1.025   5.931
 5797SOL     OW18289   5.957   1.251   6.548
 5797SOL    HW118290   6.052   1.218   6.548
 5797SOL    HW218291   5.955   1.348   6.570
 5798SOL     OW18292   2.177   2.740   4.329
 5798SOL    HW118293   2.117   2.817   4.307
 5798SOL    HW218294   2.179   2.725   4.428
 5799SOL     OW18295   2.665   0.895   3.772
 5799SOL    HW118296   2.684   0.990   3.796
 5799SOL    HW218297   2.644   0.889   3.674
 5800SOL     OW18298   1.776   5.845   1.417
 5800SOL    HW118299   1.846   5.916   1.412
 5800SOL    HW218300   1.688   5.883   1.387
 5801SOL     OW18301   2.109   2.079   3.416
 5801SOL    HW118302   2.017   2.040   3.419
 5801SOL    HW218303   2.105   2.172   3.382
 5802SOL     OW18304   0.110   6.672   1.876
 5802SOL    HW118305   0.149   6.647   1.964
 5802SOL    HW218306   0.037   6.608   1.852
 5803SOL     OW18307   0.016   6.842   4.542
 5803SOL    HW118308   6.945   6.859   4.567
 5803SOL    HW218309   0.043   6.751   4.573
 5804SOL     OW18310   6.551   3.294   3.361
 5804SOL    HW118311   6.588   3.277   3.453
 5804SOL    HW218312   6.583   3.223   3.299
 5805SOL     OW18313   0.470   1.580   1.837
 5805SOL    HW118314   0.375   1.610   1.844
 5805SOL    HW218315   0.474   1.493   1.788
 5806SOL     OW18316   6.953   4.152   2.033
 5806SOL    HW118317   6.928   4.082   1.966
 5806SOL    HW218318   6.873   4.177   2.087
 5807SOL     OW18319   0.779   1.357   2.747
 5807SOL    HW118320   0.757   1.435   2.806
 5807SOL    HW218321   0.729   1.365   2.661
 5808SOL     OW18322   6.203   5.638   6.162
 5808SOL    HW118323   6.274   5.667   6.226
 5808SOL    HW218324   6.142   5.715   6.142
 5809SOL     OW18325   6.691   3.749   5.410
 5809SOL    HW118326   6.666   3.785   5.320
 5809SOL    HW218327   6.743   3.665   5.399
 5810SOL     OW18328   0.798   6.696   4.668
 5810SOL    HW118329   0.790   6.790   4.703
 5810SOL    HW218330   0.861   6.645   4.726
 5811SOL     OW18331   3.006   5.681   0.167
 5811SOL    HW118332   3.039   5.632   0.247
 5811SOL    HW218333   2.921   5.640   0.134
 5812SOL     OW18334   6.307   2.539   5.799
 5812SOL    HW118335   6.398   2.559   5.834
 5812SOL    HW218336   6.238   2.567   5.866
 5813SOL     OW18337   6.883   5.162   1.040
 5813SOL    HW118338   6.823   5.082   1.046
 5813SOL    HW218339   6.841   5.230   0.981
 5814SOL     OW18340   5.052   1.735   2.426
 5814SOL    HW118341   5.013   1.757   2.515
 5814SOL    HW218342   5.152   1.739   2.431
 5815SOL     OW18343   0.857   4.473   4.449
 5815SOL    HW118344   0.838   4.378   4.425
 5815SOL    HW218345   0.926   4.510   4.387
 5816SOL     OW18346   6.413   3.523   1.274
 5816SOL    HW118347   6.323   3.510   1.315
 5816SOL    HW218348   6.480   3.541   1.347
 5817SOL     OW18349   6.923   2.022   3.653
 5817SOL    HW118350   6.830   1.992   3.672
 5817SOL    HW218351   6.987   1.972   3.712
 5818SOL     OW18352   2.717   1.839   3.531
 5818SOL    HW118353   2.759   1.829   3.621
 5818SOL    HW218354   2.619   1.824   3.538
 5819SOL     OW18355   3.974   4.546   1.532
 5819SOL    HW118356   4.067   4.549   1.496
 5819SOL    HW218357   3.944   4.451   1.539
 5820SOL     OW18358   0.930   6.236   2.293
 5820SOL    HW118359   0.976   6.285   2.219
 5820SOL    HW218360   0.846   6.195   2.259
 5821SOL     OW18361   5.286   5.753   1.163
 5821SOL    HW118362   5.364   5.816   1.155
 5821SOL    HW218363   5.314   5.670   1.211
 5822SOL     OW18364   1.201   3.972   2.970
 5822SOL    HW118365   1.296   3.972   3.003
 5822SOL    HW218366   1.199   4.008   2.877
 5823SOL     OW18367   2.147   6.807   4.911
 5823SOL    HW118368   2.161   6.898   4.872
 5823SOL    HW218369   2.052   6.798   4.941
 5824SOL     OW18370   1.608   5.974   2.303
 5824SOL    HW118371   1.587   5.959   2.206
 5824SOL    HW218372   1.660   5.896   2.338
 5825SOL     OW18373   2.888   2.223   4.861
 5825SOL    HW118374   2.805   2.277   4.875
 5825SOL    HW218375   2.961   2.258   4.919
 5826SOL     OW18376   1.398   5.858   5.843
 5826SOL    HW118377   1.484   5.889   5.884
 5826SOL    HW218378   1.379   5.912   5.761
 5827SOL     OW18379   1.031   4.664   4.077
 5827SOL    HW118380   0.944   4.712   4.064
 5827SOL    HW218381   1.078   4.658   3.989
 5828SOL     OW18382   5.434   0.103   4.780
 5828SOL    HW118383   5.400   0.188   4.740
 5828SOL    HW218384   5.515   0.072   4.730
 5829SOL     OW18385   1.898   1.152   2.581
 5829SOL    HW118386   1.937   1.130   2.491
 5829SOL    HW218387   1.859   1.068   2.620
 5830SOL     OW18388   4.691   4.710   4.170
 5830SOL    HW118389   4.709   4.626   4.118
 5830SOL    HW218390   4.651   4.686   4.258
 5831SOL     OW18391   2.197   1.756   4.106
 5831SOL    HW118392   2.217   1.663   4.075
 5831SOL    HW218393   2.269   1.818   4.074
 5832SOL     OW18394   2.876   5.203   3.668
 5832SOL    HW118395   2.955   5.169   3.720
 5832SOL    HW218396   2.906   5.275   3.605
 5833SOL     OW18397   2.466   4.467   1.268
 5833SOL    HW118398   2.477   4.545   1.205
 5833SOL    HW218399   2.527   4.393   1.240
 5834SOL     OW18400   0.120   0.642   6.141
 5834SOL    HW118401   0.156   0.679   6.055
 5834SOL    HW218402   0.195   0.633   6.207
 5835SOL     OW18403   3.420   0.754   3.437
 5835SOL    HW118404   3.461   0.784   3.523
 5835SOL    HW218405   3.326   0.788   3.431
 5836SOL     OW18406   5.648   4.791   1.189
 5836SOL    HW118407   5.637   4.881   1.148
 5836SOL    HW218408   5.741   4.759   1.175
 5837SOL     OW18409   2.152   4.110   0.168
 5837SOL    HW118410   2.243   4.108   0.209
 5837SOL    HW218411   2.086   4.145   0.235
 5838SOL     OW18412   3.171   3.646   0.796
 5838SOL    HW118413   3.179   3.726   0.854
 5838SOL    HW218414   3.253   3.637   0.739
 5839SOL     OW18415   2.109   1.819   1.075
 5839SOL    HW118416   2.094   1.819   1.174
 5839SOL    HW218417   2.041   1.877   1.030
 5840SOL     OW18418   6.394   3.543   2.566
 5840SOL    HW118419   6.482   3.541   2.520
 5840SOL    HW218420   6.347   3.629   2.544
 5841SOL     OW18421   4.416   1.519   0.254
 5841SOL    HW118422   4.418   1.444   0.188
 5841SOL    HW218423   4.343   1.503   0.320
 5842SOL     OW18424   2.991   1.916   2.205
 5842SOL    HW118425   2.934   1.943   2.282
 5842SOL    HW218426   3.009   1.997   2.148
 5843SOL     OW18427   2.237   2.715   1.205
 5843SOL    HW118428   2.255   2.655   1.282
 5843SOL    HW218429   2.236   2.810   1.236
 5844SOL     OW18430   6.117   5.600   4.904
 5844SOL    HW118431   6.169   5.536   4.848
 5844SOL    HW218432   6.073   5.551   4.979
 5845SOL     OW18433   2.289   5.918   3.642
 5845SOL    HW118434   2.264   6.015   3.648
 5845SOL    HW218435   2.340   5.892   3.724
 5846SOL     OW18436   0.429   4.357   5.498
 5846SOL    HW118437   0.414   4.437   5.441
 5846SOL    HW218438   0.518   4.317   5.477
 5847SOL     OW18439   2.214   3.631   5.587
 5847SOL    HW118440   2.136   3.689   5.565
 5847SOL    HW218441   2.194   3.537   5.558
 5848SOL     OW18442   2.731   6.283   2.582
 5848SOL    HW118443   2.748   6.366   2.529
 5848SOL    HW218444   2.650   6.236   2.546
 5849SOL     OW18445   3.252   6.724   6.220
 5849SOL    HW118446   3.266   6.768   6.131
 5849SOL    HW218447   3.326   6.659   6.238
 5850SOL     OW18448   6.165   2.613   1.214
 5850SOL    HW118449   6.107   2.620   1.133
 5850SOL    HW218450   6.190   2.705   1.245
 5851SOL     OW18451   1.254   2.696   6.471
 5851SOL    HW118452   1.209   2.777   6.431
 5851SOL    HW218453   1.185   2.634   6.508
 5852SOL     OW18454   4.294   4.783   3.455
 5852SOL    HW118455   4.326   4.726   3.380
 5852SOL    HW218456   4.370   4.838   3.490
 5853SOL     OW18457   4.409   5.063   6.928
 5853SOL    HW118458   4.400   5.058   6.828
 5853SOL    HW218459   4.472   4.992   6.959
 5854SOL     OW18460   2.499   4.204   5.298
 5854SOL    HW118461   2.484   4.122   5.243
 5854SOL    HW218462   2.439   4.278   5.264
 5855SOL     OW18463   0.947   1.870   4.809
 5855SOL    HW118464   1.034   1.902   4.772
 5855SOL    HW218465   0.952   1.771   4.825
 5856SOL     OW18466   6.804   0.822   2.742
 5856SOL    HW118467   6.832   0.741   2.795
 5856SOL    HW218468   6.863   0.899   2.766
 5857SOL     OW18469   6.273   5.724   6.875
 5857SOL    HW118470   6.225   5.808   6.899
 5857SOL    HW218471   6.367   5.729   6.911
 5858SOL     OW18472   3.181   1.688   0.640
 5858SOL    HW118473   3.141   1.731   0.721
 5858SOL    HW218474   3.248   1.750   0.599
 5859SOL     OW18475   6.596   4.712   1.639
 5859SOL    HW118476   6.561   4.623   1.669
 5859SOL    HW218477   6.550   4.739   1.554
 5860SOL     OW18478   1.888   3.276   1.768
 5860SOL    HW118479   1.900   3.193   1.822
 5860SOL    HW218480   1.792   3.304   1.772
 5861SOL     OW18481   5.101   6.373   5.124
 5861SOL    HW118482   5.022   6.331   5.081
 5861SOL    HW218483   5.115   6.465   5.087
 5862SOL     OW18484   0.452   5.201   1.731
 5862SOL    HW118485   0.509   5.206   1.649
 5862SOL    HW218486   0.465   5.283   1.786
 5863SOL     OW18487   3.719   6.988   5.715
 5863SOL    HW118488   3.694   6.961   5.622
 5863SOL    HW218489   3.794   6.930   5.747
 5864SOL     OW18490   4.138   3.534   3.036
 5864SOL    HW118491   4.041   3.519   3.055
 5864SOL    HW218492   4.194   3.482   3.100
 5865SOL     OW18493   6.827   6.166   0.819
 5865SOL    HW118494   6.911   6.220   0.829
 5865SOL    HW218495   6.796   6.136   0.909
 5866SOL     OW18496   3.530   4.157   4.170
 5866SOL    HW118497   3.605   4.142   4.233
 5866SOL    HW218498   3.566   4.176   4.078
 5867SOL     OW18499   5.297   0.513   0.090
 5867SOL    HW118500   5.284   0.555   0.180
 5867SOL    HW218501   5.257   0.572   0.020
 5868SOL     OW18502   1.338   1.151   0.658
 5868SOL    HW118503   1.331   1.243   0.620
 5868SOL    HW218504   1.312   1.152   0.754
 5869SOL     OW18505   2.031   5.228   3.773
 5869SOL    HW118506   2.034   5.157   3.704
 5869SOL    HW218507   1.964   5.298   3.747
 5870SOL     OW18508   4.300   6.689   3.626
 5870SOL    HW118509   4.339   6.605   3.663
 5870SOL    HW218510   4.267   6.671   3.533
 5871SOL     OW18511   4.121   3.368   3.261
 5871SOL    HW118512   4.117   3.298   3.332
 5871SOL    HW218513   4.139   3.457   3.303
 5872SOL     OW18514   3.792   5.360   1.875
 5872SOL    HW118515   3.710   5.401   1.834
 5872SOL    HW218516   3.831   5.293   1.812
 5873SOL     OW18517   3.893   6.659   2.025
 5873SOL    HW118518   3.848   6.737   2.068
 5873SOL    HW218519   3.972   6.690   1.973
 5874SOL     OW18520   0.738   2.649   4.381
 5874SOL    HW118521   0.687   2.640   4.296
 5874SOL    HW218522   0.711   2.576   4.444
 5875SOL     OW18523   3.800   2.473   1.282
 5875SOL    HW118524   3.819   2.571   1.283
 5875SOL    HW218525   3.841   2.430   1.363
 5876SOL     OW18526   4.098   3.716   2.608
 5876SOL    HW118527   4.063   3.782   2.674
 5876SOL    HW218528   4.111   3.627   2.653
 5877SOL     OW18529   4.248   4.737   1.888
 5877SOL    HW118530   4.332   4.749   1.941
 5877SOL    HW218531   4.240   4.641   1.860
 5878SOL     OW18532   0.517   3.643   2.096
 5878SOL    HW118533   0.586   3.579   2.061
 5878SOL    HW218534   0.540   3.736   2.067
 5879SOL     OW18535   2.020   3.980   4.915
 5879SOL    HW118536   1.989   3.886   4.905
 5879SOL    HW218537   2.117   3.981   4.940
 5880SOL     OW18538   2.156   5.821   0.183
 5880SOL    HW118539   2.150   5.807   0.084
 5880SOL    HW218540   2.205   5.906   0.202
 5881SOL     OW18541   1.535   6.261   4.638
 5881SOL    HW118542   1.605   6.325   4.605
 5881SOL    HW218543   1.578   6.192   4.695
 5882SOL     OW18544   5.092   0.726   2.452
 5882SOL    HW118545   5.154   0.798   2.422
 5882SOL    HW218546   4.997   0.752   2.431
 5883SOL     OW18547   0.798   3.309   5.700
 5883SOL    HW118548   0.739   3.370   5.648
 5883SOL    HW218549   0.811   3.346   5.793
 5884SOL     OW18550   6.885   1.309   3.398
 5884SOL    HW118551   6.870   1.380   3.330
 5884SOL    HW218552   6.981   1.306   3.424
 5885SOL     OW18553   6.389   5.116   0.306
 5885SOL    HW118554   6.447   5.123   0.386
 5885SOL    HW218555   6.300   5.158   0.325
 5886SOL     OW18556   6.079   2.568   6.054
 5886SOL    HW118557   6.176   2.580   6.075
 5886SOL    HW218558   6.041   2.654   6.021
 5887SOL     OW18559   4.265   6.784   2.144
 5887SOL    HW118560   4.221   6.705   2.186
 5887SOL    HW218561   4.333   6.822   2.208
 5888SOL     OW18562   0.131   5.625   2.732
 5888SOL    HW118563   0.148   5.609   2.635
 5888SOL    HW218564   0.045   5.675   2.744
 5889SOL     OW18565   3.345   6.723   0.723
 5889SOL    HW118566   3.420   6.728   0.789
 5889SOL    HW218567   3.260   6.699   0.770
 5890SOL     OW18568   4.320   5.141   6.184
 5890SOL    HW118569   4.251   5.178   6.246
 5890SOL    HW218570   4.276   5.100   6.104
 5891SOL     OW18571   2.548   3.036   6.674
 5891SOL    HW118572   2.507   3.113   6.724
 5891SOL    HW218573   2.646   3.052   6.663
 5892SOL     OW18574   3.302   4.939   1.219
 5892SOL    HW118575   3.342   4.848   1.215
 5892SOL    HW218576   3.276   4.960   1.313
 5893SOL     OW18577   0.458   3.038   1.879
 5893SOL    HW118578   0.535   3.029   1.943
 5893SOL    HW218579   0.455   3.132   1.845
 5894SOL     OW18580   2.253   4.759   3.515
 5894SOL    HW118581   2.310   4.763   3.433
 5894SOL    HW218582   2.284   4.827   3.581
 5895SOL     OW18583   4.846   4.710   3.711
 5895SOL    HW118584   4.815   4.746   3.623
 5895SOL    HW218585   4.822   4.775   3.783
 5896SOL     OW18586   5.181   2.347   5.397
 5896SOL    HW118587   5.253   2.303   5.344
 5896SOL    HW218588   5.137   2.418   5.342
 5897SOL     OW18589   4.634   4.710   0.522
 5897SOL    HW118590   4.659   4.778   0.454
 5897SOL    HW218591   4.614   4.755   0.609
 5898SOL     OW18592   1.946   5.512   2.411
 5898SOL    HW118593   1.906   5.420   2.408
 5898SOL    HW218594   2.027   5.511   2.470
 5899SOL     OW18595   4.702   0.448   3.651
 5899SOL    HW118596   4.734   0.371   3.707
 5899SOL    HW218597   4.774   0.516   3.642
 5900SOL     OW18598   3.754   5.111   2.077
 5900SOL    HW118599   3.824   5.174   2.112
 5900SOL    HW218600   3.726   5.140   1.986
 5901SOL     OW18601   2.813   6.210   3.544
 5901SOL    HW118602   2.729   6.196   3.596
 5901SOL    HW218603   2.826   6.135   3.480
 5902SOL     OW18604   6.919   1.914   0.346
 5902SOL    HW118605   6.872   1.857   0.414
 5902SOL    HW218606   6.907   1.874   0.255
 5903SOL     OW18607   0.956   2.166   6.218
 5903SOL    HW118608   0.916   2.258   6.216
 5903SOL    HW218609   0.888   2.101   6.251
 5904SOL     OW18610   0.044   3.444   1.993
 5904SOL    HW118611   0.122   3.491   2.034
 5904SOL    HW218612   0.038   3.351   2.030
 5905SOL     OW18613   6.904   3.503   2.536
 5905SOL    HW118614   6.966   3.433   2.500
 5905SOL    HW218615   6.924   3.591   2.492
 5906SOL     OW18616   5.767   1.969   3.412
 5906SOL    HW118617   5.824   2.007   3.338
 5906SOL    HW218618   5.675   1.954   3.378
 5907SOL     OW18619   1.566   0.548   2.180
 5907SOL    HW118620   1.584   0.497   2.264
 5907SOL    HW218621   1.481   0.599   2.190
 5908SOL     OW18622   0.645   3.052   4.817
 5908SOL    HW118623   0.739   3.028   4.790
 5908SOL    HW218624   0.613   2.988   4.886
 5909SOL     OW18625   6.967   4.394   6.109
 5909SOL    HW118626   0.023   4.451   6.088
 5909SOL    HW218627   6.977   4.305   6.065
 5910SOL     OW18628   1.116   1.311   3.342
 5910SOL    HW118629   1.123   1.409   3.326
 5910SOL    HW218630   1.094   1.264   3.256
 5911SOL     OW18631   5.557   4.841   6.595
 5911SOL    HW118632   5.512   4.867   6.509
 5911SOL    HW218633   5.544   4.744   6.611
 5912SOL     OW18634   0.009   1.054   2.041
 5912SOL    HW118635   0.099   1.070   2.082
 5912SOL    HW218636   7.010   1.132   1.983
 5913SOL     OW18637   0.194   3.391   1.253
 5913SOL    HW118638   0.140   3.307   1.250
 5913SOL    HW218639   0.280   3.373   1.302
 5914SOL     OW18640   1.574   6.303   0.779
 5914SOL    HW118641   1.535   6.395   0.777
 5914SOL    HW218642   1.662   6.305   0.826
 5915SOL     OW18643   5.622   0.787   5.033
 5915SOL    HW118644   5.577   0.752   5.115
 5915SOL    HW218645   5.567   0.861   4.995
 5916SOL     OW18646   1.161   0.564   2.888
 5916SOL    HW118647   1.196   0.613   2.968
 5916SOL    HW218648   1.079   0.512   2.914
 5917SOL     OW18649   4.028   3.131   1.189
 5917SOL    HW118650   4.040   3.142   1.287
 5917SOL    HW218651   3.956   3.064   1.171
 5918SOL     OW18652   3.557   6.702   5.911
 5918SOL    HW118653   3.572   6.747   5.999
 5918SOL    HW218654   3.539   6.770   5.840
 5919SOL     OW18655   3.040   3.578   4.445
 5919SOL    HW118656   3.032   3.507   4.374
 5919SOL    HW218657   3.016   3.539   4.534
 5920SOL     OW18658   1.896   0.503   5.251
 5920SOL    HW118659   1.936   0.489   5.160
 5920SOL    HW218660   1.887   0.601   5.269
 5921SOL     OW18661   3.658   5.041   1.460
 5921SOL    HW118662   3.742   5.074   1.418
 5921SOL    HW218663   3.634   4.951   1.422
 5922SOL     OW18664   5.330   2.745   2.297
 5922SOL    HW118665   5.264   2.714   2.228
 5922SOL    HW218666   5.412   2.689   2.293
 5923SOL     OW18667   5.646   1.228   2.299
 5923SOL    HW118668   5.714   1.159   2.273
 5923SOL    HW218669   5.659   1.310   2.243
 5924SOL     OW18670   0.753   5.912   3.276
 5924SOL    HW118671   0.846   5.919   3.240
 5924SOL    HW218672   0.722   6.002   3.307
 5925SOL     OW18673   4.307   0.984   0.488
 5925SOL    HW118674   4.210   0.966   0.468
 5925SOL    HW218675   4.357   0.994   0.402
 5926SOL     OW18676   5.116   3.561   2.760
 5926SOL    HW118677   5.208   3.581   2.796
 5926SOL    HW218678   5.071   3.646   2.734
 5927SOL     OW18679   1.212   0.502   1.355
 5927SOL    HW118680   1.118   0.468   1.361
 5927SOL    HW218681   1.223   0.579   1.417
 5928SOL     OW18682   3.021   0.248   6.070
 5928SOL    HW118683   2.989   0.238   5.976
 5928SOL    HW218684   3.079   0.329   6.077
 5929SOL     OW18685   1.916   0.996   0.572
 5929SOL    HW118686   1.869   1.083   0.552
 5929SOL    HW218687   1.868   0.949   0.646
 5930SOL     OW18688   0.065   5.082   2.002
 5930SOL    HW118689   0.090   5.178   2.014
 5930SOL    HW218690   0.070   5.035   2.090
 5931SOL     OW18691   5.322   0.830   4.940
 5931SOL    HW118692   5.260   0.899   4.977
 5931SOL    HW218693   5.303   0.741   4.983
 5932SOL     OW18694   2.574   5.590   0.963
 5932SOL    HW118695   2.585   5.645   1.046
 5932SOL    HW218696   2.563   5.650   0.884
 5933SOL     OW18697   6.326   5.440   4.484
 5933SOL    HW118698   6.274   5.487   4.412
 5933SOL    HW218699   6.285   5.460   4.573
 5934SOL     OW18700   2.669   4.531   0.435
 5934SOL    HW118701   2.731   4.591   0.486
 5934SOL    HW218702   2.574   4.555   0.454
 5935SOL     OW18703   1.778   0.178   4.875
 5935SOL    HW118704   1.708   0.107   4.882
 5935SOL    HW218705   1.832   0.179   4.960
 5936SOL     OW18706   3.067   2.867   1.610
 5936SOL    HW118707   3.086   2.784   1.663
 5936SOL    HW218708   3.024   2.935   1.669
 5937SOL     OW18709   0.823   3.184   0.799
 5937SOL    HW118710   0.844   3.108   0.860
 5937SOL    HW218711   0.887   3.259   0.816
 5938SOL     OW18712   1.206   3.399   4.088
 5938SOL    HW118713   1.272   3.382   4.015
 5938SOL    HW218714   1.249   3.384   4.177
 5939SOL     OW18715   5.155   2.307   6.100
 5939SOL    HW118716   5.115   2.236   6.041
 5939SOL    HW218717   5.255   2.294   6.104
 5940SOL     OW18718   4.244   4.910   1.075
 5940SOL    HW118719   4.295   4.984   1.032
 5940SOL    HW218720   4.288   4.886   1.162
 5941SOL     OW18721   1.796   1.948   3.809
 5941SOL    HW118722   1.805   1.855   3.843
 5941SOL    HW218723   1.862   2.008   3.854
 5942SOL     OW18724   4.624   1.982   5.608
 5942SOL    HW118725   4.532   1.956   5.577
 5942SOL    HW218726   4.690   1.914   5.577
 5943SOL     OW18727   2.314   5.089   2.388
 5943SOL    HW118728   2.332   5.109   2.292
 5943SOL    HW218729   2.393   5.115   2.444
 5944SOL     OW18730   0.328   3.811   6.017
 5944SOL    HW118731   0.423   3.791   5.994
 5944SOL    HW218732   0.268   3.773   5.947
 5945SOL     OW18733   0.659   6.480   3.826
 5945SOL    HW118734   0.606   6.461   3.909
 5945SOL    HW218735   0.606   6.452   3.746
 5946SOL     OW18736   2.799   2.462   0.204
 5946SOL    HW118737   2.899   2.459   0.209
 5946SOL    HW218738   2.767   2.394   0.137
 5947SOL     OW18739   3.259   3.951   5.731
 5947SOL    HW118740   3.324   3.937   5.656
 5947SOL    HW218741   3.308   3.973   5.815
 5948SOL     OW18742   5.664   2.916   1.528
 5948SOL    HW118743   5.654   2.822   1.495
 5948SOL    HW218744   5.708   2.972   1.458
 5949SOL     OW18745   1.203   4.957   4.275
 5949SOL    HW118746   1.177   4.902   4.195
 5949SOL    HW218747   1.246   4.899   4.343
 5950SOL     OW18748   2.064   5.932   4.818
 5950SOL    HW118749   2.142   5.894   4.767
 5950SOL    HW218750   2.022   6.006   4.765
 5951SOL     OW18751   6.909   3.679   6.640
 5951SOL    HW118752   6.827   3.690   6.696
 5951SOL    HW218753   6.896   3.727   6.553
 5952SOL     OW18754   3.655   3.630   2.050
 5952SOL    HW118755   3.620   3.566   1.981
 5952SOL    HW218756   3.743   3.599   2.084
 5953SOL     OW18757   0.536   3.394   6.417
 5953SOL    HW118758   0.498   3.439   6.337
 5953SOL    HW218759   0.462   3.375   6.483
 5954SOL     OW18760   2.624   5.621   3.881
 5954SOL    HW118761   2.662   5.687   3.945
 5954SOL    HW218762   2.698   5.563   3.846
 5955SOL     OW18763   4.409   2.639   6.623
 5955SOL    HW118764   4.410   2.555   6.677
 5955SOL    HW218765   4.415   2.718   6.684
 5956SOL     OW18766   3.543   1.976   6.501
 5956SOL    HW118767   3.499   1.891   6.531
 5956SOL    HW218768   3.632   1.955   6.460
 5957SOL     OW18769   0.256   3.246   3.721
 5957SOL    HW118770   0.168   3.269   3.762
 5957SOL    HW218771   0.307   3.331   3.701
 5958SOL     OW18772   2.153   5.911   2.491
 5958SOL    HW118773   2.241   5.887   2.450
 5958SOL    HW218774   2.079   5.883   2.431
 5959SOL     OW18775   4.887   3.900   3.212
 5959SOL    HW118776   4.804   3.950   3.188
 5959SOL    HW218777   4.864   3.803   3.225
 5960SOL     OW18778   6.896   6.339   6.500
 5960SOL    HW118779   6.825   6.301   6.559
 5960SOL    HW218780   6.889   6.439   6.500
 5961SOL     OW18781   1.535   2.050   3.743
 5961SOL    HW118782   1.631   2.023   3.756
 5961SOL    HW218783   1.523   2.145   3.771
 5962SOL     OW18784   5.356   5.669   0.681
 5962SOL    HW118785   5.370   5.615   0.598
 5962SOL    HW218786   5.314   5.611   0.751
 5963SOL     OW18787   1.866   3.547   1.468
 5963SOL    HW118788   1.942   3.603   1.501
 5963SOL    HW218789   1.890   3.450   1.478
 5964SOL     OW18790   1.140   6.266   4.263
 5964SOL    HW118791   1.230   6.297   4.232
 5964SOL    HW218792   1.123   6.300   4.355
 5965SOL     OW18793   1.901   0.569   1.586
 5965SOL    HW118794   1.823   0.508   1.601
 5965SOL    HW218795   1.884   0.656   1.633
 5966SOL     OW18796   2.740   1.592   5.280
 5966SOL    HW118797   2.752   1.662   5.351
 5966SOL    HW218798   2.647   1.596   5.244
 5967SOL     OW18799   5.047   2.315   5.786
 5967SOL    HW118800   5.072   2.242   5.850
 5967SOL    HW218801   5.130   2.355   5.747
 5968SOL     OW18802   5.996   1.763   3.168
 5968SOL    HW118803   6.089   1.735   3.194
 5968SOL    HW218804   5.934   1.743   3.244
 5969SOL     OW18805   5.795   6.527   1.387
 5969SOL    HW118806   5.702   6.493   1.400
 5969SOL    HW218807   5.818   6.526   1.290
 5970SOL     OW18808   6.758   1.254   0.290
 5970SOL    HW118809   6.793   1.205   0.210
 5970SOL    HW218810   6.709   1.336   0.259
 5971SOL     OW18811   6.840   5.473   3.827
 5971SOL    HW118812   6.772   5.476   3.901
 5971SOL    HW218813   6.877   5.381   3.820
 5972SOL     OW18814   6.854   5.575   0.006
 5972SOL    HW118815   6.780   5.562   0.072
 5972SOL    HW218816   6.939   5.595   0.054
 5973SOL     OW18817   3.674   0.512   1.580
 5973SOL    HW118818   3.764   0.479   1.607
 5973SOL    HW218819   3.615   0.434   1.560
 5974SOL     OW18820   5.855   0.898   4.660
 5974SOL    HW118821   5.864   0.960   4.737
 5974SOL    HW218822   5.795   0.939   4.591
 5975SOL     OW18823   3.215   4.271   0.401
 5975SOL    HW118824   3.120   4.284   0.428
 5975SOL    HW218825   3.235   4.327   0.321
 5976SOL     OW18826   0.630   2.218   6.008
 5976SOL    HW118827   0.704   2.151   5.995
 5976SOL    HW218828   0.567   2.213   5.931
 5977SOL     OW18829   0.366   5.738   1.796
 5977SOL    HW118830   0.282   5.786   1.823
 5977SOL    HW218831   0.362   5.716   1.699
 5978SOL     OW18832   3.108   3.722   6.409
 5978SOL    HW118833   3.202   3.756   6.405
 5978SOL    HW218834   3.068   3.744   6.498
 5979SOL     OW18835   5.832   0.629   1.286
 5979SOL    HW118836   5.820   0.569   1.366
 5979SOL    HW218837   5.924   0.667   1.287
 5980SOL     OW18838   3.739   2.741   0.452
 5980SOL    HW118839   3.646   2.723   0.420
 5980SOL    HW218840   3.804   2.703   0.387
 5981SOL     OW18841   4.323   2.300   0.452
 5981SOL    HW118842   4.341   2.203   0.437
 5981SOL    HW218843   4.224   2.315   0.458
 5982SOL     OW18844   5.659   2.649   1.446
 5982SOL    HW118845   5.753   2.623   1.470
 5982SOL    HW218846   5.654   2.664   1.347
 5983SOL     OW18847   0.674   1.051   4.072
 5983SOL    HW118848   0.687   0.976   4.136
 5983SOL    HW218849   0.627   1.018   3.990
 5984SOL     OW18850   6.330   6.210   2.016
 5984SOL    HW118851   6.372   6.140   2.076
 5984SOL    HW218852   6.371   6.299   2.036
 5985SOL     OW18853   6.886   4.186   2.641
 5985SOL    HW118854   6.823   4.202   2.565
 5985SOL    HW218855   6.981   4.196   2.609
 5986SOL     OW18856   3.833   3.619   3.828
 5986SOL    HW118857   3.794   3.673   3.902
 5986SOL    HW218858   3.904   3.673   3.782
 5987SOL     OW18859   0.458   5.971   3.783
 5987SOL    HW118860   0.415   5.929   3.704
 5987SOL    HW218861   0.417   5.935   3.867
 5988SOL     OW18862   1.699   2.372   0.150
 5988SOL    HW118863   1.758   2.428   0.092
 5988SOL    HW218864   1.726   2.276   0.143
 5989SOL     OW18865   2.830   6.859   6.013
 5989SOL    HW118866   2.838   6.765   5.980
 5989SOL    HW218867   2.792   6.917   5.941
 5990SOL     OW18868   2.111   4.179   1.564
 5990SOL    HW118869   2.198   4.217   1.598
 5990SOL    HW218870   2.115   4.172   1.464
 5991SOL     OW18871   4.617   1.283   6.785
 5991SOL    HW118872   4.594   1.373   6.821
 5991SOL    HW218873   4.668   1.294   6.699
 5992SOL     OW18874   2.506   4.497   2.278
 5992SOL    HW118875   2.602   4.470   2.293
 5992SOL    HW218876   2.482   4.572   2.340
 5993SOL     OW18877   5.723   1.044   0.161
 5993SOL    HW118878   5.773   0.968   0.202
 5993SOL    HW218879   5.738   1.044   0.062
 5994SOL     OW18880   0.626   5.338   1.140
 5994SOL    HW118881   0.710   5.315   1.190
 5994SOL    HW218882   0.551   5.281   1.173
 5995SOL     OW18883   5.871   4.561   1.477
 5995SOL    HW118884   5.930   4.641   1.486
 5995SOL    HW218885   5.856   4.542   1.379
 5996SOL     OW18886   2.676   0.835   1.489
 5996SOL    HW118887   2.656   0.908   1.424
 5996SOL    HW218888   2.773   0.811   1.484
 5997SOL     OW18889   6.770   1.039   4.667
 5997SOL    HW118890   6.848   0.988   4.629
 5997SOL    HW218891   6.692   1.032   4.605
 5998SOL     OW18892   5.212   6.265   6.990
 5998SOL    HW118893   5.194   6.330   6.916
 5998SOL    HW218894   5.308   6.272   7.018
 5999SOL     OW18895   6.082   2.603   0.968
 5999SOL    HW118896   6.171   2.646   0.950
 5999SOL    HW218897   6.083   2.509   0.933
 6000SOL     OW18898   0.143   5.813   2.198
 6000SOL    HW118899   0.086   5.895   2.197
 6000SOL    HW218900   0.206   5.815   2.121
 6001SOL     OW18901   0.207   6.652   6.064
 6001SOL    HW118902   0.192   6.728   6.128
 6001SOL    HW218903   0.242   6.689   5.977
 6002SOL     OW18904   5.374   4.532   4.127
 6002SOL    HW118905   5.426   4.613   4.153
 6002SOL    HW218906   5.332   4.492   4.209
 6003SOL     OW18907   2.460   0.720   4.853
 6003SOL    HW118908   2.491   0.810   4.821
 6003SOL    HW218909   2.515   0.649   4.811
 6004SOL     OW18910   5.673   3.246   4.922
 6004SOL    HW118911   5.633   3.208   5.005
 6004SOL    HW218912   5.773   3.245   4.929
 6005SOL     OW18913   3.684   3.903   0.569
 6005SOL    HW118914   3.619   3.968   0.528
 6005SOL    HW218915   3.695   3.825   0.508
 6006SOL     OW18916   3.240   6.899   6.014
 6006SOL    HW118917   3.168   6.939   6.070
 6006SOL    HW218918   3.314   6.965   6.003
 6007SOL     OW18919   2.760   0.005   4.205
 6007SOL    HW118920   2.681   6.975   4.176
 6007SOL    HW218921   2.780   0.075   4.136
 6008SOL     OW18922   2.435   3.262   6.794
 6008SOL    HW118923   2.409   3.242   6.889
 6008SOL    HW218924   2.367   3.323   6.754
 6009SOL     OW18925   2.394   5.723   1.907
 6009SOL    HW118926   2.315   5.753   1.961
 6009SOL    HW218927   2.375   5.634   1.866
 6010SOL     OW18928   0.482   5.504   6.315
 6010SOL    HW118929   0.557   5.490   6.250
 6010SOL    HW218930   0.398   5.467   6.277
 6011SOL     OW18931   5.012   2.131   3.399
 6011SOL    HW118932   5.086   2.064   3.395
 6011SOL    HW218933   4.977   2.147   3.306
 6012SOL     OW18934   6.041   1.386   5.492
 6012SOL    HW118935   5.973   1.356   5.559
 6012SOL    HW218936   5.997   1.448   5.426
 6013SOL     OW18937   5.991   2.519   3.321
 6013SOL    HW118938   5.949   2.444   3.371
 6013SOL    HW218939   5.959   2.606   3.358
 6014SOL     OW18940   3.961   3.240   4.098
 6014SOL    HW118941   4.013   3.295   4.164
 6014SOL    HW218942   3.918   3.299   4.031
 6015SOL     OW18943   6.672   0.327   3.449
 6015SOL    HW118944   6.598   0.393   3.458
 6015SOL    HW218945   6.635   0.237   3.429
 6016SOL     OW18946   4.532   2.063   4.458
 6016SOL    HW118947   4.561   2.141   4.403
 6016SOL    HW218948   4.514   2.094   4.552
 6017SOL     OW18949   1.423   2.679   5.062
 6017SOL    HW118950   1.507   2.637   5.095
 6017SOL    HW218951   1.426   2.688   4.963
 6018SOL     OW18952   2.436   1.160   4.091
 6018SOL    HW118953   2.432   1.254   4.059
 6018SOL    HW218954   2.431   1.097   4.014
 6019SOL     OW18955   6.768   3.346   6.044
 6019SOL    HW118956   6.687   3.343   6.103
 6019SOL    HW218957   6.810   3.436   6.050
 6020SOL     OW18958   0.609   5.683   4.942
 6020SOL    HW118959   0.654   5.600   4.906
 6020SOL    HW218960   0.571   5.735   4.866
 6021SOL     OW18961   5.930   0.473   4.304
 6021SOL    HW118962   5.891   0.445   4.216
 6021SOL    HW218963   6.014   0.524   4.288
 6022SOL     OW18964   6.268   3.563   1.659
 6022SOL    HW118965   6.348   3.586   1.715
 6022SOL    HW218966   6.259   3.630   1.585
 6023SOL     OW18967   4.085   0.101   2.848
 6023SOL    HW118968   4.166   0.134   2.897
 6023SOL    HW218969   4.010   0.165   2.860
 6024SOL     OW18970   0.250   6.777   0.297
 6024SOL    HW118971   0.331   6.810   0.249
 6024SOL    HW218972   0.201   6.712   0.239
 6025SOL     OW18973   3.730   0.642   5.505
 6025SOL    HW118974   3.767   0.565   5.557
 6025SOL    HW218975   3.805   0.695   5.467
 6026SOL     OW18976   5.101   6.473   3.485
 6026SOL    HW118977   5.048   6.483   3.401
 6026SOL    HW218978   5.197   6.493   3.467
 6027SOL     OW18979   5.669   4.356   6.062
 6027SOL    HW118980   5.602   4.403   6.005
 6027SOL    HW218981   5.659   4.386   6.157
 6028SOL     OW18982   6.671   5.549   6.670
 6028SOL    HW118983   6.591   5.490   6.675
 6028SOL    HW218984   6.737   5.523   6.740
 6029SOL     OW18985   2.722   1.341   2.129
 6029SOL    HW118986   2.729   1.434   2.094
 6029SOL    HW218987   2.813   1.301   2.138
 6030SOL     OW18988   6.782   3.203   5.193
 6030SOL    HW118989   6.696   3.212   5.243
 6030SOL    HW218990   6.839   3.283   5.210
 6031SOL     OW18991   0.190   0.296   4.024
 6031SOL    HW118992   0.144   0.372   4.072
 6031SOL    HW218993   0.137   0.272   3.943
 6032SOL     OW18994   3.082   0.321   3.325
 6032SOL    HW118995   3.024   0.257   3.276
 6032SOL    HW218996   3.033   0.357   3.404
 6033SOL     OW18997   0.548   1.623   2.820
 6033SOL    HW118998   0.584   1.716   2.824
 6033SOL    HW218999   0.457   1.623   2.778
 6034SOL     OW19000   0.557   0.708   1.450
 6034SOL    HW119001   0.653   0.714   1.422
 6034SOL    HW219002   0.499   0.750   1.381
 6035SOL     OW19003   2.334   1.660   2.679
 6035SOL    HW119004   2.340   1.653   2.779
 6035SOL    HW219005   2.238   1.667   2.652
 6036SOL     OW19006   6.791   3.480   6.876
 6036SOL    HW119007   6.809   3.530   6.791
 6036SOL    HW219008   6.758   3.388   6.855
 6037SOL     OW19009   4.525   0.951   0.320
 6037SOL    HW119010   4.591   0.891   0.364
 6037SOL    HW219011   4.538   0.947   0.221
 6038SOL     OW19012   2.277   2.243   0.486
 6038SOL    HW119013   2.337   2.314   0.523
 6038SOL    HW219014   2.188   2.283   0.464
 6039SOL     OW19015   3.106   3.990   3.310
 6039SOL    HW119016   3.128   3.951   3.400
 6039SOL    HW219017   3.060   3.922   3.254
 6040SOL     OW19018   6.769   0.426   0.383
 6040SOL    HW119019   6.750   0.333   0.415
 6040SOL    HW219020   6.716   0.444   0.301
 6041SOL     OW19021   0.880   3.326   4.448
 6041SOL    HW119022   0.833   3.298   4.364
 6041SOL    HW219023   0.918   3.245   4.492
 6042SOL     OW19024   3.060   5.773   2.451
 6042SOL    HW119025   3.053   5.808   2.545
 6042SOL    HW219026   3.116   5.836   2.397
 6043SOL     OW19027   2.033   4.784   1.034
 6043SOL    HW119028   2.003   4.877   1.016
 6043SOL    HW219029   2.088   4.782   1.119
 6044SOL     OW19030   6.426   3.678   6.968
 6044SOL    HW119031   6.454   3.736   0.021
 6044SOL    HW219032   6.424   3.733   6.884
 6045SOL     OW19033   4.373   1.665   4.010
 6045SOL    HW119034   4.470   1.684   4.027
 6045SOL    HW219035   4.352   1.686   3.914
 6046SOL     OW19036   3.652   3.848   3.252
 6046SOL    HW119037   3.554   3.830   3.249
 6046SOL    HW219038   3.669   3.945   3.272
 6047SOL     OW19039   6.878   1.109   0.044
 6047SOL    HW119040   6.945   1.037   0.025
 6047SOL    HW219041   6.786   1.073   0.036
 6048SOL     OW19042   6.222   5.858   3.829
 6048SOL    HW119043   6.212   5.763   3.800
 6048SOL    HW219044   6.300   5.899   3.782
 6049SOL     OW19045   6.266   4.861   0.273
 6049SOL    HW119046   6.323   4.943   0.274
 6049SOL    HW219047   6.319   4.784   0.239
 6050SOL     OW19048   2.002   5.703   3.433
 6050SOL    HW119049   2.066   5.687   3.508
 6050SOL    HW219050   2.025   5.643   3.356
 6051SOL     OW19051   0.356   2.136   2.841
 6051SOL    HW119052   0.291   2.205   2.872
 6051SOL    HW219053   0.324   2.045   2.866
 6052SOL     OW19054   5.666   5.375   6.998
 6052SOL    HW119055   5.573   5.354   6.968
 6052SOL    HW219056   5.720   5.404   6.920
 6053SOL     OW19057   3.918   1.999   6.044
 6053SOL    HW119058   3.862   2.081   6.054
 6053SOL    HW219059   3.914   1.966   5.950
 6054SOL     OW19060   4.544   3.586   6.348
 6054SOL    HW119061   4.561   3.655   6.278
 6054SOL    HW219062   4.512   3.502   6.304
 6055SOL     OW19063   3.318   4.901   2.002
 6055SOL    HW119064   3.415   4.876   2.007
 6055SOL    HW219065   3.274   4.884   2.090
 6056SOL     OW19066   5.573   6.981   3.090
 6056SOL    HW119067   5.657   0.007   3.070
 6056SOL    HW219068   5.580   6.888   3.055
 6057SOL     OW19069   5.118   1.329   4.675
 6057SOL    HW119070   5.043   1.345   4.611
 6057SOL    HW219071   5.190   1.397   4.660
 6058SOL     OW19072   6.647   3.745   6.621
 6058SOL    HW119073   6.712   3.756   6.546
 6058SOL    HW219074   6.630   3.834   6.664
 6059SOL     OW19075   4.249   1.734   6.470
 6059SOL    HW119076   4.307   1.678   6.529
 6059SOL    HW219077   4.197   1.676   6.408
 6060SOL     OW19078   2.213   1.987   1.503
 6060SOL    HW119079   2.177   1.966   1.594
 6060SOL    HW219080   2.216   2.086   1.491
 6061SOL     OW19081   2.103   4.782   6.348
 6061SOL    HW119082   2.137   4.695   6.312
 6061SOL    HW219083   2.007   4.773   6.374
 6062SOL     OW19084   1.529   1.577   4.845
 6062SOL    HW119085   1.585   1.652   4.881
 6062SOL    HW219086   1.557   1.558   4.751
 6063SOL     OW19087   4.271   3.893   5.572
 6063SOL    HW119088   4.371   3.897   5.562
 6063SOL    HW219089   4.242   3.798   5.581
 6064SOL     OW19090   5.832   5.451   0.379
 6064SOL    HW119091   5.749   5.464   0.326
 6064SOL    HW219092   5.883   5.374   0.342
 6065SOL     OW19093   1.605   5.621   1.141
 6065SOL    HW119094   1.555   5.566   1.209
 6065SOL    HW219095   1.702   5.624   1.166
 6066SOL     OW19096   4.921   5.711   2.707
 6066SOL    HW119097   4.851   5.641   2.691
 6066SOL    HW219098   5.003   5.688   2.655
 6067SOL     OW19099   6.115   5.225   5.364
 6067SOL    HW119100   6.108   5.325   5.361
 6067SOL    HW219101   6.151   5.197   5.453
 6068SOL     OW19102   4.968   2.484   4.140
 6068SOL    HW119103   4.882   2.493   4.090
 6068SOL    HW219104   4.971   2.395   4.186
 6069SOL     OW19105   0.871   5.450   5.619
 6069SOL    HW119106   0.889   5.359   5.581
 6069SOL    HW219107   0.784   5.484   5.582
 6070SOL     OW19108   2.391   0.248   1.612
 6070SOL    HW119109   2.446   0.258   1.529
 6070SOL    HW219110   2.305   0.202   1.589
 6071SOL     OW19111   6.701   6.539   6.729
 6071SOL    HW119112   6.721   6.541   6.631
 6071SOL    HW219113   6.679   6.632   6.760
 6072SOL     OW19114   0.346   2.251   6.607
 6072SOL    HW119115   0.290   2.309   6.548
 6072SOL    HW219116   0.287   2.191   6.661
 6073SOL     OW19117   4.607   4.772   6.664
 6073SOL    HW119118   4.582   4.691   6.716
 6073SOL    HW219119   4.694   4.808   6.697
 6074SOL     OW19120   1.866   5.836   2.676
 6074SOL    HW119121   1.934   5.763   2.682
 6074SOL    HW219122   1.809   5.822   2.595
 6075SOL     OW19123   6.749   6.187   0.336
 6075SOL    HW119124   6.790   6.146   0.254
 6075SOL    HW219125   6.774   6.132   0.416
 6076SOL     OW19126   6.901   6.168   3.320
 6076SOL    HW119127   6.930   6.243   3.379
 6076SOL    HW219128   6.872   6.205   3.231
 6077SOL     OW19129   4.224   5.203   3.058
 6077SOL    HW119130   4.306   5.150   3.038
 6077SOL    HW219131   4.220   5.281   2.995
 6078SOL     OW19132   5.843   3.921   0.389
 6078SOL    HW119133   5.762   3.956   0.342
 6078SOL    HW219134   5.882   3.994   0.446
 6079SOL     OW19135   3.056   2.027   0.393
 6079SOL    HW119136   2.972   2.070   0.425
 6079SOL    HW219137   3.040   1.986   0.303
 6080SOL     OW19138   5.682   3.422   5.357
 6080SOL    HW119139   5.727   3.473   5.431
 6080SOL    HW219140   5.734   3.339   5.338
 6081SOL     OW19141   2.134   4.877   3.854
 6081SOL    HW119142   2.098   4.813   3.786
 6081SOL    HW219143   2.233   4.867   3.859
 6082SOL     OW19144   4.133   1.225   1.568
 6082SOL    HW119145   4.224   1.183   1.573
 6082SOL    HW219146   4.063   1.153   1.573
 6083SOL     OW19147   5.647   0.882   5.607
 6083SOL    HW119148   5.720   0.902   5.672
 6083SOL    HW219149   5.574   0.949   5.616
 6084SOL     OW19150   6.094   5.294   3.745
 6084SOL    HW119151   6.009   5.320   3.792
 6084SOL    HW219152   6.099   5.195   3.737
 6085SOL     OW19153   1.018   6.136   1.107
 6085SOL    HW119154   1.041   6.184   1.022
 6085SOL    HW219155   1.102   6.114   1.157
 6086SOL     OW19156   4.747   3.039   0.340
 6086SOL    HW119157   4.798   3.118   0.307
 6086SOL    HW219158   4.783   2.956   0.298
 6087SOL     OW19159   3.937   0.950   6.131
 6087SOL    HW119160   3.925   1.021   6.061
 6087SOL    HW219161   3.908   0.862   6.095
 6088SOL     OW19162   3.579   6.029   2.857
 6088SOL    HW119163   3.608   6.117   2.894
 6088SOL    HW219164   3.516   6.043   2.781
 6089SOL     OW19165   6.388   5.360   2.856
 6089SOL    HW119166   6.412   5.264   2.851
 6089SOL    HW219167   6.460   5.416   2.814
 6090SOL     OW19168   3.967   5.909   4.729
 6090SOL    HW119169   4.049   5.898   4.785
 6090SOL    HW219170   3.991   5.958   4.645
 6091SOL     OW19171   0.323   2.985   2.114
 6091SOL    HW119172   0.370   3.010   2.029
 6091SOL    HW219173   0.245   3.047   2.127
 6092SOL     OW19174   1.683   0.089   1.026
 6092SOL    HW119175   1.625   0.067   0.948
 6092SOL    HW219176   1.658   0.180   1.061
 6093SOL     OW19177   3.688   3.235   2.560
 6093SOL    HW119178   3.743   3.319   2.560
 6093SOL    HW219179   3.748   3.156   2.569
 6094SOL     OW19180   0.174   6.537   5.321
 6094SOL    HW119181   0.269   6.556   5.345
 6094SOL    HW219182   0.129   6.621   5.293
 6095SOL     OW19183   5.598   5.133   2.448
 6095SOL    HW119184   5.538   5.067   2.402
 6095SOL    HW219185   5.588   5.123   2.547
 6096SOL     OW19186   4.811   6.268   2.515
 6096SOL    HW119187   4.800   6.368   2.515
 6096SOL    HW219188   4.906   6.245   2.531
 6097SOL     OW19189   2.307   4.985   1.237
 6097SOL    HW119190   2.306   4.941   1.147
 6097SOL    HW219191   2.244   5.063   1.236
 6098SOL     OW19192   6.142   2.047   5.524
 6098SOL    HW119193   6.131   2.122   5.459
 6098SOL    HW219194   6.052   2.013   5.550
 6099SOL     OW19195   3.500   7.002   5.999
 6099SOL    HW119196   3.590   6.961   6.010
 6099SOL    HW219197   3.510   0.069   5.959
 6100SOL     OW19198   6.456   5.211   6.245
 6100SOL    HW119199   6.369   5.188   6.289
 6100SOL    HW219200   6.473   5.148   6.169
 6101SOL     OW19201   0.826   2.724   0.872
 6101SOL    HW119202   0.884   2.662   0.924
 6101SOL    HW219203   0.734   2.686   0.864
 6102SOL     OW19204   2.307   0.378   2.693
 6102SOL    HW119205   2.371   0.454   2.694
 6102SOL    HW219206   2.348   0.298   2.737
 6103SOL     OW19207   5.632   0.343   2.516
 6103SOL    HW119208   5.546   0.293   2.509
 6103SOL    HW219209   5.686   0.305   2.590
 6104SOL     OW19210   6.909   0.169   4.960
 6104SOL    HW119211   6.867   0.125   5.039
 6104SOL    HW219212   6.931   0.264   4.982
 6105SOL     OW19213   3.255   5.459   6.334
 6105SOL    HW119214   3.252   5.363   6.307
 6105SOL    HW219215   3.247   5.466   6.433
 6106SOL     OW19216   5.970   3.880   5.888
 6106SOL    HW119217   5.987   3.977   5.875
 6106SOL    HW219218   5.884   3.854   5.844
 6107SOL     OW19219   6.492   5.279   4.886
 6107SOL    HW119220   6.491   5.266   4.985
 6107SOL    HW219221   6.584   5.305   4.857
 6108SOL     OW19222   3.211   0.941   6.040
 6108SOL    HW119223   3.151   0.865   6.066
 6108SOL    HW219224   3.200   1.016   6.105
 6109SOL     OW19225   6.929   6.038   3.814
 6109SOL    HW119226   7.002   6.019   3.880
 6109SOL    HW219227   6.889   5.952   3.784
 6110SOL     OW19228   0.766   1.693   4.500
 6110SOL    HW119229   0.844   1.660   4.448
 6110SOL    HW219230   0.712   1.755   4.443
 6111SOL     OW19231   3.331   3.144   1.902
 6111SOL    HW119232   3.317   3.076   1.831
 6111SOL    HW219233   3.412   3.121   1.955
 6112SOL     OW19234   4.556   6.201   3.657
 6112SOL    HW119235   4.600   6.270   3.600
 6112SOL    HW219236   4.624   6.161   3.719
 6113SOL     OW19237   3.874   5.664   1.238
 6113SOL    HW119238   3.939   5.654   1.313
 6113SOL    HW219239   3.786   5.626   1.264
 6114SOL     OW19240   5.354   3.764   1.653
 6114SOL    HW119241   5.318   3.678   1.617
 6114SOL    HW219242   5.338   3.837   1.587
 6115SOL     OW19243   5.740   1.163   3.910
 6115SOL    HW119244   5.659   1.163   3.851
 6115SOL    HW219245   5.738   1.082   3.969
 6116SOL     OW19246   6.314   2.451   0.246
 6116SOL    HW119247   6.341   2.547   0.254
 6116SOL    HW219248   6.227   2.437   0.294
 6117SOL     OW19249   3.016   2.122   0.816
 6117SOL    HW119250   2.961   2.150   0.895
 6117SOL    HW219251   2.967   2.051   0.765
 6118SOL     OW19252   6.399   0.562   1.852
 6118SOL    HW119253   6.404   0.593   1.757
 6118SOL    HW219254   6.318   0.601   1.896
 6119SOL     OW19255   0.042   1.428   6.274
 6119SOL    HW119256   0.138   1.447   6.293
 6119SOL    HW219257   7.016   1.427   6.360
 6120SOL     OW19258   3.519   1.086   3.439
 6120SOL    HW119259   3.501   1.052   3.346
 6120SOL    HW219260   3.617   1.095   3.452
 6121SOL     OW19261   3.966   1.184   5.942
 6121SOL    HW119262   3.999   1.188   5.848
 6121SOL    HW219263   3.892   1.251   5.954
 6122SOL     OW19264   4.802   4.225   4.868
 6122SOL    HW119265   4.879   4.284   4.843
 6122SOL    HW219266   4.804   4.143   4.812
 6123SOL     OW19267   5.927   1.769   5.246
 6123SOL    HW119268   5.879   1.726   5.169
 6123SOL    HW219269   6.013   1.807   5.213
 6124SOL     OW19270   1.641   6.048   4.049
 6124SOL    HW119271   1.726   6.048   3.997
 6124SOL    HW219272   1.640   5.968   4.110
 6125SOL     OW19273   2.990   1.184   5.704
 6125SOL    HW119274   2.940   1.217   5.784
 6125SOL    HW219275   2.954   1.230   5.622
 6126SOL     OW19276   6.199   3.403   6.303
 6126SOL    HW119277   6.107   3.438   6.325
 6126SOL    HW219278   6.241   3.462   6.235
 6127SOL     OW19279   5.024   2.318   3.605
 6127SOL    HW119280   5.110   2.308   3.655
 6127SOL    HW219281   5.020   2.251   3.531
 6128SOL     OW19282   6.658   5.030   4.436
 6128SOL    HW119283   6.659   5.125   4.406
 6128SOL    HW219284   6.737   4.982   4.399
 6129SOL     OW19285   1.926   6.128   2.665
 6129SOL    HW119286   1.931   6.030   2.648
 6129SOL    HW219287   1.830   6.155   2.677
 6130SOL     OW19288   7.020   2.179   6.502
 6130SOL    HW119289   6.928   2.146   6.522
 6130SOL    HW219290   0.058   2.151   6.575
 6131SOL     OW19291   6.046   3.045   2.739
 6131SOL    HW119292   5.964   3.013   2.786
 6131SOL    HW219293   6.024   3.068   2.644
 6132SOL     OW19294   4.286   5.903   6.512
 6132SOL    HW119295   4.274   5.803   6.506
 6132SOL    HW219296   4.317   5.927   6.603
 6133SOL     OW19297   7.011   2.295   3.695
 6133SOL    HW119298   0.029   2.302   3.605
 6133SOL    HW219299   6.985   2.200   3.713
 6134SOL     OW19300   0.798   0.049   5.130
 6134SOL    HW119301   0.804   0.028   5.228
 6134SOL    HW219302   0.884   0.088   5.099
 6135SOL     OW19303   5.910   6.590   6.799
 6135SOL    HW119304   5.823   6.628   6.768
 6135SOL    HW219305   5.913   6.493   6.779
 6136SOL     OW19306   1.126   2.174   2.436
 6136SOL    HW119307   1.064   2.208   2.507
 6136SOL    HW219308   1.211   2.227   2.439
 6137SOL     OW19309   7.023   4.672   1.599
 6137SOL    HW119310   0.014   4.622   1.684
 6137SOL    HW219311   6.982   4.611   1.531
 6138SOL     OW19312   4.799   0.797   2.390
 6138SOL    HW119313   4.805   0.763   2.296
 6138SOL    HW219314   4.725   0.749   2.438
 6139SOL     OW19315   1.368   1.589   5.724
 6139SOL    HW119316   1.460   1.549   5.723
 6139SOL    HW219317   1.300   1.517   5.737
 6140SOL     OW19318   2.636   0.898   4.104
 6140SOL    HW119319   2.545   0.861   4.086
 6140SOL    HW219320   2.630   0.978   4.163
 6141SOL     OW19321   0.191   0.699   0.946
 6141SOL    HW119322   0.142   0.785   0.960
 6141SOL    HW219323   0.290   0.716   0.953
 6142SOL     OW19324   0.661   6.948   1.827
 6142SOL    HW119325   0.724   6.885   1.782
 6142SOL    HW219326   0.571   6.905   1.834
 6143SOL     OW19327   2.108   3.377   5.595
 6143SOL    HW119328   2.117   3.307   5.524
 6143SOL    HW219329   2.162   3.350   5.675
 6144SOL     OW19330   3.026   5.945   2.694
 6144SOL    HW119331   2.932   5.930   2.724
 6144SOL    HW219332   3.029   6.025   2.634
 6145SOL     OW19333   5.709   3.651   4.700
 6145SOL    HW119334   5.795   3.636   4.749
 6145SOL    HW219335   5.728   3.686   4.609
 6146SOL     OW19336   6.292   1.848   5.436
 6146SOL    HW119337   6.258   1.773   5.493
 6146SOL    HW219338   6.250   1.934   5.467
 6147SOL     OW19339   1.573   1.786   5.279
 6147SOL    HW119340   1.537   1.803   5.187
 6147SOL    HW219341   1.526   1.844   5.345
 6148SOL     OW19342   3.735   5.543   6.336
 6148SOL    HW119343   3.644   5.563   6.301
 6148SOL    HW219344   3.804   5.566   6.267
 6149SOL     OW19345   3.968   1.912   2.181
 6149SOL    HW119346   3.919   1.848   2.240
 6149SOL    HW219347   3.956   1.886   2.086
 6150SOL     OW19348   0.193   5.473   4.120
 6150SOL    HW119349   0.131   5.533   4.070
 6150SOL    HW219350   0.287   5.497   4.099
 6151SOL     OW19351   3.780   5.502   2.457
 6151SOL    HW119352   3.712   5.560   2.501
 6151SOL    HW219353   3.739   5.454   2.379
 6152SOL     OW19354   0.932   4.196   2.814
 6152SOL    HW119355   1.001   4.252   2.859
 6152SOL    HW219356   0.887   4.137   2.881
 6153SOL     OW19357   5.964   6.272   1.736
 6153SOL    HW119358   5.976   6.222   1.821
 6153SOL    HW219359   5.924   6.211   1.667
 6154SOL     OW19360   3.735   5.512   2.931
 6154SOL    HW119361   3.699   5.550   2.846
 6154SOL    HW219362   3.812   5.452   2.910
 6155SOL     OW19363   1.671   1.153   4.297
 6155SOL    HW119364   1.657   1.240   4.249
 6155SOL    HW219365   1.583   1.120   4.332
 6156SOL     OW19366   4.743   4.078   2.876
 6156SOL    HW119367   4.758   4.175   2.891
 6156SOL    HW219368   4.726   4.061   2.779
 6157SOL     OW19369   0.568   2.543   1.671
 6157SOL    HW119370   0.545   2.520   1.765
 6157SOL    HW219371   0.518   2.483   1.609
 6158SOL     OW19372   3.251   0.788   6.740
 6158SOL    HW119373   3.318   0.748   6.802
 6158SOL    HW219374   3.215   0.873   6.779
 6159SOL     OW19375   6.464   1.296   0.544
 6159SOL    HW119376   6.458   1.395   0.532
 6159SOL    HW219377   6.409   1.251   0.474
 6160SOL     OW19378   1.586   0.281   0.644
 6160SOL    HW119379   1.565   0.370   0.683
 6160SOL    HW219380   1.525   0.262   0.567
 6161SOL     OW19381   6.118   4.318   0.109
 6161SOL    HW119382   6.019   4.307   0.096
 6161SOL    HW219383   6.165   4.236   0.076
 6162SOL     OW19384   6.004   5.702   1.073
 6162SOL    HW119385   6.089   5.686   1.022
 6162SOL    HW219386   5.945   5.764   1.022
 6163SOL     OW19387   5.165   5.557   2.646
 6163SOL    HW119388   5.112   5.530   2.566
 6163SOL    HW219389   5.262   5.563   2.621
 6164SOL     OW19390   3.650   3.423   4.694
 6164SOL    HW119391   3.722   3.486   4.666
 6164SOL    HW219392   3.691   3.335   4.721
 6165SOL     OW19393   3.682   0.748   6.664
 6165SOL    HW119394   3.594   0.712   6.693
 6165SOL    HW219395   3.715   0.814   6.732
 6166SOL     OW19396   2.895   1.276   5.937
 6166SOL    HW119397   2.922   1.372   5.929
 6166SOL    HW219398   2.931   1.238   6.022
 6167SOL     OW19399   1.831   3.245   2.490
 6167SOL    HW119400   1.925   3.253   2.459
 6167SOL    HW219401   1.777   3.199   2.420
 6168SOL     OW19402   1.377   3.839   3.595
 6168SOL    HW119403   1.301   3.780   3.565
 6168SOL    HW219404   1.374   3.925   3.545
 6169SOL     OW19405   2.665   0.687   0.929
 6169SOL    HW119406   2.614   0.766   0.963
 6169SOL    HW219407   2.652   0.680   0.830
 6170SOL     OW19408   2.638   4.814   0.924
 6170SOL    HW119409   2.683   4.899   0.953
 6170SOL    HW219410   2.659   4.797   0.828
 6171SOL     OW19411   2.256   3.949   2.316
 6171SOL    HW119412   2.227   3.953   2.412
 6171SOL    HW219413   2.331   3.884   2.307
 6172SOL     OW19414   2.220   4.518   1.874
 6172SOL    HW119415   2.312   4.554   1.857
 6172SOL    HW219416   2.191   4.542   1.966
 6173SOL     OW19417   0.943   5.645   2.906
 6173SOL    HW119418   0.850   5.684   2.902
 6173SOL    HW219419   0.993   5.672   2.824
 6174SOL     OW19420   5.709   4.478   1.700
 6174SOL    HW119421   5.769   4.523   1.634
 6174SOL    HW219422   5.699   4.382   1.677
 6175SOL     OW19423   5.340   0.595   3.824
 6175SOL    HW119424   5.336   0.556   3.917
 6175SOL    HW219425   5.249   0.588   3.782
 6176SOL     OW19426   6.440   3.477   0.135
 6176SOL    HW119427   6.425   3.546   0.064
 6176SOL    HW219428   6.492   3.400   0.096
 6177SOL     OW19429   5.549   3.011   2.952
 6177SOL    HW119430   5.458   2.986   2.918
 6177SOL    HW219431   5.541   3.085   3.019
 6178SOL     OW19432   0.176   4.370   1.377
 6178SOL    HW119433   0.109   4.440   1.399
 6178SOL    HW219434   0.188   4.309   1.455
 6179SOL     OW19435   6.851   1.405   5.594
 6179SOL    HW119436   6.869   1.310   5.618
 6179SOL    HW219437   6.755   1.427   5.614
 6180SOL     OW19438   2.705   0.923   0.213
 6180SOL    HW119439   2.732   0.946   0.119
 6180SOL    HW219440   2.787   0.906   0.267
 6181SOL     OW19441   4.671   6.736   6.133
 6181SOL    HW119442   4.692   6.833   6.118
 6181SOL    HW219443   4.695   6.684   6.051
 6182SOL     OW19444   4.983   6.849   5.091
 6182SOL    HW119445   5.007   6.889   5.003
 6182SOL    HW219446   4.894   6.884   5.121
 6183SOL     OW19447   2.229   6.677   2.505
 6183SOL    HW119448   2.305   6.614   2.521
 6183SOL    HW219449   2.265   6.767   2.479
 6184SOL     OW19450   6.602   0.035   5.461
 6184SOL    HW119451   6.513   0.080   5.468
 6184SOL    HW219452   6.674   0.105   5.462
 6185SOL     OW19453   2.377   2.651   0.399
 6185SOL    HW119454   2.356   2.743   0.365
 6185SOL    HW219455   2.406   2.593   0.322
 6186SOL     OW19456   3.994   1.373   3.825
 6186SOL    HW119457   4.030   1.421   3.905
 6186SOL    HW219458   4.053   1.295   3.804
 6187SOL     OW19459   3.358   4.970   4.573
 6187SOL    HW119460   3.427   4.975   4.645
 6187SOL    HW219461   3.334   5.062   4.542
 6188SOL     OW19462   2.431   0.146   2.457
 6188SOL    HW119463   2.413   0.183   2.365
 6188SOL    HW219464   2.528   0.155   2.478
 6189SOL     OW19465   5.805   5.080   3.346
 6189SOL    HW119466   5.772   5.004   3.290
 6189SOL    HW219467   5.728   5.125   3.390
 6190SOL     OW19468   5.032   3.492   5.953
 6190SOL    HW119469   5.032   3.485   5.853
 6190SOL    HW219470   5.032   3.400   5.993
 6191SOL     OW19471   0.059   1.050   6.599
 6191SOL    HW119472   0.155   1.055   6.626
 6191SOL    HW219473   0.007   1.121   6.646
 6192SOL     OW19474   3.250   1.614   0.195
 6192SOL    HW119475   3.320   1.570   0.251
 6192SOL    HW219476   3.190   1.669   0.253
 6193SOL     OW19477   0.137   6.442   1.388
 6193SOL    HW119478   0.094   6.354   1.404
 6193SOL    HW219479   0.127   6.468   1.292
 6194SOL     OW19480   2.958   0.513   1.217
 6194SOL    HW119481   2.950   0.613   1.215
 6194SOL    HW219482   2.902   0.474   1.144
 6195SOL     OW19483   2.512   0.182   5.487
 6195SOL    HW119484   2.522   0.221   5.396
 6195SOL    HW219485   2.446   0.236   5.540
 6196SOL     OW19486   1.407   1.854   5.705
 6196SOL    HW119487   1.428   1.897   5.792
 6196SOL    HW219488   1.412   1.754   5.714
 6197SOL     OW19489   2.418   2.634   1.996
 6197SOL    HW119490   2.361   2.687   2.058
 6197SOL    HW219491   2.485   2.581   2.048
 6198SOL     OW19492   3.091   5.382   1.984
 6198SOL    HW119493   3.150   5.462   1.976
 6198SOL    HW219494   3.125   5.309   1.924
 6199SOL     OW19495   0.261   0.510   6.525
 6199SOL    HW119496   0.173   0.541   6.488
 6199SOL    HW219497   0.274   0.549   6.616
 6200SOL     OW19498   4.338   0.674   5.625
 6200SOL    HW119499   4.281   0.642   5.549
 6200SOL    HW219500   4.371   0.596   5.678
 6201SOL     OW19501   2.617   5.347   4.881
 6201SOL    HW119502   2.600   5.425   4.821
 6201SOL    HW219503   2.540   5.335   4.943
 6202SOL     OW19504   1.686   2.525   1.248
 6202SOL    HW119505   1.594   2.565   1.257
 6202SOL    HW219506   1.701   2.461   1.324
 6203SOL     OW19507   6.131   2.642   4.725
 6203SOL    HW119508   6.190   2.574   4.681
 6203SOL    HW219509   6.135   2.632   4.824
 6204SOL     OW19510   1.120   6.819   5.295
 6204SOL    HW119511   1.213   6.849   5.315
 6204SOL    HW219512   1.111   6.801   5.197
 6205SOL     OW19513   4.357   0.163   6.893
 6205SOL    HW119514   4.299   0.095   6.937
 6205SOL    HW219515   4.442   0.121   6.864
 6206SOL     OW19516   4.625   6.888   4.080
 6206SOL    HW119517   4.699   6.894   4.013
 6206SOL    HW219518   4.548   6.945   4.050
 6207SOL     OW19519   2.266   4.887   4.382
 6207SOL    HW119520   2.318   4.968   4.408
 6207SOL    HW219521   2.281   4.869   4.284
 6208SOL     OW19522   5.853   4.411   5.191
 6208SOL    HW119523   5.900   4.328   5.222
 6208SOL    HW219524   5.780   4.386   5.127
 6209SOL     OW19525   0.977   5.904   0.799
 6209SOL    HW119526   0.925   5.865   0.724
 6209SOL    HW219527   1.064   5.940   0.765
 6210SOL     OW19528   0.470   4.100   3.663
 6210SOL    HW119529   0.495   4.049   3.581
 6210SOL    HW219530   0.524   4.184   3.669
 6211SOL     OW19531   2.553   0.239   5.011
 6211SOL    HW119532   2.471   0.214   5.064
 6211SOL    HW219533   2.628   0.260   5.074
 6212SOL     OW19534   0.039   0.837   4.250
 6212SOL    HW119535   0.058   0.760   4.189
 6212SOL    HW219536   0.091   0.917   4.220
 6213SOL     OW19537   6.447   6.833   0.493
 6213SOL    HW119538   6.392   6.901   0.446
 6213SOL    HW219539   6.390   6.756   0.519
 6214SOL     OW19540   4.821   4.309   1.937
 6214SOL    HW119541   4.800   4.287   2.032
 6214SOL    HW219542   4.849   4.226   1.888
 6215SOL     OW19543   3.703   3.901   1.373
 6215SOL    HW119544   3.678   3.805   1.358
 6215SOL    HW219545   3.706   3.920   1.471
 6216SOL     OW19546   6.091   1.646   2.345
 6216SOL    HW119547   6.030   1.717   2.310
 6216SOL    HW219548   6.053   1.556   2.323
 6217SOL     OW19549   4.013   1.326   1.339
 6217SOL    HW119550   4.051   1.295   1.426
 6217SOL    HW219551   4.086   1.365   1.283
 6218SOL     OW19552   4.330   6.154   4.787
 6218SOL    HW119553   4.330   6.232   4.725
 6218SOL    HW219554   4.415   6.102   4.774
 6219SOL     OW19555   0.516   0.725   4.653
 6219SOL    HW119556   0.448   0.676   4.598
 6219SOL    HW219557   0.488   0.723   4.749
 6220SOL     OW19558   1.377   3.714   4.989
 6220SOL    HW119559   1.389   3.663   4.903
 6220SOL    HW219560   1.279   3.733   5.002
 6221SOL     OW19561   4.469   4.520   4.134
 6221SOL    HW119562   4.469   4.513   4.234
 6221SOL    HW219563   4.553   4.479   4.097
 6222SOL     OW19564   0.010   1.885   1.361
 6222SOL    HW119565   7.001   1.907   1.269
 6222SOL    HW219566   6.979   1.810   1.399
 6223SOL     OW19567   5.355   4.976   3.462
 6223SOL    HW119568   5.302   4.946   3.541
 6223SOL    HW219569   5.302   5.043   3.410
 6224SOL     OW19570   2.919   0.329   4.652
 6224SOL    HW119571   2.895   0.311   4.747
 6224SOL    HW219572   3.018   0.317   4.640
 6225SOL     OW19573   3.913   1.882   6.343
 6225SOL    HW119574   3.918   1.792   6.387
 6225SOL    HW219575   3.958   1.878   6.254
 6226SOL     OW19576   0.165   6.257   4.173
 6226SOL    HW119577   0.219   6.332   4.212
 6226SOL    HW219578   0.217   6.172   4.179
 6227SOL     OW19579   2.918   4.346   0.081
 6227SOL    HW119580   2.823   4.344   0.114
 6227SOL    HW219581   2.943   4.255   0.047
 6228SOL     OW19582   6.832   2.541   2.983
 6228SOL    HW119583   6.772   2.610   2.942
 6228SOL    HW219584   6.915   2.585   3.018
 6229SOL     OW19585   1.315   2.354   2.435
 6229SOL    HW119586   1.378   2.373   2.511
 6229SOL    HW219587   1.359   2.381   2.349
 6230SOL     OW19588   1.896   2.540   4.149
 6230SOL    HW119589   1.918   2.590   4.233
 6230SOL    HW219590   1.979   2.499   4.111
 6231SOL     OW19591   6.601   4.349   2.755
 6231SOL    HW119592   6.543   4.421   2.793
 6231SOL    HW219593   6.697   4.367   2.780
 6232SOL     OW19594   0.765   1.094   6.731
 6232SOL    HW119595   0.732   1.182   6.765
 6232SOL    HW219596   0.849   1.108   6.678
 6233SOL     OW19597   4.384   0.738   6.183
 6233SOL    HW119598   4.314   0.784   6.237
 6233SOL    HW219599   4.341   0.688   6.108
 6234SOL     OW19600   2.603   2.009   4.322
 6234SOL    HW119601   2.631   2.044   4.232
 6234SOL    HW219602   2.597   1.909   4.318
 6235SOL     OW19603   1.835   5.269   1.541
 6235SOL    HW119604   1.906   5.248   1.608
 6235SOL    HW219605   1.857   5.224   1.455
 6236SOL     OW19606   0.061   4.220   0.105
 6236SOL    HW119607   7.022   4.227   0.183
 6236SOL    HW219608   0.081   4.311   0.070
 6237SOL     OW19609   3.405   6.469   5.998
 6237SOL    HW119610   3.460   6.396   6.039
 6237SOL    HW219611   3.465   6.544   5.970
 6238SOL     OW19612   5.400   3.249   1.160
 6238SOL    HW119613   5.438   3.336   1.130
 6238SOL    HW219614   5.426   3.177   1.096
 6239SOL     OW19615   3.514   5.980   4.571
 6239SOL    HW119616   3.420   5.969   4.605
 6239SOL    HW219617   3.567   5.898   4.592
 6240SOL     OW19618   2.574   4.020   0.063
 6240SOL    HW119619   2.672   4.033   0.051
 6240SOL    HW219620   2.544   3.941   0.008
 6241SOL     OW19621   3.799   6.436   2.711
 6241SOL    HW119622   3.811   6.416   2.808
 6241SOL    HW219623   3.719   6.494   2.699
 6242SOL     OW19624   3.353   1.719   2.752
 6242SOL    HW119625   3.367   1.620   2.753
 6242SOL    HW219626   3.362   1.754   2.845
 6243SOL     OW19627   6.032   5.960   2.931
 6243SOL    HW119628   5.950   6.015   2.915
 6243SOL    HW219629   6.059   5.970   3.027
 6244SOL     OW19630   1.225   1.806   1.460
 6244SOL    HW119631   1.192   1.884   1.513
 6244SOL    HW219632   1.305   1.833   1.407
 6245SOL     OW19633   2.637   3.205   0.267
 6245SOL    HW119634   2.615   3.129   0.205
 6245SOL    HW219635   2.620   3.176   0.362
 6246SOL     OW19636   3.819   6.606   0.048
 6246SOL    HW119637   3.902   6.620   7.017
 6246SOL    HW219638   3.811   6.509   0.071
 6247SOL     OW19639   6.264   0.206   2.799
 6247SOL    HW119640   6.196   0.249   2.739
 6247SOL    HW219641   6.354   0.210   2.756
 6248SOL     OW19642   1.291   5.426   1.102
 6248SOL    HW119643   1.343   5.442   1.185
 6248SOL    HW219644   1.353   5.406   1.026
 6249SOL     OW19645   6.432   3.284   6.041
 6249SOL    HW119646   6.361   3.352   6.022
 6249SOL    HW219647   6.432   3.261   6.139
 6250SOL     OW19648   6.857   4.237   6.370
 6250SOL    HW119649   6.876   4.272   6.462
 6250SOL    HW219650   6.912   4.288   6.304
 6251SOL     OW19651   5.010   1.240   6.991
 6251SOL    HW119652   4.912   1.220   6.983
 6251SOL    HW219653   5.047   1.261   6.900
 6252SOL     OW19654   2.109   6.671   5.649
 6252SOL    HW119655   2.037   6.724   5.605
 6252SOL    HW219656   2.163   6.731   5.708
 6253SOL     OW19657   2.582   3.342   0.720
 6253SOL    HW119658   2.515   3.407   0.754
 6253SOL    HW219659   2.612   3.283   0.795
 6254SOL     OW19660   5.967   0.287   0.002
 6254SOL    HW119661   6.055   0.248   7.000
 6254SOL    HW219662   5.921   0.325   6.946
 6255SOL     OW19663   1.024   3.281   2.832
 6255SOL    HW119664   1.015   3.263   2.734
 6255SOL    HW219665   1.025   3.380   2.847
 6256SOL     OW19666   4.413   5.152   4.351
 6256SOL    HW119667   4.399   5.069   4.297
 6256SOL    HW219668   4.358   5.226   4.313
 6257SOL     OW19669   3.715   2.737   6.827
 6257SOL    HW119670   3.664   2.823   6.831
 6257SOL    HW219671   3.651   2.660   6.829
 6258SOL     OW19672   4.604   2.158   3.288
 6258SOL    HW119673   4.658   2.102   3.225
 6258SOL    HW219674   4.529   2.103   3.325
 6259SOL     OW19675   3.318   2.444   1.616
 6259SOL    HW119676   3.417   2.447   1.602
 6259SOL    HW219677   3.292   2.353   1.649
 6260SOL     OW19678   4.283   3.811   1.778
 6260SOL    HW119679   4.326   3.721   1.767
 6260SOL    HW219680   4.204   3.802   1.839
 6261SOL     OW19681   4.926   6.762   6.318
 6261SOL    HW119682   4.829   6.757   6.339
 6261SOL    HW219683   4.962   6.670   6.303
 6262SOL     OW19684   0.450   6.038   5.262
 6262SOL    HW119685   0.396   6.090   5.195
 6262SOL    HW219686   0.392   6.014   5.340
 6263SOL     OW19687   6.793   0.215   1.470
 6263SOL    HW119688   6.884   0.257   1.462
 6263SOL    HW219689   6.783   0.144   1.400
 6264SOL     OW19690   2.616   0.632   0.649
 6264SOL    HW119691   2.696   0.587   0.608
 6264SOL    HW219692   2.600   0.719   0.603
 6265SOL     OW19693   6.556   4.111   0.559
 6265SOL    HW119694   6.589   4.018   0.577
 6265SOL    HW219695   6.586   4.140   0.468
 6266SOL     OW19696   2.482   6.869   2.793
 6266SOL    HW119697   2.443   6.864   2.702
 6266SOL    HW219698   2.422   6.922   2.853
 6267SOL     OW19699   3.239   6.612   6.676
 6267SOL    HW119700   3.293   6.598   6.759
 6267SOL    HW219701   3.193   6.527   6.652
 6268SOL     OW19702   2.239   6.174   2.513
 6268SOL    HW119703   2.199   6.082   2.511
 6268SOL    HW219704   2.214   6.219   2.599
 6269SOL     OW19705   0.142   4.788   6.290
 6269SOL    HW119706   0.137   4.835   6.202
 6269SOL    HW219707   0.219   4.725   6.291
 6270SOL     OW19708   1.128   1.351   4.007
 6270SOL    HW119709   1.068   1.412   4.060
 6270SOL    HW219710   1.088   1.260   4.004
 6271SOL     OW19711   5.363   2.357   1.151
 6271SOL    HW119712   5.313   2.429   1.102
 6271SOL    HW219713   5.348   2.368   1.249
 6272SOL     OW19714   3.194   2.112   3.561
 6272SOL    HW119715   3.269   2.142   3.621
 6272SOL    HW219716   3.158   2.025   3.594
 6273SOL     OW19717   3.943   1.571   2.537
 6273SOL    HW119718   3.974   1.519   2.617
 6273SOL    HW219719   4.018   1.579   2.471
 6274SOL     OW19720   3.033   5.716   6.771
 6274SOL    HW119721   2.982   5.772   6.705
 6274SOL    HW219722   3.130   5.740   6.766
 6275SOL     OW19723   3.226   1.048   4.045
 6275SOL    HW119724   3.244   1.041   3.947
 6275SOL    HW219725   3.257   1.136   4.079
 6276SOL     OW19726   0.535   5.583   3.712
 6276SOL    HW119727   0.565   5.642   3.637
 6276SOL    HW219728   0.614   5.540   3.755
 6277SOL     OW19729   6.077   3.472   4.598
 6277SOL    HW119730   6.126   3.405   4.541
 6277SOL    HW219731   5.997   3.427   4.639
 6278SOL     OW19732   4.327   0.964   3.179
 6278SOL    HW119733   4.274   1.033   3.228
 6278SOL    HW219734   4.306   0.873   3.214
 6279SOL     OW19735   3.750   2.284   5.615
 6279SOL    HW119736   3.684   2.257   5.685
 6279SOL    HW219737   3.741   2.382   5.596
 6280SOL     OW19738   2.024   5.262   4.948
 6280SOL    HW119739   2.084   5.260   5.028
 6280SOL    HW219740   2.030   5.352   4.904
 6281SOL     OW19741   3.431   6.299   4.802
 6281SOL    HW119742   3.385   6.228   4.855
 6281SOL    HW219743   3.529   6.280   4.798
 6282SOL     OW19744   0.636   6.598   4.255
 6282SOL    HW119745   0.734   6.577   4.249
 6282SOL    HW219746   0.621   6.694   4.231
 6283SOL     OW19747   1.414   3.377   4.991
 6283SOL    HW119748   1.379   3.448   4.929
 6283SOL    HW219749   1.474   3.418   5.059
 6284SOL     OW19750   3.046   4.728   0.443
 6284SOL    HW119751   3.052   4.825   0.467
 6284SOL    HW219752   3.004   4.720   0.352
 6285SOL     OW19753   2.146   3.391   2.626
 6285SOL    HW119754   2.137   3.368   2.529
 6285SOL    HW219755   2.164   3.308   2.678
 6286SOL     OW19756   7.024   6.355   3.501
 6286SOL    HW119757   0.063   6.318   3.568
 6286SOL    HW219758   0.049   6.415   3.438
 6287SOL     OW19759   3.491   4.909   3.110
 6287SOL    HW119760   3.456   4.913   3.204
 6287SOL    HW219761   3.589   4.929   3.110
 6288SOL     OW19762   6.860   3.751   1.450
 6288SOL    HW119763   6.765   3.725   1.467
 6288SOL    HW219764   6.918   3.714   1.523
 6289SOL     OW19765   0.327   0.104   2.664
 6289SOL    HW119766   0.409   0.048   2.646
 6289SOL    HW219767   0.288   0.134   2.577
 6290SOL     OW19768   5.409   3.112   3.680
 6290SOL    HW119769   5.343   3.173   3.722
 6290SOL    HW219770   5.492   3.109   3.735
 6291SOL     OW19771   3.762   4.105   4.340
 6291SOL    HW119772   3.740   4.136   4.433
 6291SOL    HW219773   3.797   4.011   4.344
 6292SOL     OW19774   6.030   1.506   0.973
 6292SOL    HW119775   5.969   1.485   0.896
 6292SOL    HW219776   5.980   1.559   1.042
 6293SOL     OW19777   5.943   4.077   5.518
 6293SOL    HW119778   5.974   3.984   5.499
 6293SOL    HW219779   5.860   4.074   5.574
 6294SOL     OW19780   2.997   5.902   0.958
 6294SOL    HW119781   3.054   5.824   0.984
 6294SOL    HW219782   3.020   5.980   1.016
 6295SOL     OW19783   6.304   5.500   6.512
 6295SOL    HW119784   6.385   5.459   6.555
 6295SOL    HW219785   6.223   5.446   6.535
 6296SOL     OW19786   5.961   2.156   3.862
 6296SOL    HW119787   5.930   2.096   3.936
 6296SOL    HW219788   5.931   2.118   3.774
 6297SOL     OW19789   5.649   3.029   6.321
 6297SOL    HW119790   5.646   3.052   6.418
 6297SOL    HW219791   5.715   3.087   6.274
 6298SOL     OW19792   6.293   2.918   4.783
 6298SOL    HW119793   6.317   2.869   4.700
 6298SOL    HW219794   6.196   2.904   4.803
 6299SOL     OW19795   0.153   1.810   6.959
 6299SOL    HW119796   0.118   1.801   6.865
 6299SOL    HW219797   0.170   1.906   6.979
 6300SOL     OW19798   5.230   1.685   3.343
 6300SOL    HW119799   5.306   1.661   3.404
 6300SOL    HW219800   5.147   1.640   3.374
 6301SOL     OW19801   2.966   6.647   0.698
 6301SOL    HW119802   2.958   6.556   0.738
 6301SOL    HW219803   2.917   6.649   0.611
 6302SOL     OW19804   6.086   1.011   3.217
 6302SOL    HW119805   6.106   0.928   3.164
 6302SOL    HW219806   6.057   1.084   3.155
 6303SOL     OW19807   2.026   5.543   4.860
 6303SOL    HW119808   2.121   5.543   4.891
 6303SOL    HW219809   1.977   5.619   4.904
 6304SOL     OW19810   4.542   0.362   5.002
 6304SOL    HW119811   4.602   0.436   5.031
 6304SOL    HW219812   4.569   0.331   4.911
 6305SOL     OW19813   5.001   0.054   2.971
 6305SOL    HW119814   5.059   0.001   2.909
 6305SOL    HW219815   4.905   0.039   2.946
 6306SOL     OW19816   6.148   2.291   4.566
 6306SOL    HW119817   6.091   2.266   4.488
 6306SOL    HW219818   6.203   2.212   4.594
 6307SOL     OW19819   1.940   4.240   1.051
 6307SOL    HW119820   1.960   4.338   1.045
 6307SOL    HW219821   1.968   4.194   0.967
 6308SOL     OW19822   3.881   2.451   6.444
 6308SOL    HW119823   3.854   2.529   6.500
 6308SOL    HW219824   3.878   2.367   6.499
 6309SOL     OW19825   6.479   2.372   5.284
 6309SOL    HW119826   6.434   2.383   5.372
 6309SOL    HW219827   6.466   2.278   5.252
 6310SOL     OW19828   0.444   5.666   5.183
 6310SOL    HW119829   0.473   5.680   5.088
 6310SOL    HW219830   0.485   5.737   5.241
 6311SOL     OW19831   6.552   7.020   4.955
 6311SOL    HW119832   6.516   6.993   4.866
 6311SOL    HW219833   6.618   6.952   4.986
 6312SOL     OW19834   5.722   3.776   5.440
 6312SOL    HW119835   5.709   3.703   5.507
 6312SOL    HW219836   5.816   3.775   5.407
 6313SOL     OW19837   2.998   5.666   4.032
 6313SOL    HW119838   2.989   5.683   3.934
 6313SOL    HW219839   2.908   5.650   4.072
 6314SOL     OW19840   0.879   0.044   3.254
 6314SOL    HW119841   0.963   0.082   3.292
 6314SOL    HW219842   0.858   0.090   3.167
 6315SOL     OW19843   1.322   3.804   0.554
 6315SOL    HW119844   1.292   3.722   0.603
 6315SOL    HW219845   1.261   3.880   0.577
 6316SOL     OW19846   4.279   1.229   4.643
 6316SOL    HW119847   4.306   1.296   4.575
 6316SOL    HW219848   4.317   1.140   4.620
 6317SOL     OW19849   6.882   5.861   4.087
 6317SOL    HW119850   6.895   5.959   4.104
 6317SOL    HW219851   6.788   5.845   4.059
 6318SOL     OW19852   1.222   2.844   3.756
 6318SOL    HW119853   1.256   2.832   3.663
 6318SOL    HW219854   1.122   2.835   3.757
 6319SOL     OW19855   1.362   2.230   2.698
 6319SOL    HW119856   1.318   2.292   2.762
 6319SOL    HW219857   1.293   2.186   2.641
 6320SOL     OW19858   0.195   2.003   2.161
 6320SOL    HW119859   0.293   2.021   2.170
 6320SOL    HW219860   0.152   2.076   2.109
 6321SOL     OW19861   2.463   4.133   5.573
 6321SOL    HW119862   2.555   4.106   5.600
 6321SOL    HW219863   2.456   4.132   5.473
 6322SOL     OW19864   2.225   6.708   0.617
 6322SOL    HW119865   2.183   6.711   0.708
 6322SOL    HW219866   2.222   6.799   0.576
 6323SOL     OW19867   4.075   1.971   1.622
 6323SOL    HW119868   4.101   1.890   1.675
 6323SOL    HW219869   3.977   1.989   1.636
 6324SOL     OW19870   3.102   1.912   1.802
 6324SOL    HW119871   3.091   1.970   1.882
 6324SOL    HW219872   3.186   1.858   1.811
 6325SOL     OW19873   1.989   2.931   3.224
 6325SOL    HW119874   1.892   2.953   3.235
 6325SOL    HW219875   2.036   3.008   3.180
 6326SOL     OW19876   4.513   6.172   1.765
 6326SOL    HW119877   4.484   6.155   1.859
 6326SOL    HW219878   4.436   6.159   1.702
 6327SOL     OW19879   4.357   5.026   5.341
 6327SOL    HW119880   4.336   4.978   5.255
 6327SOL    HW219881   4.363   5.124   5.323
 6328SOL     OW19882   2.653   4.334   1.090
 6328SOL    HW119883   2.721   4.405   1.110
 6328SOL    HW219884   2.644   4.274   1.170
 6329SOL     OW19885   0.777   2.305   3.233
 6329SOL    HW119886   0.762   2.395   3.274
 6329SOL    HW219887   0.719   2.297   3.151
 6330SOL     OW19888   3.351   0.506   6.646
 6330SOL    HW119889   3.405   0.493   6.563
 6330SOL    HW219890   3.409   0.546   6.717
 6331SOL     OW19891   5.736   2.237   1.262
 6331SOL    HW119892   5.711   2.317   1.208
 6331SOL    HW219893   5.713   2.253   1.358
 6332SOL     OW19894   3.701   6.062   2.513
 6332SOL    HW119895   3.742   6.150   2.488
 6332SOL    HW219896   3.774   5.996   2.533
 6333SOL     OW19897   2.179   5.506   2.573
 6333SOL    HW119898   2.252   5.528   2.508
 6333SOL    HW219899   2.167   5.583   2.636
 6334SOL     OW19900   2.381   0.027   1.930
 6334SOL    HW119901   2.360   6.984   1.859
 6334SOL    HW219902   2.480   0.036   1.940
 6335SOL     OW19903   6.552   0.385   0.151
 6335SOL    HW119904   6.567   0.460   0.086
 6335SOL    HW219905   6.498   0.420   0.228
 6336SOL     OW19906   1.702   2.771   4.930
 6336SOL    HW119907   1.714   2.701   5.000
 6336SOL    HW219908   1.723   2.861   4.968
 6337SOL     OW19909   1.116   3.932   5.303
 6337SOL    HW119910   1.181   3.970   5.237
 6337SOL    HW219911   1.159   3.927   5.393
 6338SOL     OW19912   4.015   1.035   3.547
 6338SOL    HW119913   4.044   0.940   3.545
 6338SOL    HW219914   4.060   1.085   3.473
 6339SOL     OW19915   6.951   3.376   4.635
 6339SOL    HW119916   7.024   3.322   4.676
 6339SOL    HW219917   6.920   3.332   4.551
 6340SOL     OW19918   3.086   4.864   3.589
 6340SOL    HW119919   3.081   4.916   3.503
 6340SOL    HW219920   3.182   4.844   3.610
 6341SOL     OW19921   5.082   4.886   1.887
 6341SOL    HW119922   5.122   4.962   1.938
 6341SOL    HW219923   5.154   4.822   1.860
 6342SOL     OW19924   0.520   3.578   0.634
 6342SOL    HW119925   0.554   3.661   0.679
 6342SOL    HW219926   0.528   3.500   0.697
 6343SOL     OW19927   3.240   1.392   7.022
 6343SOL    HW119928   3.273   1.393   6.928
 6343SOL    HW219929   3.269   1.476   0.044
 6344SOL     OW19930   6.068   5.259   4.341
 6344SOL    HW119931   6.104   5.254   4.434
 6344SOL    HW219932   6.142   5.281   4.277
 6345SOL     OW19933   1.661   2.351   1.463
 6345SOL    HW119934   1.579   2.388   1.505
 6345SOL    HW219935   1.637   2.274   1.403
 6346SOL     OW19936   1.098   4.631   4.369
 6346SOL    HW119937   1.177   4.686   4.395
 6346SOL    HW219938   1.078   4.644   4.272
 6347SOL     OW19939   3.098   0.214   0.274
 6347SOL    HW119940   3.116   0.234   0.370
 6347SOL    HW219941   3.103   0.115   0.258
 6348SOL     OW19942   0.065   2.355   4.643
 6348SOL    HW119943   6.989   2.360   4.640
 6348SOL    HW219944   0.096   2.366   4.738
 6349SOL     OW19945   0.318   0.897   0.116
 6349SOL    HW119946   0.407   0.942   0.121
 6349SOL    HW219947   0.330   0.798   0.111
 6350SOL     OW19948   0.087   5.262   3.378
 6350SOL    HW119949   0.070   5.184   3.438
 6350SOL    HW219950   0.183   5.291   3.386
 6351SOL     OW19951   6.844   2.199   2.513
 6351SOL    HW119952   6.798   2.117   2.546
 6351SOL    HW219953   6.850   2.267   2.586
 6352SOL     OW19954   6.186   4.466   2.560
 6352SOL    HW119955   6.123   4.509   2.495
 6352SOL    HW219956   6.280   4.482   2.531
 6353SOL     OW19957   6.113   0.343   2.595
 6353SOL    HW119958   6.038   0.403   2.625
 6353SOL    HW219959   6.084   0.291   2.514
 6354SOL     OW19960   6.472   6.614   5.286
 6354SOL    HW119961   6.431   6.682   5.347
 6354SOL    HW219962   6.539   6.560   5.337
 6355SOL     OW19963   0.665   1.654   0.741
 6355SOL    HW119964   0.600   1.714   0.787
 6355SOL    HW219965   0.698   1.698   0.657
 6356SOL     OW19966   3.223   3.568   1.291
 6356SOL    HW119967   3.286   3.521   1.230
 6356SOL    HW219968   3.275   3.621   1.358
 6357SOL     OW19969   4.272   1.956   1.395
 6357SOL    HW119970   4.234   1.950   1.303
 6357SOL    HW219971   4.200   1.983   1.460
 6358SOL     OW19972   1.277   3.187   5.339
 6358SOL    HW119973   1.242   3.120   5.274
 6358SOL    HW219974   1.370   3.212   5.314
 6359SOL     OW19975   0.493   6.485   6.052
 6359SOL    HW119976   0.434   6.499   5.973
 6359SOL    HW219977   0.589   6.492   6.024
 6360SOL     OW19978   2.504   5.198   4.251
 6360SOL    HW119979   2.465   5.190   4.342
 6360SOL    HW219980   2.589   5.145   4.245
 6361SOL     OW19981   2.892   5.530   5.374
 6361SOL    HW119982   2.869   5.593   5.300
 6361SOL    HW219983   2.906   5.581   5.459
 6362SOL     OW19984   6.747   4.561   6.031
 6362SOL    HW119985   6.716   4.637   6.088
 6362SOL    HW219986   6.833   4.525   6.066
 6363SOL     OW19987   0.544   5.554   3.291
 6363SOL    HW119988   0.553   5.636   3.348
 6363SOL    HW219989   0.479   5.572   3.217
 6364SOL     OW19990   2.631   1.496   6.963
 6364SOL    HW119991   2.693   1.567   6.929
 6364SOL    HW219992   2.653   1.475   0.034
 6365SOL     OW19993   3.670   6.034   2.073
 6365SOL    HW119994   3.722   6.110   2.112
 6365SOL    HW219995   3.720   5.949   2.088
 6366SOL     OW19996   0.645   3.484   5.552
 6366SOL    HW119997   0.576   3.465   5.481
 6366SOL    HW219998   0.727   3.522   5.510
 6367SOL     OW19999   5.337   5.077   2.190
 6367SOL    HW120000   5.396   5.131   2.129
 6367SOL    HW220001   5.393   5.037   2.263
 6368SOL     OW20002   2.459   1.518   1.930
 6368SOL    HW120003   2.557   1.531   1.946
 6368SOL    HW220004   2.444   1.499   1.833
 6369SOL     OW20005   2.439   6.025   5.044
 6369SOL    HW120006   2.472   6.033   5.138
 6369SOL    HW220007   2.376   5.948   5.038
 6370SOL     OW20008   5.028   2.449   2.238
 6370SOL    HW120009   5.082   2.370   2.264
 6370SOL    HW220010   5.089   2.523   2.209
 6371SOL     OW20011   4.137   1.879   3.461
 6371SOL    HW120012   4.181   1.792   3.483
 6371SOL    HW220013   4.071   1.902   3.533
 6372SOL     OW20014   2.938   0.540   2.406
 6372SOL    HW120015   3.007   0.499   2.466
 6372SOL    HW220016   2.887   0.469   2.358
 6373SOL     OW20017   3.571   4.766   7.001
 6373SOL    HW120018   3.652   4.822   7.017
 6373SOL    HW220019   3.506   4.779   0.051
 6374SOL     OW20020   2.978   3.428   4.698
 6374SOL    HW120021   2.885   3.392   4.707
 6374SOL    HW220022   3.011   3.459   4.787
 6375SOL     OW20023   2.140   5.732   1.702
 6375SOL    HW120024   2.175   5.735   1.795
 6375SOL    HW220025   2.074   5.806   1.688
 6376SOL     OW20026   1.607   0.749   5.310
 6376SOL    HW120027   1.622   0.847   5.324
 6376SOL    HW220028   1.590   0.732   5.213
 6377SOL     OW20029   0.249   2.373   3.577
 6377SOL    HW120030   0.342   2.410   3.580
 6377SOL    HW220031   0.190   2.427   3.637
 6378SOL     OW20032   4.256   5.657   3.867
 6378SOL    HW120033   4.210   5.726   3.811
 6378SOL    HW220034   4.324   5.609   3.811
 6379SOL     OW20035   1.950   4.047   1.736
 6379SOL    HW120036   1.996   4.067   1.650
 6379SOL    HW220037   2.016   4.009   1.801
 6380SOL     OW20038   0.529   0.407   6.139
 6380SOL    HW120039   0.445   0.356   6.157
 6380SOL    HW220040   0.540   0.421   6.041
 6381SOL     OW20041   3.865   3.254   3.404
 6381SOL    HW120042   3.933   3.203   3.456
 6381SOL    HW220043   3.800   3.296   3.466
 6382SOL     OW20044   1.265   4.454   5.211
 6382SOL    HW120045   1.253   4.483   5.306
 6382SOL    HW220046   1.358   4.475   5.181
 6383SOL     OW20047   4.039   1.891   4.190
 6383SOL    HW120048   4.126   1.844   4.187
 6383SOL    HW220049   4.039   1.964   4.121
 6384SOL     OW20050   6.785   4.561   2.205
 6384SOL    HW120051   6.862   4.617   2.235
 6384SOL    HW220052   6.738   4.607   2.129
 6385SOL     OW20053   1.038   5.287   4.896
 6385SOL    HW120054   0.975   5.364   4.888
 6385SOL    HW220055   1.014   5.232   4.976
 6386SOL     OW20056   2.575   5.444   2.893
 6386SOL    HW120057   2.633   5.522   2.873
 6386SOL    HW220058   2.493   5.448   2.835
 6387SOL     OW20059   5.321   1.829   5.231
 6387SOL    HW120060   5.240   1.867   5.275
 6387SOL    HW220061   5.318   1.848   5.133
 6388SOL     OW20062   2.328   5.359   1.519
 6388SOL    HW120063   2.410   5.362   1.577
 6388SOL    HW220064   2.248   5.384   1.574
 6389SOL     OW20065   1.690   3.830   0.885
 6389SOL    HW120066   1.648   3.852   0.797
 6389SOL    HW220067   1.789   3.826   0.875
 6390SOL     OW20068   0.577   3.624   5.074
 6390SOL    HW120069   0.667   3.581   5.061
 6390SOL    HW220070   0.580   3.684   5.154
 6391SOL     OW20071   4.654   0.704   0.411
 6391SOL    HW120072   4.580   0.651   0.453
 6391SOL    HW220073   4.700   0.648   0.342
 6392SOL     OW20074   1.329   6.308   4.461
 6392SOL    HW120075   1.244   6.282   4.507
 6392SOL    HW220076   1.407   6.276   4.514
 6393SOL     OW20077   5.362   1.551   6.436
 6393SOL    HW120078   5.289   1.482   6.429
 6393SOL    HW220079   5.325   1.641   6.414
 6394SOL     OW20080   3.679   5.273   2.644
 6394SOL    HW120081   3.767   5.294   2.601
 6394SOL    HW220082   3.608   5.271   2.574
 6395SOL     OW20083   5.593   1.386   0.432
 6395SOL    HW120084   5.643   1.453   0.377
 6395SOL    HW220085   5.515   1.352   0.380
 6396SOL     OW20086   6.361   2.203   6.361
 6396SOL    HW120087   6.317   2.243   6.280
 6396SOL    HW220088   6.453   2.241   6.370
 6397SOL     OW20089   0.328   0.119   0.173
 6397SOL    HW120090   0.299   0.105   0.078
 6397SOL    HW220091   0.354   0.031   0.213
 6398SOL     OW20092   4.693   1.062   1.674
 6398SOL    HW120093   4.790   1.042   1.691
 6398SOL    HW220094   4.661   1.128   1.742
 6399SOL     OW20095   0.634   6.748   6.529
 6399SOL    HW120096   0.676   6.797   6.606
 6399SOL    HW220097   0.702   6.689   6.486
 6400SOL     OW20098   3.205   5.219   4.487
 6400SOL    HW120099   3.115   5.260   4.473
 6400SOL    HW220100   3.227   5.160   4.409
 6401SOL     OW20101   6.778   5.184   5.687
 6401SOL    HW120102   6.777   5.105   5.748
 6401SOL    HW220103   6.829   5.259   5.730
 6402SOL     OW20104   2.005   3.745   2.910
 6402SOL    HW120105   2.050   3.705   2.830
 6402SOL    HW220106   2.073   3.794   2.964
 6403SOL     OW20107   0.262   6.380   1.659
 6403SOL    HW120108   0.216   6.448   1.602
 6403SOL    HW220109   0.342   6.345   1.611
 6404SOL     OW20110   5.296   0.691   2.072
 6404SOL    HW120111   5.289   0.591   2.077
 6404SOL    HW220112   5.205   0.730   2.060
 6405SOL     OW20113   3.770   5.864   1.501
 6405SOL    HW120114   3.847   5.807   1.472
 6405SOL    HW220115   3.728   5.824   1.582
 6406SOL     OW20116   2.504   2.480   3.493
 6406SOL    HW120117   2.459   2.509   3.409
 6406SOL    HW220118   2.561   2.399   3.474
 6407SOL     OW20119   5.305   6.150   0.474
 6407SOL    HW120120   5.266   6.124   0.385
 6407SOL    HW220121   5.330   6.068   0.525
 6408SOL     OW20122   6.665   1.793   0.926
 6408SOL    HW120123   6.567   1.808   0.936
 6408SOL    HW220124   6.684   1.695   0.922
 6409SOL     OW20125   0.784   4.899   1.561
 6409SOL    HW120126   0.876   4.872   1.532
 6409SOL    HW220127   0.790   4.954   1.644
 6410SOL     OW20128   6.703   6.585   0.715
 6410SOL    HW120129   6.688   6.602   0.813
 6410SOL    HW220130   6.711   6.672   0.667
 6411SOL     OW20131   1.568   1.415   3.371
 6411SOL    HW120132   1.571   1.328   3.422
 6411SOL    HW220133   1.473   1.436   3.346
 6412SOL     OW20134   5.923   2.601   5.144
 6412SOL    HW120135   5.834   2.645   5.161
 6412SOL    HW220136   5.958   2.563   5.230
 6413SOL     OW20137   0.203   5.609   0.980
 6413SOL    HW120138   0.283   5.551   0.968
 6413SOL    HW220139   0.219   5.674   1.055
 6414SOL     OW20140   6.435   0.519   3.621
 6414SOL    HW120141   6.358   0.471   3.578
 6414SOL    HW220142   6.470   0.464   3.696
 6415SOL     OW20143   1.236   1.593   2.624
 6415SOL    HW120144   1.214   1.593   2.527
 6415SOL    HW220145   1.164   1.546   2.675
 6416SOL     OW20146   2.821   6.103   6.267
 6416SOL    HW120147   2.774   6.015   6.281
 6416SOL    HW220148   2.818   6.156   6.351
 6417SOL     OW20149   6.997   6.987   3.959
 6417SOL    HW120150   6.993   6.954   3.865
 6417SOL    HW220151   6.908   6.973   4.003
 6418SOL     OW20152   6.312   5.231   1.983
 6418SOL    HW120153   6.340   5.272   1.896
 6418SOL    HW220154   6.224   5.185   1.972
 6419SOL     OW20155   3.230   2.162   1.201
 6419SOL    HW120156   3.203   2.238   1.142
 6419SOL    HW220157   3.214   2.076   1.153
 6420SOL     OW20158   0.772   1.471   0.028
 6420SOL    HW120159   0.730   1.551   0.072
 6420SOL    HW220160   0.829   1.423   0.093
 6421SOL     OW20161   6.053   2.019   0.636
 6421SOL    HW120162   5.958   2.011   0.667
 6421SOL    HW220163   6.084   1.929   0.604
 6422SOL     OW20164   5.802   2.704   2.888
 6422SOL    HW120165   5.864   2.666   2.819
 6422SOL    HW220166   5.819   2.802   2.896
 6423SOL     OW20167   5.378   3.684   0.453
 6423SOL    HW120168   5.299   3.681   0.392
 6423SOL    HW220169   5.442   3.611   0.430
 6424SOL     OW20170   6.582   3.799   5.175
 6424SOL    HW120171   6.486   3.776   5.195
 6424SOL    HW220172   6.591   3.898   5.167
 6425SOL     OW20173   1.203   5.669   1.248
 6425SOL    HW120174   1.219   5.579   1.206
 6425SOL    HW220175   1.130   5.716   1.198
 6426SOL     OW20176   6.832   4.447   3.769
 6426SOL    HW120177   6.917   4.402   3.742
 6426SOL    HW220178   6.766   4.379   3.801
 6427SOL     OW20179   1.144   3.451   5.336
 6427SOL    HW120180   1.185   3.360   5.325
 6427SOL    HW220181   1.135   3.472   5.433
 6428SOL     OW20182   6.489   3.786   5.569
 6428SOL    HW120183   6.542   3.766   5.487
 6428SOL    HW220184   6.523   3.871   5.610
 6429SOL     OW20185   2.313   6.645   4.765
 6429SOL    HW120186   2.256   6.691   4.832
 6429SOL    HW220187   2.312   6.546   4.782
 6430SOL     OW20188   6.471   3.496   6.610
 6430SOL    HW120189   6.557   3.537   6.638
 6430SOL    HW220190   6.458   3.508   6.511
 6431SOL     OW20191   5.134   1.995   2.250
 6431SOL    HW120192   5.220   2.000   2.199
 6431SOL    HW220193   5.066   1.944   2.197
 6432SOL     OW20194   6.204   3.544   1.019
 6432SOL    HW120195   6.287   3.579   0.975
 6432SOL    HW220196   6.219   3.537   1.118
 6433SOL     OW20197   2.200   3.387   1.660
 6433SOL    HW120198   2.221   3.429   1.572
 6433SOL    HW220199   2.274   3.405   1.724
 6434SOL     OW20200   1.730   6.402   0.410
 6434SOL    HW120201   1.776   6.483   0.374
 6434SOL    HW220202   1.780   6.367   0.489
 6435SOL     OW20203   5.991   3.207   0.511
 6435SOL    HW120204   5.959   3.240   0.422
 6435SOL    HW220205   5.987   3.281   0.578
 6436SOL     OW20206   2.719   1.977   0.500
 6436SOL    HW120207   2.719   1.948   0.595
 6436SOL    HW220208   2.738   2.075   0.495
 6437SOL     OW20209   6.781   0.656   2.118
 6437SOL    HW120210   6.718   0.598   2.066
 6437SOL    HW220211   6.732   0.738   2.149
 6438SOL     OW20212   0.824   4.123   4.627
 6438SOL    HW120213   0.832   4.136   4.528
 6438SOL    HW220214   0.786   4.206   4.668
 6439SOL     OW20215   0.167   5.604   2.448
 6439SOL    HW120216   0.215   5.525   2.410
 6439SOL    HW220217   0.107   5.644   2.377
 6440SOL     OW20218   0.378   0.366   2.102
 6440SOL    HW120219   0.388   0.389   2.005
 6440SOL    HW220220   0.391   0.268   2.115
 6441SOL     OW20221   5.478   2.341   3.281
 6441SOL    HW120222   5.385   2.378   3.285
 6441SOL    HW220223   5.520   2.346   3.372
 6442SOL     OW20224   1.315   1.931   3.647
 6442SOL    HW120225   1.238   1.993   3.631
 6442SOL    HW220226   1.394   1.983   3.679
 6443SOL     OW20227   2.540   0.958   0.796
 6443SOL    HW120228   2.474   0.976   0.870
 6443SOL    HW220229   2.490   0.928   0.715
 6444SOL     OW20230   0.338   1.890   2.959
 6444SOL    HW120231   0.289   1.845   3.034
 6444SOL    HW220232   0.369   1.821   2.894
 6445SOL     OW20233   3.723   4.097   6.415
 6445SOL    HW120234   3.667   4.164   6.464
 6445SOL    HW220235   3.705   4.104   6.317
 6446SOL     OW20236   0.065   0.929   1.238
 6446SOL    HW120237   0.046   0.830   1.239
 6446SOL    HW220238   7.003   0.979   1.248
 6447SOL     OW20239   2.217   1.528   3.601
 6447SOL    HW120240   2.262   1.562   3.519
 6447SOL    HW220241   2.159   1.599   3.640
 6448SOL     OW20242   6.096   2.027   1.796
 6448SOL    HW120243   6.034   2.053   1.722
 6448SOL    HW220244   6.191   2.045   1.769
 6449SOL     OW20245   4.064   2.314   0.049
 6449SOL    HW120246   4.035   2.397   0.002
 6449SOL    HW220247   4.076   2.240   7.007
 6450SOL     OW20248   6.959   1.676   0.780
 6450SOL    HW120249   0.017   1.730   0.799
 6450SOL    HW220250   6.922   1.641   0.866
 6451SOL     OW20251   3.494   6.575   4.847
 6451SOL    HW120252   3.473   6.478   4.837
 6451SOL    HW220253   3.458   6.625   4.768
 6452SOL     OW20254   3.530   6.078   5.020
 6452SOL    HW120255   3.559   6.172   5.036
 6452SOL    HW220256   3.454   6.055   5.080
 6453SOL     OW20257   2.827   5.134   0.059
 6453SOL    HW120258   2.820   5.041   0.022
 6453SOL    HW220259   2.770   5.141   0.141
 6454SOL     OW20260   3.999   0.943   5.125
 6454SOL    HW120261   4.083   0.996   5.141
 6454SOL    HW220262   3.922   1.006   5.112
 6455SOL     OW20263   5.519   3.517   0.294
 6455SOL    HW120264   5.532   3.420   0.275
 6455SOL    HW220265   5.545   3.570   0.213
 6456SOL     OW20266   6.860   2.139   4.239
 6456SOL    HW120267   6.860   2.110   4.334
 6456SOL    HW220268   6.766   2.158   4.210
 6457SOL     OW20269   5.710   3.653   1.083
 6457SOL    HW120270   5.704   3.752   1.084
 6457SOL    HW220271   5.618   3.614   1.078
 6458SOL     OW20272   0.904   5.615   4.188
 6458SOL    HW120273   0.910   5.516   4.177
 6458SOL    HW220274   0.989   5.649   4.229
 6459SOL     OW20275   6.051   3.863   0.159
 6459SOL    HW120276   6.137   3.897   0.197
 6459SOL    HW220277   5.975   3.917   0.196
 6460SOL     OW20278   3.947   5.528   2.062
 6460SOL    HW120279   4.033   5.479   2.048
 6460SOL    HW220280   3.882   5.502   1.990
 6461SOL     OW20281   3.525   5.638   4.069
 6461SOL    HW120282   3.489   5.621   3.977
 6461SOL    HW220283   3.527   5.736   4.087
 6462SOL     OW20284   2.265   4.673   3.007
 6462SOL    HW120285   2.211   4.679   2.923
 6462SOL    HW220286   2.211   4.627   3.078
 6463SOL     OW20287   2.499   3.278   5.751
 6463SOL    HW120288   2.478   3.196   5.698
 6463SOL    HW220289   2.416   3.310   5.798
 6464SOL     OW20290   0.933   5.800   1.685
 6464SOL    HW120291   0.865   5.849   1.630
 6464SOL    HW220292   0.984   5.736   1.626
 6465SOL     OW20293   5.974   6.886   3.137
 6465SOL    HW120294   5.913   6.921   3.207
 6465SOL    HW220295   6.002   6.960   3.076
 6466SOL     OW20296   6.572   3.091   4.539
 6466SOL    HW120297   6.537   3.051   4.455
 6466SOL    HW220298   6.526   3.178   4.556
 6467SOL     OW20299   3.811   0.415   5.672
 6467SOL    HW120300   3.880   0.472   5.716
 6467SOL    HW220301   3.821   0.320   5.703
 6468SOL     OW20302   6.274   4.755   2.469
 6468SOL    HW120303   6.345   4.826   2.477
 6468SOL    HW220304   6.236   4.757   2.376
 6469SOL     OW20305   6.991   3.138   6.008
 6469SOL    HW120306   6.956   3.046   6.025
 6469SOL    HW220307   6.917   3.205   6.018
 6470SOL     OW20308   6.614   6.451   4.848
 6470SOL    HW120309   6.574   6.528   4.898
 6470SOL    HW220310   6.577   6.447   4.756
 6471SOL     OW20311   6.749   5.876   5.192
 6471SOL    HW120312   6.738   5.789   5.240
 6471SOL    HW220313   6.666   5.931   5.203
 6472SOL     OW20314   1.492   0.064   1.820
 6472SOL    HW120315   1.452   7.012   1.872
 6472SOL    HW220316   1.574   0.032   1.772
 6473SOL     OW20317   2.039   1.591   5.739
 6473SOL    HW120318   2.102   1.572   5.663
 6473SOL    HW220319   1.966   1.651   5.707
 6474SOL     OW20320   1.464   2.631   6.809
 6474SOL    HW120321   1.496   2.725   6.799
 6474SOL    HW220322   1.379   2.629   6.861
 6475SOL     OW20323   4.447   4.901   3.777
 6475SOL    HW120324   4.471   4.868   3.685
 6475SOL    HW220325   4.409   4.825   3.831
 6476SOL     OW20326   4.983   6.491   2.680
 6476SOL    HW120327   4.884   6.503   2.678
 6476SOL    HW220328   5.008   6.415   2.620
 6477SOL     OW20329   6.514   5.699   6.994
 6477SOL    HW120330   6.603   5.740   7.018
 6477SOL    HW220331   6.524   5.600   6.989
 6478SOL     OW20332   4.574   6.056   0.427
 6478SOL    HW120333   4.528   6.126   0.372
 6478SOL    HW220334   4.530   6.048   0.516
 6479SOL     OW20335   2.875   5.976   2.296
 6479SOL    HW120336   2.892   6.050   2.362
 6479SOL    HW220337   2.925   5.894   2.324
 6480SOL     OW20338   2.762   1.455   0.631
 6480SOL    HW120339   2.750   1.541   0.681
 6480SOL    HW220340   2.859   1.442   0.610
 6481SOL     OW20341   4.570   0.328   0.453
 6481SOL    HW120342   4.482   0.286   0.432
 6481SOL    HW220343   4.557   0.402   0.518
 6482SOL     OW20344   0.022   6.754   5.178
 6482SOL    HW120345   0.044   6.753   5.080
 6482SOL    HW220346   0.013   6.849   5.209
 6483SOL     OW20347   1.548   5.216   1.175
 6483SOL    HW120348   1.523   5.283   1.105
 6483SOL    HW220349   1.466   5.165   1.203
 6484SOL     OW20350   3.821   0.136   2.323
 6484SOL    HW120351   3.900   0.109   2.378
 6484SOL    HW220352   3.843   0.216   2.268
 6485SOL     OW20353   6.873   2.389   2.135
 6485SOL    HW120354   6.890   2.290   2.137
 6485SOL    HW220355   6.956   2.436   2.106
 6486SOL     OW20356   1.334   2.681   3.171
 6486SOL    HW120357   1.386   2.766   3.168
 6486SOL    HW220358   1.244   2.698   3.210
 6487SOL     OW20359   6.761   5.182   2.493
 6487SOL    HW120360   6.768   5.277   2.460
 6487SOL    HW220361   6.807   5.174   2.581
 6488SOL     OW20362   3.696   5.293   3.842
 6488SOL    HW120363   3.610   5.296   3.894
 6488SOL    HW220364   3.767   5.251   3.898
 6489SOL     OW20365   2.679   0.902   6.716
 6489SOL    HW120366   2.605   0.852   6.760
 6489SOL    HW220367   2.734   0.949   6.786
 6490SOL     OW20368   4.127   0.836   6.699
 6490SOL    HW120369   4.090   0.820   6.790
 6490SOL    HW220370   4.094   0.924   6.665
 6491SOL     OW20371   4.789   0.777   6.044
 6491SOL    HW120372   4.710   0.811   5.993
 6491SOL    HW220373   4.872   0.823   6.011
 6492SOL     OW20374   5.438   4.964   6.385
 6492SOL    HW120375   5.386   5.047   6.406
 6492SOL    HW220376   5.534   4.989   6.368
 6493SOL     OW20377   6.919   6.119   5.167
 6493SOL    HW120378   6.948   6.162   5.081
 6493SOL    HW220379   6.890   6.025   5.148
 6494SOL     OW20380   0.047   2.596   3.491
 6494SOL    HW120381   0.087   2.609   3.582
 6494SOL    HW220382   0.101   2.645   3.423
 6495SOL     OW20383   5.090   4.839   2.482
 6495SOL    HW120384   5.138   4.773   2.539
 6495SOL    HW220385   4.992   4.835   2.503
 6496SOL     OW20386   0.042   6.857   3.396
 6496SOL    HW120387   0.100   6.872   3.317
 6496SOL    HW220388   6.990   6.923   3.395
 6497SOL     OW20389   0.805   0.894   1.109
 6497SOL    HW120390   0.869   0.873   1.036
 6497SOL    HW220391   0.853   0.940   1.183
 6498SOL     OW20392   1.331   3.298   4.329
 6498SOL    HW120393   1.326   3.202   4.358
 6498SOL    HW220394   1.418   3.338   4.357
 6499SOL     OW20395   5.908   2.113   3.236
 6499SOL    HW120396   5.988   2.064   3.201
 6499SOL    HW220397   5.847   2.136   3.161
 6500SOL     OW20398   5.335   5.099   1.789
 6500SOL    HW120399   5.370   5.028   1.850
 6500SOL    HW220400   5.412   5.145   1.744
 6501SOL     OW20401   6.765   4.270   0.713
 6501SOL    HW120402   6.733   4.363   0.692
 6501SOL    HW220403   6.687   4.209   0.722
 6502SOL     OW20404   0.848   4.443   2.276
 6502SOL    HW120405   0.853   4.482   2.184
 6502SOL    HW220406   0.847   4.343   2.270
 6503SOL     OW20407   4.161   1.083   3.802
 6503SOL    HW120408   4.208   1.172   3.805
 6503SOL    HW220409   4.118   1.071   3.713
 6504SOL     OW20410   2.290   2.002   0.658
 6504SOL    HW120411   2.196   1.966   0.664
 6504SOL    HW220412   2.291   2.084   0.601
 6505SOL     OW20413   5.701   5.174   1.180
 6505SOL    HW120414   5.787   5.153   1.226
 6505SOL    HW220415   5.679   5.271   1.193
 6506SOL     OW20416   1.949   1.685   1.657
 6506SOL    HW120417   2.032   1.704   1.709
 6506SOL    HW220418   1.966   1.610   1.593
 6507SOL     OW20419   2.476   0.468   1.752
 6507SOL    HW120420   2.418   0.387   1.743
 6507SOL    HW220421   2.528   0.481   1.668
 6508SOL     OW20422   1.359   3.099   1.910
 6508SOL    HW120423   1.265   3.073   1.934
 6508SOL    HW220424   1.399   3.152   1.984
 6509SOL     OW20425   0.838   2.936   3.962
 6509SOL    HW120426   0.866   3.027   3.932
 6509SOL    HW220427   0.769   2.943   4.034
 6510SOL     OW20428   6.281   4.120   0.094
 6510SOL    HW120429   6.267   4.075   0.006
 6510SOL    HW220430   6.285   4.052   0.167
 6511SOL     OW20431   6.945   6.576   6.193
 6511SOL    HW120432   6.950   6.476   6.194
 6511SOL    HW220433   0.010   6.614   6.216
 6512SOL     OW20434   5.251   6.854   4.185
 6512SOL    HW120435   5.335   6.893   4.222
 6512SOL    HW220436   5.233   6.765   4.227
 6513SOL     OW20437   1.373   6.971   3.591
 6513SOL    HW120438   1.314   6.938   3.517
 6513SOL    HW220439   1.422   0.029   3.562
 6514SOL     OW20440   2.902   0.779   4.131
 6514SOL    HW120441   2.874   0.741   4.219
 6514SOL    HW220442   2.824   0.824   4.087
 6515SOL     OW20443   1.637   1.634   3.664
 6515SOL    HW120444   1.542   1.603   3.656
 6515SOL    HW220445   1.665   1.679   3.579
 6516SOL     OW20446   2.409   1.909   5.484
 6516SOL    HW120447   2.437   1.843   5.554
 6516SOL    HW220448   2.311   1.926   5.492
 6517SOL     OW20449   2.881   2.046   1.379
 6517SOL    HW120450   2.956   1.981   1.370
 6517SOL    HW220451   2.917   2.138   1.395
 6518SOL     OW20452   4.945   6.061   1.481
 6518SOL    HW120453   5.044   6.063   1.493
 6518SOL    HW220454   4.901   6.081   1.568
 6519SOL     OW20455   0.304   1.765   3.914
 6519SOL    HW120456   0.358   1.747   3.832
 6519SOL    HW220457   0.364   1.760   3.994
 6520SOL     OW20458   6.189   4.961   1.171
 6520SOL    HW120459   6.139   4.988   1.089
 6520SOL    HW220460   6.264   5.026   1.187
 6521SOL     OW20461   1.196   2.069   6.165
 6521SOL    HW120462   1.204   1.970   6.178
 6521SOL    HW220463   1.104   2.099   6.189
 6522SOL     OW20464   2.340   4.794   4.131
 6522SOL    HW120465   2.254   4.766   4.090
 6522SOL    HW220466   2.408   4.722   4.119
 6523SOL     OW20467   2.284   2.242   1.373
 6523SOL    HW120468   2.249   2.251   1.279
 6523SOL    HW220469   2.375   2.202   1.370
 6524SOL     OW20470   4.228   2.142   5.379
 6524SOL    HW120471   4.166   2.066   5.397
 6524SOL    HW220472   4.175   2.225   5.361
 6525SOL     OW20473   0.431   2.550   4.833
 6525SOL    HW120474   0.452   2.502   4.748
 6525SOL    HW220475   0.495   2.625   4.847
 6526SOL     OW20476   1.692   6.647   3.084
 6526SOL    HW120477   1.638   6.564   3.096
 6526SOL    HW220478   1.738   6.670   3.170
 6527SOL     OW20479   2.012   1.139   4.690
 6527SOL    HW120480   2.083   1.207   4.705
 6527SOL    HW220481   2.054   1.049   4.678
 6528SOL     OW20482   6.624   0.481   2.832
 6528SOL    HW120483   6.661   0.461   2.741
 6528SOL    HW220484   6.541   0.537   2.822
 6529SOL     OW20485   6.360   3.435   2.082
 6529SOL    HW120486   6.363   3.352   2.027
 6529SOL    HW220487   6.297   3.422   2.158
 6530SOL     OW20488   6.706   0.894   0.572
 6530SOL    HW120489   6.651   0.973   0.599
 6530SOL    HW220490   6.795   0.899   0.616
 6531SOL     OW20491   5.135   1.868   5.874
 6531SOL    HW120492   5.092   1.780   5.854
 6531SOL    HW220493   5.203   1.889   5.804
 6532SOL     OW20494   2.030   1.112   6.830
 6532SOL    HW120495   1.963   1.109   6.904
 6532SOL    HW220496   2.060   1.207   6.817
 6533SOL     OW20497   5.508   0.530   6.834
 6533SOL    HW120498   5.468   0.573   6.915
 6533SOL    HW220499   5.597   0.492   6.856
 6534SOL     OW20500   4.068   1.969   0.152
 6534SOL    HW120501   4.052   2.055   0.201
 6534SOL    HW220502   4.154   1.976   0.101
 6535SOL     OW20503   1.872   1.991   4.188
 6535SOL    HW120504   1.776   1.982   4.162
 6535SOL    HW220505   1.900   1.912   4.242
 6536SOL     OW20506   0.468   1.597   1.040
 6536SOL    HW120507   0.391   1.574   0.979
 6536SOL    HW220508   0.520   1.514   1.059
 6537SOL     OW20509   6.952   0.813   5.812
 6537SOL    HW120510   0.016   0.776   5.784
 6537SOL    HW220511   6.893   0.740   5.845
 6538SOL     OW20512   3.223   2.202   5.946
 6538SOL    HW120513   3.233   2.175   5.850
 6538SOL    HW220514   3.182   2.294   5.951
 6539SOL     OW20515   3.223   1.100   6.772
 6539SOL    HW120516   3.150   1.101   6.840
 6539SOL    HW220517   3.307   1.065   6.814
 6540SOL     OW20518   3.726   2.151   3.465
 6540SOL    HW120519   3.638   2.109   3.483
 6540SOL    HW220520   3.748   2.144   3.367
 6541SOL     OW20521   3.254   1.899   5.059
 6541SOL    HW120522   3.329   1.962   5.040
 6541SOL    HW220523   3.181   1.947   5.107
 6542SOL     OW20524   4.306   5.068   2.550
 6542SOL    HW120525   4.390   5.122   2.555
 6542SOL    HW220526   4.305   5.016   2.465
 6543SOL     OW20527   1.454   6.369   6.011
 6543SOL    HW120528   1.510   6.338   5.935
 6543SOL    HW220529   1.371   6.412   5.976
 6544SOL     OW20530   1.117   5.024   2.802
 6544SOL    HW120531   1.022   4.993   2.804
 6544SOL    HW220532   1.174   4.954   2.758
 6545SOL     OW20533   6.337   2.604   6.951
 6545SOL    HW120534   6.333   2.505   6.962
 6545SOL    HW220535   6.382   2.626   6.865
 6546SOL     OW20536   3.388   4.859   6.496
 6546SOL    HW120537   3.402   4.810   6.410
 6546SOL    HW220538   3.395   4.795   6.573
 6547SOL     OW20539   4.323   0.995   6.417
 6547SOL    HW120540   4.249   0.944   6.374
 6547SOL    HW220541   4.405   0.989   6.360
 6548SOL     OW20542   4.538   3.886   5.511
 6548SOL    HW120543   4.560   3.800   5.466
 6548SOL    HW220544   4.618   3.947   5.508
 6549SOL     OW20545   2.471   1.796   2.243
 6549SOL    HW120546   2.454   1.731   2.317
 6549SOL    HW220547   2.569   1.816   2.237
 6550SOL     OW20548   0.706   6.160   2.179
 6550SOL    HW120549   0.712   6.156   2.079
 6550SOL    HW220550   0.641   6.090   2.211
 6551SOL     OW20551   3.420   5.292   2.102
 6551SOL    HW120552   3.358   5.345   2.160
 6551SOL    HW220553   3.370   5.254   2.025
 6552SOL     OW20554   5.047   5.081   6.126
 6552SOL    HW120555   5.052   4.995   6.176
 6552SOL    HW220556   5.130   5.094   6.071
 6553SOL     OW20557   6.468   3.663   2.806
 6553SOL    HW120558   6.477   3.594   2.734
 6553SOL    HW220559   6.440   3.750   2.767
 6554SOL     OW20560   6.435   3.313   4.461
 6554SOL    HW120561   6.496   3.305   4.382
 6554SOL    HW220562   6.472   3.381   4.525
 6555SOL     OW20563   0.496   0.965   1.306
 6555SOL    HW120564   0.497   1.051   1.254
 6555SOL    HW220565   0.572   0.964   1.371
 6556SOL     OW20566   2.236   0.372   3.059
 6556SOL    HW120567   2.142   0.339   3.045
 6556SOL    HW220568   2.298   0.322   2.999
 6557SOL     OW20569   4.681   6.272   0.597
 6557SOL    HW120570   4.599   6.258   0.542
 6557SOL    HW220571   4.758   6.296   0.537
 6558SOL     OW20572   5.490   6.621   6.147
 6558SOL    HW120573   5.483   6.551   6.075
 6558SOL    HW220574   5.521   6.707   6.107
 6559SOL     OW20575   3.165   3.841   1.034
 6559SOL    HW120576   3.256   3.845   1.076
 6559SOL    HW220577   3.107   3.778   1.087
 6560SOL     OW20578   4.449   2.064   0.882
 6560SOL    HW120579   4.509   1.989   0.911
 6560SOL    HW220580   4.377   2.077   0.950
 6561SOL     OW20581   3.033   3.131   4.482
 6561SOL    HW120582   3.021   3.154   4.578
 6561SOL    HW220583   3.117   3.078   4.470
 6562SOL     OW20584   0.011   4.637   4.752
 6562SOL    HW120585   0.082   4.580   4.710
 6562SOL    HW220586   6.948   4.618   4.709
 6563SOL     OW20587   0.517   6.154   2.474
 6563SOL    HW120588   0.467   6.240   2.470
 6563SOL    HW220589   0.516   6.110   2.384
 6564SOL     OW20590   1.922   5.162   3.031
 6564SOL    HW120591   1.982   5.094   3.073
 6564SOL    HW220592   1.927   5.154   2.932
 6565SOL     OW20593   0.104   4.035   5.870
 6565SOL    HW120594   0.174   4.105   5.861
 6565SOL    HW220595   0.144   3.945   5.851
 6566SOL     OW20596   4.370   0.827   0.722
 6566SOL    HW120597   4.467   0.804   0.733
 6566SOL    HW220598   4.355   0.868   0.632
 6567SOL     OW20599   6.941   2.271   0.544
 6567SOL    HW120600   6.853   2.313   0.526
 6567SOL    HW220601   6.927   2.179   0.581
 6568SOL     OW20602   5.743   3.336   1.606
 6568SOL    HW120603   5.653   3.358   1.568
 6568SOL    HW220604   5.792   3.276   1.544
 6569SOL     OW20605   1.114   4.991   5.895
 6569SOL    HW120606   1.127   4.896   5.922
 6569SOL    HW220607   1.162   5.051   5.959
 6570SOL     OW20608   1.088   3.753   1.832
 6570SOL    HW120609   1.019   3.810   1.789
 6570SOL    HW220610   1.132   3.696   1.763
 6571SOL     OW20611   2.565   5.554   4.717
 6571SOL    HW120612   2.589   5.618   4.644
 6571SOL    HW220613   2.466   5.537   4.715
 6572SOL     OW20614   1.393   3.245   5.765
 6572SOL    HW120615   1.398   3.345   5.765
 6572SOL    HW220616   1.463   3.208   5.704
 6573SOL     OW20617   1.248   2.156   1.411
 6573SOL    HW120618   1.171   2.120   1.358
 6573SOL    HW220619   1.259   2.102   1.495
 6574SOL     OW20620   2.065   4.902   4.597
 6574SOL    HW120621   2.077   4.987   4.649
 6574SOL    HW220622   2.137   4.894   4.529
 6575SOL     OW20623   0.719   1.357   2.465
 6575SOL    HW120624   0.659   1.300   2.408
 6575SOL    HW220625   0.731   1.446   2.422
 6576SOL     OW20626   0.355   5.564   4.718
 6576SOL    HW120627   0.405   5.649   4.737
 6576SOL    HW220628   0.381   5.494   4.784
 6577SOL     OW20629   0.970   4.303   5.949
 6577SOL    HW120630   0.995   4.263   5.861
 6577SOL    HW220631   0.892   4.365   5.936
 6578SOL     OW20632   5.373   5.960   4.777
 6578SOL    HW120633   5.410   5.959   4.684
 6578SOL    HW220634   5.359   5.866   4.808
 6579SOL     OW20635   1.075   4.206   3.657
 6579SOL    HW120636   1.055   4.194   3.560
 6579SOL    HW220637   1.155   4.150   3.681
 6580SOL     OW20638   4.806   2.783   0.791
 6580SOL    HW120639   4.718   2.753   0.756
 6580SOL    HW220640   4.866   2.809   0.715
 6581SOL     OW20641   2.386   2.196   5.586
 6581SOL    HW120642   2.356   2.104   5.611
 6581SOL    HW220643   2.483   2.205   5.607
 6582SOL     OW20644   5.860   1.057   2.257
 6582SOL    HW120645   5.845   0.974   2.202
 6582SOL    HW220646   5.914   1.122   2.204
 6583SOL     OW20647   6.093   0.869   5.997
 6583SOL    HW120648   6.062   0.798   6.059
 6583SOL    HW220649   6.039   0.952   6.012
 6584SOL     OW20650   6.049   2.112   0.338
 6584SOL    HW120651   5.956   2.083   0.360
 6584SOL    HW220652   6.114   2.042   0.367
 6585SOL     OW20653   1.693   0.887   2.587
 6585SOL    HW120654   1.642   0.898   2.672
 6585SOL    HW220655   1.629   0.876   2.511
 6586SOL     OW20656   6.005   0.689   6.184
 6586SOL    HW120657   6.073   0.645   6.242
 6586SOL    HW220658   5.970   0.624   6.117
 6587SOL     OW20659   1.328   6.313   2.409
 6587SOL    HW120660   1.289   6.263   2.332
 6587SOL    HW220661   1.419   6.346   2.385
 6588SOL     OW20662   3.712   3.678   0.416
 6588SOL    HW120663   3.704   3.615   0.494
 6588SOL    HW220664   3.653   3.646   0.342
 6589SOL     OW20665   4.365   1.893   6.259
 6589SOL    HW120666   4.302   1.846   6.321
 6589SOL    HW220667   4.329   1.984   6.238
 6590SOL     OW20668   6.304   2.080   5.771
 6590SOL    HW120669   6.395   2.045   5.754
 6590SOL    HW220670   6.250   2.077   5.686
 6591SOL     OW20671   4.677   0.408   2.383
 6591SOL    HW120672   4.658   0.489   2.438
 6591SOL    HW220673   4.663   0.326   2.439
 6592SOL     OW20674   6.526   5.224   5.219
 6592SOL    HW120675   6.592   5.150   5.209
 6592SOL    HW220676   6.573   5.306   5.252
 6593SOL     OW20677   5.491   1.829   2.614
 6593SOL    HW120678   5.405   1.777   2.605
 6593SOL    HW220679   5.543   1.793   2.691
 6594SOL     OW20680   5.825   0.310   6.514
 6594SOL    HW120681   5.790   0.218   6.496
 6594SOL    HW220682   5.752   0.377   6.499
 6595SOL     OW20683   3.971   2.852   6.375
 6595SOL    HW120684   3.887   2.866   6.324
 6595SOL    HW220685   4.049   2.876   6.317
 6596SOL     OW20686   1.686   5.610   4.581
 6596SOL    HW120687   1.681   5.564   4.492
 6596SOL    HW220688   1.600   5.660   4.597
 6597SOL     OW20689   0.942   4.225   0.617
 6597SOL    HW120690   0.951   4.282   0.699
 6597SOL    HW220691   1.013   4.154   0.618
 6598SOL     OW20692   3.309   6.338   4.321
 6598SOL    HW120693   3.392   6.301   4.362
 6598SOL    HW220694   3.257   6.387   4.391
 6599SOL     OW20695   3.963   3.276   5.795
 6599SOL    HW120696   4.062   3.268   5.791
 6599SOL    HW220697   3.923   3.237   5.713
 6600SOL     OW20698   4.375   4.874   4.971
 6600SOL    HW120699   4.396   4.779   4.950
 6600SOL    HW220700   4.318   4.878   5.053
 6601SOL     OW20701   1.006   0.879   2.101
 6601SOL    HW120702   0.961   0.942   2.038
 6601SOL    HW220703   0.977   0.786   2.083
 6602SOL     OW20704   5.067   1.468   0.479
 6602SOL    HW120705   5.057   1.567   0.492
 6602SOL    HW220706   5.076   1.448   0.382
 6603SOL     OW20707   3.369   2.145   1.992
 6603SOL    HW120708   3.351   2.050   2.017
 6603SOL    HW220709   3.465   2.167   2.010
 6604SOL     OW20710   4.362   4.838   4.492
 6604SOL    HW120711   4.326   4.791   4.412
 6604SOL    HW220712   4.333   4.791   4.575
 6605SOL     OW20713   4.598   5.507   0.928
 6605SOL    HW120714   4.599   5.594   0.977
 6605SOL    HW220715   4.685   5.495   0.880
 6606SOL     OW20716   0.653   2.929   2.965
 6606SOL    HW120717   0.594   3.008   2.946
 6606SOL    HW220718   0.699   2.901   2.880
 6607SOL     OW20719   2.146   3.948   2.568
 6607SOL    HW120720   2.182   4.019   2.628
 6607SOL    HW220721   2.147   3.860   2.616
 6608SOL     OW20722   4.887   4.004   4.733
 6608SOL    HW120723   4.914   3.949   4.811
 6608SOL    HW220724   4.965   4.016   4.672
 6609SOL     OW20725   5.927   2.738   5.889
 6609SOL    HW120726   5.992   2.814   5.894
 6609SOL    HW220727   5.851   2.755   5.952
 6610SOL     OW20728   3.924   1.255   0.607
 6610SOL    HW120729   4.019   1.263   0.574
 6610SOL    HW220730   3.914   1.172   0.660
 6611SOL     OW20731   5.448   3.346   1.708
 6611SOL    HW120732   5.488   3.421   1.761
 6611SOL    HW220733   5.365   3.378   1.663
 6612SOL     OW20734   0.491   5.336   6.747
 6612SOL    HW120735   0.434   5.392   6.687
 6612SOL    HW220736   0.584   5.373   6.748
 6613SOL     OW20737   6.443   5.009   0.966
 6613SOL    HW120738   6.381   4.937   0.934
 6613SOL    HW220739   6.530   4.968   0.995
 6614SOL     OW20740   5.765   4.801   5.822
 6614SOL    HW120741   5.667   4.805   5.842
 6614SOL    HW220742   5.806   4.891   5.837
 6615SOL     OW20743   0.898   3.868   4.812
 6615SOL    HW120744   0.827   3.935   4.831
 6615SOL    HW220745   0.987   3.904   4.839
 6616SOL     OW20746   4.944   1.590   3.569
 6616SOL    HW120747   4.928   1.512   3.509
 6616SOL    HW220748   4.921   1.674   3.521
 6617SOL     OW20749   3.692   0.672   4.899
 6617SOL    HW120750   3.717   0.707   4.808
 6617SOL    HW220751   3.774   0.669   4.956
 6618SOL     OW20752   6.852   4.557   1.851
 6618SOL    HW120753   6.945   4.539   1.883
 6618SOL    HW220754   6.810   4.629   1.906
 6619SOL     OW20755   6.157   5.872   2.693
 6619SOL    HW120756   6.213   5.925   2.630
 6619SOL    HW220757   6.137   5.926   2.775
 6620SOL     OW20758   5.410   3.454   5.399
 6620SOL    HW120759   5.401   3.538   5.453
 6620SOL    HW220760   5.503   3.448   5.362
 6621SOL     OW20761   4.863   3.099   0.847
 6621SOL    HW120762   4.870   3.099   0.747
 6621SOL    HW220763   4.819   3.015   0.877
 6622SOL     OW20764   5.774   5.410   0.668
 6622SOL    HW120765   5.811   5.400   0.576
 6622SOL    HW220766   5.681   5.445   0.662
 6623SOL     OW20767   3.139   3.489   3.077
 6623SOL    HW120768   3.112   3.403   3.121
 6623SOL    HW220769   3.151   3.560   3.147
 6624SOL     OW20770   4.841   4.928   4.454
 6624SOL    HW120771   4.782   5.001   4.419
 6624SOL    HW220772   4.786   4.864   4.507
 6625SOL     OW20773   5.446   6.075   1.094
 6625SOL    HW120774   5.354   6.102   1.122
 6625SOL    HW220775   5.454   6.078   0.995
 6626SOL     OW20776   3.049   5.136   4.177
 6626SOL    HW120777   2.981   5.166   4.244
 6626SOL    HW220778   3.048   5.036   4.172
 6627SOL     OW20779   6.927   0.479   0.840
 6627SOL    HW120780   6.920   0.393   0.788
 6627SOL    HW220781   7.002   0.471   0.906
 6628SOL     OW20782   3.446   6.486   4.146
 6628SOL    HW120783   3.425   6.578   4.179
 6628SOL    HW220784   3.398   6.418   4.202
 6629SOL     OW20785   2.318   4.336   1.046
 6629SOL    HW120786   2.386   4.405   1.068
 6629SOL    HW220787   2.332   4.255   1.103
 6630SOL     OW20788   3.228   1.264   5.634
 6630SOL    HW120789   3.247   1.318   5.716
 6630SOL    HW220790   3.145   1.210   5.649
 6631SOL     OW20791   3.114   6.437   1.521
 6631SOL    HW120792   3.144   6.502   1.591
 6631SOL    HW220793   3.190   6.420   1.457
 6632SOL     OW20794   6.597   3.536   2.202
 6632SOL    HW120795   6.593   3.636   2.200
 6632SOL    HW220796   6.516   3.499   2.158
 6633SOL     OW20797   1.020   6.014   3.221
 6633SOL    HW120798   1.048   5.930   3.268
 6633SOL    HW220799   1.046   6.093   3.276
 6634SOL     OW20800   6.641   2.398   4.985
 6634SOL    HW120801   6.569   2.442   4.931
 6634SOL    HW220802   6.676   2.319   4.936
 6635SOL     OW20803   4.304   5.106   3.997
 6635SOL    HW120804   4.228   5.041   3.998
 6635SOL    HW220805   4.391   5.057   4.000
 6636SOL     OW20806   2.143   3.101   2.780
 6636SOL    HW120807   2.154   3.043   2.861
 6636SOL    HW220808   2.162   3.047   2.698
 6637SOL     OW20809   0.134   2.100   6.743
 6637SOL    HW120810   0.121   2.007   6.709
 6637SOL    HW220811   0.110   2.104   6.840
 6638SOL     OW20812   1.229   0.555   6.818
 6638SOL    HW120813   1.262   0.624   6.882
 6638SOL    HW220814   1.205   0.598   6.731
 6639SOL     OW20815   4.146   6.156   6.538
 6639SOL    HW120816   4.193   6.079   6.494
 6639SOL    HW220817   4.091   6.122   6.615
 6640SOL     OW20818   5.311   4.310   3.091
 6640SOL    HW120819   5.338   4.405   3.103
 6640SOL    HW220820   5.255   4.281   3.168
 6641SOL     OW20821   2.370   5.577   6.366
 6641SOL    HW120822   2.393   5.572   6.269
 6641SOL    HW220823   2.452   5.597   6.420
 6642SOL     OW20824   6.034   5.643   5.739
 6642SOL    HW120825   6.080   5.575   5.796
 6642SOL    HW220826   5.948   5.606   5.706
 6643SOL     OW20827   4.175   5.229   1.191
 6643SOL    HW120828   4.137   5.194   1.105
 6643SOL    HW220829   4.102   5.273   1.243
 6644SOL     OW20830   1.109   3.058   1.997
 6644SOL    HW120831   1.079   3.101   2.083
 6644SOL    HW220832   1.032   3.053   1.934
 6645SOL     OW20833   0.514   5.189   5.292
 6645SOL    HW120834   0.476   5.114   5.237
 6645SOL    HW220835   0.458   5.270   5.281
 6646SOL     OW20836   1.820   5.606   4.071
 6646SOL    HW120837   1.780   5.584   3.982
 6646SOL    HW220838   1.918   5.625   4.060
 6647SOL     OW20839   4.133   1.739   1.845
 6647SOL    HW120840   4.224   1.744   1.885
 6647SOL    HW220841   4.128   1.659   1.785
 6648SOL     OW20842   3.645   5.416   2.221
 6648SOL    HW120843   3.552   5.393   2.191
 6648SOL    HW220844   3.708   5.344   2.193
 6649SOL     OW20845   4.152   1.842   5.688
 6649SOL    HW120846   4.204   1.777   5.743
 6649SOL    HW220847   4.197   1.932   5.691
 6650SOL     OW20848   3.228   1.549   3.372
 6650SOL    HW120849   3.221   1.450   3.366
 6650SOL    HW220850   3.316   1.574   3.413
 6651SOL     OW20851   0.706   1.878   1.272
 6651SOL    HW120852   0.706   1.938   1.192
 6651SOL    HW220853   0.614   1.843   1.288
 6652SOL     OW20854   0.227   5.247   3.807
 6652SOL    HW120855   0.231   5.339   3.769
 6652SOL    HW220856   0.249   5.180   3.736
 6653SOL     OW20857   3.540   3.616   4.862
 6653SOL    HW120858   3.586   3.532   4.834
 6653SOL    HW220859   3.591   3.695   4.828
 6654SOL     OW20860   1.388   3.947   1.653
 6654SOL    HW120861   1.439   3.916   1.733
 6654SOL    HW220862   1.452   3.968   1.579
 6655SOL     OW20863   1.259   0.281   6.544
 6655SOL    HW120864   1.191   0.354   6.533
 6655SOL    HW220865   1.216   0.202   6.588
 6656SOL     OW20866   6.296   1.576   1.290
 6656SOL    HW120867   6.243   1.646   1.243
 6656SOL    HW220868   6.282   1.584   1.388
 6657SOL     OW20869   3.414   4.913   5.547
 6657SOL    HW120870   3.511   4.890   5.545
 6657SOL    HW220871   3.388   4.939   5.640
 6658SOL     OW20872   6.037   0.085   5.261
 6658SOL    HW120873   6.118   0.142   5.269
 6658SOL    HW220874   6.033   0.043   5.170
 6659SOL     OW20875   2.824   2.815   0.713
 6659SOL    HW120876   2.868   2.863   0.790
 6659SOL    HW220877   2.801   2.722   0.741
 6660SOL     OW20878   7.001   6.641   2.643
 6660SOL    HW120879   0.029   6.556   2.645
 6660SOL    HW220880   6.930   6.637   2.713
 6661SOL     OW20881   6.765   0.490   3.754
 6661SOL    HW120882   6.755   0.505   3.853
 6661SOL    HW220883   6.844   0.430   3.738
 6662SOL     OW20884   2.026   3.948   5.985
 6662SOL    HW120885   2.086   4.017   5.944
 6662SOL    HW220886   2.070   3.909   6.065
 6663SOL     OW20887   1.268   5.571   1.995
 6663SOL    HW120888   1.243   5.495   1.934
 6663SOL    HW220889   1.253   5.543   2.090
 6664SOL     OW20890   6.635   2.228   1.205
 6664SOL    HW120891   6.551   2.280   1.191
 6664SOL    HW220892   6.714   2.289   1.196
 6665SOL     OW20893   1.715   6.818   3.296
 6665SOL    HW120894   1.716   6.908   3.339
 6665SOL    HW220895   1.727   6.748   3.367
 6666SOL     OW20896   5.877   7.022   0.732
 6666SOL    HW120897   5.831   0.017   0.645
 6666SOL    HW220898   5.846   6.933   0.766
 6667SOL     OW20899   5.490   4.748   5.540
 6667SOL    HW120900   5.435   4.803   5.602
 6667SOL    HW220901   5.440   4.663   5.519
 6668SOL     OW20902   6.399   6.335   0.963
 6668SOL    HW120903   6.434   6.332   1.056
 6668SOL    HW220904   6.456   6.277   0.904
 6669SOL     OW20905   0.780   4.631   3.454
 6669SOL    HW120906   0.864   4.618   3.401
 6669SOL    HW220907   0.802   4.632   3.552
 6670SOL     OW20908   5.354   4.786   0.460
 6670SOL    HW120909   5.452   4.782   0.480
 6670SOL    HW220910   5.304   4.726   0.522
 6671SOL     OW20911   1.074   2.201   5.527
 6671SOL    HW120912   1.108   2.276   5.470
 6671SOL    HW220913   1.135   2.189   5.605
 6672SOL     OW20914   6.804   1.574   5.362
 6672SOL    HW120915   6.720   1.549   5.315
 6672SOL    HW220916   6.836   1.497   5.418
 6673SOL     OW20917   3.513   5.892   1.391
 6673SOL    HW120918   3.470   5.917   1.478
 6673SOL    HW220919   3.611   5.878   1.406
 6674SOL     OW20920   0.950   5.799   4.690
 6674SOL    HW120921   1.024   5.848   4.736
 6674SOL    HW220922   0.904   5.860   4.626
 6675SOL     OW20923   6.180   6.608   6.086
 6675SOL    HW120924   6.274   6.642   6.080
 6675SOL    HW220925   6.160   6.550   6.006
 6676SOL     OW20926   0.301   1.614   0.829
 6676SOL    HW120927   0.252   1.700   0.819
 6676SOL    HW220928   0.238   1.538   0.814
 6677SOL     OW20929   0.835   3.904   0.646
 6677SOL    HW120930   0.841   3.904   0.746
 6677SOL    HW220931   0.852   3.997   0.612
 6678SOL     OW20932   0.772   3.682   4.310
 6678SOL    HW120933   0.845   3.722   4.365
 6678SOL    HW220934   0.719   3.618   4.366
 6679SOL     OW20935   2.556   1.310   4.755
 6679SOL    HW120936   2.461   1.338   4.772
 6679SOL    HW220937   2.560   1.258   4.670
 6680SOL     OW20938   2.714   1.123   7.014
 6680SOL    HW120939   2.661   1.138   0.073
 6680SOL    HW220940   2.665   1.164   6.936
 6681SOL     OW20941   6.347   5.121   6.572
 6681SOL    HW120942   6.331   5.032   6.614
 6681SOL    HW220943   6.445   5.132   6.553
 6682SOL     OW20944   5.808   4.713   2.352
 6682SOL    HW120945   5.868   4.635   2.368
 6682SOL    HW220946   5.755   4.732   2.435
 6683SOL     OW20947   5.430   3.348   3.498
 6683SOL    HW120948   5.450   3.264   3.549
 6683SOL    HW220949   5.509   3.372   3.442
 6684SOL     OW20950   1.737   0.985   1.907
 6684SOL    HW120951   1.739   1.084   1.921
 6684SOL    HW220952   1.646   0.949   1.929
 6685SOL     OW20953   6.325   2.348   7.004
 6685SOL    HW120954   6.332   2.391   0.070
 6685SOL    HW220955   6.284   2.257   7.015
 6686SOL     OW20956   5.167   4.269   3.995
 6686SOL    HW120957   5.213   4.264   3.906
 6686SOL    HW220958   5.079   4.316   3.984
 6687SOL     OW20959   0.278   6.863   6.960
 6687SOL    HW120960   0.334   6.897   0.011
 6687SOL    HW220961   0.292   6.920   6.880
 6688SOL     OW20962   0.648   4.803   3.257
 6688SOL    HW120963   0.721   4.867   3.231
 6688SOL    HW220964   0.681   4.743   3.330
 6689SOL     OW20965   5.561   3.887   0.541
 6689SOL    HW120966   5.491   3.815   0.543
 6689SOL    HW220967   5.586   3.907   0.447
 6690SOL     OW20968   0.168   1.143   0.804
 6690SOL    HW120969   0.212   1.093   0.878
 6690SOL    HW220970   0.235   1.166   0.734
 6691SOL     OW20971   1.011   4.898   1.768
 6691SOL    HW120972   1.011   4.860   1.861
 6691SOL    HW220973   0.965   4.987   1.769
 6692SOL     OW20974   5.256   3.416   6.716
 6692SOL    HW120975   5.347   3.388   6.747
 6692SOL    HW220976   5.241   3.512   6.741
 6693SOL     OW20977   3.448   3.055   5.885
 6693SOL    HW120978   3.405   3.102   5.808
 6693SOL    HW220979   3.547   3.063   5.878
 6694SOL     OW20980   2.433   5.716   0.318
 6694SOL    HW120981   2.398   5.731   0.411
 6694SOL    HW220982   2.366   5.748   0.251
 6695SOL     OW20983   0.973   1.313   0.182
 6695SOL    HW120984   0.981   1.236   0.246
 6695SOL    HW220985   0.987   1.280   0.088
 6696SOL     OW20986   1.402   2.156   0.889
 6696SOL    HW120987   1.353   2.118   0.967
 6696SOL    HW220988   1.371   2.250   0.873
 6697SOL     OW20989   5.240   3.171   4.454
 6697SOL    HW120990   5.196   3.104   4.394
 6697SOL    HW220991   5.255   3.256   4.403
 6698SOL     OW20992   2.296   4.364   5.449
 6698SOL    HW120993   2.240   4.362   5.532
 6698SOL    HW220994   2.288   4.276   5.402
 6699SOL     OW20995   1.412   3.342   6.580
 6699SOL    HW120996   1.348   3.266   6.563
 6699SOL    HW220997   1.503   3.316   6.550
 6700SOL     OW20998   0.222   6.521   6.503
 6700SOL    HW120999   0.224   6.434   6.455
 6700SOL    HW221000   0.310   6.566   6.495
 6701SOL     OW21001   1.599   2.372   6.470
 6701SOL    HW121002   1.559   2.341   6.384
 6701SOL    HW221003   1.580   2.469   6.483
 6702SOL     OW21004   3.517   3.795   0.792
 6702SOL    HW121005   3.601   3.837   0.757
 6702SOL    HW221006   3.443   3.862   0.788
 6703SOL     OW21007   0.429   1.592   0.078
 6703SOL    HW121008   0.355   1.657   0.094
 6703SOL    HW221009   0.516   1.634   0.104
 6704SOL     OW21010   5.368   3.331   2.472
 6704SOL    HW121011   5.307   3.265   2.428
 6704SOL    HW221012   5.365   3.317   2.571
 6705SOL     OW21013   4.769   2.902   1.086
 6705SOL    HW121014   4.765   2.836   1.011
 6705SOL    HW221015   4.676   2.917   1.122
 6706SOL     OW21016   1.456   0.081   6.665
 6706SOL    HW121017   1.451   7.005   6.673
 6706SOL    HW221018   1.394   0.112   6.593
 6707SOL     OW21019   1.224   4.905   3.790
 6707SOL    HW121020   1.140   4.943   3.750
 6707SOL    HW221021   1.252   4.962   3.867
 6708SOL     OW21022   2.528   5.779   0.763
 6708SOL    HW121023   2.581   5.853   0.721
 6708SOL    HW221024   2.438   5.774   0.720
 6709SOL     OW21025   4.665   1.768   4.206
 6709SOL    HW121026   4.699   1.755   4.299
 6709SOL    HW221027   4.707   1.701   4.145
 6710SOL     OW21028   2.748   1.923   0.781
 6710SOL    HW121029   2.734   2.011   0.826
 6710SOL    HW221030   2.681   1.857   0.815
 6711SOL     OW21031   5.564   3.451   6.231
 6711SOL    HW121032   5.593   3.393   6.308
 6711SOL    HW221033   5.485   3.410   6.186
 6712SOL     OW21034   3.361   6.360   0.207
 6712SOL    HW121035   3.306   6.442   0.216
 6712SOL    HW221036   3.420   6.349   0.287
 6713SOL     OW21037   0.373   2.463   3.209
 6713SOL    HW121038   0.406   2.369   3.203
 6713SOL    HW221039   0.371   2.504   3.118
 6714SOL     OW21040   6.272   1.271   5.442
 6714SOL    HW121041   6.343   1.341   5.433
 6714SOL    HW221042   6.182   1.315   5.440
 6715SOL     OW21043   4.674   2.525   0.996
 6715SOL    HW121044   4.627   2.523   1.084
 6715SOL    HW221045   4.621   2.474   0.928
 6716SOL     OW21046   3.407   5.632   1.703
 6716SOL    HW121047   3.439   5.724   1.679
 6716SOL    HW221048   3.483   5.568   1.696
 6717SOL     OW21049   3.485   0.674   6.852
 6717SOL    HW121050   3.508   0.606   6.921
 6717SOL    HW221051   3.526   0.761   6.876
 6718SOL     OW21052   4.416   0.448   6.516
 6718SOL    HW121053   4.363   0.505   6.578
 6718SOL    HW221054   4.476   0.507   6.461
 6719SOL     OW21055   1.394   2.696   4.767
 6719SOL    HW121056   1.478   2.648   4.740
 6719SOL    HW221057   1.330   2.631   4.807
 6720SOL     OW21058   2.008   4.434   0.732
 6720SOL    HW121059   2.057   4.521   0.723
 6720SOL    HW221060   1.989   4.417   0.828
 6721SOL     OW21061   5.783   6.128   2.922
 6721SOL    HW121062   5.797   6.225   2.943
 6721SOL    HW221063   5.728   6.087   2.994
 6722SOL     OW21064   3.542   4.350   6.415
 6722SOL    HW121065   3.622   4.386   6.463
 6722SOL    HW221066   3.567   4.328   6.321
 6723SOL     OW21067   3.396   1.440   2.787
 6723SOL    HW121068   3.465   1.399   2.847
 6723SOL    HW221069   3.389   1.386   2.703
 6724SOL     OW21070   3.308   4.941   6.151
 6724SOL    HW121071   3.271   5.023   6.194
 6724SOL    HW221072   3.257   4.861   6.183
 6725SOL     OW21073   0.494   6.298   1.562
 6725SOL    HW121074   0.484   6.264   1.655
 6725SOL    HW221075   0.587   6.279   1.529
 6726SOL     OW21076   2.260   2.479   1.852
 6726SOL    HW121077   2.299   2.552   1.908
 6726SOL    HW221078   2.203   2.519   1.780
 6727SOL     OW21079   2.773   3.351   1.484
 6727SOL    HW121080   2.696   3.287   1.474
 6727SOL    HW221081   2.811   3.343   1.575
 6728SOL     OW21082   4.204   1.960   3.832
 6728SOL    HW121083   4.246   1.970   3.922
 6728SOL    HW221084   4.275   1.937   3.765
 6729SOL     OW21085   3.871   5.741   3.550
 6729SOL    HW121086   3.806   5.692   3.493
 6729SOL    HW221087   3.913   5.815   3.497
 6730SOL     OW21088   1.016   6.843   2.636
 6730SOL    HW121089   0.991   6.773   2.569
 6730SOL    HW221090   1.012   6.934   2.593
 6731SOL     OW21091   1.916   3.923   1.416
 6731SOL    HW121092   1.835   3.962   1.461
 6731SOL    HW221093   1.954   3.991   1.353
 6732SOL     OW21094   3.463   5.884   6.961
 6732SOL    HW121095   3.453   5.982   6.980
 6732SOL    HW221096   3.375   5.838   6.972
 6733SOL     OW21097   6.148   5.745   4.639
 6733SOL    HW121098   6.101   5.692   4.710
 6733SOL    HW221099   6.245   5.753   4.662
 6734SOL     OW21100   2.825   3.912   6.925
 6734SOL    HW121101   2.768   3.830   6.925
 6734SOL    HW221102   2.787   3.979   6.862
 6735SOL     OW21103   0.779   6.565   6.386
 6735SOL    HW121104   0.706   6.502   6.359
 6735SOL    HW221105   0.867   6.518   6.382
 6736SOL     OW21106   2.258   4.101   2.092
 6736SOL    HW121107   2.264   4.194   2.128
 6736SOL    HW221108   2.274   4.035   2.165
 6737SOL     OW21109   1.587   0.211   1.386
 6737SOL    HW121110   1.545   0.186   1.473
 6737SOL    HW221111   1.633   0.300   1.395
 6738SOL     OW21112   5.341   1.870   0.619
 6738SOL    HW121113   5.390   1.826   0.694
 6738SOL    HW221114   5.367   1.967   0.616
 6739SOL     OW21115   3.923   5.685   6.118
 6739SOL    HW121116   4.003   5.730   6.158
 6739SOL    HW221117   3.902   5.727   6.030
 6740SOL     OW21118   5.636   2.581   4.786
 6740SOL    HW121119   5.565   2.632   4.835
 6740SOL    HW221120   5.694   2.646   4.736
 6741SOL     OW21121   6.886   0.581   5.208
 6741SOL    HW121122   6.957   0.531   5.158
 6741SOL    HW221123   6.858   0.661   5.154
 6742SOL     OW21124   6.128   6.571   5.198
 6742SOL    HW121125   6.131   6.520   5.111
 6742SOL    HW221126   6.212   6.624   5.208
 6743SOL     OW21127   5.798   2.144   1.009
 6743SOL    HW121128   5.718   2.112   0.959
 6743SOL    HW221129   5.772   2.166   1.103
 6744SOL     OW21130   4.439   1.024   3.745
 6744SOL    HW121131   4.453   1.108   3.797
 6744SOL    HW221132   4.474   1.035   3.652
 6745SOL     OW21133   0.668   3.435   3.100
 6745SOL    HW121134   0.586   3.399   3.145
 6745SOL    HW221135   0.709   3.505   3.158
 6746SOL     OW21136   6.288   6.607   0.432
 6746SOL    HW121137   6.227   6.679   0.464
 6746SOL    HW221138   6.234   6.534   0.388
 6747SOL     OW21139   5.349   5.139   5.738
 6747SOL    HW121140   5.303   5.208   5.683
 6747SOL    HW221141   5.320   5.148   5.833
 6748SOL     OW21142   6.006   0.257   2.359
 6748SOL    HW121143   6.019   0.194   2.283
 6748SOL    HW221144   5.918   0.303   2.349
 6749SOL     OW21145   3.073   4.819   1.044
 6749SOL    HW121146   3.039   4.830   1.138
 6749SOL    HW221147   3.150   4.756   1.044
 6750SOL     OW21148   2.260   2.974   4.755
 6750SOL    HW121149   2.320   2.956   4.832
 6750SOL    HW221150   2.283   2.912   4.680
 6751SOL     OW21151   5.067   2.920   5.915
 6751SOL    HW121152   5.080   2.993   5.847
 6751SOL    HW221153   4.998   2.949   5.982
 6752SOL     OW21154   5.247   1.142   0.494
 6752SOL    HW121155   5.339   1.108   0.475
 6752SOL    HW221156   5.252   1.218   0.558
 6753SOL     OW21157   5.785   0.113   6.074
 6753SOL    HW121158   5.836   0.114   6.159
 6753SOL    HW221159   5.846   0.092   5.998
 6754SOL     OW21160   4.009   1.077   6.635
 6754SOL    HW121161   4.052   1.151   6.686
 6754SOL    HW221162   4.002   1.101   6.539
 6755SOL     OW21163   4.838   1.802   2.931
 6755SOL    HW121164   4.846   1.702   2.930
 6755SOL    HW221165   4.904   1.840   2.996
 6756SOL     OW21166   4.082   4.945   3.150
 6756SOL    HW121167   4.086   4.927   3.248
 6756SOL    HW221168   4.143   5.021   3.128
 6757SOL     OW21169   6.575   3.824   2.096
 6757SOL    HW121170   6.531   3.907   2.130
 6757SOL    HW221171   6.519   3.784   2.024
 6758SOL     OW21172   0.172   2.227   1.987
 6758SOL    HW121173   0.173   2.260   1.893
 6758SOL    HW221174   0.121   2.292   2.044
 6759SOL     OW21175   6.463   5.828   4.412
 6759SOL    HW121176   6.378   5.881   4.409
 6759SOL    HW221177   6.463   5.761   4.338
 6760SOL     OW21178   1.122   3.717   5.035
 6760SOL    HW121179   1.071   3.693   4.952
 6760SOL    HW221180   1.070   3.690   5.115
 6761SOL     OW21181   6.522   3.062   6.735
 6761SOL    HW121182   6.572   2.980   6.764
 6761SOL    HW221183   6.425   3.039   6.723
 6762SOL     OW21184   6.674   1.831   4.535
 6762SOL    HW121185   6.687   1.774   4.616
 6762SOL    HW221186   6.584   1.874   4.538
 6763SOL     OW21187   5.406   6.638   5.260
 6763SOL    HW121188   5.496   6.614   5.223
 6763SOL    HW221189   5.406   6.732   5.291
 6764SOL     OW21190   1.799   3.637   0.073
 6764SOL    HW121191   1.816   3.580   0.153
 6764SOL    HW221192   1.885   3.677   0.042
 6765SOL     OW21193   5.494   5.478   2.290
 6765SOL    HW121194   5.462   5.478   2.385
 6765SOL    HW221195   5.590   5.506   2.287
 6766SOL     OW21196   2.402   2.380   5.372
 6766SOL    HW121197   2.389   2.335   5.461
 6766SOL    HW221198   2.335   2.345   5.307
 6767SOL     OW21199   0.767   2.687   6.007
 6767SOL    HW121200   0.837   2.750   5.975
 6767SOL    HW221201   0.678   2.712   5.967
 6768SOL     OW21202   6.662   0.293   5.357
 6768SOL    HW121203   6.690   0.366   5.418
 6768SOL    HW221204   6.563   0.279   5.366
 6769SOL     OW21205   1.041   2.815   6.156
 6769SOL    HW121206   1.091   2.804   6.070
 6769SOL    HW221207   1.044   2.729   6.207
 6770SOL     OW21208   0.228   2.633   4.031
 6770SOL    HW121209   0.160   2.562   4.017
 6770SOL    HW221210   0.315   2.604   3.992
 6771SOL     OW21211   6.204   2.042   1.469
 6771SOL    HW121212   6.253   2.069   1.386
 6771SOL    HW221213   6.108   2.023   1.447
 6772SOL     OW21214   2.064   6.710   2.024
 6772SOL    HW121215   1.983   6.751   1.983
 6772SOL    HW221216   2.086   6.624   1.978
 6773SOL     OW21217   1.826   1.509   2.925
 6773SOL    HW121218   1.828   1.609   2.927
 6773SOL    HW221219   1.806   1.474   3.016
 6774SOL     OW21220   3.933   0.826   5.432
 6774SOL    HW121221   3.874   0.878   5.494
 6774SOL    HW221222   3.996   0.889   5.386
 6775SOL     OW21223   1.859   3.232   5.200
 6775SOL    HW121224   1.926   3.234   5.274
 6775SOL    HW221225   1.860   3.319   5.151
 6776SOL     OW21226   3.107   3.117   4.015
 6776SOL    HW121227   3.029   3.161   3.971
 6776SOL    HW221228   3.136   3.171   4.094
 6777SOL     OW21229   6.590   0.451   4.892
 6777SOL    HW121230   6.555   0.371   4.844
 6777SOL    HW221231   6.634   0.423   4.978
 6778SOL     OW21232   6.160   5.854   1.526
 6778SOL    HW121233   6.177   5.771   1.474
 6778SOL    HW221234   6.203   5.932   1.479
 6779SOL     OW21235   5.467   3.164   5.413
 6779SOL    HW121236   5.461   3.261   5.386
 6779SOL    HW221237   5.437   3.154   5.508
 6780SOL     OW21238   4.847   1.078   2.194
 6780SOL    HW121239   4.764   1.046   2.148
 6780SOL    HW221240   4.841   1.057   2.291
 6781SOL     OW21241   5.448   3.555   3.217
 6781SOL    HW121242   5.514   3.508   3.276
 6781SOL    HW221243   5.358   3.514   3.230
 6782SOL     OW21244   6.368   1.987   2.962
 6782SOL    HW121245   6.352   1.891   2.935
 6782SOL    HW221246   6.466   2.005   2.966
 6783SOL     OW21247   0.640   6.783   0.002
 6783SOL    HW121248   0.614   6.726   6.948
 6783SOL    HW221249   0.738   6.775   0.018
 6784SOL     OW21250   1.271   4.657   6.836
 6784SOL    HW121251   1.279   4.713   6.918
 6784SOL    HW221252   1.204   4.699   6.774
 6785SOL     OW21253   5.518   4.415   1.195
 6785SOL    HW121254   5.490   4.414   1.291
 6785SOL    HW221255   5.502   4.507   1.157
 6786SOL     OW21256   6.249   1.536   6.188
 6786SOL    HW121257   6.200   1.491   6.263
 6786SOL    HW221258   6.260   1.472   6.112
 6787SOL     OW21259   3.871   2.249   1.730
 6787SOL    HW121260   3.793   2.274   1.788
 6787SOL    HW221261   3.931   2.328   1.721
 6788SOL     OW21262   1.401   4.947   1.450
 6788SOL    HW121263   1.478   4.884   1.459
 6788SOL    HW221264   1.327   4.918   1.511
 6789SOL     OW21265   6.201   2.829   2.584
 6789SOL    HW121266   6.105   2.833   2.613
 6789SOL    HW221267   6.216   2.894   2.510
 6790SOL     OW21268   1.486   6.242   0.077
 6790SOL    HW121269   1.416   6.207   0.139
 6790SOL    HW221270   1.564   6.179   0.076
 6791SOL     OW21271   2.257   6.486   3.791
 6791SOL    HW121272   2.343   6.515   3.749
 6791SOL    HW221273   2.260   6.504   3.889
 6792SOL     OW21274   2.956   6.173   6.752
 6792SOL    HW121275   2.881   6.222   6.797
 6792SOL    HW221276   2.937   6.075   6.754
 6793SOL     OW21277   1.966   3.165   5.822
 6793SOL    HW121278   2.011   3.246   5.785
 6793SOL    HW221279   2.033   3.109   5.870
 6794SOL     OW21280   4.075   2.149   4.051
 6794SOL    HW121281   4.137   2.227   4.057
 6794SOL    HW221282   4.017   2.160   3.970
 6795SOL     OW21283   0.763   0.248   2.760
 6795SOL    HW121284   0.675   0.240   2.808
 6795SOL    HW221285   0.748   0.237   2.662
 6796SOL     OW21286   5.473   2.997   2.258
 6796SOL    HW121287   5.412   2.919   2.274
 6796SOL    HW221288   5.553   2.989   2.316
 6797SOL     OW21289   2.656   4.286   0.615
 6797SOL    HW121290   2.603   4.305   0.697
 6797SOL    HW221291   2.648   4.363   0.552
 6798SOL     OW21292   5.383   2.326   1.416
 6798SOL    HW121293   5.370   2.233   1.451
 6798SOL    HW221294   5.481   2.347   1.413
 6799SOL     OW21295   3.917   6.915   2.799
 6799SOL    HW121296   3.959   6.855   2.731
 6799SOL    HW221297   3.983   6.984   2.829
 6800SOL     OW21298   6.892   2.076   3.178
 6800SOL    HW121299   6.884   2.165   3.222
 6800SOL    HW221300   6.818   2.064   3.111
 6801SOL     OW21301   1.847   5.442   4.704
 6801SOL    HW121302   1.805   5.520   4.657
 6801SOL    HW221303   1.918   5.474   4.766
 6802SOL     OW21304   2.827   4.776   2.509
 6802SOL    HW121305   2.802   4.778   2.412
 6802SOL    HW221306   2.859   4.866   2.537
 6803SOL     OW21307   5.995   5.051   6.032
 6803SOL    HW121308   6.049   5.135   6.025
 6803SOL    HW221309   6.003   5.014   6.125
 6804SOL     OW21310   2.934   5.943   1.602
 6804SOL    HW121311   2.900   5.877   1.669
 6804SOL    HW221312   2.866   5.955   1.530
 6805SOL     OW21313   0.861   4.057   3.721
 6805SOL    HW121314   0.932   4.126   3.704
 6805SOL    HW221315   0.862   3.989   3.648
 6806SOL     OW21316   6.145   3.445   2.266
 6806SOL    HW121317   6.055   3.420   2.229
 6806SOL    HW221318   6.134   3.509   2.342
 6807SOL     OW21319   4.135   3.430   2.418
 6807SOL    HW121320   4.114   3.507   2.358
 6807SOL    HW221321   4.213   3.453   2.477
 6808SOL     OW21322   3.032   5.995   4.665
 6808SOL    HW121323   3.032   6.015   4.567
 6808SOL    HW221324   2.949   5.944   4.688
 6809SOL     OW21325   6.327   1.972   0.095
 6809SOL    HW121326   6.300   1.904   0.163
 6809SOL    HW221327   6.366   1.926   0.016
 6810SOL     OW21328   3.662   0.243   5.215
 6810SOL    HW121329   3.700   0.334   5.197
 6810SOL    HW221330   3.673   0.220   5.312
 6811SOL     OW21331   6.428   1.718   1.026
 6811SOL    HW121332   6.419   1.625   1.060
 6811SOL    HW221333   6.351   1.774   1.059
 6812SOL     OW21334   3.863   4.572   5.982
 6812SOL    HW121335   3.814   4.506   5.924
 6812SOL    HW221336   3.853   4.546   6.078
 6813SOL     OW21337   1.113   3.601   1.522
 6813SOL    HW121338   1.180   3.527   1.528
 6813SOL    HW221339   1.092   3.618   1.425
 6814SOL     OW21340   5.256   2.550   1.460
 6814SOL    HW121341   5.272   2.452   1.451
 6814SOL    HW221342   5.183   2.577   1.398
 6815SOL     OW21343   1.549   6.054   1.747
 6815SOL    HW121344   1.591   6.140   1.718
 6815SOL    HW221345   1.579   5.980   1.687
 6816SOL     OW21346   4.868   0.858   2.988
 6816SOL    HW121347   4.844   0.811   3.073
 6816SOL    HW221348   4.785   0.884   2.939
 6817SOL     OW21349   6.100   0.685   0.671
 6817SOL    HW121350   6.107   0.592   0.707
 6817SOL    HW221351   6.133   0.687   0.576
 6818SOL     OW21352   0.445   6.240   5.597
 6818SOL    HW121353   0.495   6.315   5.555
 6818SOL    HW221354   0.407   6.181   5.525
 6819SOL     OW21355   6.301   4.139   0.508
 6819SOL    HW121356   6.398   4.134   0.530
 6819SOL    HW221357   6.247   4.127   0.591
 6820SOL     OW21358   2.976   4.457   1.495
 6820SOL    HW121359   3.011   4.545   1.524
 6820SOL    HW221360   2.924   4.415   1.569
 6821SOL     OW21361   2.508   3.892   6.241
 6821SOL    HW121362   2.469   3.911   6.331
 6821SOL    HW221363   2.577   3.820   6.249
 6822SOL     OW21364   1.045   4.303   5.111
 6822SOL    HW121365   1.122   4.341   5.163
 6822SOL    HW221366   0.960   4.340   5.147
 6823SOL     OW21367   6.587   3.375   5.390
 6823SOL    HW121368   6.535   3.359   5.306
 6823SOL    HW221369   6.674   3.419   5.368
 6824SOL     OW21370   1.564   1.103   3.787
 6824SOL    HW121371   1.626   1.026   3.798
 6824SOL    HW221372   1.555   1.151   3.874
 6825SOL     OW21373   5.195   5.881   1.485
 6825SOL    HW121374   5.272   5.831   1.524
 6825SOL    HW221375   5.128   5.817   1.449
 6826SOL     OW21376   5.353   0.865   4.228
 6826SOL    HW121377   5.379   0.843   4.322
 6826SOL    HW221378   5.425   0.920   4.186
 6827SOL     OW21379   5.965   5.491   5.096
 6827SOL    HW121380   5.913   5.409   5.072
 6827SOL    HW221381   5.918   5.540   5.169
 6828SOL     OW21382   2.350   1.334   2.594
 6828SOL    HW121383   2.431   1.335   2.535
 6828SOL    HW221384   2.288   1.407   2.566
 6829SOL     OW21385   5.856   6.653   5.229
 6829SOL    HW121386   5.952   6.667   5.250
 6829SOL    HW221387   5.843   6.563   5.189
 6830SOL     OW21388   3.650   5.922   3.884
 6830SOL    HW121389   3.567   5.908   3.938
 6830SOL    HW221390   3.635   5.891   3.790
 6831SOL     OW21391   2.148   6.968   6.626
 6831SOL    HW121392   2.238   6.985   6.585
 6831SOL    HW221393   2.135   0.006   6.703
 6832SOL     OW21394   4.014   3.820   0.589
 6832SOL    HW121395   4.052   3.760   0.660
 6832SOL    HW221396   3.956   3.889   0.632
 6833SOL     OW21397   3.568   5.576   0.185
 6833SOL    HW121398   3.596   5.634   0.108
 6833SOL    HW221399   3.597   5.618   0.271
 6834SOL     OW21400   6.710   5.983   4.803
 6834SOL    HW121401   6.651   5.977   4.722
 6834SOL    HW221402   6.708   5.896   4.853
 6835SOL     OW21403   3.329   0.179   3.312
 6835SOL    HW121404   3.297   0.086   3.292
 6835SOL    HW221405   3.250   0.239   3.324
 6836SOL     OW21406   1.202   4.487   0.155
 6836SOL    HW121407   1.281   4.546   0.141
 6836SOL    HW221408   1.214   4.401   0.105
 6837SOL     OW21409   6.174   2.673   1.635
 6837SOL    HW121410   6.221   2.616   1.703
 6837SOL    HW221411   6.241   2.705   1.568
 6838SOL     OW21412   2.407   4.892   0.079
 6838SOL    HW121413   2.471   4.921   0.008
 6838SOL    HW221414   2.374   4.973   0.128
 6839SOL     OW21415   0.199   3.135   5.113
 6839SOL    HW121416   0.185   3.078   5.032
 6839SOL    HW221417   0.204   3.076   5.194
 6840SOL     OW21418   3.422   6.723   4.301
 6840SOL    HW121419   3.357   6.777   4.355
 6840SOL    HW221420   3.475   6.783   4.241
 6841SOL     OW21421   4.951   6.112   1.039
 6841SOL    HW121422   4.921   6.097   0.945
 6841SOL    HW221423   4.878   6.082   1.102
 6842SOL     OW21424   6.816   4.191   3.535
 6842SOL    HW121425   6.840   4.228   3.625
 6842SOL    HW221426   6.718   4.203   3.519
 6843SOL     OW21427   4.304   3.154   1.574
 6843SOL    HW121428   4.360   3.071   1.582
 6843SOL    HW221429   4.361   3.229   1.542
 6844SOL     OW21430   3.299   6.451   3.879
 6844SOL    HW121431   3.329   6.526   3.821
 6844SOL    HW221432   3.359   6.444   3.959
 6845SOL     OW21433   3.662   4.260   0.168
 6845SOL    HW121434   3.651   4.331   0.239
 6845SOL    HW221435   3.631   4.172   0.204
 6846SOL     OW21436   3.192   3.118   3.753
 6846SOL    HW121437   3.140   3.098   3.836
 6846SOL    HW221438   3.135   3.168   3.689
 6847SOL     OW21439   4.942   3.756   0.373
 6847SOL    HW121440   4.947   3.665   0.414
 6847SOL    HW221441   4.894   3.818   0.435
 6848SOL     OW21442   0.603   6.506   4.520
 6848SOL    HW121443   0.665   6.549   4.586
 6848SOL    HW221444   0.608   6.555   4.433
 6849SOL     OW21445   2.529   0.964   4.742
 6849SOL    HW121446   2.490   1.030   4.805
 6849SOL    HW221447   2.540   1.005   4.652
 6850SOL     OW21448   0.672   1.675   1.690
 6850SOL    HW121449   0.685   1.607   1.617
 6850SOL    HW221450   0.598   1.645   1.750
 6851SOL     OW21451   1.935   5.674   0.954
 6851SOL    HW121452   1.903   5.631   1.038
 6851SOL    HW221453   2.028   5.644   0.934
 6852SOL     OW21454   4.958   4.851   2.819
 6852SOL    HW121455   4.982   4.772   2.876
 6852SOL    HW221456   5.018   4.928   2.842
 6853SOL     OW21457   6.248   4.592   4.661
 6853SOL    HW121458   6.242   4.629   4.754
 6853SOL    HW221459   6.197   4.506   4.656
 6854SOL     OW21460   6.294   0.957   6.361
 6854SOL    HW121461   6.360   0.882   6.364
 6854SOL    HW221462   6.224   0.943   6.432
 6855SOL     OW21463   2.176   0.231   3.328
 6855SOL    HW121464   2.198   0.292   3.252
 6855SOL    HW221465   2.236   0.252   3.406
 6856SOL     OW21466   0.803   4.733   5.245
 6856SOL    HW121467   0.893   4.771   5.270
 6856SOL    HW221468   0.778   4.766   5.154
 6857SOL     OW21469   5.360   0.544   6.264
 6857SOL    HW121470   5.273   0.573   6.303
 6857SOL    HW221471   5.433   0.603   6.297
 6858SOL     OW21472   3.496   3.496   6.480
 6858SOL    HW121473   3.463   3.530   6.569
 6858SOL    HW221474   3.419   3.462   6.427
 6859SOL     OW21475   4.231   0.337   1.404
 6859SOL    HW121476   4.157   0.321   1.340
 6859SOL    HW221477   4.279   0.251   1.423
 6860SOL     OW21478   4.549   3.234   0.114
 6860SOL    HW121479   4.553   3.134   0.115
 6860SOL    HW221480   4.470   3.265   0.165
 6861SOL     OW21481   6.511   3.256   6.948
 6861SOL    HW121482   6.452   3.330   6.916
 6861SOL    HW221483   6.512   3.183   6.879
 6862SOL     OW21484   3.121   4.865   4.374
 6862SOL    HW121485   3.204   4.877   4.427
 6862SOL    HW221486   3.042   4.861   4.436
 6863SOL     OW21487   1.219   3.734   3.263
 6863SOL    HW121488   1.204   3.698   3.355
 6863SOL    HW221489   1.318   3.743   3.247
 6864SOL     OW21490   2.649   6.189   5.375
 6864SOL    HW121491   2.563   6.138   5.377
 6864SOL    HW221492   2.699   6.173   5.460
 6865SOL     OW21493   0.866   2.439   5.253
 6865SOL    HW121494   0.902   2.455   5.345
 6865SOL    HW221495   0.925   2.484   5.186
 6866SOL     OW21496   0.687   4.342   3.055
 6866SOL    HW121497   0.646   4.253   3.034
 6866SOL    HW221498   0.662   4.368   3.148
 6867SOL     OW21499   2.908   5.782   3.719
 6867SOL    HW121500   3.001   5.813   3.702
 6867SOL    HW221501   2.902   5.684   3.700
 6868SOL     OW21502   2.209   6.082   5.695
 6868SOL    HW121503   2.258   6.149   5.750
 6868SOL    HW221504   2.111   6.101   5.699
 6869SOL     OW21505   6.846   2.356   3.219
 6869SOL    HW121506   6.777   2.418   3.258
 6869SOL    HW221507   6.937   2.388   3.244
 6870SOL     OW21508   4.965   3.983   2.960
 6870SOL    HW121509   4.871   4.010   2.938
 6870SOL    HW221510   4.972   3.957   3.056
 6871SOL     OW21511   4.051   5.502   2.539
 6871SOL    HW121512   4.052   5.503   2.639
 6871SOL    HW221513   3.986   5.433   2.507
 6872SOL     OW21514   3.667   4.140   1.204
 6872SOL    HW121515   3.734   4.128   1.131
 6872SOL    HW221516   3.697   4.093   1.287
 6873SOL     OW21517   4.511   4.891   5.619
 6873SOL    HW121518   4.535   4.844   5.704
 6873SOL    HW221519   4.426   4.943   5.633
 6874SOL     OW21520   1.184   1.844   6.328
 6874SOL    HW121521   1.200   1.749   6.303
 6874SOL    HW221522   1.258   1.877   6.386
 6875SOL     OW21523   3.789   6.188   4.534
 6875SOL    HW121524   3.886   6.213   4.534
 6875SOL    HW221525   3.756   6.183   4.628
 6876SOL     OW21526   3.214   0.019   5.274
 6876SOL    HW121527   3.142   0.019   5.344
 6876SOL    HW221528   3.264   0.105   5.278
 6877SOL     OW21529   1.982   4.145   0.747
 6877SOL    HW121530   1.984   4.237   0.709
 6877SOL    HW221531   1.893   4.103   0.728
 6878SOL     OW21532   2.104   2.282   5.682
 6878SOL    HW121533   2.202   2.285   5.700
 6878SOL    HW221534   2.073   2.187   5.685
 6879SOL     OW21535   6.548   1.154   6.108
 6879SOL    HW121536   6.459   1.107   6.103
 6879SOL    HW221537   6.607   1.120   6.035
 6880SOL     OW21538   1.759   5.293   4.033
 6880SOL    HW121539   1.786   5.220   4.095
 6880SOL    HW221540   1.839   5.348   4.008
 6881SOL     OW21541   5.526   0.010   0.984
 6881SOL    HW121542   5.583   6.954   1.001
 6881SOL    HW221543   5.580   0.080   0.938
 6882SOL     OW21544   2.246   5.884   5.487
 6882SOL    HW121545   2.152   5.899   5.457
 6882SOL    HW221546   2.260   5.931   5.574
 6883SOL     OW21547   2.194   6.962   2.097
 6883SOL    HW121548   2.167   6.868   2.076
 6883SOL    HW221549   2.267   6.990   2.036
 6884SOL     OW21550   1.554   5.184   3.418
 6884SOL    HW121551   1.635   5.193   3.360
 6884SOL    HW221552   1.499   5.267   3.412
 6885SOL     OW21553   4.560   4.572   4.758
 6885SOL    HW121554   4.588   4.492   4.705
 6885SOL    HW221555   4.487   4.547   4.821
 6886SOL     OW21556   5.717   6.411   0.911
 6886SOL    HW121557   5.672   6.337   0.960
 6886SOL    HW221558   5.652   6.485   0.893
 6887SOL     OW21559   6.859   0.735   4.820
 6887SOL    HW121560   6.792   0.668   4.788
 6887SOL    HW221561   6.813   0.819   4.848
 6888SOL     OW21562   6.557   0.000   3.736
 6888SOL    HW121563   6.611   0.074   3.776
 6888SOL    HW221564   6.547   0.017   3.638
 6889SOL     OW21565   2.207   4.176   6.343
 6889SOL    HW121566   2.251   4.265   6.354
 6889SOL    HW221567   2.120   4.176   6.393
 6890SOL     OW21568   1.584   0.338   1.027
 6890SOL    HW121569   1.634   0.396   1.092
 6890SOL    HW221570   1.525   0.395   0.970
 6891SOL     OW21571   5.439   5.781   5.307
 6891SOL    HW121572   5.406   5.838   5.383
 6891SOL    HW221573   5.389   5.695   5.307
 6892SOL     OW21574   2.690   2.141   4.532
 6892SOL    HW121575   2.658   2.085   4.457
 6892SOL    HW221576   2.662   2.236   4.517
 6893SOL     OW21577   5.187   0.158   0.409
 6893SOL    HW121578   5.224   0.250   0.422
 6893SOL    HW221579   5.220   0.121   0.322
 6894SOL     OW21580   6.001   4.572   4.874
 6894SOL    HW121581   6.081   4.588   4.930
 6894SOL    HW221582   5.945   4.655   4.870
 6895SOL     OW21583   5.195   4.639   3.910
 6895SOL    HW121584   5.226   4.570   3.975
 6895SOL    HW221585   5.219   4.730   3.944
 6896SOL     OW21586   5.434   2.298   2.191
 6896SOL    HW121587   5.527   2.317   2.222
 6896SOL    HW221588   5.434   2.219   2.131
 6897SOL     OW21589   4.286   1.546   1.442
 6897SOL    HW121590   4.321   1.628   1.487
 6897SOL    HW221591   4.338   1.530   1.358
 6898SOL     OW21592   4.362   1.085   1.525
 6898SOL    HW121593   4.385   0.998   1.570
 6898SOL    HW221594   4.444   1.122   1.482
 6899SOL     OW21595   5.338   4.263   5.306
 6899SOL    HW121596   5.325   4.259   5.207
 6899SOL    HW221597   5.270   4.206   5.351
 6900SOL     OW21598   4.405   0.388   5.710
 6900SOL    HW121599   4.430   0.328   5.634
 6900SOL    HW221600   4.315   0.363   5.745
 6901SOL     OW21601   1.456   0.604   7.017
 6901SOL    HW121602   1.493   0.697   7.015
 6901SOL    HW221603   1.518   0.542   6.968
 6902SOL     OW21604   6.558   4.893   2.181
 6902SOL    HW121605   6.541   4.991   2.169
 6902SOL    HW221606   6.604   4.878   2.269
 6903SOL     OW21607   6.240   4.546   6.748
 6903SOL    HW121608   6.228   4.566   6.846
 6903SOL    HW221609   6.289   4.460   6.738
 6904SOL     OW21610   6.960   0.931   2.473
 6904SOL    HW121611   7.005   0.858   2.526
 6904SOL    HW221612   6.865   0.940   2.503
 6905SOL     OW21613   3.518   4.946   0.725
 6905SOL    HW121614   3.529   4.998   0.810
 6905SOL    HW221615   3.482   5.006   0.653
 6906SOL     OW21616   5.882   6.495   2.024
 6906SOL    HW121617   5.818   6.563   2.061
 6906SOL    HW221618   5.888   6.505   1.925
 6907SOL     OW21619   3.494   1.467   1.913
 6907SOL    HW121620   3.522   1.538   1.977
 6907SOL    HW221621   3.458   1.510   1.830
 6908SOL     OW21622   5.618   6.703   6.781
 6908SOL    HW121623   5.554   6.700   6.703
 6908SOL    HW221624   5.639   6.798   6.803
 6909SOL     OW21625   2.685   2.276   0.041
 6909SOL    HW121626   2.687   2.195   0.100
 6909SOL    HW221627   2.634   2.255   6.982
 6910SOL     OW21628   3.782   1.445   0.712
 6910SOL    HW121629   3.791   1.523   0.651
 6910SOL    HW221630   3.808   1.362   0.664
 6911SOL     OW21631   3.841   5.815   5.530
 6911SOL    HW121632   3.753   5.791   5.488
 6911SOL    HW221633   3.908   5.834   5.458
 6912SOL     OW21634   3.299   5.586   1.966
 6912SOL    HW121635   3.300   5.570   1.868
 6912SOL    HW221636   3.393   5.580   2.002
 6913SOL     OW21637   3.988   6.282   5.521
 6913SOL    HW121638   3.930   6.227   5.581
 6913SOL    HW221639   4.070   6.230   5.496
 6914SOL     OW21640   0.398   4.878   0.245
 6914SOL    HW121641   0.353   4.948   0.189
 6914SOL    HW221642   0.343   4.860   0.326
 6915SOL     OW21643   1.019   0.048   6.851
 6915SOL    HW121644   0.958   0.115   6.892
 6915SOL    HW221645   1.065   7.021   6.924
 6916SOL     OW21646   6.254   0.411   6.167
 6916SOL    HW121647   6.309   0.478   6.216
 6916SOL    HW221648   6.165   0.402   6.212
 6917SOL     OW21649   4.081   6.459   6.071
 6917SOL    HW121650   3.989   6.446   6.035
 6917SOL    HW221651   4.123   6.369   6.086
 6918SOL     OW21652   1.457   2.650   3.800
 6918SOL    HW121653   1.389   2.722   3.810
 6918SOL    HW221654   1.439   2.577   3.865
 6919SOL     OW21655   1.633   6.132   3.423
 6919SOL    HW121656   1.715   6.075   3.410
 6919SOL    HW221657   1.559   6.076   3.458
 6920SOL     OW21658   5.649   6.350   4.038
 6920SOL    HW121659   5.638   6.448   4.019
 6920SOL    HW221660   5.663   6.301   3.952
 6921SOL     OW21661   1.958   4.686   2.544
 6921SOL    HW121662   1.914   4.767   2.585
 6921SOL    HW221663   1.932   4.679   2.448
 6922SOL     OW21664   1.838   6.508   1.701
 6922SOL    HW121665   1.929   6.466   1.699
 6922SOL    HW221666   1.841   6.593   1.753
 6923SOL     OW21667   4.935   6.018   5.239
 6923SOL    HW121668   4.930   6.111   5.275
 6923SOL    HW221669   4.902   6.017   5.145
 6924SOL     OW21670   5.206   5.992   2.613
 6924SOL    HW121671   5.169   6.084   2.630
 6924SOL    HW221672   5.183   5.964   2.520
 6925SOL     OW21673   4.202   5.598   1.332
 6925SOL    HW121674   4.248   5.677   1.372
 6925SOL    HW221675   4.241   5.580   1.241
 6926SOL     OW21676   2.777   4.579   5.363
 6926SOL    HW121677   2.821   4.566   5.274
 6926SOL    HW221678   2.817   4.515   5.429
 6927SOL     OW21679   4.387   3.740   0.088
 6927SOL    HW121680   4.454   3.746   0.014
 6927SOL    HW221681   4.434   3.716   0.174
 6928SOL     OW21682   6.606   0.114   6.566
 6928SOL    HW121683   6.647   0.026   6.542
 6928SOL    HW221684   6.527   0.100   6.625
 6929SOL     OW21685   4.256   6.532   0.889
 6929SOL    HW121686   4.230   6.611   0.945
 6929SOL    HW221687   4.310   6.563   0.811
 6930SOL     OW21688   0.076   0.962   3.449
 6930SOL    HW121689   0.022   1.045   3.431
 6930SOL    HW221690   0.173   0.985   3.449
 6931SOL     OW21691   2.858   0.038   1.080
 6931SOL    HW121692   2.884   0.067   1.172
 6931SOL    HW221693   2.772   7.013   1.083
 6932SOL     OW21694   3.416   2.539   0.649
 6932SOL    HW121695   3.510   2.566   0.629
 6932SOL    HW221696   3.391   2.462   0.592
 6933SOL     OW21697   2.989   6.257   5.408
 6933SOL    HW121698   2.954   6.190   5.342
 6933SOL    HW221699   3.025   6.209   5.488
 6934SOL     OW21700   5.639   5.001   6.970
 6934SOL    HW121701   5.690   5.039   6.893
 6934SOL    HW221702   5.617   4.905   6.951
 6935SOL     OW21703   4.788   5.075   3.359
 6935SOL    HW121704   4.863   5.140   3.359
 6935SOL    HW221705   4.710   5.114   3.409
 6936SOL     OW21706   1.200   4.793   0.392
 6936SOL    HW121707   1.108   4.760   0.369
 6936SOL    HW221708   1.224   4.868   0.331
 6937SOL     OW21709   4.948   6.484   7.003
 6937SOL    HW121710   4.899   6.473   6.917
 6937SOL    HW221711   4.909   6.423   0.048
 6938SOL     OW21712   6.677   2.546   5.444
 6938SOL    HW121713   6.741   2.528   5.519
 6938SOL    HW221714   6.606   2.609   5.474
 6939SOL     OW21715   6.025   4.525   2.352
 6939SOL    HW121716   5.984   4.460   2.289
 6939SOL    HW221717   6.076   4.594   2.300
 6940SOL     OW21718   4.306   1.320   3.812
 6940SOL    HW121719   4.285   1.417   3.794
 6940SOL    HW221720   4.403   1.311   3.833
 6941SOL     OW21721   3.351   2.743   5.466
 6941SOL    HW121722   3.274   2.695   5.424
 6941SOL    HW221723   3.411   2.780   5.395
 6942SOL     OW21724   6.585   1.156   6.802
 6942SOL    HW121725   6.609   1.227   6.736
 6942SOL    HW221726   6.497   1.115   6.777
 6943SOL     OW21727   5.927   4.390   0.541
 6943SOL    HW121728   5.902   4.302   0.582
 6943SOL    HW221729   5.998   4.376   0.472
 6944SOL     OW21730   2.559   0.303   0.217
 6944SOL    HW121731   2.503   0.335   0.294
 6944SOL    HW221732   2.593   0.382   0.166
 6945SOL     OW21733   2.899   1.578   5.925
 6945SOL    HW121734   2.868   1.562   5.831
 6945SOL    HW221735   2.914   1.675   5.939
 6946SOL     OW21736   6.050   4.600   2.864
 6946SOL    HW121737   6.087   4.657   2.937
 6946SOL    HW221738   6.102   4.514   2.860
 6947SOL     OW21739   3.752   6.731   1.062
 6947SOL    HW121740   3.795   6.763   1.146
 6947SOL    HW221741   3.715   6.639   1.076
 6948SOL     OW21742   3.290   1.446   6.323
 6948SOL    HW121743   3.280   1.368   6.385
 6948SOL    HW221744   3.290   1.530   6.376
 6949SOL     OW21745   4.994   0.342   2.543
 6949SOL    HW121746   4.995   0.337   2.643
 6949SOL    HW221747   5.087   0.330   2.509
 6950SOL     OW21748   3.510   2.133   3.697
 6950SOL    HW121749   3.607   2.157   3.703
 6950SOL    HW221750   3.495   2.076   3.616
 6951SOL     OW21751   3.745   3.971   5.701
 6951SOL    HW121752   3.841   3.964   5.673
 6951SOL    HW221753   3.703   4.049   5.655
 6952SOL     OW21754   0.541   3.498   6.758
 6952SOL    HW121755   0.459   3.502   6.814
 6952SOL    HW221756   0.548   3.582   6.703
 6953SOL     OW21757   5.812   2.193   4.830
 6953SOL    HW121758   5.879   2.263   4.854
 6953SOL    HW221759   5.722   2.218   4.867
 6954SOL     OW21760   0.775   4.531   2.007
 6954SOL    HW121761   0.797   4.442   1.969
 6954SOL    HW221762   0.677   4.534   2.030
 6955SOL     OW21763   6.786   1.540   3.600
 6955SOL    HW121764   6.789   1.444   3.631
 6955SOL    HW221765   6.778   1.600   3.680
 6956SOL     OW21766   3.623   3.646   1.298
 6956SOL    HW121767   3.668   3.562   1.267
 6956SOL    HW221768   3.556   3.623   1.369
 6957SOL     OW21769   1.417   4.296   0.238
 6957SOL    HW121770   1.459   4.315   0.327
 6957SOL    HW221771   1.486   4.298   0.166
 6958SOL     OW21772   2.225   3.153   6.150
 6958SOL    HW121773   2.317   3.117   6.164
 6958SOL    HW221774   2.162   3.077   6.134
 6959SOL     OW21775   4.156   1.107   5.631
 6959SOL    HW121776   4.244   1.127   5.587
 6959SOL    HW221777   4.116   1.192   5.666
 6960SOL     OW21778   1.226   6.147   0.166
 6960SOL    HW121779   1.244   6.164   0.263
 6960SOL    HW221780   1.157   6.212   0.133
 6961SOL     OW21781   6.045   0.559   3.690
 6961SOL    HW121782   6.062   0.656   3.673
 6961SOL    HW221783   6.101   0.504   3.628
 6962SOL     OW21784   3.236   2.949   0.788
 6962SOL    HW121785   3.334   2.960   0.801
 6962SOL    HW221786   3.214   2.853   0.776
 6963SOL     OW21787   6.942   6.062   1.606
 6963SOL    HW121788   6.949   6.004   1.688
 6963SOL    HW221789   6.917   6.155   1.633
 6964SOL     OW21790   4.258   5.184   5.699
 6964SOL    HW121791   4.313   5.147   5.773
 6964SOL    HW221792   4.162   5.185   5.725
 6965SOL     OW21793   6.033   0.356   6.279
 6965SOL    HW121794   5.941   0.396   6.274
 6965SOL    HW221795   6.025   0.260   6.307
 6966SOL     OW21796   3.815   2.134   3.731
 6966SOL    HW121797   3.903   2.175   3.755
 6966SOL    HW221798   3.814   2.112   3.633
 6967SOL     OW21799   2.608   2.652   7.005
 6967SOL    HW121800   2.561   2.669   6.919
 6967SOL    HW221801   2.664   2.732   0.005
 6968SOL     OW21802   2.885   0.357   3.513
 6968SOL    HW121803   2.838   0.269   3.523
 6968SOL    HW221804   2.825   0.423   3.468
 6969SOL     OW21805   3.648   3.184   1.747
 6969SOL    HW121806   3.625   3.146   1.837
 6969SOL    HW221807   3.659   3.283   1.755
 6970SOL     OW21808   4.939   3.712   0.095
 6970SOL    HW121809   4.983   3.802   0.083
 6970SOL    HW221810   4.932   3.691   0.192
 6971SOL     OW21811   5.829   2.286   1.939
 6971SOL    HW121812   5.894   2.338   1.884
 6971SOL    HW221813   5.741   2.333   1.941
 6972SOL     OW21814   4.983   6.420   4.052
 6972SOL    HW121815   4.982   6.520   4.049
 6972SOL    HW221816   4.979   6.388   4.147
 6973SOL     OW21817   1.777   4.483   3.051
 6973SOL    HW121818   1.837   4.527   3.118
 6973SOL    HW221819   1.727   4.552   3.000
 6974SOL     OW21820   2.751   3.443   5.314
 6974SOL    HW121821   2.657   3.411   5.311
 6974SOL    HW221822   2.755   3.540   5.293
 6975SOL     OW21823   1.738   0.130   5.927
 6975SOL    HW121824   1.724   0.181   6.012
 6975SOL    HW221825   1.835   0.108   5.917
 6976SOL     OW21826   0.987   6.180   1.890
 6976SOL    HW121827   0.923   6.108   1.915
 6976SOL    HW221828   1.078   6.141   1.877
 6977SOL     OW21829   6.081   2.320   0.956
 6977SOL    HW121830   6.060   2.294   1.050
 6977SOL    HW221831   5.998   2.315   0.901
 6978SOL     OW21832   4.874   3.359   3.930
 6978SOL    HW121833   4.870   3.367   3.830
 6978SOL    HW221834   4.841   3.269   3.957
 6979SOL     OW21835   0.276   3.603   4.108
 6979SOL    HW121836   0.325   3.532   4.159
 6979SOL    HW221837   0.323   3.621   4.022
 6980SOL     OW21838   4.862   2.034   5.370
 6980SOL    HW121839   4.878   2.064   5.464
 6980SOL    HW221840   4.780   1.977   5.366
 6981SOL     OW21841   3.151   3.430   6.402
 6981SOL    HW121842   3.147   3.530   6.406
 6981SOL    HW221843   3.162   3.402   6.306
 6982SOL     OW21844   1.347   0.106   4.448
 6982SOL    HW121845   1.276   0.131   4.513
 6982SOL    HW221846   1.436   0.134   4.483
 6983SOL     OW21847   5.694   1.195   3.076
 6983SOL    HW121848   5.610   1.155   3.037
 6983SOL    HW221849   5.735   1.257   3.008
 6984SOL     OW21850   2.131   1.383   6.688
 6984SOL    HW121851   2.092   1.316   6.625
 6984SOL    HW221852   2.226   1.360   6.707
 6985SOL     OW21853   4.418   7.023   3.926
 6985SOL    HW121854   4.357   6.982   3.859
 6985SOL    HW221855   4.439   0.093   3.899
 6986SOL     OW21856   2.620   6.444   5.862
 6986SOL    HW121857   2.691   6.417   5.796
 6986SOL    HW221858   2.606   6.370   5.928
 6987SOL     OW21859   6.438   3.957   6.448
 6987SOL    HW121860   6.526   4.004   6.441
 6987SOL    HW221861   6.432   3.887   6.377
 6988SOL     OW21862   5.061   2.165   6.559
 6988SOL    HW121863   5.031   2.251   6.517
 6988SOL    HW221864   5.031   2.088   6.502
 6989SOL     OW21865   2.067   3.794   4.257
 6989SOL    HW121866   2.005   3.727   4.297
 6989SOL    HW221867   2.082   3.869   4.322
 6990SOL     OW21868   4.132   3.633   1.477
 6990SOL    HW121869   4.147   3.632   1.378
 6990SOL    HW221870   4.039   3.663   1.497
 6991SOL     OW21871   4.545   4.743   5.847
 6991SOL    HW121872   4.501   4.680   5.911
 6991SOL    HW221873   4.640   4.716   5.833
 6992SOL     OW21874   6.943   6.213   4.910
 6992SOL    HW121875   7.004   6.153   4.857
 6992SOL    HW221876   6.986   6.303   4.920
 6993SOL     OW21877   0.089   0.817   2.767
 6993SOL    HW121878   0.102   0.892   2.832
 6993SOL    HW221879   0.010   0.762   2.794
 6994SOL     OW21880   1.787   2.394   0.526
 6994SOL    HW121881   1.843   2.440   0.594
 6994SOL    HW221882   1.839   2.321   0.483
 6995SOL     OW21883   0.787   5.507   3.765
 6995SOL    HW121884   0.787   5.482   3.862
 6995SOL    HW221885   0.834   5.594   3.752
 6996SOL     OW21886   1.497   6.724   5.060
 6996SOL    HW121887   1.543   6.729   5.148
 6996SOL    HW221888   1.556   6.765   4.990
 6997SOL     OW21889   4.931   4.653   4.762
 6997SOL    HW121890   5.027   4.672   4.744
 6997SOL    HW221891   4.881   4.738   4.775
 6998SOL     OW21892   2.104   1.729   2.096
 6998SOL    HW121893   2.186   1.709   2.042
 6998SOL    HW221894   2.054   1.644   2.114
 6999SOL     OW21895   5.627   2.792   6.981
 6999SOL    HW121896   5.727   2.798   6.981
 6999SOL    HW221897   5.589   2.878   6.948
 7000SOL     OW21898   0.089   0.151   2.191
 7000SOL    HW121899   7.015   0.159   2.208
 7000SOL    HW221900   0.114   0.207   2.112
 7001SOL     OW21901   3.317   1.363   6.773
 7001SOL    HW121902   3.244   1.423   6.739
 7001SOL    HW221903   3.287   1.268   6.769
 7002SOL     OW21904   3.121   5.614   1.375
 7002SOL    HW121905   3.055   5.587   1.445
 7002SOL    HW221906   3.090   5.582   1.286
 7003SOL     OW21907   1.410   6.558   6.231
 7003SOL    HW121908   1.338   6.623   6.204
 7003SOL    HW221909   1.452   6.520   6.149
 7004SOL     OW21910   2.355   3.995   6.485
 7004SOL    HW121911   2.365   4.045   6.571
 7004SOL    HW221912   2.304   4.050   6.420
 7005SOL     OW21913   6.683   6.958   5.780
 7005SOL    HW121914   6.708   6.870   5.819
 7005SOL    HW221915   6.746   6.982   5.706
 7006SOL     OW21916   5.271   5.348   4.513
 7006SOL    HW121917   5.180   5.348   4.554
 7006SOL    HW221918   5.269   5.396   4.426
 7007SOL     OW21919   5.511   4.944   1.404
 7007SOL    HW121920   5.420   4.965   1.370
 7007SOL    HW221921   5.564   4.898   1.332
 7008SOL     OW21922   0.262   6.925   4.437
 7008SOL    HW121923   0.238   6.946   4.343
 7008SOL    HW221924   0.179   6.902   4.489
 7009SOL     OW21925   6.487   4.003   1.770
 7009SOL    HW121926   6.407   4.047   1.727
 7009SOL    HW221927   6.459   3.918   1.813
 7010SOL     OW21928   4.982   4.313   5.461
 7010SOL    HW121929   5.072   4.269   5.463
 7010SOL    HW221930   4.914   4.250   5.496
 7011SOL     OW21931   1.935   0.423   6.104
 7011SOL    HW121932   1.881   0.386   6.180
 7011SOL    HW221933   1.937   0.523   6.109
 7012SOL     OW21934   6.877   0.862   1.926
 7012SOL    HW121935   6.892   0.763   1.925
 7012SOL    HW221936   6.933   0.903   1.998
 7013SOL     OW21937   6.235   1.728   1.541
 7013SOL    HW121938   6.219   1.819   1.504
 7013SOL    HW221939   6.170   1.710   1.615
 7014SOL     OW21940   2.728   5.255   1.227
 7014SOL    HW121941   2.711   5.347   1.190
 7014SOL    HW221942   2.811   5.218   1.185
 7015SOL     OW21943   4.580   1.890   2.894
 7015SOL    HW121944   4.590   1.988   2.877
 7015SOL    HW221945   4.665   1.853   2.931
 7016SOL     OW21946   5.500   4.587   0.146
 7016SOL    HW121947   5.598   4.568   0.147
 7016SOL    HW221948   5.456   4.540   0.222
 7017SOL     OW21949   4.937   2.557   5.592
 7017SOL    HW121950   4.922   2.563   5.691
 7017SOL    HW221951   5.027   2.517   5.574
 7018SOL     OW21952   0.579   4.588   3.868
 7018SOL    HW121953   0.574   4.687   3.855
 7018SOL    HW221954   0.636   4.548   3.797
 7019SOL     OW21955   6.409   6.256   2.466
 7019SOL    HW121956   6.501   6.287   2.488
 7019SOL    HW221957   6.362   6.326   2.413
 7020SOL     OW21958   0.024   5.941   0.462
 7020SOL    HW121959   6.958   5.966   0.495
 7020SOL    HW221960   0.066   5.876   0.526
 7021SOL     OW21961   3.078   6.986   5.580
 7021SOL    HW121962   3.177   7.003   5.588
 7021SOL    HW221963   3.048   6.930   5.658
 7022SOL     OW21964   3.706   4.836   5.602
 7022SOL    HW121965   3.798   4.803   5.586
 7022SOL    HW221966   3.680   4.817   5.697
 7023SOL     OW21967   4.950   5.152   2.527
 7023SOL    HW121968   5.006   5.160   2.609
 7023SOL    HW221969   5.005   5.171   2.446
 7024SOL     OW21970   6.507   6.852   1.838
 7024SOL    HW121971   6.475   6.927   1.896
 7024SOL    HW221972   6.443   6.776   1.844
 7025SOL     OW21973   2.946   0.337   1.639
 7025SOL    HW121974   2.996   0.260   1.678
 7025SOL    HW221975   2.909   0.311   1.549
 7026SOL     OW21976   4.474   2.645   0.255
 7026SOL    HW121977   4.515   2.559   0.285
 7026SOL    HW221978   4.485   2.715   0.326
 7027SOL     OW21979   5.839   6.440   5.018
 7027SOL    HW121980   5.920   6.382   5.004
 7027SOL    HW221981   5.795   6.458   4.930
 7028SOL     OW21982   3.411   0.559   5.117
 7028SOL    HW121983   3.363   0.563   5.205
 7028SOL    HW221984   3.346   0.573   5.042
 7029SOL     OW21985   3.602   6.872   4.153
 7029SOL    HW121986   3.632   6.809   4.081
 7029SOL    HW221987   3.568   6.956   4.112
 7030SOL     OW21988   1.040   3.946   3.206
 7030SOL    HW121989   1.089   3.863   3.233
 7030SOL    HW221990   1.075   3.976   3.117
 7031SOL     OW21991   2.348   0.777   3.771
 7031SOL    HW121992   2.348   0.689   3.819
 7031SOL    HW221993   2.291   0.771   3.689
 7032SOL     OW21994   6.140   2.755   3.541
 7032SOL    HW121995   6.225   2.728   3.495
 7032SOL    HW221996   6.104   2.677   3.593
 7033SOL     OW21997   0.069   0.475   5.064
 7033SOL    HW121998   0.163   0.441   5.074
 7033SOL    HW221999   0.051   0.497   4.968
 7034SOL     OW22000   6.892   5.243   4.115
 7034SOL    HW122001   6.926   5.324   4.163
 7034SOL    HW222002   6.818   5.202   4.168
 7035SOL     OW22003   6.920   4.523   1.380
 7035SOL    HW122004   6.889   4.591   1.313
 7035SOL    HW222005   6.865   4.440   1.370
 7036SOL     OW22006   6.221   5.669   0.865
 7036SOL    HW122007   6.270   5.600   0.918
 7036SOL    HW222008   6.216   5.640   0.769
 7037SOL     OW22009   1.501   0.235   0.032
 7037SOL    HW122010   1.524   0.141   0.054
 7037SOL    HW222011   1.565   0.271   6.989
 7038SOL     OW22012   2.614   2.204   3.488
 7038SOL    HW122013   2.520   2.171   3.486
 7038SOL    HW222014   2.674   2.136   3.445
 7039SOL     OW22015   4.380   1.537   6.112
 7039SOL    HW122016   4.323   1.549   6.193
 7039SOL    HW222017   4.350   1.601   6.041
 7040SOL     OW22018   6.392   2.336   6.676
 7040SOL    HW122019   6.326   2.303   6.608
 7040SOL    HW222020   6.379   2.286   6.761
 7041SOL     OW22021   1.917   1.001   3.208
 7041SOL    HW122022   1.910   1.069   3.281
 7041SOL    HW222023   1.834   1.003   3.153
 7042SOL     OW22024   2.430   0.838   6.827
 7042SOL    HW122025   2.360   0.897   6.786
 7042SOL    HW222026   2.393   0.747   6.843
 7043SOL     OW22027   1.738   3.057   1.251
 7043SOL    HW122028   1.723   3.103   1.338
 7043SOL    HW222029   1.655   3.065   1.195
 7044SOL     OW22030   6.705   5.795   0.609
 7044SOL    HW122031   6.620   5.744   0.596
 7044SOL    HW222032   6.782   5.741   0.576
 7045SOL     OW22033   1.193   4.235   0.032
 7045SOL    HW122034   1.199   4.164   6.986
 7045SOL    HW222035   1.244   4.206   0.113
 7046SOL     OW22036   2.362   2.032   3.499
 7046SOL    HW122037   2.287   2.051   3.436
 7046SOL    HW222038   2.377   1.933   3.503
 7047SOL     OW22039   1.112   6.285   3.336
 7047SOL    HW122040   1.061   6.306   3.252
 7047SOL    HW222041   1.207   6.314   3.326
 7048SOL     OW22042   0.734   5.416   6.725
 7048SOL    HW122043   0.762   5.402   6.819
 7048SOL    HW222044   0.812   5.406   6.664
 7049SOL     OW22045   2.669   1.174   6.451
 7049SOL    HW122046   2.626   1.261   6.430
 7049SOL    HW222047   2.599   1.107   6.476
 7050SOL     OW22048   3.426   3.466   6.197
 7050SOL    HW122049   3.453   3.382   6.150
 7050SOL    HW222050   3.508   3.517   6.223
 7051SOL     OW22051   5.387   6.185   2.195
 7051SOL    HW122052   5.402   6.277   2.160
 7051SOL    HW222053   5.453   6.122   2.153
 7052SOL     OW22054   6.273   1.039   4.703
 7052SOL    HW122055   6.248   1.131   4.672
 7052SOL    HW222056   6.201   1.004   4.763
 7053SOL     OW22057   6.627   3.400   6.269
 7053SOL    HW122058   6.558   3.332   6.293
 7053SOL    HW222059   6.586   3.491   6.269
 7054SOL     OW22060   5.638   2.717   2.140
 7054SOL    HW122061   5.704   2.649   2.108
 7054SOL    HW222062   5.643   2.724   2.240
 7055SOL     OW22063   3.960   1.428   3.178
 7055SOL    HW122064   3.882   1.391   3.228
 7055SOL    HW222065   4.016   1.353   3.143
 7056SOL     OW22066   4.794   6.105   4.396
 7056SOL    HW122067   4.867   6.104   4.465
 7056SOL    HW222068   4.710   6.139   4.438
 7057SOL     OW22069   5.145   6.091   3.046
 7057SOL    HW122070   5.181   6.160   3.108
 7057SOL    HW222071   5.101   6.135   2.968
 7058SOL     OW22072   0.688   3.921   5.013
 7058SOL    HW122073   0.679   3.822   4.999
 7058SOL    HW222074   0.611   3.954   5.067
 7059SOL     OW22075   1.527   0.206   2.445
 7059SOL    HW122076   1.441   0.193   2.494
 7059SOL    HW222077   1.596   0.146   2.483
 7060SOL     OW22078   3.830   0.035   1.008
 7060SOL    HW122079   3.765   0.025   1.083
 7060SOL    HW222080   3.844   6.970   0.964
 7061SOL     OW22081   0.845   1.504   3.059
 7061SOL    HW122082   0.776   1.554   3.007
 7061SOL    HW222083   0.799   1.434   3.115
 7062SOL     OW22084   6.485   0.759   5.501
 7062SOL    HW122085   6.538   0.769   5.585
 7062SOL    HW222086   6.441   0.846   5.478
 7063SOL     OW22087   1.913   0.035   1.865
 7063SOL    HW122088   1.850   0.081   1.802
 7063SOL    HW222089   1.862   7.017   1.939
 7064SOL     OW22090   3.336   3.239   0.683
 7064SOL    HW122091   3.283   3.295   0.747
 7064SOL    HW222092   3.274   3.177   0.635
 7065SOL     OW22093   2.968   3.454   2.879
 7065SOL    HW122094   2.918   3.540   2.868
 7065SOL    HW222095   3.038   3.465   2.949
 7066SOL     OW22096   2.570   4.834   1.290
 7066SOL    HW122097   2.525   4.875   1.210
 7066SOL    HW222098   2.501   4.816   1.361
 7067SOL     OW22099   1.749   3.884   4.470
 7067SOL    HW122100   1.673   3.898   4.534
 7067SOL    HW222101   1.735   3.942   4.390
 7068SOL     OW22102   0.400   0.689   3.179
 7068SOL    HW122103   0.302   0.702   3.195
 7068SOL    HW222104   0.415   0.630   3.100
 7069SOL     OW22105   1.640   3.473   5.708
 7069SOL    HW122106   1.602   3.564   5.692
 7069SOL    HW222107   1.637   3.420   5.623
 7070SOL     OW22108   5.457   5.743   2.913
 7070SOL    HW122109   5.396   5.818   2.888
 7070SOL    HW222110   5.552   5.774   2.908
 7071SOL     OW22111   1.664   0.031   5.668
 7071SOL    HW122112   1.700   0.066   5.754
 7071SOL    HW222113   1.690   0.092   5.593
 7072SOL     OW22114   0.036   0.056   6.398
 7072SOL    HW122115   7.017   0.008   6.474
 7072SOL    HW222116   0.065   0.147   6.428
 7073SOL     OW22117   1.651   2.293   0.720
 7073SOL    HW122118   1.654   2.334   0.812
 7073SOL    HW222119   1.712   2.345   0.660
 7074SOL     OW22120   4.175   1.588   6.259
 7074SOL    HW122121   4.124   1.626   6.181
 7074SOL    HW222122   4.126   1.510   6.296
 7075SOL     OW22123   0.439   6.221   3.247
 7075SOL    HW122124   0.420   6.317   3.267
 7075SOL    HW222125   0.527   6.196   3.288
 7076SOL     OW22126   2.877   1.554   5.665
 7076SOL    HW122127   2.829   1.631   5.622
 7076SOL    HW222128   2.964   1.538   5.618
 7077SOL     OW22129   0.978   5.676   6.603
 7077SOL    HW122130   0.979   5.610   6.528
 7077SOL    HW222131   0.885   5.684   6.639
 7078SOL     OW22132   0.397   0.316   1.395
 7078SOL    HW122133   0.474   0.358   1.347
 7078SOL    HW222134   0.365   0.378   1.467
 7079SOL     OW22135   4.727   6.618   4.099
 7079SOL    HW122136   4.789   6.675   4.154
 7079SOL    HW222137   4.636   6.660   4.097
 7080SOL     OW22138   5.978   0.864   3.865
 7080SOL    HW122139   5.918   0.809   3.807
 7080SOL    HW222140   6.027   0.930   3.808
 7081SOL     OW22141   4.472   0.714   4.735
 7081SOL    HW122142   4.505   0.675   4.821
 7081SOL    HW222143   4.546   0.714   4.667
 7082SOL     OW22144   6.068   1.452   0.149
 7082SOL    HW122145   6.096   1.431   0.243
 7082SOL    HW222146   6.018   1.539   0.149
 7083SOL     OW22147   4.899   0.163   4.822
 7083SOL    HW122148   4.849   0.176   4.907
 7083SOL    HW222149   4.993   0.195   4.833
 7084SOL     OW22150   6.535   5.433   7.014
 7084SOL    HW122151   6.469   5.383   6.958
 7084SOL    HW222152   6.619   5.379   7.023
 7085SOL     OW22153   5.112   1.607   0.836
 7085SOL    HW122154   5.120   1.650   0.746
 7085SOL    HW222155   5.139   1.671   0.907
 7086SOL     OW22156   1.406   0.679   6.288
 7086SOL    HW122157   1.462   0.713   6.364
 7086SOL    HW222158   1.465   0.631   6.223
 7087SOL     OW22159   2.567   2.573   4.270
 7087SOL    HW122160   2.656   2.564   4.226
 7087SOL    HW222161   2.530   2.664   4.251
 7088SOL     OW22162   6.777   1.309   4.714
 7088SOL    HW122163   6.853   1.368   4.739
 7088SOL    HW222164   6.811   1.220   4.685
 7089SOL     OW22165   2.640   2.071   2.038
 7089SOL    HW122166   2.710   2.132   2.001
 7089SOL    HW222167   2.641   1.984   1.989
 7090SOL     OW22168   3.546   0.798   5.154
 7090SOL    HW122169   3.504   0.708   5.153
 7090SOL    HW222170   3.506   0.854   5.226
 7091SOL     OW22171   0.035   5.095   6.948
 7091SOL    HW122172   0.114   5.119   6.892
 7091SOL    HW222173   0.020   5.165   7.018
 7092SOL     OW22174   3.283   2.165   0.780
 7092SOL    HW122175   3.323   2.080   0.814
 7092SOL    HW222176   3.184   2.160   0.788
 7093SOL     OW22177   4.027   3.897   5.946
 7093SOL    HW122178   3.947   3.956   5.950
 7093SOL    HW222179   4.061   3.880   6.039
 7094SOL     OW22180   6.151   1.291   6.266
 7094SOL    HW122181   6.057   1.277   6.238
 7094SOL    HW222182   6.158   1.281   6.366
 7095SOL     OW22183   1.189   4.604   1.308
 7095SOL    HW122184   1.129   4.683   1.310
 7095SOL    HW222185   1.141   4.527   1.267
 7096SOL     OW22186   3.508   0.133   3.516
 7096SOL    HW122187   3.439   0.153   3.446
 7096SOL    HW222188   3.462   0.107   3.601
 7097SOL     OW22189   1.842   1.367   1.228
 7097SOL    HW122190   1.877   1.461   1.227
 7097SOL    HW222191   1.876   1.320   1.309
 7098SOL     OW22192   1.098   0.408   6.990
 7098SOL    HW122193   1.125   0.455   0.050
 7098SOL    HW222194   1.154   0.441   6.914
 7099SOL     OW22195   0.716   1.512   4.134
 7099SOL    HW122196   0.653   1.510   4.212
 7099SOL    HW222197   0.668   1.548   4.054
 7100SOL     OW22198   5.566   2.708   0.864
 7100SOL    HW122199   5.487   2.681   0.920
 7100SOL    HW222200   5.641   2.644   0.878
 7101SOL     OW22201   1.774   0.504   4.957
 7101SOL    HW122202   1.807   0.420   4.914
 7101SOL    HW222203   1.841   0.576   4.944
 7102SOL     OW22204   4.481   2.590   7.002
 7102SOL    HW122205   4.401   2.626   6.955
 7102SOL    HW222206   4.468   2.598   0.077
 7103SOL     OW22207   2.603   6.449   6.822
 7103SOL    HW122208   2.565   6.414   6.908
 7103SOL    HW222209   2.700   6.467   6.833
 7104SOL     OW22210   6.649   3.377   1.717
 7104SOL    HW122211   6.650   3.281   1.692
 7104SOL    HW222212   6.708   3.392   1.796
 7105SOL     OW22213   2.165   2.364   4.561
 7105SOL    HW122214   2.256   2.367   4.520
 7105SOL    HW222215   2.096   2.355   4.489
 7106SOL     OW22216   2.968   2.480   5.483
 7106SOL    HW122217   2.920   2.457   5.568
 7106SOL    HW222218   2.917   2.552   5.435
 7107SOL     OW22219   1.766   2.014   0.147
 7107SOL    HW122220   1.726   2.012   0.055
 7107SOL    HW222221   1.819   1.930   0.161
 7108SOL     OW22222   3.764   6.431   1.991
 7108SOL    HW122223   3.834   6.503   1.991
 7108SOL    HW222224   3.792   6.357   2.051
 7109SOL     OW22225   4.834   6.293   0.145
 7109SOL    HW122226   4.846   6.300   0.244
 7109SOL    HW222227   4.891   6.219   0.110
 7110SOL     OW22228   4.109   5.170   4.272
 7110SOL    HW122229   4.013   5.183   4.246
 7110SOL    HW222230   4.168   5.203   4.199
 7111SOL     OW22231   1.149   2.998   3.189
 7111SOL    HW122232   1.131   2.949   3.275
 7111SOL    HW222233   1.141   3.096   3.204
 7112SOL     OW22234   1.952   6.286   3.203
 7112SOL    HW122235   2.042   6.318   3.175
 7112SOL    HW222236   1.888   6.295   3.127
 7113SOL     OW22237   3.378   4.243   5.987
 7113SOL    HW122238   3.408   4.148   5.977
 7113SOL    HW222239   3.278   4.247   5.985
 7114SOL     OW22240   3.450   6.747   0.344
 7114SOL    HW122241   3.367   6.696   0.320
 7114SOL    HW222242   3.425   6.829   0.395
 7115SOL     OW22243   3.731   2.226   1.129
 7115SOL    HW122244   3.639   2.197   1.154
 7115SOL    HW222245   3.762   2.297   1.193
 7116SOL     OW22246   5.896   4.274   3.970
 7116SOL    HW122247   5.993   4.255   3.984
 7116SOL    HW222248   5.875   4.367   4.000
 7117SOL     OW22249   4.903   0.720   2.714
 7117SOL    HW122250   4.928   0.667   2.795
 7117SOL    HW222251   4.942   0.677   2.632
 7118SOL     OW22252   6.605   3.939   3.964
 7118SOL    HW122253   6.685   3.918   3.907
 7118SOL    HW222254   6.575   3.855   4.009
 7119SOL     OW22255   0.107   1.508   2.567
 7119SOL    HW122256   0.008   1.501   2.574
 7119SOL    HW222257   0.134   1.523   2.472
 7120SOL     OW22258   4.935   6.735   4.378
 7120SOL    HW122259   4.842   6.769   4.366
 7120SOL    HW222260   4.945   6.696   4.470
 7121SOL     OW22261   1.793   6.348   0.936
 7121SOL    HW122262   1.833   6.308   1.019
 7121SOL    HW222263   1.852   6.421   0.902
 7122SOL     OW22264   0.051   6.209   0.497
 7122SOL    HW122265   6.989   6.256   0.519
 7122SOL    HW222266   0.033   6.113   0.479
 7123SOL     OW22267   3.433   4.564   0.597
 7123SOL    HW122268   3.447   4.602   0.688
 7123SOL    HW222269   3.344   4.520   0.592
 7124SOL     OW22270   0.923   5.034   0.240
 7124SOL    HW122271   0.930   5.116   0.183
 7124SOL    HW222272   0.830   4.999   0.237
 7125SOL     OW22273   1.456   5.549   3.549
 7125SOL    HW122274   1.409   5.635   3.529
 7125SOL    HW222275   1.461   5.535   3.648
 7126SOL     OW22276   1.651   4.428   0.998
 7126SOL    HW122277   1.666   4.329   0.998
 7126SOL    HW222278   1.665   4.464   0.905
 7127SOL     OW22279   2.627   0.461   5.287
 7127SOL    HW122280   2.704   0.420   5.337
 7127SOL    HW222281   2.662   0.512   5.209
 7128SOL     OW22282   3.232   4.079   2.644
 7128SOL    HW122283   3.198   4.056   2.553
 7128SOL    HW222284   3.199   4.170   2.670
 7129SOL     OW22285   3.537   2.071   0.235
 7129SOL    HW122286   3.448   2.068   0.281
 7129SOL    HW222287   3.600   2.127   0.287
 7130SOL     OW22288   1.150   0.755   2.646
 7130SOL    HW122289   1.210   0.700   2.589
 7130SOL    HW222290   1.149   0.718   2.739
 7131SOL     OW22291   2.991   0.818   3.007
 7131SOL    HW122292   2.951   0.831   2.916
 7131SOL    HW222293   2.925   0.848   3.077
 7132SOL     OW22294   3.439   4.031   2.181
 7132SOL    HW122295   3.478   4.094   2.114
 7132SOL    HW222296   3.341   4.046   2.188
 7133SOL     OW22297   6.174   4.039   1.984
 7133SOL    HW122298   6.205   4.104   2.054
 7133SOL    HW222299   6.186   4.080   1.893
 7134SOL     OW22300   4.591   4.510   2.886
 7134SOL    HW122301   4.580   4.482   2.791
 7134SOL    HW222302   4.516   4.571   2.912
 7135SOL     OW22303   6.636   1.954   6.137
 7135SOL    HW122304   6.697   1.908   6.072
 7135SOL    HW222305   6.551   1.980   6.090
 7136SOL     OW22306   1.914   2.274   6.385
 7136SOL    HW122307   1.973   2.354   6.391
 7136SOL    HW222308   1.901   2.234   6.476
 7137SOL     OW22309   5.164   2.000   5.394
 7137SOL    HW122310   5.085   2.058   5.413
 7137SOL    HW222311   5.241   2.058   5.367
 7138SOL     OW22312   1.775   2.488   6.214
 7138SOL    HW122313   1.785   2.412   6.278
 7138SOL    HW222314   1.751   2.453   6.123
 7139SOL     OW22315   1.908   1.186   0.036
 7139SOL    HW122316   1.942   1.275   0.067
 7139SOL    HW222317   1.820   1.168   0.079
 7140SOL     OW22318   6.687   4.520   4.421
 7140SOL    HW122319   6.743   4.560   4.348
 7140SOL    HW222320   6.593   4.552   4.412
 7141SOL     OW22321   1.005   0.856   1.700
 7141SOL    HW122322   1.103   0.866   1.716
 7141SOL    HW222323   0.987   0.765   1.662
 7142SOL     OW22324   3.599   6.377   3.944
 7142SOL    HW122325   3.692   6.400   3.972
 7142SOL    HW222326   3.533   6.429   4.000
 7143SOL     OW22327   1.816   2.946   3.878
 7143SOL    HW122328   1.756   2.870   3.904
 7143SOL    HW222329   1.902   2.910   3.843
 7144SOL     OW22330   1.810   3.280   3.409
 7144SOL    HW122331   1.777   3.212   3.475
 7144SOL    HW222332   1.879   3.338   3.453
 7145SOL     OW22333   3.314   5.688   6.684
 7145SOL    HW122334   3.405   5.704   6.722
 7145SOL    HW222335   3.302   5.742   6.600
 7146SOL     OW22336   3.879   5.025   1.141
 7146SOL    HW122337   3.937   4.992   1.215
 7146SOL    HW222338   3.932   5.086   1.082
 7147SOL     OW22339   0.560   0.799   3.993
 7147SOL    HW122340   0.522   0.718   3.948
 7147SOL    HW222341   0.656   0.782   4.018
 7148SOL     OW22342   6.506   2.181   0.744
 7148SOL    HW122343   6.555   2.173   0.657
 7148SOL    HW222344   6.555   2.131   0.815
 7149SOL     OW22345   1.629   1.003   4.671
 7149SOL    HW122346   1.680   1.079   4.709
 7149SOL    HW222347   1.568   1.037   4.599
 7150SOL     OW22348   6.832   3.825   6.430
 7150SOL    HW122349   6.763   3.824   6.357
 7150SOL    HW222350   6.899   3.896   6.411
 7151SOL     OW22351   1.411   6.869   0.646
 7151SOL    HW122352   1.483   6.920   0.692
 7151SOL    HW222353   1.449   6.822   0.566
 7152SOL     OW22354   0.437   2.377   4.635
 7152SOL    HW122355   0.447   2.280   4.658
 7152SOL    HW222356   0.367   2.387   4.564
 7153SOL     OW22357   4.339   1.996   3.313
 7153SOL    HW122358   4.256   1.962   3.356
 7153SOL    HW222359   4.353   1.950   3.225
 7154SOL     OW22360   3.946   0.385   4.360
 7154SOL    HW122361   4.029   0.439   4.371
 7154SOL    HW222362   3.876   0.417   4.424
 7155SOL     OW22363   1.995   1.746   4.286
 7155SOL    HW122364   2.059   1.729   4.211
 7155SOL    HW222365   2.038   1.722   4.373
 7156SOL     OW22366   2.042   5.321   5.262
 7156SOL    HW122367   2.016   5.368   5.346
 7156SOL    HW222368   2.062   5.225   5.283
 7157SOL     OW22369   5.880   4.505   0.794
 7157SOL    HW122370   5.899   4.491   0.697
 7157SOL    HW222371   5.826   4.428   0.828
 7158SOL     OW22372   3.843   0.249   2.754
 7158SOL    HW122373   3.774   0.297   2.700
 7158SOL    HW222374   3.815   0.248   2.850
 7159SOL     OW22375   1.663   6.486   0.037
 7159SOL    HW122376   1.630   6.400   0.075
 7159SOL    HW222377   1.763   6.486   0.038
 7160SOL     OW22378   0.682   0.222   2.517
 7160SOL    HW122379   0.641   0.284   2.451
 7160SOL    HW222380   0.628   0.138   2.522
 7161SOL     OW22381   2.922   3.724   4.983
 7161SOL    HW122382   2.856   3.693   5.052
 7161SOL    HW222383   2.990   3.653   4.968
 7162SOL     OW22384   3.536   4.943   3.927
 7162SOL    HW122385   3.452   4.904   3.965
 7162SOL    HW222386   3.546   5.037   3.957
 7163SOL     OW22387   1.001   6.382   4.010
 7163SOL    HW122388   1.044   6.394   3.920
 7163SOL    HW222389   1.066   6.341   4.073
 7164SOL     OW22390   3.545   1.106   4.239
 7164SOL    HW122391   3.450   1.137   4.233
 7164SOL    HW222392   3.594   1.165   4.303
 7165SOL     OW22393   4.465   5.084   2.100
 7165SOL    HW122394   4.508   5.167   2.064
 7165SOL    HW222395   4.489   5.006   2.043
 7166SOL     OW22396   3.210   6.924   2.801
 7166SOL    HW122397   3.236   6.998   2.739
 7166SOL    HW222398   3.292   6.890   2.847
 7167SOL     OW22399   5.514   2.423   0.730
 7167SOL    HW122400   5.431   2.478   0.731
 7167SOL    HW222401   5.581   2.463   0.667
 7168SOL     OW22402   0.071   1.590   3.922
 7168SOL    HW122403   0.070   1.518   3.853
 7168SOL    HW222404   0.154   1.645   3.911
 7169SOL     OW22405   1.964   2.215   0.429
 7169SOL    HW122406   1.982   2.175   0.339
 7169SOL    HW222407   1.979   2.146   0.500
 7170SOL     OW22408   4.753   4.022   4.499
 7170SOL    HW122409   4.792   4.021   4.591
 7170SOL    HW222410   4.706   3.935   4.483
 7171SOL     OW22411   3.868   3.657   5.469
 7171SOL    HW122412   3.781   3.691   5.503
 7171SOL    HW222413   3.941   3.678   5.534
 7172SOL     OW22414   5.176   5.529   1.844
 7172SOL    HW122415   5.167   5.444   1.896
 7172SOL    HW222416   5.273   5.551   1.833
 7173SOL     OW22417   6.315   6.782   4.102
 7173SOL    HW122418   6.302   6.830   4.015
 7173SOL    HW222419   6.398   6.727   4.098
 7174SOL     OW22420   1.126   6.410   5.646
 7174SOL    HW122421   1.103   6.471   5.570
 7174SOL    HW222422   1.159   6.465   5.723
 7175SOL     OW22423   5.735   3.820   5.775
 7175SOL    HW122424   5.705   3.735   5.731
 7175SOL    HW222425   5.703   3.898   5.721
 7176SOL     OW22426   1.494   3.506   1.203
 7176SOL    HW122427   1.544   3.565   1.267
 7176SOL    HW222428   1.559   3.448   1.154
 7177SOL     OW22429   0.074   5.066   1.491
 7177SOL    HW122430   0.123   5.069   1.578
 7177SOL    HW222431   7.006   5.102   1.504
 7178SOL     OW22432   6.739   0.544   6.495
 7178SOL    HW122433   6.774   0.583   6.410
 7178SOL    HW222434   6.807   0.481   6.533
 7179SOL     OW22435   1.190   3.998   5.996
 7179SOL    HW122436   1.217   3.937   6.070
 7179SOL    HW222437   1.092   4.018   6.003
 7180SOL     OW22438   0.115   0.257   1.912
 7180SOL    HW122439   0.177   0.254   1.834
 7180SOL    HW222440   0.028   0.213   1.888
 7181SOL     OW22441   5.404   6.815   2.406
 7181SOL    HW122442   5.333   6.794   2.473
 7181SOL    HW222443   5.483   6.754   2.421
 7182SOL     OW22444   3.398   3.939   5.978
 7182SOL    HW122445   3.487   3.895   5.976
 7182SOL    HW222446   3.360   3.932   6.071
 7183SOL     OW22447   2.199   2.495   2.654
 7183SOL    HW122448   2.275   2.507   2.719
 7183SOL    HW222449   2.181   2.581   2.607
 7184SOL     OW22450   2.700   5.267   3.073
 7184SOL    HW122451   2.766   5.249   3.000
 7184SOL    HW222452   2.632   5.332   3.041
 7185SOL     OW22453   5.457   2.027   6.012
 7185SOL    HW122454   5.516   2.024   5.932
 7185SOL    HW222455   5.410   2.115   6.016
 7186SOL     OW22456   1.288   6.855   4.439
 7186SOL    HW122457   1.265   6.943   4.397
 7186SOL    HW222458   1.379   6.827   4.410
 7187SOL     OW22459   1.482   4.801   1.191
 7187SOL    HW122460   1.568   4.789   1.141
 7187SOL    HW222461   1.495   4.868   1.264
 7188SOL     OW22462   4.081   0.233   1.853
 7188SOL    HW122463   4.159   0.173   1.866
 7188SOL    HW222464   4.000   0.191   1.894
 7189SOL     OW22465   6.498   0.582   5.893
 7189SOL    HW122466   6.431   0.651   5.868
 7189SOL    HW222467   6.479   0.497   5.844
 7190SOL     OW22468   4.703   4.910   2.338
 7190SOL    HW122469   4.763   4.900   2.417
 7190SOL    HW222470   4.620   4.959   2.365
 7191SOL     OW22471   0.506   3.778   1.432
 7191SOL    HW122472   0.566   3.837   1.379
 7191SOL    HW222473   0.411   3.790   1.401
 7192SOL     OW22474   3.409   4.519   6.064
 7192SOL    HW122475   3.385   4.429   6.027
 7192SOL    HW222476   3.325   4.566   6.094
 7193SOL     OW22477   6.189   2.197   5.109
 7193SOL    HW122478   6.193   2.270   5.041
 7193SOL    HW222479   6.277   2.189   5.155
 7194SOL     OW22480   3.174   0.983   1.875
 7194SOL    HW122481   3.193   1.003   1.972
 7194SOL    HW222482   3.169   1.069   1.824
 7195SOL     OW22483   1.298   0.198   3.741
 7195SOL    HW122484   1.336   0.275   3.690
 7195SOL    HW222485   1.290   0.119   3.681
 7196SOL     OW22486   3.931   4.257   1.696
 7196SOL    HW122487   3.927   4.256   1.596
 7196SOL    HW222488   4.025   4.238   1.726
 7197SOL     OW22489   1.975   0.619   3.699
 7197SOL    HW122490   1.902   0.557   3.670
 7197SOL    HW222491   2.041   0.632   3.625
 7198SOL     OW22492   0.373   6.735   5.390
 7198SOL    HW122493   0.458   6.787   5.383
 7198SOL    HW222494   0.300   6.794   5.424
 7199SOL     OW22495   6.627   5.821   1.615
 7199SOL    HW122496   6.537   5.799   1.652
 7199SOL    HW222497   6.681   5.737   1.604
 7200SOL     OW22498   1.003   1.905   2.433
 7200SOL    HW122499   0.964   1.896   2.342
 7200SOL    HW222500   1.037   1.998   2.446
 7201SOL     OW22501   1.597   5.099   2.932
 7201SOL    HW122502   1.680   5.115   2.878
 7201SOL    HW222503   1.613   5.126   3.027
 7202SOL     OW22504   1.959   0.169   5.091
 7202SOL    HW122505   1.992   0.082   5.128
 7202SOL    HW222506   1.936   0.230   5.166
 7203SOL     OW22507   5.854   0.386   6.785
 7203SOL    HW122508   5.849   0.325   6.706
 7203SOL    HW222509   5.861   0.481   6.753
 7204SOL     OW22510   1.007   3.220   2.215
 7204SOL    HW122511   1.088   3.256   2.261
 7204SOL    HW222512   0.945   3.295   2.193
 7205SOL     OW22513   1.392   4.542   1.471
 7205SOL    HW122514   1.310   4.567   1.419
 7205SOL    HW222515   1.389   4.445   1.494
 7206SOL     OW22516   6.993   0.606   1.772
 7206SOL    HW122517   6.908   0.560   1.745
 7206SOL    HW222518   0.011   0.648   1.691
 7207SOL     OW22519   4.338   0.123   1.459
 7207SOL    HW122520   4.303   0.053   1.520
 7207SOL    HW222521   4.426   0.094   1.422
 7208SOL     OW22522   2.993   6.581   5.191
 7208SOL    HW122523   2.948   6.670   5.202
 7208SOL    HW222524   3.074   6.592   5.134
 7209SOL     OW22525   2.191   3.528   5.256
 7209SOL    HW122526   2.092   3.543   5.248
 7209SOL    HW222527   2.239   3.613   5.232
 7210SOL     OW22528   4.355   1.269   4.380
 7210SOL    HW122529   4.450   1.280   4.350
 7210SOL    HW222530   4.295   1.271   4.301
 7211SOL     OW22531   0.261   5.615   3.004
 7211SOL    HW122532   0.234   5.633   2.909
 7211SOL    HW222533   0.212   5.677   3.065
 7212SOL     OW22534   5.280   6.549   2.470
 7212SOL    HW122535   5.233   6.536   2.382
 7212SOL    HW222536   5.319   6.462   2.500
 7213SOL     OW22537   5.853   6.210   5.308
 7213SOL    HW122538   5.906   6.289   5.339
 7213SOL    HW222539   5.775   6.196   5.369
 7214SOL     OW22540   1.635   5.044   6.167
 7214SOL    HW122541   1.638   5.144   6.162
 7214SOL    HW222542   1.546   5.015   6.201
 7215SOL     OW22543   1.043   3.024   1.519
 7215SOL    HW122544   1.088   2.982   1.441
 7215SOL    HW222545   1.054   2.966   1.600
 7216SOL     OW22546   2.368   1.948   2.757
 7216SOL    HW122547   2.363   1.898   2.670
 7216SOL    HW222548   2.398   2.042   2.740
 7217SOL     OW22549   1.576   3.774   2.095
 7217SOL    HW122550   1.611   3.854   2.144
 7217SOL    HW222551   1.481   3.790   2.069
 7218SOL     OW22552   6.825   3.153   3.762
 7218SOL    HW122553   6.841   3.086   3.690
 7218SOL    HW222554   6.912   3.190   3.793
 7219SOL     OW22555   2.016   1.178   1.744
 7219SOL    HW122556   1.922   1.191   1.773
 7219SOL    HW222557   2.065   1.124   1.812
 7220SOL     OW22558   6.851   1.660   3.374
 7220SOL    HW122559   6.830   1.621   3.463
 7220SOL    HW222560   6.895   1.748   3.385
 7221SOL     OW22561   6.636   3.882   4.580
 7221SOL    HW122562   6.704   3.952   4.602
 7221SOL    HW222563   6.601   3.842   4.665
 7222SOL     OW22564   6.308   0.523   2.558
 7222SOL    HW122565   6.258   0.600   2.597
 7222SOL    HW222566   6.245   0.447   2.542
 7223SOL     OW22567   5.034   0.916   4.840
 7223SOL    HW122568   5.092   0.994   4.818
 7223SOL    HW222569   5.065   0.835   4.789
 7224SOL     OW22570   4.832   0.800   3.503
 7224SOL    HW122571   4.918   0.843   3.474
 7224SOL    HW222572   4.755   0.854   3.469
 7225SOL     OW22573   2.724   0.385   1.837
 7225SOL    HW122574   2.783   0.363   1.759
 7225SOL    HW222575   2.630   0.400   1.805
 7226SOL     OW22576   5.653   6.528   4.766
 7226SOL    HW122577   5.560   6.508   4.797
 7226SOL    HW222578   5.696   6.593   4.829
 7227SOL     OW22579   0.907   2.789   5.083
 7227SOL    HW122580   0.890   2.888   5.080
 7227SOL    HW222581   0.821   2.740   5.074
 7228SOL     OW22582   1.964   6.917   3.191
 7228SOL    HW122583   1.868   6.893   3.205
 7228SOL    HW222584   1.971   7.015   3.172
 7229SOL     OW22585   6.179   0.456   3.463
 7229SOL    HW122586   6.150   0.530   3.402
 7229SOL    HW222587   6.162   0.368   3.419
 7230SOL     OW22588   6.261   5.366   1.482
 7230SOL    HW122589   6.253   5.337   1.386
 7230SOL    HW222590   6.173   5.403   1.513
 7231SOL     OW22591   6.246   1.078   7.007
 7231SOL    HW122592   6.185   1.062   0.061
 7231SOL    HW222593   6.341   1.067   0.012
 7232SOL     OW22594   2.917   3.225   0.909
 7232SOL    HW122595   2.981   3.148   0.900
 7232SOL    HW222596   2.840   3.198   0.967
 7233SOL     OW22597   0.909   1.864   6.649
 7233SOL    HW122598   0.954   1.943   6.689
 7233SOL    HW222599   0.937   1.853   6.553
 7234SOL     OW22600   5.251   2.531   3.596
 7234SOL    HW122601   5.201   2.496   3.517
 7234SOL    HW222602   5.319   2.598   3.565
 7235SOL     OW22603   5.765   2.772   4.482
 7235SOL    HW122604   5.832   2.839   4.449
 7235SOL    HW222605   5.812   2.687   4.506
 7236SOL     OW22606   0.513   1.757   3.691
 7236SOL    HW122607   0.520   1.833   3.627
 7236SOL    HW222608   0.554   1.675   3.651
 7237SOL     OW22609   6.535   5.057   5.991
 7237SOL    HW122610   6.616   5.054   5.932
 7237SOL    HW222611   6.458   5.095   5.939
 7238SOL     OW22612   1.190   0.023   2.331
 7238SOL    HW122613   1.171   0.085   2.255
 7238SOL    HW222614   1.153   0.061   2.415
 7239SOL     OW22615   4.547   1.649   2.082
 7239SOL    HW122616   4.609   1.634   2.005
 7239SOL    HW222617   4.577   1.730   2.133
 7240SOL     OW22618   2.965   3.263   3.400
 7240SOL    HW122619   2.970   3.302   3.493
 7240SOL    HW222620   3.026   3.185   3.393
 7241SOL     OW22621   5.174   0.139   4.896
 7241SOL    HW122622   5.201   0.170   4.987
 7241SOL    HW222623   5.251   0.148   4.833
 7242SOL     OW22624   6.206   5.641   0.589
 7242SOL    HW122625   6.205   5.571   0.518
 7242SOL    HW222626   6.123   5.697   0.582
 7243SOL     OW22627   0.221   5.948   1.564
 7243SOL    HW122628   0.221   6.003   1.481
 7243SOL    HW222629   0.281   5.869   1.552
 7244SOL     OW22630   4.543   2.213   1.612
 7244SOL    HW122631   4.623   2.154   1.620
 7244SOL    HW222632   4.468   2.177   1.668
 7245SOL     OW22633   5.338   2.203   3.955
 7245SOL    HW122634   5.298   2.224   3.865
 7245SOL    HW222635   5.435   2.225   3.954
 7246SOL     OW22636   1.107   5.795   5.748
 7246SOL    HW122637   1.198   5.835   5.733
 7246SOL    HW222638   1.083   5.805   5.845
 7247SOL     OW22639   5.042   5.290   3.514
 7247SOL    HW122640   4.991   5.292   3.601
 7247SOL    HW222641   5.056   5.383   3.482
 7248SOL     OW22642   3.273   0.617   5.362
 7248SOL    HW122643   3.360   0.661   5.389
 7248SOL    HW222644   3.248   0.548   5.430
 7249SOL     OW22645   5.351   2.247   6.339
 7249SOL    HW122646   5.295   2.327   6.357
 7249SOL    HW222647   5.303   2.165   6.369
 7250SOL     OW22648   3.379   3.334   0.267
 7250SOL    HW122649   3.298   3.323   0.325
 7250SOL    HW222650   3.429   3.247   0.264
 7251SOL     OW22651   6.208   1.607   5.601
 7251SOL    HW122652   6.172   1.534   5.543
 7251SOL    HW222653   6.137   1.636   5.665
 7252SOL     OW22654   4.504   3.622   5.383
 7252SOL    HW122655   4.534   3.567   5.305
 7252SOL    HW222656   4.481   3.561   5.459
 7253SOL     OW22657   5.251   5.053   0.408
 7253SOL    HW122658   5.191   4.994   0.462
 7253SOL    HW222659   5.324   4.999   0.368
 7254SOL     OW22660   5.015   5.829   5.405
 7254SOL    HW122661   4.965   5.897   5.351
 7254SOL    HW222662   5.034   5.749   5.348
 7255SOL     OW22663   3.476   3.876   4.140
 7255SOL    HW122664   3.460   3.841   4.232
 7255SOL    HW222665   3.485   3.975   4.143
 7256SOL     OW22666   3.908   5.963   3.924
 7256SOL    HW122667   3.957   5.895   3.870
 7256SOL    HW222668   3.810   5.954   3.908
 7257SOL     OW22669   6.424   5.163   2.400
 7257SOL    HW122670   6.453   5.166   2.305
 7257SOL    HW222671   6.467   5.238   2.451
 7258SOL     OW22672   2.410   0.796   5.749
 7258SOL    HW122673   2.472   0.738   5.802
 7258SOL    HW222674   2.424   0.779   5.652
 7259SOL     OW22675   3.798   4.050   5.973
 7259SOL    HW122676   3.777   4.039   5.876
 7259SOL    HW222677   3.736   3.993   6.027
 7260SOL     OW22678   4.622   2.165   2.769
 7260SOL    HW122679   4.687   2.187   2.842
 7260SOL    HW222680   4.568   2.246   2.746
 7261SOL     OW22681   2.768   4.669   1.430
 7261SOL    HW122682   2.708   4.739   1.391
 7261SOL    HW222683   2.759   4.671   1.530
 7262SOL     OW22684   6.135   0.979   4.387
 7262SOL    HW122685   6.175   0.996   4.297
 7262SOL    HW222686   6.199   1.005   4.459
 7263SOL     OW22687   4.471   4.561   1.219
 7263SOL    HW122688   4.553   4.511   1.246
 7263SOL    HW222689   4.455   4.549   1.121
 7264SOL     OW22690   6.469   6.661   5.009
 7264SOL    HW122691   6.538   6.729   4.983
 7264SOL    HW222692   6.475   6.642   5.106
 7265SOL     OW22693   4.932   2.882   6.628
 7265SOL    HW122694   5.030   2.862   6.635
 7265SOL    HW222695   4.881   2.796   6.629
 7266SOL     OW22696   4.091   1.409   2.715
 7266SOL    HW122697   4.065   1.447   2.804
 7266SOL    HW222698   4.128   1.317   2.728
 7267SOL     OW22699   4.439   2.434   4.238
 7267SOL    HW122700   4.380   2.414   4.316
 7267SOL    HW222701   4.489   2.519   4.254
 7268SOL     OW22702   4.032   6.227   6.277
 7268SOL    HW122703   4.074   6.223   6.368
 7268SOL    HW222704   3.966   6.302   6.274
 7269SOL     OW22705   1.563   7.011   4.192
 7269SOL    HW122706   1.603   6.968   4.111
 7269SOL    HW222707   1.469   0.014   4.172
 7270SOL     OW22708   4.000   2.538   1.725
 7270SOL    HW122709   3.907   2.554   1.757
 7270SOL    HW222710   4.045   2.626   1.708
 7271SOL     OW22711   4.402   6.126   3.428
 7271SOL    HW122712   4.342   6.197   3.392
 7271SOL    HW222713   4.436   6.152   3.518
 7272SOL     OW22714   5.242   1.439   1.812
 7272SOL    HW122715   5.323   1.411   1.762
 7272SOL    HW222716   5.165   1.450   1.749
 7273SOL     OW22717   6.038   4.472   4.273
 7273SOL    HW122718   6.006   4.498   4.182
 7273SOL    HW222719   5.979   4.513   4.343
 7274SOL     OW22720   5.851   4.990   3.721
 7274SOL    HW122721   5.793   5.052   3.774
 7274SOL    HW222722   5.811   4.977   3.630
 7275SOL     OW22723   6.189   0.227   1.961
 7275SOL    HW122724   6.219   0.299   2.024
 7275SOL    HW222725   6.110   0.259   1.909
 7276SOL     OW22726   4.027   1.542   2.930
 7276SOL    HW122727   4.034   1.521   3.028
 7276SOL    HW222728   3.937   1.582   2.911
 7277SOL     OW22729   6.678   2.839   3.853
 7277SOL    HW122730   6.751   2.772   3.864
 7277SOL    HW222731   6.631   2.824   3.766
 7278SOL     OW22732   3.830   1.311   2.798
 7278SOL    HW122733   3.908   1.313   2.735
 7278SOL    HW222734   3.809   1.404   2.828
 7279SOL     OW22735   3.479   3.621   2.275
 7279SOL    HW122736   3.566   3.604   2.228
 7279SOL    HW222737   3.495   3.630   2.373
 7280SOL     OW22738   6.015   1.754   5.753
 7280SOL    HW122739   5.978   1.825   5.693
 7280SOL    HW222740   5.947   1.683   5.768
 7281SOL     OW22741   3.498   0.106   4.142
 7281SOL    HW122742   3.543   0.156   4.068
 7281SOL    HW222743   3.532   0.138   4.230
 7282SOL     OW22744   1.036   4.077   1.127
 7282SOL    HW122745   0.990   4.091   1.215
 7282SOL    HW222746   0.983   4.119   1.054
 7283SOL     OW22747   2.719   5.740   3.306
 7283SOL    HW122748   2.790   5.751   3.236
 7283SOL    HW222749   2.708   5.642   3.326
 7284SOL     OW22750   0.356   0.992   4.334
 7284SOL    HW122751   0.363   0.895   4.311
 7284SOL    HW222752   0.282   1.034   4.282
 7285SOL     OW22753   4.858   2.356   2.486
 7285SOL    HW122754   4.798   2.434   2.505
 7285SOL    HW222755   4.889   2.361   2.391
 7286SOL     OW22756   6.350   1.537   5.134
 7286SOL    HW122757   6.260   1.518   5.095
 7286SOL    HW222758   6.385   1.456   5.180
 7287SOL     OW22759   3.666   1.129   4.710
 7287SOL    HW122760   3.624   1.053   4.760
 7287SOL    HW222761   3.631   1.215   4.746
 7288SOL     OW22762   2.992   2.470   0.934
 7288SOL    HW122763   3.074   2.438   0.981
 7288SOL    HW222764   3.018   2.518   0.850
 7289SOL     OW22765   0.065   2.593   0.496
 7289SOL    HW122766   0.158   2.613   0.467
 7289SOL    HW222767   0.034   2.509   0.452
 7290SOL     OW22768   3.270   2.118   4.763
 7290SOL    HW122769   3.198   2.049   4.768
 7290SOL    HW222770   3.255   2.187   4.833
 7291SOL     OW22771   1.092   0.845   6.934
 7291SOL    HW122772   1.115   0.794   7.017
 7291SOL    HW222773   1.009   0.806   6.893
 7292SOL     OW22774   2.869   1.039   1.955
 7292SOL    HW122775   2.888   0.996   1.866
 7292SOL    HW222776   2.837   0.969   2.019
 7293SOL     OW22777   5.569   1.401   4.333
 7293SOL    HW122778   5.537   1.405   4.239
 7293SOL    HW222779   5.669   1.410   4.335
 7294SOL     OW22780   1.866   1.308   2.292
 7294SOL    HW122781   1.776   1.310   2.335
 7294SOL    HW222782   1.874   1.226   2.236
 7295SOL     OW22783   5.464   4.634   1.682
 7295SOL    HW122784   5.509   4.723   1.679
 7295SOL    HW222785   5.532   4.562   1.686
 7296SOL     OW22786   3.282   6.939   3.235
 7296SOL    HW122787   3.209   6.923   3.168
 7296SOL    HW222788   3.290   6.859   3.295
 7297SOL     OW22789   5.129   0.156   6.412
 7297SOL    HW122790   5.080   0.185   6.494
 7297SOL    HW222791   5.124   0.056   6.405
 7298SOL     OW22792   3.892   4.022   0.690
 7298SOL    HW122793   3.929   4.089   0.626
 7298SOL    HW222794   3.801   3.994   0.659
 7299SOL     OW22795   6.967   2.986   0.410
 7299SOL    HW122796   6.869   3.003   0.398
 7299SOL    HW222797   7.004   2.945   0.326
 7300SOL     OW22798   0.798   3.902   2.863
 7300SOL    HW122799   0.814   3.805   2.883
 7300SOL    HW222800   0.738   3.910   2.784
 7301SOL     OW22801   4.136   1.880   0.581
 7301SOL    HW122802   4.087   1.934   0.650
 7301SOL    HW222803   4.074   1.856   0.507
 7302SOL     OW22804   5.714   1.571   6.837
 7302SOL    HW122805   5.734   1.667   6.818
 7302SOL    HW222806   5.668   1.530   6.758
 7303SOL     OW22807   3.685   2.172   0.640
 7303SOL    HW122808   3.710   2.215   0.727
 7303SOL    HW222809   3.688   2.073   0.650
 7304SOL     OW22810   2.854   6.973   0.344
 7304SOL    HW122811   2.773   0.001   0.371
 7304SOL    HW222812   2.871   6.985   0.246
 7305SOL     OW22813   6.772   6.780   6.214
 7305SOL    HW122814   6.817   6.846   6.153
 7305SOL    HW222815   6.805   6.688   6.193
 7306SOL     OW22816   2.101   3.321   0.614
 7306SOL    HW122817   2.026   3.301   0.676
 7306SOL    HW222818   2.154   3.398   0.649
 7307SOL     OW22819   4.567   7.003   0.768
 7307SOL    HW122820   4.529   6.983   0.677
 7307SOL    HW222821   4.517   0.055   0.808
 7308SOL     OW22822   3.736   1.905   2.881
 7308SOL    HW122823   3.771   1.858   2.800
 7308SOL    HW222824   3.779   1.867   2.963
 7309SOL     OW22825   1.915   5.509   3.156
 7309SOL    HW122826   1.912   5.436   3.223
 7309SOL    HW222827   2.009   5.519   3.121
 7310SOL     OW22828   5.008   3.281   0.014
 7310SOL    HW122829   4.919   3.326   0.011
 7310SOL    HW222830   5.033   3.252   6.946
 7311SOL     OW22831   1.318   6.743   5.737
 7311SOL    HW122832   1.349   6.836   5.719
 7311SOL    HW222833   1.381   6.678   5.694
 7312SOL     OW22834   5.239   1.919   4.750
 7312SOL    HW122835   5.282   1.858   4.683
 7312SOL    HW222836   5.207   1.865   4.828
 7313SOL     OW22837   3.596   1.169   2.613
 7313SOL    HW122838   3.663   1.198   2.681
 7313SOL    HW222839   3.642   1.153   2.526
 7314SOL     OW22840   3.115   5.533   4.883
 7314SOL    HW122841   3.047   5.471   4.924
 7314SOL    HW222842   3.153   5.491   4.801
 7315SOL     OW22843   2.833   4.773   2.191
 7315SOL    HW122844   2.889   4.855   2.183
 7315SOL    HW222845   2.838   4.720   2.107
 7316SOL     OW22846   2.597   1.164   2.729
 7316SOL    HW122847   2.603   1.217   2.814
 7316SOL    HW222848   2.632   1.219   2.653
 7317SOL     OW22849   4.731   1.540   0.642
 7317SOL    HW122850   4.761   1.635   0.632
 7317SOL    HW222851   4.770   1.501   0.725
 7318SOL     OW22852   4.770   6.700   0.969
 7318SOL    HW122853   4.790   6.610   1.007
 7318SOL    HW222854   4.714   6.690   0.887
 7319SOL     OW22855   4.160   4.993   6.025
 7319SOL    HW122856   4.238   4.954   5.978
 7319SOL    HW222857   4.106   4.920   6.067
 7320SOL     OW22858   1.519   3.023   0.622
 7320SOL    HW122859   1.472   3.110   0.606
 7320SOL    HW222860   1.605   3.021   0.572
 7321SOL     OW22861   2.167   2.317   5.223
 7321SOL    HW122862   2.111   2.373   5.162
 7321SOL    HW222863   2.152   2.220   5.202
 7322SOL     OW22864   3.243   1.842   3.888
 7322SOL    HW122865   3.209   1.886   3.971
 7322SOL    HW222866   3.254   1.744   3.904
 7323SOL     OW22867   2.138   2.103   6.890
 7323SOL    HW122868   2.080   2.036   6.937
 7323SOL    HW222869   2.094   2.193   6.894
 7324SOL     OW22870   6.015   3.760   5.451
 7324SOL    HW122871   6.039   3.669   5.416
 7324SOL    HW222872   6.097   3.815   5.460
 7325SOL     OW22873   2.899   0.779   0.341
 7325SOL    HW122874   2.872   0.713   0.412
 7325SOL    HW222875   2.966   0.737   0.280
 7326SOL     OW22876   3.817   0.032   0.456
 7326SOL    HW122877   3.773   0.117   0.487
 7326SOL    HW222878   3.852   7.007   0.536
 7327SOL     OW22879   1.365   4.831   3.552
 7327SOL    HW122880   1.327   4.869   3.636
 7327SOL    HW222881   1.375   4.904   3.484
 7328SOL     OW22882   4.065   6.504   0.272
 7328SOL    HW122883   4.030   6.593   0.302
 7328SOL    HW222884   4.124   6.466   0.343
 7329SOL     OW22885   2.682   4.079   6.760
 7329SOL    HW122886   2.650   3.992   6.724
 7329SOL    HW222887   2.605   4.141   6.772
 7330SOL     OW22888   2.796   3.307   1.757
 7330SOL    HW122889   2.703   3.271   1.753
 7330SOL    HW222890   2.813   3.347   1.847
 7331SOL     OW22891   5.198   1.878   2.722
 7331SOL    HW122892   5.201   1.933   2.805
 7331SOL    HW222893   5.163   1.934   2.647
 7332SOL     OW22894   1.565   7.011   4.934
 7332SOL    HW122895   1.573   0.011   5.031
 7332SOL    HW222896   1.482   0.028   4.897
 7333SOL     OW22897   6.189   1.323   1.269
 7333SOL    HW122898   6.222   1.417   1.259
 7333SOL    HW222899   6.201   1.294   1.364
 7334SOL     OW22900   0.485   4.691   5.152
 7334SOL    HW122901   0.559   4.667   5.089
 7334SOL    HW222902   0.523   4.716   5.241
 7335SOL     OW22903   6.864   2.736   1.093
 7335SOL    HW122904   6.887   2.691   1.007
 7335SOL    HW222905   6.772   2.708   1.121
 7336SOL     OW22906   2.112   0.153   1.215
 7336SOL    HW122907   2.136   0.212   1.138
 7336SOL    HW222908   2.109   0.058   1.185
 7337SOL     OW22909   2.896   1.926   1.644
 7337SOL    HW122910   2.878   2.022   1.622
 7337SOL    HW222911   2.969   1.919   1.712
 7338SOL     OW22912   5.181   2.017   6.843
 7338SOL    HW122913   5.197   2.087   6.773
 7338SOL    HW222914   5.237   2.038   6.924
 7339SOL     OW22915   6.780   6.639   3.675
 7339SOL    HW122916   6.804   6.635   3.578
 7339SOL    HW222917   6.863   6.627   3.731
 7340SOL     OW22918   2.620   6.888   0.618
 7340SOL    HW122919   2.571   6.807   0.585
 7340SOL    HW222920   2.624   6.956   0.545
 7341SOL     OW22921   5.510   5.469   3.032
 7341SOL    HW122922   5.489   5.561   2.999
 7341SOL    HW222923   5.523   5.473   3.131
 7342SOL     OW22924   6.930   4.853   6.877
 7342SOL    HW122925   6.842   4.886   6.844
 7342SOL    HW222926   6.989   4.931   6.899
 7343SOL     OW22927   0.087   1.444   3.451
 7343SOL    HW122928   0.143   1.395   3.384
 7343SOL    HW222929   0.105   1.542   3.444
 7344SOL     OW22930   1.517   1.269   5.891
 7344SOL    HW122931   1.431   1.319   5.905
 7344SOL    HW222932   1.523   1.243   5.794
 7345SOL     OW22933   1.752   6.785   6.975
 7345SOL    HW122934   1.789   6.776   6.883
 7345SOL    HW222935   1.699   6.703   6.998
 7346SOL     OW22936   2.944   5.403   3.420
 7346SOL    HW122937   3.001   5.393   3.502
 7346SOL    HW222938   2.887   5.484   3.429
 7347SOL     OW22939   6.108   3.036   3.601
 7347SOL    HW122940   6.077   3.027   3.695
 7347SOL    HW222941   6.145   2.948   3.570
 7348SOL     OW22942   5.444   0.091   6.125
 7348SOL    HW122943   5.409   0.160   6.189
 7348SOL    HW222944   5.512   0.133   6.065
 7349SOL     OW22945   3.327   1.780   1.093
 7349SOL    HW122946   3.238   1.821   1.071
 7349SOL    HW222947   3.370   1.831   1.168
 7350SOL     OW22948   1.611   1.282   2.369
 7350SOL    HW122949   1.615   1.255   2.466
 7350SOL    HW222950   1.538   1.349   2.356
 7351SOL     OW22951   6.554   4.805   0.402
 7351SOL    HW122952   6.617   4.818   0.479
 7351SOL    HW222953   6.579   4.867   0.328
 7352SOL     OW22954   6.362   1.730   2.870
 7352SOL    HW122955   6.378   1.662   2.941
 7352SOL    HW222956   6.298   1.693   2.802
 7353SOL     OW22957   5.587   1.868   4.217
 7353SOL    HW122958   5.642   1.943   4.255
 7353SOL    HW222959   5.557   1.808   4.291
 7354SOL     OW22960   6.057   4.631   5.206
 7354SOL    HW122961   5.977   4.572   5.200
 7354SOL    HW222962   6.037   4.719   5.161
 7355SOL     OW22963   7.004   5.568   0.831
 7355SOL    HW122964   0.007   5.485   0.781
 7355SOL    HW222965   0.046   5.585   0.904
 7356SOL     OW22966   0.046   2.189   6.227
 7356SOL    HW122967   0.044   2.190   6.327
 7356SOL    HW222968   0.097   2.268   6.194
 7357SOL     OW22969   1.453   1.049   1.257
 7357SOL    HW122970   1.535   1.034   1.201
 7357SOL    HW222971   1.473   1.024   1.352
 7358SOL     OW22972   3.716   1.345   3.745
 7358SOL    HW122973   3.804   1.352   3.792
 7358SOL    HW222974   3.679   1.253   3.758
 7359SOL     OW22975   3.133   3.993   4.308
 7359SOL    HW122976   3.226   4.028   4.318
 7359SOL    HW222977   3.098   3.966   4.398
 7360SOL     OW22978   1.894   4.979   6.123
 7360SOL    HW122979   1.799   5.008   6.132
 7360SOL    HW222980   1.937   4.978   6.213
 7361SOL     OW22981   4.586   6.798   1.449
 7361SOL    HW122982   4.656   6.795   1.521
 7361SOL    HW222983   4.624   6.762   1.364
 7362SOL     OW22984   1.903   4.712   0.820
 7362SOL    HW122985   1.947   4.743   0.904
 7362SOL    HW222986   1.946   4.757   0.741
 7363SOL     OW22987   4.966   2.358   6.286
 7363SOL    HW122988   4.895   2.290   6.265
 7363SOL    HW222989   5.041   2.347   6.222
 7364SOL     OW22990   4.610   6.111   0.054
 7364SOL    HW122991   4.632   6.029   0.106
 7364SOL    HW222992   4.648   6.191   0.101
 7365SOL     OW22993   5.671   6.936   1.882
 7365SOL    HW122994   5.709   6.919   1.973
 7365SOL    HW222995   5.571   6.927   1.886
 7366SOL     OW22996   3.145   6.819   0.446
 7366SOL    HW122997   3.052   6.783   0.453
 7366SOL    HW222998   3.199   6.788   0.525
 7367SOL     OW22999   4.911   3.457   6.295
 7367SOL    HW123000   4.870   3.415   6.214
 7367SOL    HW223001   4.995   3.504   6.269
 7368SOL     OW23002   3.478   3.060   5.447
 7368SOL    HW123003   3.393   3.079   5.496
 7368SOL    HW223004   3.459   3.058   5.349
 7369SOL     OW23005   0.578   6.316   6.300
 7369SOL    HW123006   0.516   6.299   6.377
 7369SOL    HW223007   0.533   6.373   6.232
 7370SOL     OW23008   7.015   5.802   1.388
 7370SOL    HW123009   0.038   5.834   1.470
 7370SOL    HW223010   6.933   5.857   1.373
 7371SOL     OW23011   1.937   5.063   3.436
 7371SOL    HW123012   1.999   5.020   3.370
 7371SOL    HW223013   1.884   4.992   3.483
 7372SOL     OW23014   2.006   6.961   5.212
 7372SOL    HW123015   2.097   6.987   5.244
 7372SOL    HW223016   1.993   6.863   5.227
 7373SOL     OW23017   4.550   1.254   0.773
 7373SOL    HW123018   4.609   1.271   0.694
 7373SOL    HW223019   4.598   1.280   0.857
 7374SOL     OW23020   2.467   3.744   0.514
 7374SOL    HW123021   2.525   3.825   0.526
 7374SOL    HW223022   2.522   3.661   0.527
 7375SOL     OW23023   2.318   5.147   1.930
 7375SOL    HW123024   2.322   5.056   1.891
 7375SOL    HW223025   2.383   5.154   2.005
 7376SOL     OW23026   3.179   4.764   0.738
 7376SOL    HW123027   3.169   4.842   0.799
 7376SOL    HW223028   3.093   4.714   0.732
 7377SOL     OW23029   4.794   6.087   1.251
 7377SOL    HW123030   4.857   6.084   1.329
 7377SOL    HW223031   4.701   6.100   1.284
 7378SOL     OW23032   0.966   1.159   6.093
 7378SOL    HW123033   0.925   1.204   6.173
 7378SOL    HW223034   0.893   1.133   6.029
 7379SOL     OW23035   4.601   0.905   0.075
 7379SOL    HW123036   4.686   0.851   0.078
 7379SOL    HW223037   4.562   0.901   7.007
 7380SOL     OW23038   0.638   3.090   6.602
 7380SOL    HW123039   0.694   3.043   6.533
 7380SOL    HW223040   0.542   3.081   6.577
 7381SOL     OW23041   5.705   2.811   0.657
 7381SOL    HW123042   5.647   2.774   0.730
 7381SOL    HW223043   5.773   2.872   0.697
 7382SOL     OW23044   0.477   5.575   4.055
 7382SOL    HW123045   0.473   5.586   3.955
 7382SOL    HW223046   0.559   5.524   4.079
 7383SOL     OW23047   1.480   5.159   1.807
 7383SOL    HW123048   1.536   5.150   1.725
 7383SOL    HW223049   1.414   5.083   1.811
 7384SOL     OW23050   5.997   0.575   1.933
 7384SOL    HW123051   6.021   0.564   1.836
 7384SOL    HW223052   5.958   0.490   1.968
 7385SOL     OW23053   5.084   0.213   2.159
 7385SOL    HW123054   5.084   0.311   2.179
 7385SOL    HW223055   5.178   0.178   2.161
 7386SOL     OW23056   5.733   1.680   4.977
 7386SOL    HW123057   5.756   1.583   4.969
 7386SOL    HW223058   5.638   1.689   5.006
 7387SOL     OW23059   5.334   5.722   4.518
 7387SOL    HW123060   5.324   5.695   4.614
 7387SOL    HW223061   5.265   5.674   4.463
 7388SOL     OW23062   5.003   3.810   3.979
 7388SOL    HW123063   4.959   3.886   4.028
 7388SOL    HW223064   5.089   3.842   3.940
 7389SOL     OW23065   2.369   3.672   5.903
 7389SOL    HW123066   2.277   3.643   5.932
 7389SOL    HW223067   2.361   3.749   5.840
 7390SOL     OW23068   3.881   5.931   0.650
 7390SOL    HW123069   3.911   5.873   0.574
 7390SOL    HW223070   3.857   5.873   0.728
 7391SOL     OW23071   6.962   4.847   1.161
 7391SOL    HW123072   6.932   4.850   1.257
 7391SOL    HW223073   6.889   4.883   1.102
 7392SOL     OW23074   1.496   4.701   1.808
 7392SOL    HW123075   1.569   4.742   1.755
 7392SOL    HW223076   1.440   4.643   1.748
 7393SOL     OW23077   1.799   3.623   0.575
 7393SOL    HW123078   1.737   3.700   0.593
 7393SOL    HW223079   1.793   3.557   0.650
 7394SOL     OW23080   3.193   4.624   6.935
 7394SOL    HW123081   3.272   4.582   6.891
 7394SOL    HW223082   3.147   4.557   6.992
 7395SOL     OW23083   2.865   6.736   1.190
 7395SOL    HW123084   2.860   6.636   1.196
 7395SOL    HW223085   2.895   6.762   1.098
 7396SOL     OW23086   6.425   0.279   2.278
 7396SOL    HW123087   6.395   0.187   2.304
 7396SOL    HW223088   6.492   0.312   2.343
 7397SOL     OW23089   6.075   4.021   3.485
 7397SOL    HW123090   6.043   3.935   3.525
 7397SOL    HW223091   6.060   4.019   3.386
 7398SOL     OW23092   4.527   4.912   3.513
 7398SOL    HW123093   4.534   5.011   3.510
 7398SOL    HW223094   4.619   4.872   3.509
 7399SOL     OW23095   4.711   6.742   3.690
 7399SOL    HW123096   4.686   6.682   3.767
 7399SOL    HW223097   4.798   6.786   3.710
 7400SOL     OW23098   1.625   4.751   6.652
 7400SOL    HW123099   1.582   4.758   6.742
 7400SOL    HW223100   1.682   4.832   6.636
 7401SOL     OW23101   6.388   3.152   4.095
 7401SOL    HW123102   6.437   3.228   4.139
 7401SOL    HW223103   6.450   3.074   4.084
 7402SOL     OW23104   1.941   6.066   5.150
 7402SOL    HW123105   1.968   5.999   5.219
 7402SOL    HW223106   2.021   6.090   5.094
 7403SOL     OW23107   1.986   2.918   1.622
 7403SOL    HW123108   1.985   2.933   1.524
 7403SOL    HW223109   2.078   2.933   1.658
 7404SOL     OW23110   0.842   2.491   2.752
 7404SOL    HW123111   0.857   2.419   2.685
 7404SOL    HW223112   0.929   2.515   2.795
 7405SOL     OW23113   3.520   5.808   5.705
 7405SOL    HW123114   3.564   5.718   5.701
 7405SOL    HW223115   3.458   5.818   5.627
 7406SOL     OW23116   5.878   5.489   2.901
 7406SOL    HW123117   5.823   5.408   2.918
 7406SOL    HW223118   5.966   5.463   2.861
 7407SOL     OW23119   4.413   1.442   5.781
 7407SOL    HW123120   4.496   1.466   5.831
 7407SOL    HW223121   4.380   1.354   5.812
 7408SOL     OW23122   0.788   3.468   5.081
 7408SOL    HW123123   0.741   3.392   5.037
 7408SOL    HW223124   0.886   3.463   5.061
 7409SOL     OW23125   2.233   0.120   4.236
 7409SOL    HW123126   2.221   0.190   4.307
 7409SOL    HW223127   2.242   0.030   4.280
 7410SOL     OW23128   3.969   5.232   5.675
 7410SOL    HW123129   3.916   5.156   5.636
 7410SOL    HW223130   3.937   5.318   5.636
 7411SOL     OW23131   5.899   3.213   5.403
 7411SOL    HW123132   5.921   3.135   5.462
 7411SOL    HW223133   5.933   3.196   5.311
 7412SOL     OW23134   0.648   1.062   0.831
 7412SOL    HW123135   0.688   1.045   0.921
 7412SOL    HW223136   0.721   1.079   0.764
 7413SOL     OW23137   6.722   3.577   3.733
 7413SOL    HW123138   6.819   3.598   3.721
 7413SOL    HW223139   6.678   3.571   3.644
 7414SOL     OW23140   0.804   5.002   2.070
 7414SOL    HW123141   0.856   4.922   2.039
 7414SOL    HW223142   0.858   5.085   2.053
 7415SOL     OW23143   2.660   1.499   3.194
 7415SOL    HW123144   2.579   1.556   3.201
 7415SOL    HW223145   2.739   1.549   3.230
 7416SOL     OW23146   6.812   0.415   1.691
 7416SOL    HW123147   6.816   0.366   1.604
 7416SOL    HW223148   6.805   0.349   1.766
 7417SOL     OW23149   0.608   5.487   1.631
 7417SOL    HW123150   0.542   5.488   1.706
 7417SOL    HW223151   0.595   5.404   1.576
 7418SOL     OW23152   2.067   2.873   0.765
 7418SOL    HW123153   2.138   2.925   0.717
 7418SOL    HW223154   1.989   2.859   0.704
 7419SOL     OW23155   5.899   2.223   5.948
 7419SOL    HW123156   5.992   2.242   5.917
 7419SOL    HW223157   5.867   2.299   6.006
 7420SOL     OW23158   1.016   6.565   1.930
 7420SOL    HW123159   0.920   6.581   1.952
 7420SOL    HW223160   1.054   6.495   1.990
 7421SOL     OW23161   4.752   1.842   1.246
 7421SOL    HW123162   4.743   1.742   1.252
 7421SOL    HW223163   4.666   1.885   1.275
 7422SOL     OW23164   0.930   2.104   0.414
 7422SOL    HW123165   0.892   2.078   0.503
 7422SOL    HW223166   1.030   2.101   0.418
 7423SOL     OW23167   2.833   3.959   0.794
 7423SOL    HW123168   2.778   3.951   0.711
 7423SOL    HW223169   2.830   3.872   0.844
 7424SOL     OW23170   5.562   6.600   3.700
 7424SOL    HW123171   5.624   6.567   3.629
 7424SOL    HW223172   5.609   6.601   3.788
 7425SOL     OW23173   4.443   0.029   4.735
 7425SOL    HW123174   4.505   0.107   4.740
 7425SOL    HW223175   4.356   0.058   4.695
 7426SOL     OW23176   6.995   0.018   6.117
 7426SOL    HW123177   7.004   0.027   6.216
 7426SOL    HW223178   6.915   0.069   6.086
 7427SOL     OW23179   5.297   4.673   6.093
 7427SOL    HW123180   5.367   4.632   6.034
 7427SOL    HW223181   5.211   4.680   6.042
 7428SOL     OW23182   5.453   1.909   4.960
 7428SOL    HW123183   5.361   1.870   4.953
 7428SOL    HW223184   5.451   2.005   4.932
 7429SOL     OW23185   5.404   6.560   2.847
 7429SOL    HW123186   5.406   6.471   2.893
 7429SOL    HW223187   5.309   6.589   2.835
 7430SOL     OW23188   0.556   4.395   4.776
 7430SOL    HW123189   0.654   4.392   4.756
 7430SOL    HW223190   0.505   4.398   4.690
 7431SOL     OW23191   0.259   3.908   3.465
 7431SOL    HW123192   0.211   3.940   3.383
 7431SOL    HW223193   0.351   3.947   3.467
 7432SOL     OW23194   1.969   6.552   5.908
 7432SOL    HW123195   1.939   6.645   5.930
 7432SOL    HW223196   2.067   6.554   5.887
 7433SOL     OW23197   1.208   6.290   1.260
 7433SOL    HW123198   1.293   6.319   1.215
 7433SOL    HW223199   1.231   6.238   1.342
 7434SOL     OW23200   4.541   6.791   0.125
 7434SOL    HW123201   4.636   6.800   0.154
 7434SOL    HW223202   4.480   6.819   0.199
 7435SOL     OW23203   0.779   3.863   6.869
 7435SOL    HW123204   0.822   3.825   6.951
 7435SOL    HW223205   0.680   3.868   6.883
 7436SOL     OW23206   5.165   3.261   6.476
 7436SOL    HW123207   5.210   3.325   6.538
 7436SOL    HW223208   5.066   3.275   6.479
 7437SOL     OW23209   6.919   6.574   5.405
 7437SOL    HW123210   6.947   6.650   5.346
 7437SOL    HW223211   6.982   6.569   5.483
 7438SOL     OW23212   6.324   3.911   1.230
 7438SOL    HW123213   6.294   3.998   1.191
 7438SOL    HW223214   6.409   3.882   1.187
 7439SOL     OW23215   1.611   6.625   2.807
 7439SOL    HW123216   1.624   6.687   2.885
 7439SOL    HW223217   1.563   6.543   2.837
 7440SOL     OW23218   1.534   0.738   4.643
 7440SOL    HW123219   1.436   0.731   4.624
 7440SOL    HW223220   1.558   0.834   4.660
 7441SOL     OW23221   6.590   1.708   3.246
 7441SOL    HW123222   6.678   1.705   3.293
 7441SOL    HW223223   6.604   1.725   3.149
 7442SOL     OW23224   1.507   1.208   0.436
 7442SOL    HW123225   1.449   1.223   0.356
 7442SOL    HW223226   1.451   1.177   0.512
 7443SOL     OW23227   5.926   1.021   1.030
 7443SOL    HW123228   5.832   0.987   1.019
 7443SOL    HW223229   5.925   1.120   1.039
 7444SOL     OW23230   2.632   2.429   4.564
 7444SOL    HW123231   2.540   2.423   4.525
 7444SOL    HW223232   2.684   2.500   4.516
 7445SOL     OW23233   6.275   2.587   2.524
 7445SOL    HW123234   6.282   2.509   2.587
 7445SOL    HW223235   6.267   2.671   2.577
 7446SOL     OW23236   4.312   4.663   2.344
 7446SOL    HW123237   4.348   4.625   2.259
 7446SOL    HW223238   4.282   4.588   2.404
 7447SOL     OW23239   1.602   2.766   6.259
 7447SOL    HW123240   1.569   2.724   6.343
 7447SOL    HW223241   1.596   2.701   6.184
 7448SOL     OW23242   7.012   0.627   5.447
 7448SOL    HW123243   6.980   0.599   5.356
 7448SOL    HW223244   6.980   0.720   5.466
 7449SOL     OW23245   3.126   1.096   2.778
 7449SOL    HW123246   3.173   1.073   2.863
 7449SOL    HW223247   3.095   1.191   2.782
 7450SOL     OW23248   3.616   1.944   1.944
 7450SOL    HW123249   3.620   2.033   1.988
 7450SOL    HW223250   3.596   1.955   1.847
 7451SOL     OW23251   1.313   0.488   1.708
 7451SOL    HW123252   1.224   0.473   1.752
 7451SOL    HW223253   1.361   0.401   1.699
 7452SOL     OW23254   2.143   5.793   3.009
 7452SOL    HW123255   2.164   5.853   3.086
 7452SOL    HW223256   2.156   5.697   3.037
 7453SOL     OW23257   6.814   4.028   4.882
 7453SOL    HW123258   6.765   4.109   4.850
 7453SOL    HW223259   6.756   3.947   4.870
 7454SOL     OW23260   2.752   1.737   0.370
 7454SOL    HW123261   2.680   1.672   0.394
 7454SOL    HW223262   2.741   1.820   0.424
 7455SOL     OW23263   5.497   6.810   0.159
 7455SOL    HW123264   5.413   6.823   0.106
 7455SOL    HW223265   5.539   6.722   0.135
 7456SOL     OW23266   1.335   2.397   6.657
 7456SOL    HW123267   1.415   2.454   6.677
 7456SOL    HW223268   1.359   2.330   6.587
 7457SOL     OW23269   0.468   6.445   5.062
 7457SOL    HW123270   0.383   6.399   5.087
 7457SOL    HW223271   0.536   6.433   5.134
 7458SOL     OW23272   3.368   0.352   1.974
 7458SOL    HW123273   3.273   0.329   1.951
 7458SOL    HW223274   3.399   0.427   1.916
 7459SOL     OW23275   3.944   4.872   3.781
 7459SOL    HW123276   4.014   4.816   3.738
 7459SOL    HW223277   3.961   4.969   3.761
 7460SOL     OW23278   1.286   5.131   6.364
 7460SOL    HW123279   1.208   5.174   6.319
 7460SOL    HW223280   1.328   5.065   6.301
 7461SOL     OW23281   3.479   1.725   3.532
 7461SOL    HW123282   3.569   1.702   3.496
 7461SOL    HW223283   3.460   1.668   3.613
 7462SOL     OW23284   1.122   2.492   3.943
 7462SOL    HW123285   1.049   2.439   3.901
 7462SOL    HW223286   1.082   2.571   3.991
 7463SOL     OW23287   3.779   3.705   2.661
 7463SOL    HW123288   3.800   3.774   2.592
 7463SOL    HW223289   3.834   3.721   2.743
 7464SOL     OW23290   4.327   5.493   0.547
 7464SOL    HW123291   4.328   5.406   0.596
 7464SOL    HW223292   4.234   5.529   0.546
 7465SOL     OW23293   2.988   0.861   2.693
 7465SOL    HW123294   3.030   0.948   2.719
 7465SOL    HW223295   3.042   0.819   2.620
 7466SOL     OW23296   0.086   6.349   0.931
 7466SOL    HW123297   0.034   6.347   1.017
 7466SOL    HW223298   0.031   6.392   0.860
 7467SOL     OW23299   3.782   2.603   0.688
 7467SOL    HW123300   3.780   2.659   0.605
 7467SOL    HW223301   3.726   2.646   0.759
 7468SOL     OW23302   5.328   4.947   4.959
 7468SOL    HW123303   5.294   5.041   4.957
 7468SOL    HW223304   5.424   4.946   4.929
 7469SOL     OW23305   5.294   2.141   0.935
 7469SOL    HW123306   5.377   2.196   0.946
 7469SOL    HW223307   5.237   2.182   0.864
 7470SOL     OW23308   1.066   3.517   3.159
 7470SOL    HW123309   1.151   3.569   3.163
 7470SOL    HW223310   1.001   3.554   3.226
 7471SOL     OW23311   0.047   4.366   5.797
 7471SOL    HW123312   0.104   4.324   5.726
 7471SOL    HW223313   0.101   4.435   5.845
 7472SOL     OW23314   3.356   5.698   2.954
 7472SOL    HW123315   3.369   5.613   2.903
 7472SOL    HW223316   3.445   5.736   2.980
 7473SOL     OW23317   1.609   2.183   6.208
 7473SOL    HW123318   1.593   2.123   6.286
 7473SOL    HW223319   1.707   2.189   6.190
 7474SOL     OW23320   2.520   1.162   1.956
 7474SOL    HW123321   2.464   1.233   1.914
 7474SOL    HW223322   2.560   1.197   2.041
 7475SOL     OW23323   5.747   1.002   6.229
 7475SOL    HW123324   5.701   0.916   6.212
 7475SOL    HW223325   5.789   1.035   6.144
 7476SOL     OW23326   1.880   6.636   4.639
 7476SOL    HW123327   1.963   6.606   4.592
 7476SOL    HW223328   1.884   6.735   4.653
 7477SOL     OW23329   4.898   4.107   5.113
 7477SOL    HW123330   4.870   4.143   5.024
 7477SOL    HW223331   4.832   4.137   5.183
 7478SOL     OW23332   6.330   4.276   1.379
 7478SOL    HW123333   6.352   4.186   1.418
 7478SOL    HW223334   6.413   4.332   1.375
 7479SOL     OW23335   4.133   6.867   4.653
 7479SOL    HW123336   4.145   6.793   4.719
 7479SOL    HW223337   4.106   6.829   4.564
 7480SOL     OW23338   6.327   4.979   6.976
 7480SOL    HW123339   6.381   4.906   7.019
 7480SOL    HW223340   6.234   4.978   7.013
 7481SOL     OW23341   5.864   6.806   0.462
 7481SOL    HW123342   5.868   6.709   0.489
 7481SOL    HW223343   5.770   6.829   0.437
 7482SOL     OW23344   5.295   0.208   5.127
 7482SOL    HW123345   5.355   0.273   5.080
 7482SOL    HW223346   5.325   0.196   5.222
 7483SOL     OW23347   3.799   6.999   6.057
 7483SOL    HW123348   3.769   6.910   6.092
 7483SOL    HW223349   3.859   6.985   5.978
 7484SOL     OW23350   3.031   6.206   1.369
 7484SOL    HW123351   3.094   6.135   1.338
 7484SOL    HW223352   3.079   6.269   1.430
 7485SOL     OW23353   1.237   0.061   5.087
 7485SOL    HW123354   1.249   0.056   4.988
 7485SOL    HW223355   1.219   6.994   5.123
 7486SOL     OW23356   1.705   2.038   4.766
 7486SOL    HW123357   1.688   1.940   4.772
 7486SOL    HW223358   1.776   2.056   4.698
 7487SOL     OW23359   1.566   6.495   2.518
 7487SOL    HW123360   1.514   6.554   2.457
 7487SOL    HW223361   1.587   6.545   2.602
 7488SOL     OW23362   4.774   2.398   4.521
 7488SOL    HW123363   4.780   2.492   4.489
 7488SOL    HW223364   4.763   2.396   4.620
 7489SOL     OW23365   1.244   3.190   3.477
 7489SOL    HW123366   1.205   3.214   3.388
 7489SOL    HW223367   1.226   3.264   3.542
 7490SOL     OW23368   5.626   0.936   2.540
 7490SOL    HW123369   5.725   0.940   2.554
 7490SOL    HW223370   5.583   1.013   2.586
 7491SOL     OW23371   1.026   6.939   1.151
 7491SOL    HW123372   1.035   6.845   1.116
 7491SOL    HW223373   1.009   7.001   1.075
 7492SOL     OW23374   1.821   1.772   2.977
 7492SOL    HW123375   1.800   1.847   3.040
 7492SOL    HW223376   1.758   1.776   2.899
 7493SOL     OW23377   5.824   4.336   6.838
 7493SOL    HW123378   5.802   4.293   6.926
 7493SOL    HW223379   5.798   4.432   6.842
 7494SOL     OW23380   4.811   2.219   1.023
 7494SOL    HW123381   4.757   2.214   1.107
 7494SOL    HW223382   4.873   2.297   1.029
 7495SOL     OW23383   1.599   2.084   3.397
 7495SOL    HW123384   1.580   2.086   3.299
 7495SOL    HW223385   1.516   2.057   3.447
 7496SOL     OW23386   0.221   5.169   5.912
 7496SOL    HW123387   0.308   5.167   5.863
 7496SOL    HW223388   0.206   5.260   5.949
 7497SOL     OW23389   0.611   4.432   3.303
 7497SOL    HW123390   0.517   4.424   3.337
 7497SOL    HW223391   0.665   4.487   3.367
 7498SOL     OW23392   5.125   1.719   4.496
 7498SOL    HW123393   5.222   1.702   4.479
 7498SOL    HW223394   5.108   1.818   4.496
 7499SOL     OW23395   3.439   4.920   3.396
 7499SOL    HW123396   3.467   5.006   3.439
 7499SOL    HW223397   3.492   4.845   3.436
 7500SOL     OW23398   4.784   3.915   1.250
 7500SOL    HW123399   4.857   3.937   1.185
 7500SOL    HW223400   4.728   3.841   1.214
 7501SOL     OW23401   1.297   4.403   3.463
 7501SOL    HW123402   1.305   4.367   3.556
 7501SOL    HW223403   1.334   4.336   3.398
 7502SOL     OW23404   1.443   1.848   5.035
 7502SOL    HW123405   1.377   1.774   5.026
 7502SOL    HW223406   1.402   1.934   5.002
 7503SOL     OW23407   2.330   2.174   1.093
 7503SOL    HW123408   2.336   2.119   1.010
 7503SOL    HW223409   2.274   2.255   1.075
 7504SOL     OW23410   5.309   5.259   6.247
 7504SOL    HW123411   5.407   5.237   6.239
 7504SOL    HW223412   5.296   5.358   6.233
 7505SOL     OW23413   1.054   1.895   3.297
 7505SOL    HW123414   1.112   1.923   3.374
 7505SOL    HW223415   1.095   1.927   3.211
 7506SOL     OW23416   3.571   0.457   3.136
 7506SOL    HW123417   3.574   0.389   3.209
 7506SOL    HW223418   3.562   0.411   3.048
 7507SOL     OW23419   2.191   6.183   5.026
 7507SOL    HW123420   2.237   6.191   5.114
 7507SOL    HW223421   2.230   6.106   4.975
 7508SOL     OW23422   4.828   6.212   3.310
 7508SOL    HW123423   4.798   6.138   3.371
 7508SOL    HW223424   4.752   6.236   3.249
 7509SOL     OW23425   2.250   4.581   6.690
 7509SOL    HW123426   2.205   4.628   6.766
 7509SOL    HW223427   2.349   4.575   6.709
 7510SOL     OW23428   3.768   3.079   4.214
 7510SOL    HW123429   3.673   3.086   4.185
 7510SOL    HW223430   3.828   3.104   4.138
 7511SOL     OW23431   1.506   0.780   1.805
 7511SOL    HW123432   1.523   0.765   1.902
 7511SOL    HW223433   1.554   0.710   1.751
 7512SOL     OW23434   1.509   3.094   2.483
 7512SOL    HW123435   1.502   2.995   2.498
 7512SOL    HW223436   1.571   3.112   2.407
 7513SOL     OW23437   2.326   2.972   6.992
 7513SOL    HW123438   2.228   2.956   6.986
 7513SOL    HW223439   2.342   3.063   0.006
 7514SOL     OW23440   2.837   5.088   2.909
 7514SOL    HW123441   2.867   5.030   2.984
 7514SOL    HW223442   2.777   5.036   2.847
 7515SOL     OW23443   6.350   5.291   3.851
 7515SOL    HW123444   6.403   5.357   3.797
 7515SOL    HW223445   6.253   5.299   3.829
 7516SOL     OW23446   1.697   3.355   1.064
 7516SOL    HW123447   1.791   3.338   1.093
 7516SOL    HW223448   1.648   3.269   1.054
 7517SOL     OW23449   1.024   5.905   2.105
 7517SOL    HW123450   0.984   5.826   2.151
 7517SOL    HW223451   0.965   5.933   2.029
 7518SOL     OW23452   5.272   3.676   2.172
 7518SOL    HW123453   5.211   3.723   2.236
 7518SOL    HW223454   5.284   3.731   2.090
 7519SOL     OW23455   1.941   0.751   4.542
 7519SOL    HW123456   1.860   0.712   4.586
 7519SOL    HW223457   1.992   0.805   4.609
 7520SOL     OW23458   1.668   0.513   4.614
 7520SOL    HW123459   1.602   0.456   4.565
 7520SOL    HW223460   1.624   0.599   4.640
 7521SOL     OW23461   3.789   2.546   5.847
 7521SOL    HW123462   3.707   2.516   5.896
 7521SOL    HW223463   3.867   2.545   5.910
 7522SOL     OW23464   1.857   6.746   2.328
 7522SOL    HW123465   1.893   6.724   2.419
 7522SOL    HW223466   1.875   6.669   2.266
 7523SOL     OW23467   6.640   5.993   6.301
 7523SOL    HW123468   6.569   6.048   6.346
 7523SOL    HW223469   6.630   5.897   6.330
 7524SOL     OW23470   6.089   2.915   6.051
 7524SOL    HW123471   6.063   2.890   6.144
 7524SOL    HW223472   6.189   2.910   6.042
 7525SOL     OW23473   0.522   0.375   0.598
 7525SOL    HW123474   0.598   0.349   0.537
 7525SOL    HW223475   0.540   0.465   0.637
 7526SOL     OW23476   3.664   3.442   5.748
 7526SOL    HW123477   3.733   3.401   5.689
 7526SOL    HW223478   3.648   3.537   5.720
 7527SOL     OW23479   2.560   6.469   1.295
 7527SOL    HW123480   2.495   6.430   1.361
 7527SOL    HW223481   2.563   6.568   1.307
 7528SOL     OW23482   5.821   1.995   0.407
 7528SOL    HW123483   5.857   1.911   0.447
 7528SOL    HW223484   5.787   2.055   0.480
 7529SOL     OW23485   1.393   0.292   4.026
 7529SOL    HW123486   1.352   0.249   3.945
 7529SOL    HW223487   1.466   0.354   3.998
 7530SOL     OW23488   0.470   3.604   2.415
 7530SOL    HW123489   0.460   3.592   2.316
 7530SOL    HW223490   0.533   3.536   2.451
 7531SOL     OW23491   1.847   2.183   4.383
 7531SOL    HW123492   1.852   2.111   4.313
 7531SOL    HW223493   1.906   2.259   4.356
 7532SOL     OW23494   4.654   4.426   2.238
 7532SOL    HW123495   4.643   4.525   2.231
 7532SOL    HW223496   4.594   4.381   2.173
 7533SOL     OW23497   3.613   0.034   5.424
 7533SOL    HW123498   3.705   0.058   5.452
 7533SOL    HW223499   3.617   7.010   5.336
 7534SOL     OW23500   4.346   0.145   4.137
 7534SOL    HW123501   4.359   0.080   4.061
 7534SOL    HW223502   4.269   0.205   4.117
 7535SOL     OW23503   3.055   4.464   6.640
 7535SOL    HW123504   2.988   4.538   6.644
 7535SOL    HW223505   3.013   4.379   6.671
 7536SOL     OW23506   4.600   4.861   6.970
 7536SOL    HW123507   4.578   4.764   6.960
 7536SOL    HW223508   4.677   4.884   6.911
 7537SOL     OW23509   1.947   4.639   4.942
 7537SOL    HW123510   1.889   4.596   4.872
 7537SOL    HW223511   1.958   4.736   4.920
 7538SOL     OW23512   3.388   3.918   5.466
 7538SOL    HW123513   3.422   3.861   5.390
 7538SOL    HW223514   3.404   4.014   5.446
 7539SOL     OW23515   1.387   2.976   4.219
 7539SOL    HW123516   1.290   2.969   4.243
 7539SOL    HW223517   1.398   2.966   4.120
 7540SOL     OW23518   2.874   0.579   0.525
 7540SOL    HW123519   2.867   0.494   0.472
 7540SOL    HW223520   2.907   0.558   0.617
 7541SOL     OW23521   0.325   1.935   5.877
 7541SOL    HW123522   0.311   1.914   5.974
 7541SOL    HW223523   0.421   1.925   5.854
 7542SOL     OW23524   1.800   0.531   4.285
 7542SOL    HW123525   1.834   0.553   4.377
 7542SOL    HW223526   1.852   0.454   4.248
 7543SOL     OW23527   2.145   2.123   2.174
 7543SOL    HW123528   2.231   2.124   2.123
 7543SOL    HW223529   2.120   2.028   2.193
 7544SOL     OW23530   0.999   2.223   2.702
 7544SOL    HW123531   0.921   2.165   2.726
 7544SOL    HW223532   1.079   2.194   2.755
 7545SOL     OW23533   3.946   0.093   4.072
 7545SOL    HW123534   3.979   0.181   4.106
 7545SOL    HW223535   3.911   0.039   4.148
 7546SOL     OW23536   4.728   6.119   4.816
 7546SOL    HW123537   4.709   6.191   4.883
 7546SOL    HW223538   4.650   6.057   4.811
 7547SOL     OW23539   1.625   6.772   1.330
 7547SOL    HW123540   1.547   6.814   1.378
 7547SOL    HW223541   1.681   6.722   1.395
 7548SOL     OW23542   2.601   4.111   0.942
 7548SOL    HW123543   2.676   4.084   0.881
 7548SOL    HW223544   2.619   4.202   0.979
 7549SOL     OW23545   6.138   6.994   2.176
 7549SOL    HW123546   6.092   6.936   2.243
 7549SOL    HW223547   6.237   6.981   2.183
 7550SOL     OW23548   0.952   5.584   0.895
 7550SOL    HW123549   0.891   5.663   0.882
 7550SOL    HW223550   1.028   5.590   0.831
 7551SOL     OW23551   4.897   3.772   5.784
 7551SOL    HW123552   4.912   3.754   5.882
 7551SOL    HW223553   4.825   3.841   5.773
 7552SOL     OW23554   3.740   5.460   4.741
 7552SOL    HW123555   3.654   5.417   4.715
 7552SOL    HW223556   3.732   5.559   4.734
 7553SOL     OW23557   4.428   4.535   5.680
 7553SOL    HW123558   4.477   4.619   5.701
 7553SOL    HW223559   4.486   4.456   5.699
 7554SOL     OW23560   6.520   0.427   0.865
 7554SOL    HW123561   6.471   0.368   0.801
 7554SOL    HW223562   6.487   0.521   0.855
 7555SOL     OW23563   3.123   6.378   6.642
 7555SOL    HW123564   3.167   6.350   6.557
 7555SOL    HW223565   3.075   6.300   6.682
 7556SOL     OW23566   0.197   4.144   2.916
 7556SOL    HW123567   0.188   4.064   2.856
 7556SOL    HW223568   0.277   4.131   2.975
 7557SOL     OW23569   4.617   4.122   0.736
 7557SOL    HW123570   4.634   4.079   0.824
 7557SOL    HW223571   4.519   4.131   0.721
 7558SOL     OW23572   1.642   3.864   3.634
 7558SOL    HW123573   1.702   3.807   3.578
 7558SOL    HW223574   1.548   3.857   3.600
 7559SOL     OW23575   1.192   5.298   0.636
 7559SOL    HW123576   1.275   5.244   0.650
 7559SOL    HW223577   1.117   5.238   0.607
 7560SOL     OW23578   4.396   0.148   6.173
 7560SOL    HW123579   4.384   0.176   6.078
 7560SOL    HW223580   4.484   0.100   6.183
 7561SOL     OW23581   1.634   2.816   0.324
 7561SOL    HW123582   1.611   2.900   0.275
 7561SOL    HW223583   1.554   2.757   0.329
 7562SOL     OW23584   4.468   6.329   5.450
 7562SOL    HW123585   4.523   6.389   5.508
 7562SOL    HW223586   4.521   6.249   5.424
 7563SOL     OW23587   2.667   1.263   3.341
 7563SOL    HW123588   2.667   1.341   3.278
 7563SOL    HW223589   2.585   1.266   3.398
 7564SOL     OW23590   6.500   5.632   3.847
 7564SOL    HW123591   6.536   5.717   3.886
 7564SOL    HW223592   6.400   5.635   3.849
 7565SOL     OW23593   4.429   5.140   6.655
 7565SOL    HW123594   4.474   5.064   6.608
 7565SOL    HW223595   4.485   5.222   6.647
 7566SOL     OW23596   1.644   5.789   4.204
 7566SOL    HW123597   1.699   5.753   4.129
 7566SOL    HW223598   1.652   5.729   4.284
 7567SOL     OW23599   2.680   4.365   0.197
 7567SOL    HW123600   2.675   4.425   0.276
 7567SOL    HW223601   2.596   4.310   0.191
 7568SOL     OW23602   4.035   4.835   4.171
 7568SOL    HW123603   4.029   4.828   4.270
 7568SOL    HW223604   3.943   4.839   4.132
 7569SOL     OW23605   3.439   6.871   2.936
 7569SOL    HW123606   3.443   6.962   2.977
 7569SOL    HW223607   3.515   6.859   2.872
 7570SOL     OW23608   6.242   5.137   5.144
 7570SOL    HW123609   6.207   5.181   5.226
 7570SOL    HW223610   6.340   5.121   5.153
 7571SOL     OW23611   6.640   4.508   0.682
 7571SOL    HW123612   6.612   4.561   0.763
 7571SOL    HW223613   6.582   4.534   0.605
 7572SOL     OW23614   6.065   1.307   3.425
 7572SOL    HW123615   6.155   1.278   3.457
 7572SOL    HW223616   6.001   1.231   3.430
 7573SOL     OW23617   3.362   4.914   3.703
 7573SOL    HW123618   3.385   4.941   3.796
 7573SOL    HW223619   3.443   4.875   3.659
 7574SOL     OW23620   4.272   6.095   1.677
 7574SOL    HW123621   4.289   5.996   1.677
 7574SOL    HW223622   4.176   6.112   1.655
 7575SOL     OW23623   5.228   3.671   3.878
 7575SOL    HW123624   5.190   3.598   3.935
 7575SOL    HW223625   5.174   3.678   3.794
 7576SOL     OW23626   0.234   4.682   2.060
 7576SOL    HW123627   0.308   4.677   2.127
 7576SOL    HW223628   0.257   4.750   1.990
 7577SOL     OW23629   3.900   1.595   3.623
 7577SOL    HW123630   3.908   1.538   3.704
 7577SOL    HW223631   3.898   1.691   3.650
 7578SOL     OW23632   2.146   5.253   5.752
 7578SOL    HW123633   2.138   5.228   5.655
 7578SOL    HW223634   2.061   5.231   5.799
 7579SOL     OW23635   4.062   2.226   4.656
 7579SOL    HW123636   3.979   2.188   4.696
 7579SOL    HW223637   4.059   2.217   4.557
 7580SOL     OW23638   1.695   3.111   2.912
 7580SOL    HW123639   1.778   3.062   2.887
 7580SOL    HW223640   1.638   3.125   2.831
 7581SOL     OW23641   5.465   1.137   1.004
 7581SOL    HW123642   5.545   1.109   0.951
 7581SOL    HW223643   5.383   1.132   0.946
 7582SOL     OW23644   3.774   3.405   1.286
 7582SOL    HW123645   3.811   3.389   1.378
 7582SOL    HW223646   3.724   3.324   1.256
 7583SOL     OW23647   6.145   4.723   3.092
 7583SOL    HW123648   6.213   4.770   3.148
 7583SOL    HW223649   6.097   4.655   3.147
 7584SOL     OW23650   1.647   2.557   2.307
 7584SOL    HW123651   1.568   2.618   2.299
 7584SOL    HW223652   1.727   2.600   2.266
 7585SOL     OW23653   2.982   3.739   0.440
 7585SOL    HW123654   2.903   3.752   0.379
 7585SOL    HW223655   2.968   3.792   0.524
 7586SOL     OW23656   1.190   2.335   2.887
 7586SOL    HW123657   1.230   2.286   2.965
 7586SOL    HW223658   1.106   2.380   2.915
 7587SOL     OW23659   2.823   0.612   5.593
 7587SOL    HW123660   2.860   0.694   5.549
 7587SOL    HW223661   2.761   0.639   5.667
 7588SOL     OW23662   0.595   4.200   1.498
 7588SOL    HW123663   0.513   4.145   1.508
 7588SOL    HW223664   0.572   4.297   1.511
 7589SOL     OW23665   4.537   5.914   6.393
 7589SOL    HW123666   4.580   5.836   6.348
 7589SOL    HW223667   4.444   5.890   6.420
 7590SOL     OW23668   2.318   1.014   5.265
 7590SOL    HW123669   2.386   0.971   5.205
 7590SOL    HW223670   2.266   0.944   5.312
 7591SOL     OW23671   0.328   5.823   6.198
 7591SOL    HW123672   0.387   5.875   6.259
 7591SOL    HW223673   0.385   5.769   6.135
 7592SOL     OW23674   4.824   4.631   6.479
 7592SOL    HW123675   4.814   4.727   6.503
 7592SOL    HW223676   4.915   4.599   6.505
 7593SOL     OW23677   6.890   4.889   0.330
 7593SOL    HW123678   6.964   4.860   0.269
 7593SOL    HW223679   6.807   4.904   0.276
 7594SOL     OW23680   1.323   0.389   4.796
 7594SOL    HW123681   1.356   0.416   4.705
 7594SOL    HW223682   1.337   0.463   4.861
 7595SOL     OW23683   0.217   4.010   6.838
 7595SOL    HW123684   0.149   3.979   6.772
 7595SOL    HW223685   0.190   3.982   6.930
 7596SOL     OW23686   5.705   5.202   2.177
 7596SOL    HW123687   5.627   5.245   2.132
 7596SOL    HW223688   5.698   5.215   2.276
 7597SOL     OW23689   2.565   4.576   2.889
 7597SOL    HW123690   2.581   4.563   2.987
 7597SOL    HW223691   2.646   4.620   2.848
 7598SOL     OW23692   6.117   1.520   2.878
 7598SOL    HW123693   6.207   1.500   2.916
 7598SOL    HW223694   6.047   1.502   2.948
 7599SOL     OW23695   5.387   3.989   1.482
 7599SOL    HW123696   5.413   3.983   1.579
 7599SOL    HW223697   5.470   3.993   1.426
 7600SOL     OW23698   1.870   2.792   2.930
 7600SOL    HW123699   1.877   2.870   2.867
 7600SOL    HW223700   1.775   2.776   2.954
 7601SOL     OW23701   1.617   0.682   5.574
 7601SOL    HW123702   1.525   0.665   5.537
 7601SOL    HW223703   1.680   0.703   5.500
 7602SOL     OW23704   2.310   2.880   5.322
 7602SOL    HW123705   2.286   2.802   5.263
 7602SOL    HW223706   2.369   2.943   5.272
 7603SOL     OW23707   5.447   1.310   1.389
 7603SOL    HW123708   5.483   1.396   1.352
 7603SOL    HW223709   5.513   1.237   1.374
 7604SOL     OW23710   5.833   5.367   6.299
 7604SOL    HW123711   5.833   5.275   6.339
 7604SOL    HW223712   5.926   5.392   6.272
 7605SOL     OW23713   4.796   3.131   5.401
 7605SOL    HW123714   4.883   3.102   5.440
 7605SOL    HW223715   4.810   3.216   5.350
 7606SOL     OW23716   5.150   1.246   3.484
 7606SOL    HW123717   5.207   1.171   3.450
 7606SOL    HW223718   5.101   1.288   3.407
 7607SOL     OW23719   4.802   6.179   6.314
 7607SOL    HW123720   4.900   6.173   6.297
 7607SOL    HW223721   4.774   6.276   6.314
 7608SOL     OW23722   3.554   3.063   4.928
 7608SOL    HW123723   3.545   3.080   4.830
 7608SOL    HW223724   3.512   2.975   4.951
 7609SOL     OW23725   0.844   2.802   3.147
 7609SOL    HW123726   0.928   2.856   3.147
 7609SOL    HW223727   0.779   2.841   3.082
 7610SOL     OW23728   5.615   0.013   2.466
 7610SOL    HW123729   5.606   6.942   2.495
 7610SOL    HW223730   5.702   0.051   2.500
 7611SOL     OW23731   1.468   1.968   1.611
 7611SOL    HW123732   1.395   2.028   1.643
 7611SOL    HW223733   1.545   1.972   1.675
 7612SOL     OW23734   3.560   0.711   2.696
 7612SOL    HW123735   3.563   0.746   2.602
 7612SOL    HW223736   3.482   0.752   2.744
 7613SOL     OW23737   6.671   1.017   1.876
 7613SOL    HW123738   6.752   0.961   1.896
 7613SOL    HW223739   6.605   0.962   1.825
 7614SOL     OW23740   4.397   1.270   0.061
 7614SOL    HW123741   4.404   1.172   0.075
 7614SOL    HW223742   4.457   1.298   7.010
 7615SOL     OW23743   4.727   4.905   6.387
 7615SOL    HW123744   4.738   4.859   6.299
 7615SOL    HW223745   4.636   4.886   6.423
 7616SOL     OW23746   0.130   5.769   3.702
 7616SOL    HW123747   0.051   5.771   3.640
 7616SOL    HW223748   0.099   5.744   3.794
 7617SOL     OW23749   4.032   5.373   3.603
 7617SOL    HW123750   4.126   5.400   3.581
 7617SOL    HW223751   3.988   5.445   3.657
 7618SOL     OW23752   3.525   1.099   0.409
 7618SOL    HW123753   3.523   1.191   0.372
 7618SOL    HW223754   3.616   1.078   0.444
 7619SOL     OW23755   5.756   3.503   5.910
 7619SOL    HW123756   5.779   3.406   5.905
 7619SOL    HW223757   5.833   3.553   5.951
 7620SOL     OW23758   2.697   5.478   1.876
 7620SOL    HW123759   2.734   5.563   1.913
 7620SOL    HW223760   2.711   5.403   1.941
 7621SOL     OW23761   2.362   3.199   1.387
 7621SOL    HW123762   2.339   3.254   1.307
 7621SOL    HW223763   2.285   3.139   1.410
 7622SOL     OW23764   4.838   1.784   0.659
 7622SOL    HW123765   4.931   1.748   0.650
 7622SOL    HW223766   4.819   1.847   0.583
 7623SOL     OW23767   6.741   6.878   5.349
 7623SOL    HW123768   6.709   6.784   5.361
 7623SOL    HW223769   6.666   6.942   5.370
 7624SOL     OW23770   6.826   1.752   4.747
 7624SOL    HW123771   6.803   1.677   4.809
 7624SOL    HW223772   6.915   1.734   4.705
 7625SOL     OW23773   2.363   4.404   0.340
 7625SOL    HW123774   2.383   4.306   0.334
 7625SOL    HW223775   2.387   4.437   0.432
 7626SOL     OW23776   2.552   3.867   5.340
 7626SOL    HW123777   2.520   3.791   5.397
 7626SOL    HW223778   2.477   3.898   5.282
 7627SOL     OW23779   6.936   6.912   6.582
 7627SOL    HW123780   6.969   6.822   6.553
 7627SOL    HW223781   6.840   6.922   6.558
 7628SOL     OW23782   4.452   1.517   0.611
 7628SOL    HW123783   4.549   1.540   0.603
 7628SOL    HW223784   4.423   1.525   0.706
 7629SOL     OW23785   5.983   5.493   2.040
 7629SOL    HW123786   5.995   5.463   2.135
 7629SOL    HW223787   6.072   5.511   1.999
 7630SOL     OW23788   5.681   2.333   2.335
 7630SOL    HW123789   5.620   2.407   2.365
 7630SOL    HW223790   5.772   2.369   2.319
 7631SOL     OW23791   0.882   0.431   4.098
 7631SOL    HW123792   0.959   0.368   4.108
 7631SOL    HW223793   0.816   0.392   4.034
 7632SOL     OW23794   5.258   1.143   4.819
 7632SOL    HW123795   5.351   1.138   4.783
 7632SOL    HW223796   5.205   1.208   4.765
 7633SOL     OW23797   5.915   3.501   6.272
 7633SOL    HW123798   5.913   3.548   6.184
 7633SOL    HW223799   5.963   3.558   6.339
 7634SOL     OW23800   0.561   1.585   2.096
 7634SOL    HW123801   0.523   1.574   2.004
 7634SOL    HW223802   0.632   1.655   2.095
 7635SOL     OW23803   2.095   4.682   5.747
 7635SOL    HW123804   2.052   4.715   5.830
 7635SOL    HW223805   2.127   4.588   5.760
 7636SOL     OW23806   0.815   1.609   3.472
 7636SOL    HW123807   0.909   1.616   3.437
 7636SOL    HW223808   0.750   1.613   3.397
 7637SOL     OW23809   3.464   6.635   3.667
 7637SOL    HW123810   3.471   6.553   3.609
 7637SOL    HW223811   3.500   6.714   3.617
 7638SOL     OW23812   4.510   5.350   1.702
 7638SOL    HW123813   4.580   5.279   1.692
 7638SOL    HW223814   4.499   5.398   1.615
 7639SOL     OW23815   0.756   2.057   4.037
 7639SOL    HW123816   0.852   2.031   4.031
 7639SOL    HW223817   0.699   1.980   4.006
 7640SOL     OW23818   2.213   2.823   6.597
 7640SOL    HW123819   2.249   2.846   6.688
 7640SOL    HW223820   2.240   2.730   6.573
 7641SOL     OW23821   6.225   2.919   1.149
 7641SOL    HW123822   6.183   3.010   1.150
 7641SOL    HW223823   6.238   2.890   1.054
 7642SOL     OW23824   1.092   3.258   3.266
 7642SOL    HW123825   1.095   3.348   3.221
 7642SOL    HW223826   0.997   3.230   3.276
 7643SOL     OW23827   5.930   3.802   3.535
 7643SOL    HW123828   5.987   3.748   3.598
 7643SOL    HW223829   5.834   3.791   3.560
 7644SOL     OW23830   6.898   2.969   4.075
 7644SOL    HW123831   6.866   3.060   4.050
 7644SOL    HW223832   6.988   2.953   4.034
 7645SOL     OW23833   3.485   3.008   0.738
 7645SOL    HW123834   3.567   3.012   0.682
 7645SOL    HW223835   3.445   3.100   0.745
 7646SOL     OW23836   0.425   0.502   2.340
 7646SOL    HW123837   0.335   0.503   2.383
 7646SOL    HW223838   0.418   0.463   2.248
 7647SOL     OW23839   2.578   4.872   6.868
 7647SOL    HW123840   2.574   4.787   6.921
 7647SOL    HW223841   2.609   4.852   6.775
 7648SOL     OW23842   2.557   0.472   3.702
 7648SOL    HW123843   2.476   0.513   3.743
 7648SOL    HW223844   2.639   0.522   3.731
 7649SOL     OW23845   3.490   2.197   1.253
 7649SOL    HW123846   3.390   2.190   1.254
 7649SOL    HW223847   3.518   2.273   1.312
 7650SOL     OW23848   0.468   4.646   1.285
 7650SOL    HW123849   0.379   4.680   1.254
 7650SOL    HW223850   0.522   4.722   1.321
 7651SOL     OW23851   5.548   2.702   5.876
 7651SOL    HW123852   5.498   2.787   5.892
 7651SOL    HW223853   5.499   2.626   5.919
 7652SOL     OW23854   0.447   2.624   2.243
 7652SOL    HW123855   0.520   2.648   2.307
 7652SOL    HW223856   0.372   2.689   2.253
 7653SOL     OW23857   5.055   2.492   1.292
 7653SOL    HW123858   4.984   2.464   1.357
 7653SOL    HW223859   5.021   2.482   1.199
 7654SOL     OW23860   6.254   3.877   5.013
 7654SOL    HW123861   6.247   3.957   5.073
 7654SOL    HW223862   6.193   3.888   4.934
 7655SOL     OW23863   5.014   3.874   6.302
 7655SOL    HW123864   4.925   3.844   6.336
 7655SOL    HW223865   5.083   3.862   6.373
 7656SOL     OW23866   6.733   0.378   5.115
 7656SOL    HW123867   6.787   0.457   5.144
 7656SOL    HW223868   6.703   0.326   5.195
 7657SOL     OW23869   3.776   2.101   3.204
 7657SOL    HW123870   3.766   2.003   3.186
 7657SOL    HW223871   3.731   2.153   3.131
 7658SOL     OW23872   4.538   1.337   5.297
 7658SOL    HW123873   4.628   1.294   5.307
 7658SOL    HW223874   4.526   1.407   5.368
 7659SOL     OW23875   5.041   5.755   6.450
 7659SOL    HW123876   5.114   5.820   6.429
 7659SOL    HW223877   5.079   5.663   6.456
 7660SOL     OW23878   5.428   5.543   3.946
 7660SOL    HW123879   5.334   5.574   3.930
 7660SOL    HW223880   5.465   5.587   4.027
 7661SOL     OW23881   5.891   3.490   3.507
 7661SOL    HW123882   5.887   3.530   3.599
 7661SOL    HW223883   5.982   3.452   3.491
 7662SOL     OW23884   6.217   5.527   3.465
 7662SOL    HW123885   6.267   5.478   3.394
 7662SOL    HW223886   6.273   5.601   3.501
 7663SOL     OW23887   1.022   6.313   0.061
 7663SOL    HW123888   0.993   6.273   6.999
 7663SOL    HW223889   0.997   6.409   0.064
 7664SOL     OW23890   5.284   4.828   5.206
 7664SOL    HW123891   5.310   4.860   5.114
 7664SOL    HW223892   5.185   4.816   5.210
 7665SOL     OW23893   2.057   5.987   4.211
 7665SOL    HW123894   1.979   5.942   4.253
 7665SOL    HW223895   2.140   5.934   4.232
 7666SOL     OW23896   2.028   0.164   2.161
 7666SOL    HW123897   1.971   0.159   2.243
 7666SOL    HW223898   2.069   0.074   2.143
 7667SOL     OW23899   5.857   0.226   5.431
 7667SOL    HW123900   5.852   0.180   5.519
 7667SOL    HW223901   5.890   0.162   5.361
 7668SOL     OW23902   3.742   4.104   3.286
 7668SOL    HW123903   3.782   4.181   3.336
 7668SOL    HW223904   3.703   4.137   3.200
 7669SOL     OW23905   4.144   6.167   5.022
 7669SOL    HW123906   4.199   6.156   4.939
 7669SOL    HW223907   4.057   6.210   4.998
 7670SOL     OW23908   1.225   5.964   0.728
 7670SOL    HW123909   1.263   6.056   0.724
 7670SOL    HW223910   1.293   5.901   0.766
 7671SOL     OW23911   4.996   2.828   4.999
 7671SOL    HW123912   4.975   2.730   4.993
 7671SOL    HW223913   5.069   2.850   4.935
 7672SOL     OW23914   5.281   6.994   1.598
 7672SOL    HW123915   5.215   0.007   1.533
 7672SOL    HW223916   5.326   0.045   1.646
 7673SOL     OW23917   1.954   3.761   6.781
 7673SOL    HW123918   2.043   3.719   6.797
 7673SOL    HW223919   1.952   3.852   6.821
 7674SOL     OW23920   6.315   1.550   6.553
 7674SOL    HW123921   6.375   1.504   6.488
 7674SOL    HW223922   6.343   1.526   6.646
 7675SOL     OW23923   5.309   6.944   3.457
 7675SOL    HW123924   5.246   6.896   3.396
 7675SOL    HW223925   5.312   6.897   3.545
 7676SOL     OW23926   2.471   0.542   0.106
 7676SOL    HW123927   2.562   0.584   0.107
 7676SOL    HW223928   2.411   0.589   0.171
 7677SOL     OW23929   1.332   1.968   2.525
 7677SOL    HW123930   1.252   1.936   2.474
 7677SOL    HW223931   1.406   1.990   2.461
 7678SOL     OW23932   4.736   6.930   5.466
 7678SOL    HW123933   4.833   6.905   5.477
 7678SOL    HW223934   4.702   6.970   5.551
 7679SOL     OW23935   1.864   5.088   4.405
 7679SOL    HW123936   1.907   5.178   4.415
 7679SOL    HW223937   1.934   5.019   4.388
 7680SOL     OW23938   4.801   0.502   0.779
 7680SOL    HW123939   4.755   0.591   0.784
 7680SOL    HW223940   4.743   0.432   0.819
 7681SOL     OW23941   4.521   2.396   5.348
 7681SOL    HW123942   4.609   2.441   5.331
 7681SOL    HW223943   4.536   2.311   5.397
 7682SOL     OW23944   3.644   1.109   7.020
 7682SOL    HW123945   3.644   1.156   6.932
 7682SOL    HW223946   3.560   1.132   0.045
 7683SOL     OW23947   6.635   3.567   3.490
 7683SOL    HW123948   6.673   3.590   3.401
 7683SOL    HW223949   6.550   3.617   3.504
 7684SOL     OW23950   3.830   2.262   6.611
 7684SOL    HW123951   3.813   2.310   6.697
 7684SOL    HW223952   3.871   2.173   6.630
 7685SOL     OW23953   4.508   4.165   1.647
 7685SOL    HW123954   4.578   4.223   1.605
 7685SOL    HW223955   4.466   4.213   1.724
 7686SOL     OW23956   2.127   0.709   2.139
 7686SOL    HW123957   2.107   0.806   2.148
 7686SOL    HW223958   2.213   0.688   2.186
 7687SOL     OW23959   4.832   4.585   5.387
 7687SOL    HW123960   4.737   4.553   5.383
 7687SOL    HW223961   4.884   4.546   5.311
 7688SOL     OW23962   6.993   0.381   3.677
 7688SOL    HW123963   0.042   0.314   3.684
 7688SOL    HW223964   7.000   0.429   3.589
 7689SOL     OW23965   3.551   0.227   4.966
 7689SOL    HW123966   3.452   0.242   4.970
 7689SOL    HW223967   3.589   0.232   5.059
 7690SOL     OW23968   1.010   5.354   2.890
 7690SOL    HW123969   1.079   5.313   2.830
 7690SOL    HW223970   0.984   5.443   2.854
 7691SOL     OW23971   0.178   4.321   5.567
 7691SOL    HW123972   0.113   4.316   5.492
 7691SOL    HW223973   0.270   4.299   5.533
 7692SOL     OW23974   1.224   6.235   1.590
 7692SOL    HW123975   1.276   6.154   1.618
 7692SOL    HW223976   1.288   6.307   1.563
 7693SOL     OW23977   3.840   1.411   6.930
 7693SOL    HW123978   3.784   1.340   6.889
 7693SOL    HW223979   3.861   1.481   6.861
 7694SOL     OW23980   5.511   5.664   4.175
 7694SOL    HW123981   5.579   5.644   4.246
 7694SOL    HW223982   5.483   5.759   4.182
 7695SOL     OW23983   5.171   6.605   6.164
 7695SOL    HW123984   5.140   6.694   6.131
 7695SOL    HW223985   5.099   6.564   6.220
 7696SOL     OW23986   1.310   3.959   5.492
 7696SOL    HW123987   1.354   4.041   5.455
 7696SOL    HW223988   1.316   3.960   5.592
 7697SOL     OW23989   4.334   0.160   1.940
 7697SOL    HW123990   4.415   0.201   1.898
 7697SOL    HW223991   4.345   0.061   1.943
 7698SOL     OW23992   0.209   2.446   6.456
 7698SOL    HW123993   0.147   2.426   6.380
 7698SOL    HW223994   0.286   2.501   6.423
 7699SOL     OW23995   3.047   3.513   1.713
 7699SOL    HW123996   3.071   3.572   1.790
 7699SOL    HW223997   2.947   3.506   1.706
 7700SOL     OW23998   5.794   1.252   5.592
 7700SOL    HW123999   5.703   1.293   5.585
 7700SOL    HW224000   5.824   1.221   5.501
 7701SOL     OW24001   6.718   2.686   5.113
 7701SOL    HW124002   6.631   2.716   5.074
 7701SOL    HW224003   6.755   2.759   5.171
 7702SOL     OW24004   0.819   6.055   0.145
 7702SOL    HW124005   0.795   6.138   0.097
 7702SOL    HW224006   0.752   6.036   0.217
 7703SOL     OW24007   1.352   2.701   0.274
 7703SOL    HW124008   1.417   2.656   0.213
 7703SOL    HW224009   1.262   2.703   0.231
 7704SOL     OW24010   4.062   3.494   1.728
 7704SOL    HW124011   4.086   3.550   1.649
 7704SOL    HW224012   3.978   3.529   1.769
 7705SOL     OW24013   3.813   2.895   5.329
 7705SOL    HW124014   3.912   2.898   5.338
 7705SOL    HW224015   3.771   2.904   5.420
 7706SOL     OW24016   6.131   1.172   5.663
 7706SOL    HW124017   6.155   1.230   5.585
 7706SOL    HW224018   6.124   1.076   5.633
 7707SOL     OW24019   0.364   5.094   6.426
 7707SOL    HW124020   0.447   5.147   6.441
 7707SOL    HW224021   0.388   4.997   6.415
 7708SOL     OW24022   5.230   1.429   5.661
 7708SOL    HW124023   5.279   1.442   5.575
 7708SOL    HW224024   5.224   1.331   5.681
 7709SOL     OW24025   4.226   2.379   1.872
 7709SOL    HW124026   4.322   2.403   1.865
 7709SOL    HW224027   4.170   2.458   1.848
 7710SOL     OW24028   3.219   1.265   6.108
 7710SOL    HW124029   3.224   1.318   6.193
 7710SOL    HW224030   3.132   1.216   6.104
 7711SOL     OW24031   5.424   6.637   4.604
 7711SOL    HW124032   5.455   6.574   4.534
 7711SOL    HW224033   5.456   6.606   4.694
 7712SOL     OW24034   6.457   4.323   6.188
 7712SOL    HW124035   6.453   4.416   6.224
 7712SOL    HW224036   6.494   4.325   6.095
 7713SOL     OW24037   1.176   4.987   6.579
 7713SOL    HW124038   1.233   5.043   6.520
 7713SOL    HW224039   1.081   4.988   6.545
 7714SOL     OW24040   6.609   4.665   5.015
 7714SOL    HW124041   6.653   4.584   5.054
 7714SOL    HW224042   6.600   4.735   5.085
 7715SOL     OW24043   3.241   1.381   1.403
 7715SOL    HW124044   3.325   1.327   1.391
 7715SOL    HW224045   3.265   1.478   1.409
 7716SOL     OW24046   3.739   2.061   4.455
 7716SOL    HW124047   3.657   2.118   4.451
 7716SOL    HW224048   3.807   2.096   4.390
 7717SOL     OW24049   3.078   6.320   0.381
 7717SOL    HW124050   3.151   6.381   0.411
 7717SOL    HW224051   3.102   6.226   0.405
 7718SOL     OW24052   1.384   6.017   3.028
 7718SOL    HW124053   1.413   6.075   3.104
 7718SOL    HW224054   1.356   5.927   3.062
 7719SOL     OW24055   5.265   2.555   5.988
 7719SOL    HW124056   5.261   2.457   5.969
 7719SOL    HW224057   5.260   2.571   6.086
 7720SOL     OW24058   4.670   6.387   1.313
 7720SOL    HW124059   4.598   6.319   1.296
 7720SOL    HW224060   4.648   6.438   1.396
 7721SOL     OW24061   0.514   4.839   3.816
 7721SOL    HW124062   0.569   4.921   3.805
 7721SOL    HW224063   0.441   4.856   3.882
 7722SOL     OW24064   0.606   5.735   3.491
 7722SOL    HW124065   0.531   5.797   3.513
 7722SOL    HW224066   0.677   5.784   3.442
 7723SOL     OW24067   0.135   2.482   5.900
 7723SOL    HW124068   0.163   2.390   5.875
 7723SOL    HW224069   0.175   2.548   5.836
 7724SOL     OW24070   2.937   5.923   6.982
 7724SOL    HW124071   2.979   5.870   6.908
 7724SOL    HW224072   2.842   5.943   6.958
 7725SOL     OW24073   4.890   4.385   3.376
 7725SOL    HW124074   4.970   4.328   3.359
 7725SOL    HW224075   4.820   4.332   3.424
 7726SOL     OW24076   5.230   6.274   3.231
 7726SOL    HW124077   5.281   6.297   3.314
 7726SOL    HW224078   5.144   6.324   3.230
 7727SOL     OW24079   6.003   3.639   2.433
 7727SOL    HW124080   6.039   3.731   2.421
 7727SOL    HW224081   6.010   3.612   2.529
 7728SOL     OW24082   2.031   3.342   2.910
 7728SOL    HW124083   1.952   3.378   2.860
 7728SOL    HW224084   2.081   3.278   2.851
 7729SOL     OW24085   5.586   1.226   6.011
 7729SOL    HW124086   5.680   1.260   6.021
 7729SOL    HW224087   5.561   1.174   6.092
 7730SOL     OW24088   4.392   5.978   3.202
 7730SOL    HW124089   4.405   6.023   3.290
 7730SOL    HW224090   4.303   6.003   3.164
 7731SOL     OW24091   6.320   1.263   3.557
 7731SOL    HW124092   6.337   1.189   3.492
 7731SOL    HW224093   6.407   1.295   3.595
 7732SOL     OW24094   4.067   4.772   0.909
 7732SOL    HW124095   4.074   4.823   0.994
 7732SOL    HW224096   4.084   4.833   0.832
 7733SOL     OW24097   3.830   5.428   1.547
 7733SOL    HW124098   3.815   5.465   1.456
 7733SOL    HW224099   3.883   5.343   1.541
 7734SOL     OW24100   0.957   2.956   2.315
 7734SOL    HW124101   1.015   2.934   2.393
 7734SOL    HW224102   0.960   3.055   2.297
 7735SOL     OW24103   5.880   4.098   0.599
 7735SOL    HW124104   5.954   4.074   0.662
 7735SOL    HW224105   5.794   4.107   0.649
 7736SOL     OW24106   5.783   4.612   6.792
 7736SOL    HW124107   5.851   4.588   6.723
 7736SOL    HW224108   5.826   4.667   6.864
 7737SOL     OW24109   5.056   3.242   6.765
 7737SOL    HW124110   4.996   3.234   6.685
 7737SOL    HW224111   5.127   3.310   6.747
 7738SOL     OW24112   1.667   4.697   6.227
 7738SOL    HW124113   1.606   4.645   6.287
 7738SOL    HW224114   1.661   4.660   6.134
 7739SOL     OW24115   6.131   4.738   2.237
 7739SOL    HW124116   6.152   4.722   2.141
 7739SOL    HW224117   6.073   4.819   2.246
 7740SOL     OW24118   6.726   5.975   3.467
 7740SOL    HW124119   6.662   6.028   3.522
 7740SOL    HW224120   6.769   6.035   3.399
 7741SOL     OW24121   2.230   5.614   3.604
 7741SOL    HW124122   2.210   5.516   3.600
 7741SOL    HW224123   2.329   5.628   3.607
 7742SOL     OW24124   6.830   0.722   4.399
 7742SOL    HW124125   6.857   0.814   4.370
 7742SOL    HW224126   6.911   0.671   4.426
 7743SOL     OW24127   4.894   3.592   2.068
 7743SOL    HW124128   4.959   3.566   2.140
 7743SOL    HW224129   4.807   3.545   2.083
 7744SOL     OW24130   0.150   6.522   3.296
 7744SOL    HW124131   0.215   6.473   3.238
 7744SOL    HW224132   0.175   6.618   3.301
 7745SOL     OW24133   6.470   2.678   5.500
 7745SOL    HW124134   6.438   2.705   5.409
 7745SOL    HW224135   6.464   2.755   5.562
 7746SOL     OW24136   1.766   0.516   6.311
 7746SOL    HW124137   1.730   0.585   6.373
 7746SOL    HW224138   1.747   0.425   6.348
 7747SOL     OW24139   4.602   4.869   0.743
 7747SOL    HW124140   4.666   4.852   0.818
 7747SOL    HW224141   4.598   4.967   0.725
 7748SOL     OW24142   1.255   3.822   6.710
 7748SOL    HW124143   1.335   3.787   6.759
 7748SOL    HW224144   1.209   3.891   6.766
 7749SOL     OW24145   5.778   3.058   5.671
 7749SOL    HW124146   5.730   3.101   5.594
 7749SOL    HW224147   5.768   2.959   5.664
 7750SOL     OW24148   3.840   5.781   2.876
 7750SOL    HW124149   3.794   5.752   2.960
 7750SOL    HW224150   3.820   5.877   2.858
 7751SOL     OW24151   1.058   2.371   1.395
 7751SOL    HW124152   1.074   2.427   1.477
 7751SOL    HW224153   1.134   2.309   1.382
 7752SOL     OW24154   2.631   1.302   2.505
 7752SOL    HW124155   2.580   1.271   2.425
 7752SOL    HW224156   2.726   1.318   2.481
 7753SOL     OW24157   5.037   0.410   4.971
 7753SOL    HW124158   5.105   0.455   4.914
 7753SOL    HW224159   4.946   0.444   4.947
 7754SOL     OW24160   4.441   6.215   1.259
 7754SOL    HW124161   4.429   6.242   1.164
 7754SOL    HW224162   4.395   6.128   1.276
 7755SOL     OW24163   1.564   3.026   5.965
 7755SOL    HW124164   1.629   2.991   6.033
 7755SOL    HW224165   1.591   3.119   5.938
 7756SOL     OW24166   1.349   4.405   2.126
 7756SOL    HW124167   1.402   4.325   2.154
 7756SOL    HW224168   1.412   4.481   2.109
 7757SOL     OW24169   0.370   4.306   0.591
 7757SOL    HW124170   0.425   4.233   0.551
 7757SOL    HW224171   0.351   4.286   0.687
 7758SOL     OW24172   6.899   1.429   5.027
 7758SOL    HW124173   6.815   1.482   5.023
 7758SOL    HW224174   6.884   1.345   5.078
 7759SOL     OW24175   3.328   1.036   2.611
 7759SOL    HW124176   3.245   1.072   2.654
 7759SOL    HW224177   3.397   1.108   2.607
 7760SOL     OW24178   5.341   2.891   0.721
 7760SOL    HW124179   5.376   2.800   0.744
 7760SOL    HW224180   5.418   2.955   0.714
 7761SOL     OW24181   4.818   5.153   2.841
 7761SOL    HW124182   4.892   5.216   2.819
 7761SOL    HW224183   4.799   5.095   2.762
 7762SOL     OW24184   4.754   1.120   6.950
 7762SOL    HW124185   4.689   1.070   7.006
 7762SOL    HW224186   4.705   1.189   6.896
 7763SOL     OW24187   1.480   0.732   3.011
 7763SOL    HW124188   1.567   0.729   3.060
 7763SOL    HW224189   1.414   0.671   3.056
 7764SOL     OW24190   3.793   4.325   5.361
 7764SOL    HW124191   3.887   4.297   5.381
 7764SOL    HW224192   3.794   4.413   5.313
 7765SOL     OW24193   6.181   4.261   4.006
 7765SOL    HW124194   6.238   4.201   4.063
 7765SOL    HW224195   6.239   4.322   3.953
 7766SOL     OW24196   0.392   2.988   5.488
 7766SOL    HW124197   0.434   2.900   5.467
 7766SOL    HW224198   0.444   3.032   5.561
 7767SOL     OW24199   4.066   0.552   2.969
 7767SOL    HW124200   4.102   0.589   2.884
 7767SOL    HW224201   4.140   0.540   3.035
 7768SOL     OW24202   3.179   6.157   4.131
 7768SOL    HW124203   3.199   6.066   4.095
 7768SOL    HW224204   3.240   6.175   4.209
 7769SOL     OW24205   4.030   1.666   6.042
 7769SOL    HW124206   3.936   1.678   6.010
 7769SOL    HW224207   4.093   1.677   5.964
 7770SOL     OW24208   1.330   2.770   3.523
 7770SOL    HW124209   1.409   2.821   3.489
 7770SOL    HW224210   1.332   2.677   3.487
 7771SOL     OW24211   1.140   3.026   5.169
 7771SOL    HW124212   1.167   3.015   5.073
 7771SOL    HW224213   1.041   3.036   5.175
 7772SOL     OW24214   5.358   6.840   1.923
 7772SOL    HW124215   5.372   6.792   2.010
 7772SOL    HW224216   5.294   6.789   1.866
 7773SOL     OW24217   2.500   0.199   5.964
 7773SOL    HW124218   2.554   0.277   5.994
 7773SOL    HW224219   2.448   0.162   6.041
 7774SOL     OW24220   5.255   1.237   2.333
 7774SOL    HW124221   5.289   1.313   2.277
 7774SOL    HW224222   5.284   1.150   2.292
 7775SOL     OW24223   4.116   2.393   1.509
 7775SOL    HW124224   4.042   2.343   1.465
 7775SOL    HW224225   4.078   2.452   1.580
 7776SOL     OW24226   2.798   1.761   3.788
 7776SOL    HW124227   2.793   1.762   3.887
 7776SOL    HW224228   2.875   1.704   3.759
 7777SOL     OW24229   5.033   4.616   2.929
 7777SOL    HW124230   5.036   4.566   2.842
 7777SOL    HW224231   4.964   4.574   2.988
 7778SOL     OW24232   0.908   3.481   1.953
 7778SOL    HW124233   0.972   3.535   2.008
 7778SOL    HW224234   0.914   3.510   1.857
 7779SOL     OW24235   2.234   1.369   4.175
 7779SOL    HW124236   2.212   1.272   4.183
 7779SOL    HW224237   2.274   1.402   4.260
 7780SOL     OW24238   6.630   5.881   3.958
 7780SOL    HW124239   6.597   5.974   3.977
 7780SOL    HW224240   6.666   5.877   3.865
 7781SOL     OW24241   3.332   3.164   1.550
 7781SOL    HW124242   3.264   3.227   1.513
 7781SOL    HW224243   3.371   3.201   1.634
 7782SOL     OW24244   5.273   5.296   3.153
 7782SOL    HW124245   5.275   5.341   3.064
 7782SOL    HW224246   5.283   5.364   3.226
 7783SOL     OW24247   0.374   6.554   3.622
 7783SOL    HW124248   0.351   6.488   3.693
 7783SOL    HW224249   0.348   6.646   3.652
 7784SOL     OW24250   0.494   2.930   2.339
 7784SOL    HW124251   0.568   2.863   2.340
 7784SOL    HW224252   0.467   2.948   2.244
 7785SOL     OW24253   5.961   0.558   2.640
 7785SOL    HW124254   6.044   0.607   2.669
 7785SOL    HW224255   5.939   0.584   2.546
 7786SOL     OW24256   5.668   0.758   6.115
 7786SOL    HW124257   5.650   0.760   6.017
 7786SOL    HW224258   5.702   0.667   6.140
 7787SOL     OW24259   0.805   2.019   0.995
 7787SOL    HW124260   0.777   1.948   0.931
 7787SOL    HW224261   0.889   2.062   0.961
 7788SOL     OW24262   0.821   4.159   2.566
 7788SOL    HW124263   0.737   4.209   2.544
 7788SOL    HW224264   0.837   4.163   2.665
 7789SOL     OW24265   4.071   6.837   6.574
 7789SOL    HW124266   4.033   6.880   6.492
 7789SOL    HW224267   4.088   6.907   6.643
 7790SOL     OW24268   4.086   4.837   4.956
 7790SOL    HW124269   4.043   4.811   5.043
 7790SOL    HW224270   4.040   4.917   4.919
 7791SOL     OW24271   2.066   6.302   1.400
 7791SOL    HW124272   2.049   6.204   1.401
 7791SOL    HW224273   2.020   6.343   1.321
 7792SOL     OW24274   1.316   1.609   1.677
 7792SOL    HW124275   1.352   1.564   1.596
 7792SOL    HW224276   1.282   1.701   1.654
 7793SOL     OW24277   4.899   1.194   0.810
 7793SOL    HW124278   4.906   1.216   0.712
 7793SOL    HW224279   4.952   1.260   0.862
 7794SOL     OW24280   1.240   1.865   2.880
 7794SOL    HW124281   1.312   1.839   2.816
 7794SOL    HW224282   1.198   1.783   2.918
 7795SOL     OW24283   4.728   3.203   1.163
 7795SOL    HW124284   4.719   3.173   1.259
 7795SOL    HW224285   4.792   3.142   1.116
 7796SOL     OW24286   3.892   1.683   0.198
 7796SOL    HW124287   3.807   1.721   0.162
 7796SOL    HW224288   3.896   1.585   0.178
 7797SOL     OW24289   1.626   6.115   2.772
 7797SOL    HW124290   1.572   6.130   2.689
 7797SOL    HW224291   1.578   6.050   2.831
 7798SOL     OW24292   2.249   2.644   0.821
 7798SOL    HW124293   2.214   2.594   0.900
 7798SOL    HW224294   2.176   2.700   0.783
 7799SOL     OW24295   2.615   6.154   4.325
 7799SOL    HW124296   2.518   6.149   4.348
 7799SOL    HW224297   2.631   6.230   4.262
 7800SOL     OW24298   0.484   1.322   1.745
 7800SOL    HW124299   0.502   1.322   1.647
 7800SOL    HW224300   0.414   1.255   1.767
 7801SOL     OW24301   2.748   2.635   0.975
 7801SOL    HW124302   2.827   2.575   0.989
 7801SOL    HW224303   2.703   2.612   0.889
 7802SOL     OW24304   0.051   4.651   4.399
 7802SOL    HW124305   0.086   4.589   4.470
 7802SOL    HW224306   0.031   4.599   4.316
 7803SOL     OW24307   3.006   2.101   6.433
 7803SOL    HW124308   2.910   2.079   6.419
 7803SOL    HW224309   3.037   2.062   6.519
 7804SOL     OW24310   3.289   1.678   5.308
 7804SOL    HW124311   3.360   1.609   5.293
 7804SOL    HW224312   3.238   1.692   5.223
 7805SOL     OW24313   6.978   1.870   6.431
 7805SOL    HW124314   0.031   1.887   6.370
 7805SOL    HW224315   6.899   1.924   6.402
 7806SOL     OW24316   6.551   2.980   5.163
 7806SOL    HW124317   6.507   2.891   5.180
 7806SOL    HW224318   6.482   3.046   5.135
 7807SOL     OW24319   2.425   6.553   5.462
 7807SOL    HW124320   2.420   6.553   5.562
 7807SOL    HW224321   2.511   6.511   5.433
 7808SOL     OW24322   0.489   3.120   4.623
 7808SOL    HW124323   0.544   3.096   4.702
 7808SOL    HW224324   0.485   3.219   4.614
 7809SOL     OW24325   2.855   0.459   2.896
 7809SOL    HW124326   2.805   0.528   2.845
 7809SOL    HW224327   2.862   0.487   2.992
 7810SOL     OW24328   2.702   6.745   5.610
 7810SOL    HW124329   2.618   6.725   5.660
 7810SOL    HW224330   2.689   6.827   5.554
 7811SOL     OW24331   1.294   5.802   3.141
 7811SOL    HW124332   1.320   5.706   3.131
 7811SOL    HW224333   1.195   5.809   3.149
 7812SOL     OW24334   3.202   0.228   5.668
 7812SOL    HW124335   3.189   0.266   5.576
 7812SOL    HW224336   3.280   0.166   5.668
 7813SOL     OW24337   4.942   1.231   0.548
 7813SOL    HW124338   4.947   1.150   0.490
 7813SOL    HW224339   4.990   1.307   0.504
 7814SOL     OW24340   6.697   1.997   1.500
 7814SOL    HW124341   6.630   2.002   1.425
 7814SOL    HW224342   6.652   1.962   1.582
 7815SOL     OW24343   4.749   5.713   3.633
 7815SOL    HW124344   4.801   5.641   3.585
 7815SOL    HW224345   4.693   5.763   3.567
 7816SOL     OW24346   1.468   1.177   5.559
 7816SOL    HW124347   1.391   1.213   5.506
 7816SOL    HW224348   1.454   1.079   5.576
 7817SOL     OW24349   5.171   0.859   5.603
 7817SOL    HW124350   5.079   0.825   5.620
 7817SOL    HW224351   5.224   0.788   5.555
 7818SOL     OW24352   3.868   6.984   3.257
 7818SOL    HW124353   3.870   6.945   3.165
 7818SOL    HW224354   3.956   0.002   3.277
 7819SOL     OW24355   2.950   2.282   4.067
 7819SOL    HW124356   3.044   2.304   4.042
 7819SOL    HW224357   2.941   2.283   4.167
 7820SOL     OW24358   1.927   0.653   6.875
 7820SOL    HW124359   1.966   0.696   6.956
 7820SOL    HW224360   2.001   0.622   6.814
 7821SOL     OW24361   2.781   6.110   5.607
 7821SOL    HW124362   2.851   6.042   5.629
 7821SOL    HW224363   2.706   6.102   5.673
 7822SOL     OW24364   0.545   1.516   4.586
 7822SOL    HW124365   0.590   1.602   4.565
 7822SOL    HW224366   0.610   1.454   4.631
 7823SOL     OW24367   1.833   2.173   5.093
 7823SOL    HW124368   1.875   2.264   5.093
 7823SOL    HW224369   1.783   2.159   5.008
 7824SOL     OW24370   6.365   4.461   3.039
 7824SOL    HW124371   6.281   4.412   3.015
 7824SOL    HW224372   6.424   4.401   3.093
 7825SOL     OW24373   3.070   3.819   3.773
 7825SOL    HW124374   2.992   3.788   3.719
 7825SOL    HW224375   3.038   3.878   3.847
 7826SOL     OW24376   6.243   6.916   0.806
 7826SOL    HW124377   6.243   6.904   0.905
 7826SOL    HW224378   6.214   7.009   0.784
 7827SOL     OW24379   4.750   3.492   0.272
 7827SOL    HW124380   4.748   3.466   0.175
 7827SOL    HW224381   4.658   3.518   0.301
 7828SOL     OW24382   0.766   5.360   0.210
 7828SOL    HW124383   0.786   5.355   0.308
 7828SOL    HW224384   0.742   5.453   0.185
 7829SOL     OW24385   3.318   3.931   2.882
 7829SOL    HW124386   3.279   3.990   2.811
 7829SOL    HW224387   3.261   3.850   2.893
 7830SOL     OW24388   0.059   4.847   0.152
 7830SOL    HW124389   0.120   4.771   0.128
 7830SOL    HW224390   0.086   4.929   0.102
 7831SOL     OW24391   3.242   3.814   0.423
 7831SOL    HW124392   3.148   3.781   0.414
 7831SOL    HW224393   3.279   3.786   0.512
 7832SOL     OW24394   4.012   2.870   5.678
 7832SOL    HW124395   4.061   2.850   5.763
 7832SOL    HW224396   3.970   2.787   5.644
 7833SOL     OW24397   6.500   6.462   2.001
 7833SOL    HW124398   6.424   6.526   2.000
 7833SOL    HW224399   6.569   6.491   1.935
 7834SOL     OW24400   4.680   0.993   1.318
 7834SOL    HW124401   4.653   0.951   1.405
 7834SOL    HW224402   4.601   1.036   1.275
 7835SOL     OW24403   2.086   2.315   4.288
 7835SOL    HW124404   2.108   2.218   4.283
 7835SOL    HW224405   2.155   2.368   4.238
 7836SOL     OW24406   2.407   6.872   0.310
 7836SOL    HW124407   2.473   6.931   0.264
 7836SOL    HW224408   2.354   6.822   0.241
 7837SOL     OW24409   5.163   6.778   1.729
 7837SOL    HW124410   5.202   6.713   1.664
 7837SOL    HW224411   5.201   6.869   1.713
 7838SOL     OW24412   3.473   5.209   3.985
 7838SOL    HW124413   3.470   5.202   4.085
 7838SOL    HW224414   3.381   5.196   3.948
 7839SOL     OW24415   0.032   5.675   3.172
 7839SOL    HW124416   0.006   5.579   3.170
 7839SOL    HW224417   0.026   5.710   3.266
 7840SOL     OW24418   4.266   2.876   6.274
 7840SOL    HW124419   4.362   2.874   6.303
 7840SOL    HW224420   4.258   2.932   6.192
 7841SOL     OW24421   1.053   1.321   5.579
 7841SOL    HW124422   1.125   1.284   5.519
 7841SOL    HW224423   1.025   1.411   5.546
 7842SOL     OW24424   0.757   0.930   2.310
 7842SOL    HW124425   0.724   0.836   2.317
 7842SOL    HW224426   0.811   0.941   2.227
 7843SOL     OW24427   6.544   2.036   2.072
 7843SOL    HW124428   6.539   1.937   2.058
 7843SOL    HW224429   6.460   2.079   2.036
 7844SOL     OW24430   3.751   1.559   2.853
 7844SOL    HW124431   3.734   1.631   2.785
 7844SOL    HW224432   3.689   1.571   2.930
 7845SOL     OW24433   1.131   0.787   4.607
 7845SOL    HW124434   1.157   0.752   4.517
 7845SOL    HW224435   1.165   0.881   4.617
 7846SOL     OW24436   5.285   0.191   2.785
 7846SOL    HW124437   5.215   0.258   2.810
 7846SOL    HW224438   5.249   0.099   2.797
 7847SOL     OW24439   0.859   6.460   5.516
 7847SOL    HW124440   0.939   6.503   5.475
 7847SOL    HW224441   0.833   6.509   5.599
 7848SOL     OW24442   4.245   2.925   1.272
 7848SOL    HW124443   4.266   2.837   1.315
 7848SOL    HW224444   4.182   2.977   1.330
 7849SOL     OW24445   6.683   4.759   5.830
 7849SOL    HW124446   6.640   4.731   5.916
 7849SOL    HW224447   6.612   4.790   5.766
 7850SOL     OW24448   1.476   2.924   5.218
 7850SOL    HW124449   1.430   2.853   5.166
 7850SOL    HW224450   1.464   2.908   5.316
 7851SOL     OW24451   2.632   6.204   0.511
 7851SOL    HW124452   2.624   6.232   0.415
 7851SOL    HW224453   2.710   6.250   0.553
 7852SOL     OW24454   2.663   6.498   0.414
 7852SOL    HW124455   2.722   6.454   0.482
 7852SOL    HW224456   2.615   6.575   0.457
 7853SOL     OW24457   2.847   2.106   6.872
 7853SOL    HW124458   2.885   2.095   6.780
 7853SOL    HW224459   2.764   2.051   6.881
 7854SOL     OW24460   3.889   4.001   4.750
 7854SOL    HW124461   3.867   4.051   4.666
 7854SOL    HW224462   3.929   4.065   4.816
 7855SOL     OW24463   3.222   6.900   5.016
 7855SOL    HW124464   3.201   6.939   5.105
 7855SOL    HW224465   3.281   6.820   5.027
 7856SOL     OW24466   2.632   2.410   5.949
 7856SOL    HW124467   2.614   2.365   6.036
 7856SOL    HW224468   2.560   2.477   5.929
 7857SOL     OW24469   0.484   3.566   4.820
 7857SOL    HW124470   0.574   3.566   4.776
 7857SOL    HW224471   0.496   3.570   4.920
 7858SOL     OW24472   5.236   2.821   3.410
 7858SOL    HW124473   5.316   2.786   3.460
 7858SOL    HW224474   5.221   2.917   3.436
 7859SOL     OW24475   6.860   6.581   0.117
 7859SOL    HW124476   6.859   6.524   0.035
 7859SOL    HW224477   6.831   6.526   0.196
 7860SOL     OW24478   4.257   7.004   0.052
 7860SOL    HW124479   4.212   6.917   0.072
 7860SOL    HW224480   4.356   6.991   0.050
 7861SOL     OW24481   6.277   3.935   0.294
 7861SOL    HW124482   6.341   3.862   0.272
 7861SOL    HW224483   6.312   3.987   0.372
 7862SOL     OW24484   3.087   4.637   1.676
 7862SOL    HW124485   3.042   4.593   1.754
 7862SOL    HW224486   3.123   4.726   1.705
 7863SOL     OW24487   4.543   5.889   2.309
 7863SOL    HW124488   4.615   5.853   2.368
 7863SOL    HW224489   4.565   5.982   2.280
 7864SOL     OW24490   2.292   5.678   5.333
 7864SOL    HW124491   2.215   5.667   5.271
 7864SOL    HW224492   2.278   5.758   5.391
 7865SOL     OW24493   4.580   0.321   3.108
 7865SOL    HW124494   4.497   0.286   3.064
 7865SOL    HW224495   4.583   0.288   3.203
 7866SOL     OW24496   2.834   0.336   5.440
 7866SOL    HW124497   2.806   0.420   5.486
 7866SOL    HW224498   2.933   0.337   5.428
 7867SOL     OW24499   6.933   2.382   0.202
 7867SOL    HW124500   6.837   2.364   0.223
 7867SOL    HW224501   6.989   2.303   0.227
 7868SOL     OW24502   5.468   0.171   1.466
 7868SOL    HW124503   5.479   0.270   1.456
 7868SOL    HW224504   5.550   0.125   1.430
 7869SOL     OW24505   5.924   1.859   4.314
 7869SOL    HW124506   5.985   1.820   4.382
 7869SOL    HW224507   5.974   1.875   4.229
 7870SOL     OW24508   5.886   0.299   3.487
 7870SOL    HW124509   5.963   0.330   3.431
 7870SOL    HW224510   5.837   0.379   3.522
 7871SOL     OW24511   5.705   2.422   3.020
 7871SOL    HW124512   5.746   2.331   3.012
 7871SOL    HW224513   5.758   2.487   2.965
 7872SOL     OW24514   5.351   4.227   3.764
 7872SOL    HW124515   5.393   4.288   3.697
 7872SOL    HW224516   5.404   4.228   3.849
 7873SOL     OW24517   6.994   6.268   4.550
 7873SOL    HW124518   6.988   6.333   4.474
 7873SOL    HW224519   0.066   6.249   4.569
 7874SOL     OW24520   5.891   6.330   0.327
 7874SOL    HW124521   5.851   6.241   0.350
 7874SOL    HW224522   5.986   6.333   0.359
 7875SOL     OW24523   5.316   2.574   0.621
 7875SOL    HW124524   5.365   2.571   0.534
 7875SOL    HW224525   5.218   2.561   0.605
 7876SOL     OW24526   6.851   2.888   5.235
 7876SOL    HW124527   6.943   2.851   5.244
 7876SOL    HW224528   6.853   2.968   5.175
 7877SOL     OW24529   5.945   3.679   1.195
 7877SOL    HW124530   5.859   3.655   1.148
 7877SOL    HW224531   5.986   3.596   1.233
 7878SOL     OW24532   4.067   3.691   2.336
 7878SOL    HW124533   4.012   3.771   2.314
 7878SOL    HW224534   4.103   3.699   2.428
 7879SOL     OW24535   6.599   1.463   5.632
 7879SOL    HW124536   6.525   1.466   5.700
 7879SOL    HW224537   6.590   1.541   5.570
 7880SOL     OW24538   1.988   6.110   6.436
 7880SOL    HW124539   2.038   6.024   6.450
 7880SOL    HW224540   2.009   6.145   6.345
 7881SOL     OW24541   0.020   4.811   5.494
 7881SOL    HW124542   6.951   4.837   5.521
 7881SOL    HW224543   0.086   4.857   5.555
 7882SOL     OW24544   1.075   4.808   0.692
 7882SOL    HW124545   1.089   4.777   0.786
 7882SOL    HW224546   1.066   4.728   0.632
 7883SOL     OW24547   3.071   2.190   2.751
 7883SOL    HW124548   3.016   2.199   2.668
 7883SOL    HW224549   3.023   2.232   2.828
 7884SOL     OW24550   6.538   2.327   5.709
 7884SOL    HW124551   6.459   2.354   5.653
 7884SOL    HW224552   6.580   2.245   5.670
 7885SOL     OW24553   4.734   4.739   2.139
 7885SOL    HW124554   4.639   4.737   2.108
 7885SOL    HW224555   4.743   4.804   2.215
 7886SOL     OW24556   3.808   5.196   3.465
 7886SOL    HW124557   3.800   5.179   3.367
 7886SOL    HW224558   3.903   5.181   3.493
 7887SOL     OW24559   0.255   3.537   0.801
 7887SOL    HW124560   0.255   3.447   0.758
 7887SOL    HW224561   0.301   3.603   0.742
 7888SOL     OW24562   0.570   1.069   5.309
 7888SOL    HW124563   0.533   1.137   5.246
 7888SOL    HW224564   0.515   1.066   5.392
 7889SOL     OW24565   6.127   4.621   0.502
 7889SOL    HW124566   6.037   4.650   0.472
 7889SOL    HW224567   6.158   4.544   0.445
 7890SOL     OW24568   1.208   2.535   1.889
 7890SOL    HW124569   1.120   2.521   1.934
 7890SOL    HW224570   1.243   2.626   1.911
 7891SOL     OW24571   6.908   1.159   5.309
 7891SOL    HW124572   6.986   1.178   5.369
 7891SOL    HW224573   6.932   1.087   5.245
 7892SOL     OW24574   0.515   2.120   4.643
 7892SOL    HW124575   0.610   2.114   4.610
 7892SOL    HW224576   0.510   2.082   4.735
 7893SOL     OW24577   6.066   6.134   0.622
 7893SOL    HW124578   6.144   6.186   0.655
 7893SOL    HW224579   6.093   6.038   0.608
 7894SOL     OW24580   3.011   7.020   6.181
 7894SOL    HW124581   3.027   0.088   6.147
 7894SOL    HW224582   2.945   6.974   6.122
 7895SOL     OW24583   4.943   0.105   2.347
 7895SOL    HW124584   5.000   0.144   2.275
 7895SOL    HW224585   4.962   0.151   2.434
 7896SOL     OW24586   2.722   1.805   1.382
 7896SOL    HW124587   2.624   1.822   1.375
 7896SOL    HW224588   2.768   1.888   1.412
 7897SOL     OW24589   5.073   1.052   1.524
 7897SOL    HW124590   5.162   1.073   1.484
 7897SOL    HW224591   5.006   1.118   1.493
 7898SOL     OW24592   3.729   6.108   3.325
 7898SOL    HW124593   3.643   6.073   3.287
 7898SOL    HW224594   3.723   6.110   3.425
 7899SOL     OW24595   5.571   4.756   2.556
 7899SOL    HW124596   5.577   4.792   2.649
 7899SOL    HW224597   5.514   4.674   2.556
 7900SOL     OW24598   0.301   4.252   0.867
 7900SOL    HW124599   0.390   4.207   0.871
 7900SOL    HW224600   0.287   4.306   0.951
 7901SOL     OW24601   0.277   3.379   6.306
 7901SOL    HW124602   0.228   3.319   6.242
 7901SOL    HW224603   0.245   3.362   6.399
 7902SOL     OW24604   1.498   0.994   1.541
 7902SOL    HW124605   1.410   0.946   1.548
 7902SOL    HW224606   1.489   1.084   1.583
 7903SOL     OW24607   3.308   2.189   5.674
 7903SOL    HW124608   3.314   2.283   5.639
 7903SOL    HW224609   3.316   2.125   5.598
 7904SOL     OW24610   5.704   3.299   3.064
 7904SOL    HW124611   5.761   3.366   3.017
 7904SOL    HW224612   5.755   3.213   3.073
 7905SOL     OW24613   6.696   2.071   0.974
 7905SOL    HW124614   6.696   1.973   0.992
 7905SOL    HW224615   6.660   2.120   1.054
 7906SOL     OW24616   6.868   6.009   6.104
 7906SOL    HW124617   6.953   6.059   6.123
 7906SOL    HW224618   6.804   6.025   6.179
 7907SOL     OW24619   5.067   5.673   2.945
 7907SOL    HW124620   5.027   5.675   2.854
 7907SOL    HW224621   5.128   5.751   2.957
 7908SOL     OW24622   1.730   6.993   6.422
 7908SOL    HW124623   1.632   6.990   6.401
 7908SOL    HW224624   1.757   0.062   6.445
 7909SOL     OW24625   0.093   3.997   3.253
 7909SOL    HW124626   0.085   4.096   3.242
 7909SOL    HW224627   0.050   3.951   3.175
 7910SOL     OW24628   1.446   4.081   4.252
 7910SOL    HW124629   1.349   4.097   4.231
 7910SOL    HW224630   1.479   4.003   4.200
 7911SOL     OW24631   5.766   4.132   6.358
 7911SOL    HW124632   5.842   4.144   6.294
 7911SOL    HW224633   5.681   4.118   6.307
 7912SOL     OW24634   5.826   5.608   1.655
 7912SOL    HW124635   5.757   5.666   1.611
 7912SOL    HW224636   5.859   5.652   1.738
 7913SOL     OW24637   0.912   3.851   6.623
 7913SOL    HW124638   1.004   3.841   6.586
 7913SOL    HW224639   0.916   3.848   6.723
 7914SOL     OW24640   1.348   0.107   4.796
 7914SOL    HW124641   1.391   0.080   4.709
 7914SOL    HW224642   1.358   0.205   4.809
 7915SOL     OW24643   2.665   6.206   1.661
 7915SOL    HW124644   2.566   6.221   1.655
 7915SOL    HW224645   2.713   6.294   1.663
 7916SOL     OW24646   2.061   0.382   2.786
 7916SOL    HW124647   2.156   0.385   2.754
 7916SOL    HW224648   2.003   0.346   2.712
 7917SOL     OW24649   4.524   1.097   2.794
 7917SOL    HW124650   4.525   1.145   2.707
 7917SOL    HW224651   4.605   1.121   2.847
 7918SOL     OW24652   1.490   2.641   2.706
 7918SOL    HW124653   1.530   2.556   2.673
 7918SOL    HW224654   1.455   2.627   2.799
 7919SOL     OW24655   1.027   0.403   4.397
 7919SOL    HW124656   0.998   0.498   4.399
 7919SOL    HW224657   1.046   0.376   4.302
 7920SOL     OW24658   5.002   6.921   1.324
 7920SOL    HW124659   5.061   6.997   1.352
 7920SOL    HW224660   5.030   6.888   1.234
 7921SOL     OW24661   6.468   3.407   1.028
 7921SOL    HW124662   6.481   3.479   0.960
 7921SOL    HW224663   6.429   3.446   1.111
 7922SOL     OW24664   2.194   6.808   3.267
 7922SOL    HW124665   2.183   6.728   3.327
 7922SOL    HW224666   2.109   6.859   3.262
 7923SOL     OW24667   5.428   0.218   6.749
 7923SOL    HW124668   5.433   0.309   6.709
 7923SOL    HW224669   5.404   0.225   6.845
 7924SOL     OW24670   5.448   5.637   6.859
 7924SOL    HW124671   5.480   5.557   6.909
 7924SOL    HW224672   5.362   5.668   6.899
 7925SOL     OW24673   2.414   4.351   6.462
 7925SOL    HW124674   2.502   4.397   6.477
 7925SOL    HW224675   2.396   4.288   6.538
 7926SOL     OW24676   4.891   5.691   0.293
 7926SOL    HW124677   4.861   5.601   0.261
 7926SOL    HW224678   4.823   5.760   0.266
 7927SOL     OW24679   4.837   6.882   3.896
 7927SOL    HW124680   4.897   6.962   3.893
 7927SOL    HW224681   4.889   6.803   3.928
 7928SOL     OW24682   5.538   2.998   3.954
 7928SOL    HW124683   5.487   2.951   4.026
 7928SOL    HW224684   5.499   3.089   3.939
 7929SOL     OW24685   4.510   4.225   5.581
 7929SOL    HW124686   4.523   4.146   5.641
 7929SOL    HW224687   4.464   4.196   5.497
 7930SOL     OW24688   3.498   5.230   0.956
 7930SOL    HW124689   3.512   5.135   0.982
 7930SOL    HW224690   3.586   5.269   0.927
 7931SOL     OW24691   5.485   0.805   0.263
 7931SOL    HW124692   5.464   0.890   0.311
 7931SOL    HW224693   5.495   0.731   0.330
 7932SOL     OW24694   0.854   3.454   0.685
 7932SOL    HW124695   0.810   3.505   0.611
 7932SOL    HW224696   0.952   3.450   0.669
 7933SOL     OW24697   2.286   1.402   0.033
 7933SOL    HW124698   2.362   1.353   7.015
 7933SOL    HW224699   2.315   1.495   0.058
 7934SOL     OW24700   6.622   5.223   0.455
 7934SOL    HW124701   6.694   5.269   0.508
 7934SOL    HW224702   6.603   5.275   0.372
 7935SOL     OW24703   6.079   4.347   3.691
 7935SOL    HW124704   6.141   4.420   3.719
 7935SOL    HW224705   6.009   4.384   3.630
 7936SOL     OW24706   2.127   5.643   4.064
 7936SOL    HW124707   2.171   5.553   4.056
 7936SOL    HW224708   2.123   5.687   3.974
 7937SOL     OW24709   4.076   0.693   1.609
 7937SOL    HW124710   4.090   0.708   1.511
 7937SOL    HW224711   4.136   0.753   1.661
 7938SOL     OW24712   1.733   0.051   3.423
 7938SOL    HW124713   1.644   0.096   3.432
 7938SOL    HW224714   1.805   0.121   3.419
 7939SOL     OW24715   1.912   0.289   3.864
 7939SOL    HW124716   1.985   0.303   3.797
 7939SOL    HW224717   1.876   0.196   3.855
 7940SOL     OW24718   6.658   0.975   5.881
 7940SOL    HW124719   6.560   0.993   5.872
 7940SOL    HW224720   6.709   1.041   5.826
 7941SOL     OW24721   2.761   0.456   1.037
 7941SOL    HW124722   2.737   0.386   0.969
 7941SOL    HW224723   2.735   0.546   1.002
 7942SOL     OW24724   1.695   3.476   0.779
 7942SOL    HW124725   1.597   3.470   0.759
 7942SOL    HW224726   1.709   3.492   0.876
 7943SOL     OW24727   1.590   5.722   6.598
 7943SOL    HW124728   1.510   5.742   6.654
 7943SOL    HW224729   1.636   5.807   6.573
 7944SOL     OW24730   1.252   2.006   0.683
 7944SOL    HW124731   1.240   1.929   0.745
 7944SOL    HW224732   1.336   2.056   0.707
 7945SOL     OW24733   6.335   4.583   3.596
 7945SOL    HW124734   6.391   4.652   3.549
 7945SOL    HW224735   6.290   4.525   3.528
 7946SOL     OW24736   5.506   1.337   5.587
 7946SOL    HW124737   5.467   1.418   5.631
 7946SOL    HW224738   5.488   1.257   5.644
 7947SOL     OW24739   0.878   4.136   0.196
 7947SOL    HW124740   0.861   4.191   0.114
 7947SOL    HW224741   0.824   4.052   0.191
 7948SOL     OW24742   1.528   5.859   1.042
 7948SOL    HW124743   1.567   5.776   1.082
 7948SOL    HW224744   1.465   5.834   0.968
 7949SOL     OW24745   3.778   5.381   5.381
 7949SOL    HW124746   3.800   5.293   5.338
 7949SOL    HW224747   3.793   5.455   5.315
 7950SOL     OW24748   6.067   2.427   6.439
 7950SOL    HW124749   6.095   2.447   6.533
 7950SOL    HW224750   6.146   2.435   6.378
 7951SOL     OW24751   3.071   0.321   2.813
 7951SOL    HW124752   3.143   0.303   2.880
 7951SOL    HW224753   2.995   0.369   2.858
 7952SOL     OW24754   0.294   3.415   5.460
 7952SOL    HW124755   0.331   3.346   5.397
 7952SOL    HW224756   0.294   3.504   5.415
 7953SOL     OW24757   0.549   0.942   6.840
 7953SOL    HW124758   0.629   0.986   6.799
 7953SOL    HW224759   0.571   0.912   6.932
 7954SOL     OW24760   3.763   2.280   0.869
 7954SOL    HW124761   3.815   2.365   0.872
 7954SOL    HW224762   3.749   2.247   0.962
 7955SOL     OW24763   6.568   6.528   0.007
 7955SOL    HW124764   6.659   6.540   0.048
 7955SOL    HW224765   6.578   6.515   6.932
 7956SOL     OW24766   0.439   6.503   1.375
 7956SOL    HW124767   0.470   6.417   1.416
 7956SOL    HW224768   0.518   6.561   1.356
 7957SOL     OW24769   6.009   2.072   6.423
 7957SOL    HW124770   6.088   2.096   6.367
 7957SOL    HW224771   5.963   2.156   6.454
 7958SOL     OW24772   5.040   2.111   5.947
 7958SOL    HW124773   5.080   2.020   5.942
 7958SOL    HW224774   4.948   2.105   5.986
 7959SOL     OW24775   5.488   2.736   0.389
 7959SOL    HW124776   5.584   2.764   0.384
 7959SOL    HW224777   5.442   2.788   0.461
 7960SOL     OW24778   0.903   3.000   4.769
 7960SOL    HW124779   0.975   2.953   4.717
 7960SOL    HW224780   0.944   3.057   4.839
 7961SOL     OW24781   6.177   0.186   6.059
 7961SOL    HW124782   6.235   0.118   6.105
 7961SOL    HW224783   6.200   0.277   6.093
 7962SOL     OW24784   6.118   0.730   4.592
 7962SOL    HW124785   6.144   0.685   4.677
 7962SOL    HW224786   6.030   0.776   4.604
 7963SOL     OW24787   5.855   6.091   2.672
 7963SOL    HW124788   5.810   6.115   2.759
 7963SOL    HW224789   5.827   5.998   2.646
 7964SOL     OW24790   1.323   4.920   1.840
 7964SOL    HW124791   1.376   4.836   1.845
 7964SOL    HW224792   1.259   4.914   1.763
 7965SOL     OW24793   4.675   1.870   6.495
 7965SOL    HW124794   4.636   1.962   6.493
 7965SOL    HW224795   4.610   1.806   6.454
 7966SOL     OW24796   5.621   3.975   5.264
 7966SOL    HW124797   5.660   3.903   5.322
 7966SOL    HW224798   5.645   4.065   5.302
 7967SOL     OW24799   1.982   4.355   1.776
 7967SOL    HW124800   1.998   4.275   1.718
 7967SOL    HW224801   2.070   4.392   1.807
 7968SOL     OW24802   2.254   2.346   3.178
 7968SOL    HW124803   2.342   2.304   3.198
 7968SOL    HW224804   2.200   2.285   3.120
 7969SOL     OW24805   2.685   4.270   6.297
 7969SOL    HW124806   2.602   4.286   6.352
 7969SOL    HW224807   2.660   4.264   6.200
 7970SOL     OW24808   6.543   2.575   2.836
 7970SOL    HW124809   6.577   2.538   2.750
 7970SOL    HW224810   6.547   2.505   2.908
 7971SOL     OW24811   2.585   0.036   0.161
 7971SOL    HW124812   2.622   0.015   0.070
 7971SOL    HW224813   2.608   0.130   0.186
 7972SOL     OW24814   3.319   2.949   3.994
 7972SOL    HW124815   3.305   2.919   3.899
 7972SOL    HW224816   3.236   2.992   4.028
 7973SOL     OW24817   1.235   5.527   2.271
 7973SOL    HW124818   1.320   5.555   2.315
 7973SOL    HW224819   1.164   5.514   2.341
 7974SOL     OW24820   0.322   3.145   3.989
 7974SOL    HW124821   0.394   3.207   4.019
 7974SOL    HW224822   0.310   3.153   3.890
 7975SOL     OW24823   3.663   0.406   6.471
 7975SOL    HW124824   3.708   0.457   6.397
 7975SOL    HW224825   3.579   0.364   6.437
 7976SOL     OW24826   6.443   0.224   0.633
 7976SOL    HW124827   6.534   0.201   0.665
 7976SOL    HW224828   6.396   0.142   0.601
 7977SOL     OW24829   5.455   5.097   3.152
 7977SOL    HW124830   5.475   5.089   3.054
 7977SOL    HW224831   5.392   5.173   3.168
 7978SOL     OW24832   0.392   4.012   1.596
 7978SOL    HW124833   0.384   3.930   1.540
 7978SOL    HW224834   0.398   3.987   1.692
 7979SOL     OW24835   3.633   2.758   5.802
 7979SOL    HW124836   3.707   2.694   5.824
 7979SOL    HW224837   3.604   2.744   5.707
 7980SOL     OW24838   3.902   5.920   2.622
 7980SOL    HW124839   3.879   5.859   2.698
 7980SOL    HW224840   3.911   6.013   2.657
 7981SOL     OW24841   0.944   2.778   3.734
 7981SOL    HW124842   0.881   2.779   3.657
 7981SOL    HW224843   0.913   2.844   3.803
 7982SOL     OW24844   6.680   6.852   0.640
 7982SOL    HW124845   6.596   6.852   0.586
 7982SOL    HW224846   6.757   6.876   0.582
 7983SOL     OW24847   3.844   1.829   0.793
 7983SOL    HW124848   3.905   1.759   0.756
 7983SOL    HW224849   3.847   1.827   0.893
 7984SOL     OW24850   5.647   1.255   1.863
 7984SOL    HW124851   5.614   1.161   1.863
 7984SOL    HW224852   5.616   1.302   1.780
 7985SOL     OW24853   3.024   3.605   5.976
 7985SOL    HW124854   2.982   3.643   6.059
 7985SOL    HW224855   3.123   3.602   5.988
 7986SOL     OW24856   2.219   1.265   3.656
 7986SOL    HW124857   2.227   1.361   3.630
 7986SOL    HW224858   2.147   1.255   3.725
 7987SOL     OW24859   0.261   2.764   0.181
 7987SOL    HW124860   0.276   2.838   0.247
 7987SOL    HW224861   0.305   2.786   0.094
 7988SOL     OW24862   6.351   0.025   1.934
 7988SOL    HW124863   6.271   0.086   1.936
 7988SOL    HW224864   6.361   7.005   2.023
 7989SOL     OW24865   0.862   5.139   1.773
 7989SOL    HW124866   0.772   5.100   1.792
 7989SOL    HW224867   0.894   5.189   1.854
 7990SOL     OW24868   4.278   4.731   5.446
 7990SOL    HW124869   4.369   4.746   5.486
 7990SOL    HW224870   4.218   4.807   5.469
 7991SOL     OW24871   5.143   0.443   4.358
 7991SOL    HW124872   5.089   0.372   4.313
 7991SOL    HW224873   5.149   0.524   4.300
 7992SOL     OW24874   3.149   0.345   0.540
 7992SOL    HW124875   3.084   0.281   0.582
 7992SOL    HW224876   3.135   0.436   0.578
 7993SOL     OW24877   6.123   4.711   1.149
 7993SOL    HW124878   6.029   4.714   1.114
 7993SOL    HW224879   6.158   4.804   1.161
 7994SOL     OW24880   0.784   0.826   4.928
 7994SOL    HW124881   0.836   0.851   5.010
 7994SOL    HW224882   0.702   0.777   4.954
 7995SOL     OW24883   0.622   5.777   0.326
 7995SOL    HW124884   0.613   5.876   0.317
 7995SOL    HW224885   0.652   5.755   0.419
 7996SOL     OW24886   1.620   6.358   4.053
 7996SOL    HW124887   1.585   6.276   4.098
 7996SOL    HW224888   1.590   6.359   3.957
 7997SOL     OW24889   2.377   0.609   6.104
 7997SOL    HW124890   2.454   0.547   6.118
 7997SOL    HW224891   2.410   0.698   6.074
 7998SOL     OW24892   1.806   2.083   1.959
 7998SOL    HW124893   1.894   2.123   1.933
 7998SOL    HW224894   1.820   1.987   1.984
 7999SOL     OW24895   6.814   0.606   2.545
 7999SOL    HW124896   6.773   0.680   2.598
 7999SOL    HW224897   6.868   0.547   2.606
 8000SOL     OW24898   4.677   5.875   0.261
 8000SOL    HW124899   4.657   5.949   0.326
 8000SOL    HW224900   4.592   5.826   0.241
 8001SOL     OW24901   5.080   5.056   2.295
 8001SOL    HW124902   5.163   5.073   2.242
 8001SOL    HW224903   5.097   4.982   2.361
 8002SOL     OW24904   1.504   0.565   5.004
 8002SOL    HW124905   1.598   0.541   4.976
 8002SOL    HW224906   1.491   0.663   4.994
 8003SOL     OW24907   2.192   5.537   3.078
 8003SOL    HW124908   2.207   5.464   3.012
 8003SOL    HW224909   2.277   5.557   3.126
 8004SOL     OW24910   2.223   3.958   3.660
 8004SOL    HW124911   2.240   4.036   3.600
 8004SOL    HW224912   2.224   3.987   3.756
 8005SOL     OW24913   2.872   0.226   4.925
 8005SOL    HW124914   2.879   0.127   4.939
 8005SOL    HW224915   2.859   0.271   5.014
 8006SOL     OW24916   4.604   5.439   6.241
 8006SOL    HW124917   4.618   5.348   6.201
 8006SOL    HW224918   4.507   5.454   6.258
 8007SOL     OW24919   0.568   0.225   1.142
 8007SOL    HW124920   0.651   0.206   1.090
 8007SOL    HW224921   0.558   0.324   1.152
 8008SOL     OW24922   4.825   5.291   1.220
 8008SOL    HW124923   4.879   5.262   1.299
 8008SOL    HW224924   4.825   5.391   1.214
 8009SOL     OW24925   5.609   0.236   1.754
 8009SOL    HW124926   5.571   0.319   1.713
 8009SOL    HW224927   5.589   0.158   1.696
 8010SOL     OW24928   2.924   6.988   0.675
 8010SOL    HW124929   2.957   6.963   0.584
 8010SOL    HW224930   2.841   6.937   0.695
 8011SOL     OW24931   3.697   1.293   1.738
 8011SOL    HW124932   3.790   1.328   1.754
 8011SOL    HW224933   3.634   1.338   1.801
 8012SOL     OW24934   5.991   0.821   5.363
 8012SOL    HW124935   6.067   0.756   5.370
 8012SOL    HW224936   5.986   0.856   5.270
 8013SOL     OW24937   3.537   0.812   3.684
 8013SOL    HW124938   3.620   0.763   3.657
 8013SOL    HW224939   3.490   0.762   3.757
 8014SOL     OW24940   2.013   2.323   3.324
 8014SOL    HW124941   2.097   2.342   3.274
 8014SOL    HW224942   1.935   2.355   3.270
 8015SOL     OW24943   3.881   5.598   5.222
 8015SOL    HW124944   3.809   5.667   5.217
 8015SOL    HW224945   3.909   5.573   5.129
 8016SOL     OW24946   2.702   3.628   5.611
 8016SOL    HW124947   2.709   3.529   5.625
 8016SOL    HW224948   2.792   3.665   5.590
 8017SOL     OW24949   5.603   6.497   1.898
 8017SOL    HW124950   5.524   6.524   1.843
 8017SOL    HW224951   5.686   6.503   1.842
 8018SOL     OW24952   3.381   2.755   1.119
 8018SOL    HW124953   3.331   2.692   1.178
 8018SOL    HW224954   3.350   2.745   1.025
 8019SOL     OW24955   3.120   3.068   0.568
 8019SOL    HW124956   3.162   3.026   0.648
 8019SOL    HW224957   3.027   3.032   0.556
 8020SOL     OW24958   0.945   6.781   0.054
 8020SOL    HW124959   0.919   6.799   0.149
 8020SOL    HW224960   1.026   6.836   0.031
 8021SOL     OW24961   1.214   2.175   0.459
 8021SOL    HW124962   1.258   2.148   0.374
 8021SOL    HW224963   1.223   2.102   0.527
 8022SOL     OW24964   3.958   6.784   2.513
 8022SOL    HW124965   4.014   6.735   2.581
 8022SOL    HW224966   3.977   6.748   2.422
 8023SOL     OW24967   3.539   4.969   2.663
 8023SOL    HW124968   3.633   4.934   2.669
 8023SOL    HW224969   3.540   5.056   2.614
 8024SOL     OW24970   2.473   1.055   6.594
 8024SOL    HW124971   2.398   0.990   6.581
 8024SOL    HW224972   2.555   1.005   6.622
 8025SOL     OW24973   1.489   6.727   1.780
 8025SOL    HW124974   1.552   6.736   1.857
 8025SOL    HW224975   1.414   6.665   1.806
 8026SOL     OW24976   0.647   6.441   5.258
 8026SOL    HW124977   0.682   6.354   5.294
 8026SOL    HW224978   0.724   6.501   5.237
 8027SOL     OW24979   4.006   0.222   6.282
 8027SOL    HW124980   3.926   0.276   6.304
 8027SOL    HW224981   4.064   0.212   6.363
 8028SOL     OW24982   3.270   5.793   6.031
 8028SOL    HW124983   3.211   5.750   5.962
 8028SOL    HW224984   3.349   5.835   5.985
 8029SOL     OW24985   1.822   6.958   1.237
 8029SOL    HW124986   1.746   6.900   1.266
 8029SOL    HW224987   1.790   7.023   1.168
 8030SOL     OW24988   0.888   3.380   0.349
 8030SOL    HW124989   0.873   3.479   0.343
 8030SOL    HW224990   0.966   3.361   0.408
 8031SOL     OW24991   0.627   0.686   4.383
 8031SOL    HW124992   0.727   0.686   4.388
 8031SOL    HW224993   0.589   0.707   4.473
 8032SOL     OW24994   0.903   3.538   1.689
 8032SOL    HW124995   0.983   3.556   1.632
 8032SOL    HW224996   0.823   3.583   1.649
 8033SOL     OW24997   3.479   5.113   0.509
 8033SOL    HW124998   3.573   5.138   0.487
 8033SOL    HW224999   3.422   5.118   0.427
 8034SOL     OW25000   1.144   1.673   5.071
 8034SOL    HW125001   1.101   1.759   5.096
 8034SOL    HW225002   1.188   1.682   4.982
 8035SOL     OW25003   5.034   0.457   3.497
 8035SOL    HW125004   5.049   0.358   3.496
 8035SOL    HW225005   5.109   0.503   3.450
 8036SOL     OW25006   5.554   5.166   5.460
 8036SOL    HW125007   5.491   5.168   5.538
 8036SOL    HW225008   5.555   5.074   5.420
 8037SOL     OW25009   3.701   1.009   6.419
 8037SOL    HW125010   3.684   1.029   6.516
 8037SOL    HW225011   3.626   0.954   6.382
 8038SOL     OW25012   5.727   5.963   2.443
 8038SOL    HW125013   5.628   5.956   2.428
 8038SOL    HW225014   5.770   5.876   2.418
 8039SOL     OW25015   2.008   2.709   4.986
 8039SOL    HW125016   1.961   2.793   4.957
 8039SOL    HW225017   2.069   2.678   4.913
 8040SOL     OW25018   0.623   0.002   4.921
 8040SOL    HW125019   0.582   6.937   4.936
 8040SOL    HW225020   0.675   0.030   5.002
 8041SOL     OW25021   3.102   1.888   2.750
 8041SOL    HW125022   3.156   1.972   2.748
 8041SOL    HW225023   3.151   1.815   2.701
 8042SOL     OW25024   5.131   4.587   6.537
 8042SOL    HW125025   5.190   4.620   6.463
 8042SOL    HW225026   5.156   4.632   6.623
 8043SOL     OW25027   6.065   5.256   7.013
 8043SOL    HW125028   6.002   5.224   6.942
 8043SOL    HW225029   6.101   5.346   6.988
 8044SOL     OW25030   1.124   3.284   1.408
 8044SOL    HW125031   1.223   3.291   1.414
 8044SOL    HW225032   1.093   3.203   1.457
 8045SOL     OW25033   5.774   2.862   4.861
 8045SOL    HW125034   5.805   2.884   4.954
 8045SOL    HW225035   5.697   2.921   4.836
 8046SOL     OW25036   0.160   4.465   1.740
 8046SOL    HW125037   0.192   4.383   1.694
 8046SOL    HW225038   0.106   4.440   1.821
 8047SOL     OW25039   2.862   5.987   0.214
 8047SOL    HW125040   2.903   5.949   0.131
 8047SOL    HW225041   2.857   5.915   0.284
 8048SOL     OW25042   4.797   2.187   6.736
 8048SOL    HW125043   4.862   2.253   6.773
 8048SOL    HW225044   4.847   2.108   6.699
 8049SOL     OW25045   2.345   1.710   0.418
 8049SOL    HW125046   2.431   1.670   0.450
 8049SOL    HW225047   2.356   1.808   0.407
 8050SOL     OW25048   6.957   4.794   5.848
 8050SOL    HW125049   6.868   4.751   5.831
 8050SOL    HW225050   0.005   4.725   5.841
 8051SOL     OW25051   4.291   6.330   3.308
 8051SOL    HW125052   4.290   6.342   3.209
 8051SOL    HW225053   4.198   6.339   3.343
 8052SOL     OW25054   2.118   1.501   2.986
 8052SOL    HW125055   2.069   1.548   2.913
 8052SOL    HW225056   2.064   1.422   3.016
 8053SOL     OW25057   1.987   1.150   6.559
 8053SOL    HW125058   1.970   1.102   6.646
 8053SOL    HW225059   1.900   1.163   6.511
 8054SOL     OW25060   4.900   3.866   4.962
 8054SOL    HW125061   4.849   3.794   5.009
 8054SOL    HW225062   4.914   3.943   5.025
 8055SOL     OW25063   6.860   1.220   6.118
 8055SOL    HW125064   6.892   1.171   6.037
 8055SOL    HW225065   6.896   1.176   6.201
 8056SOL     OW25066   1.562   2.434   2.536
 8056SOL    HW125067   1.548   2.337   2.514
 8056SOL    HW225068   1.605   2.479   2.458
 8057SOL     OW25069   2.945   1.713   1.995
 8057SOL    HW125070   2.979   1.760   1.913
 8057SOL    HW225071   2.952   1.775   2.074
 8058SOL     OW25072   3.200   5.929   1.571
 8058SOL    HW125073   3.109   5.968   1.562
 8058SOL    HW225074   3.192   5.829   1.581
 8059SOL     OW25075   4.666   4.402   5.088
 8059SOL    HW125076   4.683   4.366   4.997
 8059SOL    HW225077   4.685   4.332   5.156
 8060SOL     OW25078   0.260   1.445   4.788
 8060SOL    HW125079   0.341   1.458   4.846
 8060SOL    HW225080   0.278   1.373   4.721
 8061SOL     OW25081   6.962   0.225   0.759
 8061SOL    HW125082   6.955   0.145   0.819
 8061SOL    HW225083   0.027   0.226   0.715
 8062SOL     OW25084   4.826   4.436   6.822
 8062SOL    HW125085   4.737   4.440   6.776
 8062SOL    HW225086   4.890   4.384   6.766
 8063SOL     OW25087   2.513   4.597   1.996
 8063SOL    HW125088   2.609   4.570   1.986
 8063SOL    HW225089   2.483   4.582   2.090
 8064SOL     OW25090   6.946   2.023   0.033
 8064SOL    HW125091   6.958   1.928   0.062
 8064SOL    HW225092   6.849   2.041   0.017
 8065SOL     OW25093   5.702   0.035   6.759
 8065SOL    HW125094   5.617   0.081   6.783
 8065SOL    HW225095   5.759   0.025   6.841
 8066SOL     OW25096   6.776   1.115   5.649
 8066SOL    HW125097   6.701   1.127   5.584
 8066SOL    HW225098   6.831   1.036   5.621
 8067SOL     OW25099   5.634   0.925   4.253
 8067SOL    HW125100   5.627   0.897   4.157
 8067SOL    HW225101   5.594   0.854   4.310
 8068SOL     OW25102   6.622   4.056   1.511
 8068SOL    HW125103   6.695   4.096   1.566
 8068SOL    HW225104   6.659   4.025   1.424
 8069SOL     OW25105   0.942   2.461   1.921
 8069SOL    HW125106   0.969   2.366   1.937
 8069SOL    HW225107   0.887   2.493   1.998
 8070SOL     OW25108   5.390   4.262   0.945
 8070SOL    HW125109   5.433   4.174   0.967
 8070SOL    HW225110   5.455   4.336   0.963
 8071SOL     OW25111   1.979   6.835   6.483
 8071SOL    HW125112   2.057   6.877   6.530
 8071SOL    HW225113   1.919   6.906   6.448
 8072SOL     OW25114   2.564   1.523   5.533
 8072SOL    HW125115   2.625   1.602   5.531
 8072SOL    HW225116   2.507   1.523   5.451
 8073SOL     OW25117   5.355   5.283   0.271
 8073SOL    HW125118   5.328   5.208   0.332
 8073SOL    HW225119   5.445   5.317   0.298
 8074SOL     OW25120   6.507   0.717   0.807
 8074SOL    HW125121   6.546   0.668   0.729
 8074SOL    HW225122   6.438   0.782   0.774
 8075SOL     OW25123   0.264   6.683   1.224
 8075SOL    HW125124   0.307   6.623   1.291
 8075SOL    HW225125   0.167   6.693   1.245
 8076SOL     OW25126   6.483   5.818   0.337
 8076SOL    HW125127   6.426   5.849   0.261
 8076SOL    HW225128   6.428   5.757   0.396
 8077SOL     OW25129   5.877   4.261   1.408
 8077SOL    HW125130   5.806   4.277   1.477
 8077SOL    HW225131   5.945   4.197   1.446
 8078SOL     OW25132   4.884   1.703   1.571
 8078SOL    HW125133   4.902   1.609   1.598
 8078SOL    HW225134   4.958   1.762   1.604
 8079SOL     OW25135   6.981   1.097   5.893
 8079SOL    HW125136   6.966   0.998   5.897
 8079SOL    HW225137   0.029   1.117   5.826
 8080SOL     OW25138   6.837   3.888   3.524
 8080SOL    HW125139   6.819   3.965   3.463
 8080SOL    HW225140   6.888   3.818   3.476
 8081SOL     OW25141   5.632   1.185   4.929
 8081SOL    HW125142   5.609   1.117   4.859
 8081SOL    HW225143   5.619   1.144   5.020
 8082SOL     OW25144   5.081   2.755   5.274
 8082SOL    HW125145   5.004   2.791   5.220
 8082SOL    HW225146   5.103   2.820   5.347
 8083SOL     OW25147   0.228   3.057   3.519
 8083SOL    HW125148   0.267   3.045   3.428
 8083SOL    HW225149   0.293   3.109   3.576
 8084SOL     OW25150   5.872   1.381   6.998
 8084SOL    HW125151   5.947   1.404   0.035
 8084SOL    HW225152   5.856   1.458   6.935
 8085SOL     OW25153   1.522   6.448   4.322
 8085SOL    HW125154   1.445   6.398   4.363
 8085SOL    HW225155   1.543   6.408   4.233
 8086SOL     OW25156   6.914   1.904   1.696
 8086SOL    HW125157   6.864   1.973   1.644
 8086SOL    HW225158   7.008   1.899   1.664
 8087SOL     OW25159   6.350   1.054   6.747
 8087SOL    HW125160   6.318   0.960   6.731
 8087SOL    HW225161   6.298   1.094   6.822
 8088SOL     OW25162   6.208   7.007   5.644
 8088SOL    HW125163   6.282   6.943   5.664
 8088SOL    HW225164   6.218   0.064   5.701
 8089SOL     OW25165   6.531   1.006   0.374
 8089SOL    HW125166   6.588   0.948   0.433
 8089SOL    HW225167   6.579   1.091   0.355
 8090SOL     OW25168   3.638   2.047   4.901
 8090SOL    HW125169   3.584   2.040   4.817
 8090SOL    HW225170   3.584   2.091   4.972
 8091SOL     OW25171   0.901   3.420   5.427
 8091SOL    HW125172   0.939   3.426   5.519
 8091SOL    HW225173   0.974   3.402   5.361
 8092SOL     OW25174   4.924   6.244   5.650
 8092SOL    HW125175   5.001   6.187   5.677
 8092SOL    HW225176   4.934   6.270   5.554
 8093SOL     OW25177   3.845   0.271   3.545
 8093SOL    HW125178   3.761   0.325   3.557
 8093SOL    HW225179   3.891   0.261   3.634
 8094SOL     OW25180   2.462   5.104   3.110
 8094SOL    HW125181   2.554   5.142   3.123
 8094SOL    HW225182   2.468   5.005   3.101
 8095SOL     OW25183   0.485   5.001   5.074
 8095SOL    HW125184   0.468   4.910   5.112
 8095SOL    HW225185   0.446   5.007   4.982
 8096SOL     OW25186   1.393   5.100   0.785
 8096SOL    HW125187   1.403   5.051   0.698
 8096SOL    HW225188   1.338   5.045   0.848
 8097SOL     OW25189   5.407   0.457   6.596
 8097SOL    HW125190   5.446   0.493   6.681
 8097SOL    HW225191   5.307   0.460   6.602
 8098SOL     OW25192   2.856   6.265   4.992
 8098SOL    HW125193   2.953   6.247   5.008
 8098SOL    HW225194   2.807   6.266   5.079
 8099SOL     OW25195   2.422   4.775   3.298
 8099SOL    HW125196   2.416   4.711   3.222
 8099SOL    HW225197   2.476   4.855   3.271
 8100SOL     OW25198   0.098   6.572   0.559
 8100SOL    HW125199   0.154   6.493   0.533
 8100SOL    HW225200   0.155   6.639   0.606
 8101SOL     OW25201   3.131   5.000   6.473
 8101SOL    HW125202   3.217   4.953   6.493
 8101SOL    HW225203   3.055   4.935   6.478
 8102SOL     OW25204   1.021   4.391   3.839
 8102SOL    HW125205   1.035   4.317   3.773
 8102SOL    HW225206   1.060   4.476   3.803
 8103SOL     OW25207   5.312   0.578   1.376
 8103SOL    HW125208   5.297   0.589   1.475
 8103SOL    HW225209   5.235   0.528   1.337
 8104SOL     OW25210   1.588   6.196   0.345
 8104SOL    HW125211   1.641   6.110   0.343
 8104SOL    HW225212   1.649   6.271   0.369
 8105SOL     OW25213   6.844   6.923   2.934
 8105SOL    HW125214   6.943   6.935   2.939
 8105SOL    HW225215   6.822   6.843   2.878
 8106SOL     OW25216   4.122   0.009   6.750
 8106SOL    HW125217   4.209   0.050   6.775
 8106SOL    HW225218   4.062   0.005   6.830
 8107SOL     OW25219   0.440   6.327   0.005
 8107SOL    HW125220   0.373   6.294   0.072
 8107SOL    HW225221   0.406   6.410   6.985
 8108SOL     OW25222   1.866   1.242   0.964
 8108SOL    HW125223   1.905   1.281   1.048
 8108SOL    HW225224   1.860   1.313   0.894
 8109SOL     OW25225   0.415   3.849   2.533
 8109SOL    HW125226   0.442   3.768   2.481
 8109SOL    HW225227   0.354   3.905   2.477
 8110SOL     OW25228   5.148   3.852   6.555
 8110SOL    HW125229   5.166   3.806   6.641
 8110SOL    HW225230   5.101   3.939   6.572
 8111SOL     OW25231   5.453   2.117   2.706
 8111SOL    HW125232   5.386   2.120   2.781
 8111SOL    HW225233   5.447   2.029   2.660
 8112SOL     OW25234   1.817   4.554   6.542
 8112SOL    HW125235   1.738   4.608   6.570
 8112SOL    HW225236   1.795   4.501   6.460
 8113SOL     OW25237   5.983   4.984   0.111
 8113SOL    HW125238   6.037   5.063   0.082
 8113SOL    HW225239   5.993   4.972   0.210
 8114SOL     OW25240   1.879   2.475   2.902
 8114SOL    HW125241   1.901   2.567   2.869
 8114SOL    HW225242   1.932   2.408   2.851
 8115SOL     OW25243   2.255   2.055   5.844
 8115SOL    HW125244   2.257   1.955   5.843
 8115SOL    HW225245   2.340   2.090   5.883
 8116SOL     OW25246   3.985   3.019   1.918
 8116SOL    HW125247   4.041   3.096   1.888
 8116SOL    HW225248   3.956   3.033   2.012
 8117SOL     OW25249   0.998   1.162   2.736
 8117SOL    HW125250   0.921   1.226   2.734
 8117SOL    HW225251   0.973   1.076   2.692
 8118SOL     OW25252   5.763   1.818   6.746
 8118SOL    HW125253   5.709   1.902   6.747
 8118SOL    HW225254   5.815   1.812   6.661
 8119SOL     OW25255   5.703   5.077   6.633
 8119SOL    HW125256   5.663   4.987   6.611
 8119SOL    HW225257   5.643   5.149   6.598
 8120SOL     OW25258   1.969   6.740   2.590
 8120SOL    HW125259   1.935   6.676   2.659
 8120SOL    HW225260   2.064   6.718   2.569
 8121SOL     OW25261   1.822   2.018   3.102
 8121SOL    HW125262   1.885   2.096   3.105
 8121SOL    HW225263   1.729   2.052   3.086
 8122SOL     OW25264   0.613   5.212   1.493
 8122SOL    HW125265   0.692   5.241   1.439
 8122SOL    HW225266   0.565   5.139   1.446
 8123SOL     OW25267   6.805   0.367   5.825
 8123SOL    HW125268   6.742   0.292   5.843
 8123SOL    HW225269   6.812   0.426   5.906
 8124SOL     OW25270   6.537   5.640   6.057
 8124SOL    HW125271   6.486   5.623   6.142
 8124SOL    HW225272   6.533   5.558   6.000
 8125SOL     OW25273   1.001   6.037   1.407
 8125SOL    HW125274   1.087   5.998   1.438
 8125SOL    HW225275   0.998   6.037   1.307
 8126SOL     OW25276   3.475   5.464   5.011
 8126SOL    HW125277   3.409   5.477   4.937
 8126SOL    HW225278   3.430   5.423   5.090
 8127SOL     OW25279   4.411   1.805   5.515
 8127SOL    HW125280   4.410   1.812   5.415
 8127SOL    HW225281   4.485   1.744   5.543
 8128SOL     OW25282   3.727   3.008   0.548
 8128SOL    HW125283   3.752   2.915   0.520
 8128SOL    HW225284   3.704   3.062   0.467
 8129SOL     OW25285   6.337   3.398   3.689
 8129SOL    HW125286   6.379   3.346   3.615
 8129SOL    HW225287   6.303   3.335   3.759
 8130SOL     OW25288   0.095   6.623   0.156
 8130SOL    HW125289   0.113   6.564   0.235
 8130SOL    HW225290   7.024   6.613   0.128
 8131SOL     OW25291   2.673   2.017   0.171
 8131SOL    HW125292   2.705   2.014   0.266
 8131SOL    HW225293   2.603   1.947   0.157
 8132SOL     OW25294   6.408   1.879   4.476
 8132SOL    HW125295   6.355   1.895   4.392
 8132SOL    HW225296   6.367   1.930   4.551
 8133SOL     OW25297   4.380   5.875   0.958
 8133SOL    HW125298   4.479   5.890   0.950
 8133SOL    HW225299   4.336   5.961   0.985
 8134SOL     OW25300   6.424   1.694   0.022
 8134SOL    HW125301   6.330   1.688   7.013
 8134SOL    HW225302   6.436   1.630   0.097
 8135SOL     OW25303   2.634   6.044   1.878
 8135SOL    HW125304   2.690   6.057   1.960
 8135SOL    HW225305   2.669   6.100   1.804
 8136SOL     OW25306   4.268   4.942   2.302
 8136SOL    HW125307   4.275   4.843   2.315
 8136SOL    HW225308   4.302   4.966   2.211
 8137SOL     OW25309   3.676   1.332   6.291
 8137SOL    HW125310   3.600   1.291   6.239
 8137SOL    HW225311   3.762   1.293   6.260
 8138SOL     OW25312   6.405   1.063   2.422
 8138SOL    HW125313   6.358   1.146   2.392
 8138SOL    HW225314   6.452   1.021   2.344
 8139SOL     OW25315   1.367   1.563   5.198
 8139SOL    HW125316   1.277   1.605   5.198
 8139SOL    HW225317   1.438   1.633   5.207
 8140SOL     OW25318   4.761   2.682   3.510
 8140SOL    HW125319   4.760   2.738   3.593
 8140SOL    HW225320   4.819   2.603   3.524
 8141SOL     OW25321   6.365   4.068   4.115
 8141SOL    HW125322   6.393   4.112   4.200
 8141SOL    HW225323   6.447   4.044   4.062
 8142SOL     OW25324   0.227   6.151   0.727
 8142SOL    HW125325   0.187   6.202   0.651
 8142SOL    HW225326   0.179   6.173   0.811
 8143SOL     OW25327   0.002   3.008   6.277
 8143SOL    HW125328   6.941   3.055   6.296
 8143SOL    HW225329   0.050   3.054   6.203
 8144SOL     OW25330   4.253   5.900   0.462
 8144SOL    HW125331   4.323   5.922   0.529
 8144SOL    HW225332   4.197   5.982   0.444
 8145SOL     OW25333   4.506   0.417   4.508
 8145SOL    HW125334   4.505   0.374   4.418
 8145SOL    HW225335   4.453   0.502   4.505
 8146SOL     OW25336   3.102   1.372   2.843
 8146SOL    HW125337   3.195   1.410   2.842
 8146SOL    HW225338   3.071   1.362   2.938
 8147SOL     OW25339   4.754   1.934   3.782
 8147SOL    HW125340   4.661   1.901   3.766
 8147SOL    HW225341   4.752   2.033   3.795
 8148SOL     OW25342   0.815   3.101   3.440
 8148SOL    HW125343   0.828   3.099   3.341
 8148SOL    HW225344   0.888   3.049   3.484
 8149SOL     OW25345   3.983   5.418   4.429
 8149SOL    HW125346   3.893   5.457   4.410
 8149SOL    HW225347   4.021   5.380   4.345
 8150SOL     OW25348   1.668   5.940   0.414
 8150SOL    HW125349   1.642   5.898   0.501
 8150SOL    HW225350   1.766   5.928   0.398
 8151SOL     OW25351   0.946   1.584   4.797
 8151SOL    HW125352   0.902   1.532   4.870
 8151SOL    HW225353   0.963   1.523   4.719
 8152SOL     OW25354   0.344   0.926   3.321
 8152SOL    HW125355   0.319   0.981   3.241
 8152SOL    HW225356   0.368   0.833   3.291
 8153SOL     OW25357   1.738   6.584   6.714
 8153SOL    HW125358   1.691   6.602   6.628
 8153SOL    HW225359   1.821   6.639   6.720
 8154SOL     OW25360   1.994   6.800   3.965
 8154SOL    HW125361   2.019   6.881   4.018
 8154SOL    HW225362   1.989   6.721   4.025
 8155SOL     OW25363   4.206   3.385   5.468
 8155SOL    HW125364   4.148   3.356   5.392
 8155SOL    HW225365   4.299   3.349   5.454
 8156SOL     OW25366   1.077   6.283   4.603
 8156SOL    HW125367   1.040   6.249   4.689
 8156SOL    HW225368   1.101   6.380   4.612
 8157SOL     OW25369   5.816   2.658   6.372
 8157SOL    HW125370   5.719   2.672   6.392
 8157SOL    HW225371   5.836   2.560   6.374
 8158SOL     OW25372   0.930   5.693   2.280
 8158SOL    HW125373   0.907   5.596   2.279
 8158SOL    HW225374   0.979   5.714   2.364
 8159SOL     OW25375   0.495   6.684   0.444
 8159SOL    HW125376   0.505   6.726   0.534
 8159SOL    HW225377   0.406   6.708   0.406
 8160SOL     OW25378   6.245   2.214   0.639
 8160SOL    HW125379   6.333   2.207   0.685
 8160SOL    HW225380   6.191   2.131   0.655
 8161SOL     OW25381   3.689   3.916   1.679
 8161SOL    HW125382   3.709   4.009   1.709
 8161SOL    HW225383   3.604   3.885   1.721
 8162SOL     OW25384   5.619   0.303   1.177
 8162SOL    HW125385   5.656   0.348   1.096
 8162SOL    HW225386   5.660   0.212   1.187
 8163SOL     OW25387   2.752   2.974   5.339
 8163SOL    HW125388   2.756   2.983   5.439
 8163SOL    HW225389   2.658   2.992   5.308
 8164SOL     OW25390   5.347   4.456   1.494
 8164SOL    HW125391   5.402   4.523   1.544
 8164SOL    HW225392   5.271   4.425   1.552
 8165SOL     OW25393   1.566   3.693   1.837
 8165SOL    HW125394   1.619   3.734   1.763
 8165SOL    HW225395   1.597   3.729   1.925
 8166SOL     OW25396   2.840   0.116   2.751
 8166SOL    HW125397   2.922   0.148   2.799
 8166SOL    HW225398   2.805   0.033   2.796
 8167SOL     OW25399   5.240   3.179   4.147
 8167SOL    HW125400   5.332   3.218   4.150
 8167SOL    HW225401   5.236   3.109   4.076
 8168SOL     OW25402   2.896   1.409   2.485
 8168SOL    HW125403   2.979   1.370   2.445
 8168SOL    HW225404   2.920   1.467   2.563
 8169SOL     OW25405   5.679   4.058   5.613
 8169SOL    HW125406   5.658   4.121   5.539
 8169SOL    HW225407   5.663   4.102   5.701
 8170SOL     OW25408   0.731   4.809   4.551
 8170SOL    HW125409   0.762   4.801   4.646
 8170SOL    HW225410   0.753   4.725   4.501
 8171SOL     OW25411   2.397   0.565   6.866
 8171SOL    HW125412   2.437   0.564   6.958
 8171SOL    HW225413   2.436   0.491   6.812
 8172SOL     OW25414   0.086   5.207   2.521
 8172SOL    HW125415   0.021   5.279   2.496
 8172SOL    HW225416   0.090   5.199   2.620
 8173SOL     OW25417   0.153   3.677   6.781
 8173SOL    HW125418   0.059   3.667   6.746
 8173SOL    HW225419   0.215   3.695   6.705
 8174SOL     OW25420   5.319   6.707   2.171
 8174SOL    HW125421   5.359   6.761   2.245
 8174SOL    HW225422   5.219   6.709   2.177
 8175SOL     OW25423   1.238   2.355   3.756
 8175SOL    HW125424   1.311   2.399   3.704
 8175SOL    HW225425   1.192   2.423   3.813
 8176SOL     OW25426   4.713   4.326   3.044
 8176SOL    HW125427   4.680   4.397   2.981
 8176SOL    HW225428   4.813   4.331   3.050
 8177SOL     OW25429   2.219   0.371   6.061
 8177SOL    HW125430   2.259   0.458   6.090
 8177SOL    HW225431   2.120   0.374   6.072
 8178SOL     OW25432   1.990   6.107   6.941
 8178SOL    HW125433   1.935   6.126   7.022
 8178SOL    HW225434   1.942   6.141   6.859
 8179SOL     OW25435   4.201   0.062   5.122
 8179SOL    HW125436   4.102   0.075   5.115
 8179SOL    HW225437   4.242   0.148   5.154
 8180SOL     OW25438   4.702   4.257   4.369
 8180SOL    HW125439   4.716   4.169   4.416
 8180SOL    HW225440   4.741   4.252   4.277
 8181SOL     OW25441   2.297   1.701   2.968
 8181SOL    HW125442   2.249   1.614   2.981
 8181SOL    HW225443   2.230   1.774   2.953
 8182SOL     OW25444   5.789   2.967   5.113
 8182SOL    HW125445   5.877   3.008   5.135
 8182SOL    HW225446   5.716   3.034   5.126
 8183SOL     OW25447   2.173   4.078   3.921
 8183SOL    HW125448   2.199   4.099   4.015
 8183SOL    HW225449   2.083   4.033   3.921
 8184SOL     OW25450   6.232   6.243   5.475
 8184SOL    HW125451   6.190   6.156   5.449
 8184SOL    HW225452   6.329   6.242   5.450
 8185SOL     OW25453   0.190   2.129   3.413
 8185SOL    HW125454   0.224   2.205   3.467
 8185SOL    HW225455   0.195   2.152   3.316
 8186SOL     OW25456   4.138   3.142   6.545
 8186SOL    HW125457   4.071   3.122   6.473
 8186SOL    HW225458   4.098   3.204   6.612
 8187SOL     OW25459   2.637   1.719   6.606
 8187SOL    HW125460   2.683   1.757   6.686
 8187SOL    HW225461   2.544   1.754   6.601
 8188SOL     OW25462   4.887   3.617   2.942
 8188SOL    HW125463   4.895   3.693   2.877
 8188SOL    HW225464   4.882   3.530   2.892
 8189SOL     OW25465   0.349   5.949   2.925
 8189SOL    HW125466   0.311   5.929   2.835
 8189SOL    HW225467   0.438   5.904   2.934
 8190SOL     OW25468   5.507   3.595   2.577
 8190SOL    HW125469   5.466   3.513   2.537
 8190SOL    HW225470   5.540   3.655   2.504
 8191SOL     OW25471   5.816   4.411   1.207
 8191SOL    HW125472   5.860   4.338   1.258
 8191SOL    HW225473   5.718   4.391   1.196
 8192SOL     OW25474   2.260   1.593   0.668
 8192SOL    HW125475   2.270   1.496   0.689
 8192SOL    HW225476   2.290   1.610   0.574
 8193SOL     OW25477   3.828   6.413   5.980
 8193SOL    HW125478   3.793   6.333   5.932
 8193SOL    HW225479   3.755   6.452   6.036
 8194SOL     OW25480   0.194   1.056   2.497
 8194SOL    HW125481   0.249   0.973   2.504
 8194SOL    HW225482   0.097   1.032   2.494
 8195SOL     OW25483   6.191   1.039   0.541
 8195SOL    HW125484   6.130   0.976   0.588
 8195SOL    HW225485   6.254   0.988   0.483
 8196SOL     OW25486   2.246   0.556   0.914
 8196SOL    HW125487   2.222   0.546   1.010
 8196SOL    HW225488   2.200   0.638   0.877
 8197SOL     OW25489   0.748   6.833   0.780
 8197SOL    HW125490   0.755   6.927   0.747
 8197SOL    HW225491   0.667   6.790   0.740
 8198SOL     OW25492   2.564   0.537   2.642
 8198SOL    HW125493   2.494   0.596   2.681
 8198SOL    HW225494   2.652   0.586   2.641
 8199SOL     OW25495   5.848   4.645   1.052
 8199SOL    HW125496   5.886   4.564   1.098
 8199SOL    HW225497   5.819   4.621   0.960
 8200SOL     OW25498   3.606   4.808   1.353
 8200SOL    HW125499   3.705   4.791   1.354
 8200SOL    HW225500   3.560   4.728   1.314
 8201SOL     OW25501   0.717   1.028   4.513
 8201SOL    HW125502   0.788   1.002   4.578
 8201SOL    HW225503   0.629   1.037   4.561
 8202SOL     OW25504   1.886   3.610   4.356
 8202SOL    HW125505   1.869   3.543   4.284
 8202SOL    HW225506   1.802   3.661   4.376
 8203SOL     OW25507   6.387   4.326   6.773
 8203SOL    HW125508   6.441   4.328   6.858
 8203SOL    HW225509   6.296   4.288   6.792
 8204SOL     OW25510   2.500   6.389   1.876
 8204SOL    HW125511   2.470   6.314   1.935
 8204SOL    HW225512   2.467   6.374   1.783
 8205SOL     OW25513   3.652   6.638   3.079
 8205SOL    HW125514   3.644   6.707   3.151
 8205SOL    HW225515   3.561   6.600   3.059
 8206SOL     OW25516   3.882   1.884   4.620
 8206SOL    HW125517   3.821   1.820   4.666
 8206SOL    HW225518   3.828   1.947   4.564
 8207SOL     OW25519   2.393   6.504   0.030
 8207SOL    HW125520   2.337   6.433   0.073
 8207SOL    HW225521   2.363   6.594   0.061
 8208SOL     OW25522   1.085   5.838   1.053
 8208SOL    HW125523   1.039   5.872   0.971
 8208SOL    HW225524   1.125   5.915   1.103
 8209SOL     OW25525   0.586   5.990   4.180
 8209SOL    HW125526   0.512   5.944   4.131
 8209SOL    HW225527   0.621   5.930   4.251
 8210SOL     OW25528   2.433   0.153   1.047
 8210SOL    HW125529   2.375   0.228   1.015
 8210SOL    HW225530   2.528   0.172   1.025
 8211SOL     OW25531   3.260   4.029   4.586
 8211SOL    HW125532   3.278   4.113   4.534
 8211SOL    HW225533   3.161   4.013   4.589
 8212SOL     OW25534   3.618   5.333   6.734
 8212SOL    HW125535   3.590   5.426   6.757
 8212SOL    HW225536   3.559   5.297   6.662
 8213SOL     OW25537   4.911   4.028   1.834
 8213SOL    HW125538   4.943   4.067   1.747
 8213SOL    HW225539   4.822   3.985   1.820
 8214SOL     OW25540   4.060   4.920   3.447
 8214SOL    HW125541   4.065   4.987   3.521
 8214SOL    HW225542   4.145   4.868   3.444
 8215SOL     OW25543   2.878   6.035   5.271
 8215SOL    HW125544   2.799   6.058   5.328
 8215SOL    HW225545   2.859   5.953   5.219
 8216SOL     OW25546   6.503   4.757   0.055
 8216SOL    HW125547   6.580   4.814   0.084
 8216SOL    HW225548   6.516   4.729   6.985
 8217SOL     OW25549   3.745   6.099   3.588
 8217SOL    HW125550   3.767   6.181   3.640
 8217SOL    HW225551   3.822   6.035   3.594
 8218SOL     OW25552   2.034   5.736   3.808
 8218SOL    HW125553   2.120   5.715   3.760
 8218SOL    HW225554   1.981   5.801   3.752
 8219SOL     OW25555   3.919   3.579   4.960
 8219SOL    HW125556   4.017   3.558   4.963
 8219SOL    HW225557   3.888   3.605   5.051
 8220SOL     OW25558   4.712   3.979   5.846
 8220SOL    HW125559   4.619   4.004   5.820
 8220SOL    HW225560   4.720   3.975   5.946
 8221SOL     OW25561   6.547   3.742   4.150
 8221SOL    HW125562   6.508   3.666   4.098
 8221SOL    HW225563   6.517   3.735   4.246
 8222SOL     OW25564   5.440   1.486   5.987
 8222SOL    HW125565   5.482   1.398   6.010
 8222SOL    HW225566   5.349   1.490   6.027
 8223SOL     OW25567   1.525   6.581   5.634
 8223SOL    HW125568   1.612   6.550   5.671
 8223SOL    HW225569   1.482   6.506   5.584
 8224SOL     OW25570   4.925   1.382   4.960
 8224SOL    HW125571   4.866   1.460   4.980
 8224SOL    HW225572   4.971   1.397   4.872
 8225SOL     OW25573   6.220   1.369   6.952
 8225SOL    HW125574   6.200   1.271   6.953
 8225SOL    HW225575   6.210   1.406   0.020
 8226SOL     OW25576   3.952   0.694   6.546
 8226SOL    HW125577   4.026   0.748   6.587
 8226SOL    HW225578   3.864   0.738   6.568
 8227SOL     OW25579   6.077   3.535   2.670
 8227SOL    HW125580   6.169   3.556   2.704
 8227SOL    HW225581   6.082   3.454   2.611
 8228SOL     OW25582   3.057   1.622   5.123
 8228SOL    HW125583   2.976   1.643   5.069
 8228SOL    HW225584   3.029   1.601   5.217
 8229SOL     OW25585   4.740   3.614   0.701
 8229SOL    HW125586   4.803   3.540   0.677
 8229SOL    HW225587   4.651   3.576   0.724
 8230SOL     OW25588   6.225   1.223   6.559
 8230SOL    HW125589   6.266   1.315   6.565
 8230SOL    HW225590   6.270   1.163   6.625
 8231SOL     OW25591   3.131   1.012   1.492
 8231SOL    HW125592   3.045   1.058   1.516
 8231SOL    HW225593   3.206   1.077   1.495
 8232SOL     OW25594   4.208   5.953   4.523
 8232SOL    HW125595   4.245   5.916   4.438
 8232SOL    HW225596   4.207   5.882   4.594
 8233SOL     OW25597   3.019   0.477   6.980
 8233SOL    HW125598   3.064   0.470   6.891
 8233SOL    HW225599   2.922   0.456   6.969
 8234SOL     OW25600   0.163   2.803   6.130
 8234SOL    HW125601   0.100   2.749   6.187
 8234SOL    HW225602   0.176   2.893   6.172
 8235SOL     OW25603   1.423   6.341   6.859
 8235SOL    HW125604   1.492   6.413   6.868
 8235SOL    HW225605   1.422   6.285   6.942
 8236SOL     OW25606   0.686   0.707   0.959
 8236SOL    HW125607   0.765   0.646   0.954
 8236SOL    HW225608   0.711   0.791   1.008
 8237SOL     OW25609   5.021   4.104   5.914
 8237SOL    HW125610   5.015   4.203   5.905
 8237SOL    HW225611   4.931   4.067   5.939
 8238SOL     OW25612   0.060   5.565   0.141
 8238SOL    HW125613   0.080   5.570   0.239
 8238SOL    HW225614   0.125   5.622   0.091
 8239SOL     OW25615   4.992   2.841   3.632
 8239SOL    HW125616   4.982   2.859   3.534
 8239SOL    HW225617   5.087   2.856   3.658
 8240SOL     OW25618   3.180   3.422   5.202
 8240SOL    HW125619   3.207   3.508   5.244
 8240SOL    HW225620   3.124   3.370   5.266
 8241SOL     OW25621   0.862   3.036   5.183
 8241SOL    HW125622   0.872   2.967   5.255
 8241SOL    HW225623   0.804   3.111   5.216
 8242SOL     OW25624   0.803   4.104   3.285
 8242SOL    HW125625   0.887   4.057   3.314
 8242SOL    HW225626   0.740   4.110   3.362
 8243SOL     OW25627   2.275   5.893   4.029
 8243SOL    HW125628   2.345   5.864   3.963
 8243SOL    HW225629   2.234   5.812   4.071
 8244SOL     OW25630   5.933   0.177   4.610
 8244SOL    HW125631   5.937   0.179   4.510
 8244SOL    HW225632   5.984   0.097   4.644
 8245SOL     OW25633   5.125   4.404   1.687
 8245SOL    HW125634   5.033   4.436   1.665
 8245SOL    HW225635   5.128   4.304   1.681
 8246SOL     OW25636   1.970   4.191   0.337
 8246SOL    HW125637   1.965   4.108   0.393
 8246SOL    HW225638   1.882   4.205   0.291
 8247SOL     OW25639   1.848   4.814   3.605
 8247SOL    HW125640   1.914   4.759   3.656
 8247SOL    HW225641   1.755   4.791   3.634
 8248SOL     OW25642   5.923   1.002   2.807
 8248SOL    HW125643   5.985   1.058   2.862
 8248SOL    HW225644   5.932   1.028   2.711
 8249SOL     OW25645   3.479   6.781   5.604
 8249SOL    HW125646   3.574   6.763   5.580
 8249SOL    HW225647   3.424   6.791   5.521
 8250SOL     OW25648   2.129   1.049   0.181
 8250SOL    HW125649   2.043   1.067   0.134
 8250SOL    HW225650   2.205   1.079   0.122
 8251SOL     OW25651   1.889   1.581   6.476
 8251SOL    HW125652   1.981   1.546   6.457
 8251SOL    HW225653   1.877   1.668   6.429
 8252SOL     OW25654   0.574   0.872   6.273
 8252SOL    HW125655   0.634   0.927   6.331
 8252SOL    HW225656   0.484   0.915   6.268
 8253SOL     OW25657   6.819   3.684   4.376
 8253SOL    HW125658   6.882   3.741   4.323
 8253SOL    HW225659   6.735   3.734   4.394
 8254SOL     OW25660   4.743   4.126   0.434
 8254SOL    HW125661   4.769   4.032   0.415
 8254SOL    HW225662   4.643   4.132   0.443
 8255SOL     OW25663   1.491   6.179   5.605
 8255SOL    HW125664   1.549   6.109   5.563
 8255SOL    HW225665   1.400   6.140   5.623
 8256SOL     OW25666   1.800   5.897   3.388
 8256SOL    HW125667   1.713   5.863   3.352
 8256SOL    HW225668   1.869   5.825   3.380
 8257SOL     OW25669   5.133   4.525   3.453
 8257SOL    HW125670   5.059   4.582   3.417
 8257SOL    HW225671   5.104   4.485   3.540
 8258SOL     OW25672   0.449   2.812   4.187
 8258SOL    HW125673   0.530   2.821   4.246
 8258SOL    HW225674   0.412   2.720   4.196
 8259SOL     OW25675   5.164   3.998   3.853
 8259SOL    HW125676   5.252   3.966   3.886
 8259SOL    HW225677   5.137   4.081   3.903
 8260SOL     OW25678   4.767   2.109   6.067
 8260SOL    HW125679   4.779   2.124   6.165
 8260SOL    HW225680   4.726   2.190   6.025
 8261SOL     OW25681   4.889   2.522   3.201
 8261SOL    HW125682   4.792   2.499   3.204
 8261SOL    HW225683   4.915   2.544   3.107
 8262SOL     OW25684   5.120   3.920   2.240
 8262SOL    HW125685   5.021   3.924   2.229
 8262SOL    HW225686   5.162   3.998   2.194
 8263SOL     OW25687   6.937   1.506   0.162
 8263SOL    HW125688   6.965   1.435   0.097
 8263SOL    HW225689   6.841   1.529   0.145
 8264SOL     OW25690   3.311   1.743   1.857
 8264SOL    HW125691   3.351   1.675   1.795
 8264SOL    HW225692   3.382   1.774   1.921
 8265SOL     OW25693   6.328   5.303   6.906
 8265SOL    HW125694   6.257   5.373   6.912
 8265SOL    HW225695   6.295   5.218   6.947
 8266SOL     OW25696   4.448   2.436   2.937
 8266SOL    HW125697   4.413   2.348   2.969
 8266SOL    HW225698   4.449   2.436   2.837
 8267SOL     OW25699   1.676   3.655   2.642
 8267SOL    HW125700   1.748   3.630   2.578
 8267SOL    HW225701   1.687   3.750   2.670
 8268SOL     OW25702   2.231   5.276   1.240
 8268SOL    HW125703   2.269   5.301   1.329
 8268SOL    HW225704   2.295   5.300   1.168
 8269SOL     OW25705   6.129   2.346   3.173
 8269SOL    HW125706   6.079   2.414   3.226
 8269SOL    HW225707   6.114   2.255   3.213
 8270SOL     OW25708   4.605   5.239   0.439
 8270SOL    HW125709   4.583   5.178   0.364
 8270SOL    HW225710   4.581   5.195   0.526
 8271SOL     OW25711   2.579   0.443   6.151
 8271SOL    HW125712   2.609   0.373   6.216
 8271SOL    HW225713   2.655   0.464   6.089
 8272SOL     OW25714   6.811   1.317   2.153
 8272SOL    HW125715   6.878   1.320   2.078
 8272SOL    HW225716   6.831   1.238   2.212
 8273SOL     OW25717   5.904   0.533   5.975
 8273SOL    HW125718   5.847   0.503   6.051
 8273SOL    HW225719   5.896   0.468   5.899
 8274SOL     OW25720   5.033   0.265   4.067
 8274SOL    HW125721   4.957   0.281   4.131
 8274SOL    HW225722   5.055   0.168   4.066
 8275SOL     OW25723   4.920   0.739   4.422
 8275SOL    HW125724   4.877   0.814   4.373
 8275SOL    HW225725   4.995   0.702   4.366
 8276SOL     OW25726   4.408   2.365   6.740
 8276SOL    HW125727   4.328   2.329   6.691
 8276SOL    HW225728   4.451   2.291   6.792
 8277SOL     OW25729   1.185   0.194   1.494
 8277SOL    HW125730   1.142   0.266   1.549
 8277SOL    HW225731   1.170   0.105   1.538
 8278SOL     OW25732   1.578   1.478   1.566
 8278SOL    HW125733   1.642   1.539   1.519
 8278SOL    HW225734   1.494   1.472   1.512
 8279SOL     OW25735   5.832   4.709   6.220
 8279SOL    HW125736   5.782   4.651   6.284
 8279SOL    HW225737   5.858   4.656   6.140
 8280SOL     OW25738   7.023   4.921   0.742
 8280SOL    HW125739   6.956   4.890   0.810
 8280SOL    HW225740   0.068   4.977   0.788
 8281SOL     OW25741   2.079   4.430   0.330
 8281SOL    HW125742   2.027   4.346   0.339
 8281SOL    HW225743   2.176   4.412   0.348
 8282SOL     OW25744   4.370   2.998   0.513
 8282SOL    HW125745   4.328   2.965   0.598
 8282SOL    HW225746   4.321   3.079   0.481
 8283SOL     OW25747   0.626   1.862   2.909
 8283SOL    HW125748   0.549   1.889   2.967
 8283SOL    HW225749   0.704   1.837   2.966
 8284SOL     OW25750   3.972   2.497   0.807
 8284SOL    HW125751   3.884   2.531   0.775
 8284SOL    HW225752   4.044   2.563   0.783
 8285SOL     OW25753   0.742   4.579   0.443
 8285SOL    HW125754   0.648   4.602   0.467
 8285SOL    HW225755   0.749   4.481   0.425
 8286SOL     OW25756   6.672   1.897   6.620
 8286SOL    HW125757   6.641   1.855   6.535
 8286SOL    HW225758   6.682   1.996   6.606
 8287SOL     OW25759   0.866   1.675   2.523
 8287SOL    HW125760   0.768   1.687   2.502
 8287SOL    HW225761   0.916   1.754   2.489
 8288SOL     OW25762   2.009   6.344   2.392
 8288SOL    HW125763   2.057   6.264   2.428
 8288SOL    HW225764   1.912   6.336   2.411
 8289SOL     OW25765   5.459   6.225   0.140
 8289SOL    HW125766   5.383   6.208   0.203
 8289SOL    HW225767   5.539   6.253   0.193
 8290SOL     OW25768   4.488   2.958   1.654
 8290SOL    HW125769   4.557   2.895   1.618
 8290SOL    HW225770   4.522   3.001   1.738
 8291SOL     OW25771   5.806   6.013   5.129
 8291SOL    HW125772   5.887   5.954   5.126
 8291SOL    HW225773   5.824   6.092   5.187
 8292SOL     OW25774   0.931   4.059   6.070
 8292SOL    HW125775   0.942   4.155   6.045
 8292SOL    HW225776   0.972   4.042   6.160
 8293SOL     OW25777   3.639   5.404   3.585
 8293SOL    HW125778   3.661   5.384   3.681
 8293SOL    HW225779   3.691   5.343   3.526
 8294SOL     OW25780   6.111   3.506   5.813
 8294SOL    HW125781   6.209   3.523   5.815
 8294SOL    HW225782   6.086   3.463   5.727
 8295SOL     OW25783   3.870   5.098   1.794
 8295SOL    HW125784   3.959   5.074   1.833
 8295SOL    HW225785   3.800   5.037   1.831
 8296SOL     OW25786   3.638   0.399   2.023
 8296SOL    HW125787   3.625   0.433   1.930
 8296SOL    HW225788   3.550   0.392   2.069
 8297SOL     OW25789   4.810   4.773   1.880
 8297SOL    HW125790   4.783   4.757   1.975
 8297SOL    HW225791   4.897   4.822   1.879
 8298SOL     OW25792   0.087   5.776   0.694
 8298SOL    HW125793   0.052   5.691   0.733
 8298SOL    HW225794   0.101   5.843   0.766
 8299SOL     OW25795   1.129   1.350   6.761
 8299SOL    HW125796   1.209   1.365   6.819
 8299SOL    HW225797   1.069   1.282   6.803
 8300SOL     OW25798   4.576   5.894   5.535
 8300SOL    HW125799   4.602   5.986   5.506
 8300SOL    HW225800   4.639   5.862   5.605
 8301SOL     OW25801   6.114   4.263   6.802
 8301SOL    HW125802   6.106   4.167   6.828
 8301SOL    HW225803   6.029   4.311   6.826
 8302SOL     OW25804   3.447   6.487   6.361
 8302SOL    HW125805   3.460   6.543   6.443
 8302SOL    HW225806   3.366   6.430   6.373
 8303SOL     OW25807   6.726   4.650   4.181
 8303SOL    HW125808   6.692   4.730   4.133
 8303SOL    HW225809   6.719   4.570   4.122
 8304SOL     OW25810   5.262   2.910   3.726
 8304SOL    HW125811   5.271   2.814   3.701
 8304SOL    HW225812   5.346   2.959   3.703
 8305SOL     OW25813   4.401   6.180   5.855
 8305SOL    HW125814   4.490   6.183   5.811
 8305SOL    HW225815   4.373   6.272   5.882
 8306SOL     OW25816   4.176   0.663   3.253
 8306SOL    HW125817   4.105   0.710   3.201
 8306SOL    HW225818   4.264   0.675   3.207
 8307SOL     OW25819   0.954   5.073   4.047
 8307SOL    HW125820   0.903   5.078   4.132
 8307SOL    HW225821   0.961   4.978   4.017
 8308SOL     OW25822   2.212   4.091   0.595
 8308SOL    HW125823   2.129   4.105   0.648
 8308SOL    HW225824   2.285   4.149   0.632
 8309SOL     OW25825   5.800   5.445   2.562
 8309SOL    HW125826   5.821   5.348   2.563
 8309SOL    HW225827   5.755   5.470   2.648
 8310SOL     OW25828   2.565   5.898   3.477
 8310SOL    HW125829   2.471   5.884   3.444
 8310SOL    HW225830   2.629   5.858   3.412
 8311SOL     OW25831   4.931   6.854   2.393
 8311SOL    HW125832   4.833   6.840   2.407
 8311SOL    HW225833   4.950   6.952   2.391
 8312SOL     OW25834   6.166   6.492   0.989
 8312SOL    HW125835   6.250   6.449   0.954
 8312SOL    HW225836   6.124   6.546   0.916
 8313SOL     OW25837   5.045   1.768   5.487
 8313SOL    HW125838   4.948   1.788   5.500
 8313SOL    HW225839   5.091   1.850   5.453
 8314SOL     OW25840   5.226   5.736   5.569
 8314SOL    HW125841   5.141   5.781   5.543
 8314SOL    HW225842   5.242   5.658   5.510
 8315SOL     OW25843   3.447   1.768   6.639
 8315SOL    HW125844   3.394   1.833   6.694
 8315SOL    HW225845   3.426   1.674   6.669
 8316SOL     OW25846   1.465   0.832   5.066
 8316SOL    HW125847   1.493   0.891   5.142
 8316SOL    HW225848   1.369   0.848   5.045
 8317SOL     OW25849   2.657   1.605   6.313
 8317SOL    HW125850   2.650   1.672   6.387
 8317SOL    HW225851   2.619   1.517   6.343
 8318SOL     OW25852   4.751   5.915   5.025
 8318SOL    HW125853   4.763   5.824   4.985
 8318SOL    HW225854   4.763   5.984   4.954
 8319SOL     OW25855   3.093   6.130   6.275
 8319SOL    HW125856   2.997   6.104   6.278
 8319SOL    HW225857   3.138   6.083   6.200
 8320SOL     OW25858   3.956   4.740   5.602
 8320SOL    HW125859   4.001   4.824   5.572
 8320SOL    HW225860   3.998   4.709   5.687
 8321SOL     OW25861   0.716   6.428   0.084
 8321SOL    HW125862   0.788   6.443   0.016
 8321SOL    HW225863   0.630   6.407   0.038
 8322SOL     OW25864   2.874   0.084   2.109
 8322SOL    HW125865   2.972   0.104   2.119
 8322SOL    HW225866   2.845   0.027   2.186
 8323SOL     OW25867   6.717   5.811   6.667
 8323SOL    HW125868   6.679   5.718   6.667
 8323SOL    HW225869   6.670   5.866   6.736
 8324SOL     OW25870   0.124   5.665   4.660
 8324SOL    HW125871   0.064   5.652   4.739
 8324SOL    HW225872   0.216   5.632   4.682
 8325SOL     OW25873   1.620   5.277   4.624
 8325SOL    HW125874   1.711   5.318   4.627
 8325SOL    HW225875   1.552   5.344   4.654
 8326SOL     OW25876   3.365   0.780   0.115
 8326SOL    HW125877   3.333   0.862   0.163
 8326SOL    HW225878   3.400   0.714   0.181
 8327SOL     OW25879   1.005   6.087   5.317
 8327SOL    HW125880   1.009   6.162   5.383
 8327SOL    HW225881   1.096   6.045   5.309
 8328SOL     OW25882   1.389   6.957   0.946
 8328SOL    HW125883   1.370   6.965   1.044
 8328SOL    HW225884   1.448   6.878   0.930
 8329SOL     OW25885   1.746   1.803   6.324
 8329SOL    HW125886   1.742   1.813   6.225
 8329SOL    HW225887   1.672   1.743   6.355
 8330SOL     OW25888   3.208   6.623   0.234
 8330SOL    HW125889   3.153   6.566   0.173
 8330SOL    HW225890   3.148   6.682   0.287
 8331SOL     OW25891   1.877   2.691   6.347
 8331SOL    HW125892   1.836   2.602   6.330
 8331SOL    HW225893   1.823   2.762   6.302
 8332SOL     OW25894   4.904   4.676   1.068
 8332SOL    HW125895   4.843   4.597   1.073
 8332SOL    HW225896   4.999   4.645   1.070
 8333SOL     OW25897   1.919   4.283   5.689
 8333SOL    HW125898   2.000   4.334   5.719
 8333SOL    HW225899   1.913   4.286   5.589
 8334SOL     OW25900   3.275   2.668   6.143
 8334SOL    HW125901   3.363   2.654   6.188
 8334SOL    HW225902   3.289   2.717   6.057
 8335SOL     OW25903   0.038   2.953   0.654
 8335SOL    HW125904   0.121   2.902   0.631
 8335SOL    HW225905   6.995   2.943   0.581
 8336SOL     OW25906   0.610   4.327   3.668
 8336SOL    HW125907   0.531   4.386   3.652
 8336SOL    HW225908   0.689   4.384   3.690
 8337SOL     OW25909   6.612   6.654   4.444
 8337SOL    HW125910   6.599   6.749   4.416
 8337SOL    HW225911   6.621   6.649   4.543
 8338SOL     OW25912   2.414   4.507   0.606
 8338SOL    HW125913   2.442   4.475   0.697
 8338SOL    HW225914   2.333   4.565   0.615
 8339SOL     OW25915   6.536   7.005   1.601
 8339SOL    HW125916   6.538   6.945   1.682
 8339SOL    HW225917   6.553   0.075   1.629
 8340SOL     OW25918   5.831   2.429   6.096
 8340SOL    HW125919   5.918   2.477   6.104
 8340SOL    HW225920   5.807   2.389   6.185
 8341SOL     OW25921   3.531   6.858   0.929
 8341SOL    HW125922   3.614   6.809   0.956
 8341SOL    HW225923   3.548   6.907   0.844
 8342SOL     OW25924   3.976   0.869   1.258
 8342SOL    HW125925   4.075   0.886   1.260
 8342SOL    HW225926   3.927   0.955   1.249
 8343SOL     OW25927   4.610   6.178   3.118
 8343SOL    HW125928   4.583   6.144   3.028
 8343SOL    HW225929   4.561   6.127   3.189
 8344SOL     OW25930   2.239   4.328   5.061
 8344SOL    HW125931   2.278   4.402   5.005
 8344SOL    HW225932   2.278   4.241   5.033
 8345SOL     OW25933   6.724   0.179   3.958
 8345SOL    HW125934   6.720   0.279   3.962
 8345SOL    HW225935   6.767   0.152   3.871
 8346SOL     OW25936   5.273   4.129   2.602
 8346SOL    HW125937   5.296   4.147   2.507
 8346SOL    HW225938   5.350   4.084   2.648
 8347SOL     OW25939   1.936   1.444   6.887
 8347SOL    HW125940   2.001   1.406   6.821
 8347SOL    HW225941   1.957   1.407   6.978
 8348SOL     OW25942   2.308   6.657   1.048
 8348SOL    HW125943   2.358   6.742   1.064
 8348SOL    HW225944   2.370   6.579   1.058
 8349SOL     OW25945   4.410   6.331   1.014
 8349SOL    HW125946   4.337   6.378   0.963
 8349SOL    HW225947   4.498   6.353   0.973
 8350SOL     OW25948   2.454   0.849   6.348
 8350SOL    HW125949   2.418   0.756   6.356
 8350SOL    HW225950   2.498   0.860   6.259
 8351SOL     OW25951   0.994   4.569   2.844
 8351SOL    HW125952   0.978   4.632   2.920
 8351SOL    HW225953   1.027   4.482   2.880
 8352SOL     OW25954   2.377   6.622   6.724
 8352SOL    HW125955   2.460   6.572   6.750
 8352SOL    HW225956   2.382   6.647   6.628
 8353SOL     OW25957   1.919   5.912   2.954
 8353SOL    HW125958   1.910   5.911   2.855
 8353SOL    HW225959   2.008   5.874   2.980
 8354SOL     OW25960   5.162   3.267   3.774
 8354SOL    HW125961   5.154   3.325   3.693
 8354SOL    HW225962   5.130   3.318   3.854
 8355SOL     OW25963   3.626   3.732   5.622
 8355SOL    HW125964   3.527   3.726   5.618
 8355SOL    HW225965   3.653   3.825   5.648
 8356SOL     OW25966   3.587   2.863   2.472
 8356SOL    HW125967   3.491   2.858   2.444
 8356SOL    HW225968   3.645   2.872   2.391
 8357SOL     OW25969   3.644   6.923   5.030
 8357SOL    HW125970   3.625   7.018   5.052
 8357SOL    HW225971   3.682   6.917   4.938
 8358SOL     OW25972   6.986   0.967   4.506
 8358SOL    HW125973   7.020   0.939   4.416
 8358SOL    HW225974   7.006   1.063   4.521
 8359SOL     OW25975   5.065   2.817   5.562
 8359SOL    HW125976   4.988   2.762   5.532
 8359SOL    HW225977   5.114   2.769   5.635
 8360SOL     OW25978   3.418   0.279   2.551
 8360SOL    HW125979   3.487   0.344   2.582
 8360SOL    HW225980   3.442   0.245   2.460
 8361SOL     OW25981   5.026   1.856   0.012
 8361SOL    HW125982   5.104   1.812   0.057
 8361SOL    HW225983   5.032   1.955   0.026
 8362SOL     OW25984   0.433   4.464   2.010
 8362SOL    HW125985   0.359   4.483   2.075
 8362SOL    HW225986   0.416   4.376   1.966
 8363SOL     OW25987   3.546   2.332   1.519
 8363SOL    HW125988   3.581   2.409   1.573
 8363SOL    HW225989   3.584   2.246   1.555
 8364SOL     OW25990   0.624   1.520   3.620
 8364SOL    HW125991   0.648   1.446   3.684
 8364SOL    HW225992   0.702   1.539   3.561
 8365SOL     OW25993   1.930   2.705   1.134
 8365SOL    HW125994   2.026   2.730   1.141
 8365SOL    HW225995   1.919   2.607   1.154
 8366SOL     OW25996   5.193   6.128   1.168
 8366SOL    HW125997   5.108   6.153   1.121
 8366SOL    HW225998   5.172   6.097   1.261
 8367SOL     OW25999   0.800   5.030   4.274
 8367SOL    HW126000   0.809   4.945   4.326
 8367SOL    HW226001   0.715   5.075   4.299
 8368SOL     OW26002   0.547   3.635   6.308
 8368SOL    HW126003   0.643   3.663   6.312
 8368SOL    HW226004   0.489   3.712   6.335
 8369SOL     OW26005   1.271   0.966   0.464
 8369SOL    HW126006   1.189   0.997   0.417
 8369SOL    HW226007   1.296   1.032   0.535
 8370SOL     OW26008   2.527   3.244   1.616
 8370SOL    HW126009   2.468   3.268   1.539
 8370SOL    HW226010   2.543   3.145   1.615
 8371SOL     OW26011   2.491   4.583   5.368
 8371SOL    HW126012   2.590   4.576   5.357
 8371SOL    HW226013   2.453   4.493   5.389
 8372SOL     OW26014   1.492   7.024   3.118
 8372SOL    HW126015   1.549   7.015   3.036
 8372SOL    HW226016   1.434   6.942   3.126
 8373SOL     OW26017   6.397   0.718   4.550
 8373SOL    HW126018   6.313   0.733   4.602
 8373SOL    HW226019   6.373   0.697   4.455
 8374SOL     OW26020   0.247   1.958   3.640
 8374SOL    HW126021   0.175   1.890   3.658
 8374SOL    HW226022   0.219   2.016   3.563
 8375SOL     OW26023   1.414   1.922   5.438
 8375SOL    HW126024   1.427   1.885   5.531
 8375SOL    HW226025   1.448   2.016   5.435
 8376SOL     OW26026   1.109   0.694   3.490
 8376SOL    HW126027   1.141   0.607   3.530
 8376SOL    HW226028   1.188   0.752   3.471
 8377SOL     OW26029   4.507   5.814   1.955
 8377SOL    HW126030   4.492   5.739   1.891
 8377SOL    HW226031   4.598   5.807   1.995
 8378SOL     OW26032   3.999   6.037   6.047
 8378SOL    HW126033   4.027   6.069   5.957
 8378SOL    HW226034   4.008   6.111   6.113
 8379SOL     OW26035   6.404   2.902   1.771
 8379SOL    HW126036   6.307   2.921   1.758
 8379SOL    HW226037   6.458   2.973   1.727
 8380SOL     OW26038   1.607   5.376   2.777
 8380SOL    HW126039   1.630   5.472   2.761
 8380SOL    HW226040   1.690   5.321   2.777
 8381SOL     OW26041   0.458   2.598   2.601
 8381SOL    HW126042   0.453   2.678   2.661
 8381SOL    HW226043   0.366   2.559   2.590
 8382SOL     OW26044   0.972   0.597   2.089
 8382SOL    HW126045   1.006   0.512   2.129
 8382SOL    HW226046   0.886   0.578   2.040
 8383SOL     OW26047   2.563   6.754   4.864
 8383SOL    HW126048   2.496   6.688   4.831
 8383SOL    HW226049   2.522   6.809   4.937
 8384SOL     OW26050   0.755   3.746   3.784
 8384SOL    HW126051   0.782   3.723   3.878
 8384SOL    HW226052   0.674   3.805   3.787
 8385SOL     OW26053   3.889   2.266   1.442
 8385SOL    HW126054   3.843   2.251   1.529
 8385SOL    HW226055   3.875   2.186   1.383
 8386SOL     OW26056   6.498   5.823   2.466
 8386SOL    HW126057   6.519   5.797   2.561
 8386SOL    HW226058   6.459   5.745   2.418
 8387SOL     OW26059   0.487   2.078   3.659
 8387SOL    HW126060   0.401   2.027   3.662
 8387SOL    HW226061   0.485   2.152   3.726
 8388SOL     OW26062   3.325   6.083   1.294
 8388SOL    HW126063   3.305   5.994   1.334
 8388SOL    HW226064   3.422   6.089   1.273
 8389SOL     OW26065   0.901   2.958   4.384
 8389SOL    HW126066   0.903   2.859   4.399
 8389SOL    HW226067   0.861   3.003   4.464
 8390SOL     OW26068   1.287   6.517   6.698
 8390SOL    HW126069   1.284   6.490   6.601
 8390SOL    HW226070   1.291   6.435   6.755
 8391SOL     OW26071   5.055   6.356   1.015
 8391SOL    HW126072   4.993   6.278   1.024
 8391SOL    HW226073   5.050   6.392   0.922
 8392SOL     OW26074   3.398   5.789   0.417
 8392SOL    HW126075   3.311   5.830   0.392
 8392SOL    HW226076   3.382   5.709   0.476
 8393SOL     OW26077   1.314   6.762   2.250
 8393SOL    HW126078   1.252   6.832   2.285
 8393SOL    HW226079   1.399   6.764   2.303
 8394SOL     OW26080   1.840   1.530   4.303
 8394SOL    HW126081   1.895   1.612   4.287
 8394SOL    HW226082   1.891   1.466   4.360
 8395SOL     OW26083   2.222   6.264   6.976
 8395SOL    HW126084   2.223   6.263   0.051
 8395SOL    HW226085   2.161   6.192   6.943
 8396SOL     OW26086   4.898   2.249   0.388
 8396SOL    HW126087   4.942   2.317   0.330
 8396SOL    HW226088   4.819   2.210   0.340
 8397SOL     OW26089   0.390   4.474   3.677
 8397SOL    HW126090   0.297   4.497   3.646
 8397SOL    HW226091   0.397   4.491   3.775
 8398SOL     OW26092   5.684   1.930   6.362
 8398SOL    HW126093   5.704   2.010   6.418
 8398SOL    HW226094   5.729   1.940   6.273
 8399SOL     OW26095   5.441   6.992   5.087
 8399SOL    HW126096   5.411   6.908   5.041
 8399SOL    HW226097   5.366   0.035   5.086
 8400SOL     OW26098   5.668   5.771   3.323
 8400SOL    HW126099   5.750   5.799   3.373
 8400SOL    HW226100   5.662   5.672   3.321
 8401SOL     OW26101   2.065   3.384   4.939
 8401SOL    HW126102   2.057   3.299   4.991
 8401SOL    HW226103   2.113   3.367   4.853
 8402SOL     OW26104   4.873   1.040   4.165
 8402SOL    HW126105   4.927   1.043   4.081
 8402SOL    HW226106   4.880   1.128   4.212
 8403SOL     OW26107   0.927   1.859   6.369
 8403SOL    HW126108   1.025   1.864   6.350
 8403SOL    HW226109   0.878   1.841   6.283
 8404SOL     OW26110   4.797   5.540   5.511
 8404SOL    HW126111   4.813   5.615   5.576
 8404SOL    HW226112   4.843   5.458   5.542
 8405SOL     OW26113   0.492   3.117   6.322
 8405SOL    HW126114   0.542   3.084   6.242
 8405SOL    HW226115   0.530   3.204   6.352
 8406SOL     OW26116   5.639   3.852   1.864
 8406SOL    HW126117   5.709   3.784   1.885
 8406SOL    HW226118   5.572   3.856   1.938
 8407SOL     OW26119   5.708   3.314   1.937
 8407SOL    HW126120   5.611   3.339   1.941
 8407SOL    HW226121   5.735   3.268   2.022
 8408SOL     OW26122   5.386   4.151   4.541
 8408SOL    HW126123   5.332   4.078   4.585
 8408SOL    HW226124   5.407   4.222   4.607
 8409SOL     OW26125   0.897   2.041   3.678
 8409SOL    HW126126   0.848   2.012   3.596
 8409SOL    HW226127   0.925   1.961   3.731
 8410SOL     OW26128   1.616   5.321   2.007
 8410SOL    HW126129   1.630   5.260   1.929
 8410SOL    HW226130   1.526   5.305   2.046
 8411SOL     OW26131   2.134   3.530   3.059
 8411SOL    HW126132   2.131   3.442   3.011
 8411SOL    HW226133   2.105   3.602   2.996
 8412SOL     OW26134   5.542   2.584   2.417
 8412SOL    HW126135   5.463   2.587   2.478
 8412SOL    HW226136   5.615   2.642   2.453
 8413SOL     OW26137   1.869   5.374   2.022
 8413SOL    HW126138   1.770   5.369   2.028
 8413SOL    HW226139   1.907   5.281   2.018
 8414SOL     OW26140   6.454   0.439   4.007
 8414SOL    HW126141   6.376   0.489   4.046
 8414SOL    HW226142   6.536   0.458   4.060
 8415SOL     OW26143   0.751   4.864   1.162
 8415SOL    HW126144   0.755   4.781   1.107
 8415SOL    HW226145   0.826   4.926   1.135
 8416SOL     OW26146   4.155   4.747   2.794
 8416SOL    HW126147   4.241   4.795   2.779
 8416SOL    HW226148   4.103   4.744   2.709
 8417SOL     OW26149   0.843   5.387   6.966
 8417SOL    HW126150   0.876   5.482   6.967
 8417SOL    HW226151   0.838   5.352   0.035
 8418SOL     OW26152   5.788   6.397   3.022
 8418SOL    HW126153   5.824   6.490   3.015
 8418SOL    HW226154   5.729   6.390   3.103
 8419SOL     OW26155   2.360   1.611   3.370
 8419SOL    HW126156   2.403   1.657   3.292
 8419SOL    HW226157   2.314   1.528   3.338
 8420SOL     OW26158   4.963   1.505   5.346
 8420SOL    HW126159   4.979   1.595   5.386
 8420SOL    HW226160   4.883   1.510   5.286
 8421SOL     OW26161   6.838   1.062   1.277
 8421SOL    HW126162   6.799   1.110   1.356
 8421SOL    HW226163   6.769   1.058   1.204
 8422SOL     OW26164   2.909   1.030   1.156
 8422SOL    HW126165   2.891   1.029   1.058
 8422SOL    HW226166   2.923   1.125   1.187
 8423SOL     OW26167   1.550   4.630   2.079
 8423SOL    HW126168   1.614   4.552   2.084
 8423SOL    HW226169   1.534   4.652   1.983
 8424SOL     OW26170   2.603   2.439   2.107
 8424SOL    HW126171   2.695   2.410   2.081
 8424SOL    HW226172   2.590   2.424   2.205
 8425SOL     OW26173   0.095   5.597   5.894
 8425SOL    HW126174   0.044   5.571   5.812
 8425SOL    HW226175   0.052   5.675   5.937
 8426SOL     OW26176   3.646   4.140   3.654
 8426SOL    HW126177   3.566   4.138   3.593
 8426SOL    HW226178   3.673   4.046   3.675
 8427SOL     OW26179   2.228   0.981   6.693
 8427SOL    HW126180   2.159   1.031   6.745
 8427SOL    HW226181   2.193   0.890   6.672
 8428SOL     OW26182   0.117   2.715   1.961
 8428SOL    HW126183   0.217   2.710   1.959
 8428SOL    HW226184   0.087   2.804   1.929
 8429SOL     OW26185   1.147   6.690   3.197
 8429SOL    HW126186   1.242   6.661   3.186
 8429SOL    HW226187   1.105   6.637   3.271
 8430SOL     OW26188   3.480   6.155   3.649
 8430SOL    HW126189   3.453   6.175   3.744
 8430SOL    HW226190   3.569   6.109   3.649
 8431SOL     OW26191   3.485   3.509   3.121
 8431SOL    HW126192   3.460   3.472   3.031
 8431SOL    HW226193   3.452   3.603   3.129
 8432SOL     OW26194   3.962   5.705   0.189
 8432SOL    HW126195   3.987   5.620   0.143
 8432SOL    HW226196   4.016   5.780   0.151
 8433SOL     OW26197   6.423   1.579   3.413
 8433SOL    HW126198   6.444   1.482   3.398
 8433SOL    HW226199   6.490   1.636   3.366
 8434SOL     OW26200   5.426   6.472   6.859
 8434SOL    HW126201   5.464   6.536   6.792
 8434SOL    HW226202   5.327   6.464   6.845
 8435SOL     OW26203   5.179   3.465   0.231
 8435SOL    HW126204   5.169   3.563   0.213
 8435SOL    HW226205   5.092   3.429   0.264
 8436SOL     OW26206   3.465   4.188   1.561
 8436SOL    HW126207   3.542   4.147   1.609
 8436SOL    HW226208   3.464   4.287   1.576
 8437SOL     OW26209   0.352   3.187   0.810
 8437SOL    HW126210   0.275   3.234   0.767
 8437SOL    HW226211   0.402   3.134   0.742
 8438SOL     OW26212   2.567   5.829   1.719
 8438SOL    HW126213   2.589   5.915   1.765
 8438SOL    HW226214   2.501   5.778   1.774
 8439SOL     OW26215   5.538   0.814   2.055
 8439SOL    HW126216   5.613   0.750   2.035
 8439SOL    HW226217   5.450   0.770   2.037
 8440SOL     OW26218   1.427   4.046   3.442
 8440SOL    HW126219   1.487   4.109   3.490
 8440SOL    HW226220   1.480   3.966   3.411
 8441SOL     OW26221   4.654   5.927   0.927
 8441SOL    HW126222   4.699   5.869   0.860
 8441SOL    HW226223   4.685   6.021   0.915
 8442SOL     OW26224   2.865   2.948   0.492
 8442SOL    HW126225   2.840   2.901   0.408
 8442SOL    HW226226   2.837   2.894   0.571
 8443SOL     OW26227   6.729   2.689   0.489
 8443SOL    HW126228   6.819   2.711   0.450
 8443SOL    HW226229   6.695   2.768   0.539
 8444SOL     OW26230   5.465   2.551   2.918
 8444SOL    HW126231   5.435   2.639   2.954
 8444SOL    HW226232   5.549   2.523   2.964
 8445SOL     OW26233   3.357   5.425   3.578
 8445SOL    HW126234   3.454   5.405   3.594
 8445SOL    HW226235   3.347   5.476   3.492
 8446SOL     OW26236   6.069   4.011   3.210
 8446SOL    HW126237   5.998   4.008   3.140
 8446SOL    HW226238   6.159   4.005   3.166
 8447SOL     OW26239   5.525   5.155   0.728
 8447SOL    HW126240   5.593   5.161   0.655
 8447SOL    HW226241   5.454   5.223   0.713
 8448SOL     OW26242   1.228   4.575   5.490
 8448SOL    HW126243   1.168   4.541   5.563
 8448SOL    HW226244   1.318   4.596   5.528
 8449SOL     OW26245   2.185   1.246   5.716
 8449SOL    HW126246   2.119   1.311   5.677
 8449SOL    HW226247   2.275   1.263   5.677
 8450SOL     OW26248   1.824   6.060   0.749
 8450SOL    HW126249   1.859   6.090   0.838
 8450SOL    HW226250   1.826   6.137   0.685
 8451SOL     OW26251   2.757   4.363   1.689
 8451SOL    HW126252   2.773   4.264   1.694
 8451SOL    HW226253   2.805   4.408   1.763
 8452SOL     OW26254   6.882   5.689   2.709
 8452SOL    HW126255   6.877   5.787   2.724
 8452SOL    HW226256   6.840   5.641   2.786
 8453SOL     OW26257   0.732   4.309   5.471
 8453SOL    HW126258   0.757   4.318   5.374
 8453SOL    HW226259   0.773   4.226   5.508
 8454SOL     OW26260   2.229   6.950   6.026
 8454SOL    HW126261   2.277   7.018   6.081
 8454SOL    HW226262   2.163   6.995   5.966
 8455SOL     OW26263   6.150   2.175   0.084
 8455SOL    HW126264   6.098   2.163   0.169
 8455SOL    HW226265   6.205   2.094   0.066
 8456SOL     OW26266   5.920   4.757   3.437
 8456SOL    HW126267   5.935   4.695   3.359
 8456SOL    HW226268   5.824   4.753   3.465
 8457SOL     OW26269   5.555   6.188   6.148
 8457SOL    HW126270   5.494   6.257   6.187
 8457SOL    HW226271   5.647   6.227   6.140
 8458SOL     OW26272   1.165   1.242   1.497
 8458SOL    HW126273   1.166   1.282   1.405
 8458SOL    HW226274   1.112   1.157   1.495
 8459SOL     OW26275   1.846   4.827   2.915
 8459SOL    HW126276   1.773   4.780   2.865
 8459SOL    HW226277   1.832   4.817   3.013
 8460SOL     OW26278   3.483   1.129   1.384
 8460SOL    HW126279   3.456   1.159   1.293
 8460SOL    HW226280   3.580   1.150   1.398
 8461SOL     OW26281   5.317   4.852   3.127
 8461SOL    HW126282   5.235   4.869   3.182
 8461SOL    HW226283   5.381   4.928   3.139
 8462SOL     OW26284   1.854   3.203   0.315
 8462SOL    HW126285   1.805   3.285   0.345
 8462SOL    HW226286   1.953   3.219   0.320
 8463SOL     OW26287   0.628   6.203   1.885
 8463SOL    HW126288   0.577   6.125   1.850
 8463SOL    HW226289   0.699   6.228   1.819
 8464SOL     OW26290   6.854   2.927   6.869
 8464SOL    HW126291   6.904   2.926   6.782
 8464SOL    HW226292   6.890   3.001   6.926
 8465SOL     OW26293   5.790   3.759   0.645
 8465SOL    HW126294   5.856   3.831   0.623
 8465SOL    HW226295   5.698   3.789   0.622
 8466SOL     OW26296   0.219   1.670   4.632
 8466SOL    HW126297   0.313   1.703   4.624
 8466SOL    HW226298   0.219   1.581   4.677
 8467SOL     OW26299   3.080   0.594   0.715
 8467SOL    HW126300   3.166   0.613   0.667
 8467SOL    HW226301   3.090   0.618   0.812
 8468SOL     OW26302   6.811   3.436   1.917
 8468SOL    HW126303   6.901   3.469   1.947
 8468SOL    HW226304   6.768   3.387   1.992
 8469SOL     OW26305   3.190   2.868   5.648
 8469SOL    HW126306   3.254   2.859   5.572
 8469SOL    HW226307   3.140   2.954   5.641
 8470SOL     OW26308   1.664   5.367   0.380
 8470SOL    HW126309   1.648   5.285   0.325
 8470SOL    HW226310   1.579   5.393   0.427
 8471SOL     OW26311   3.466   1.984   3.920
 8471SOL    HW126312   3.489   2.033   3.836
 8471SOL    HW226313   3.405   1.908   3.898
 8472SOL     OW26314   6.420   1.471   6.797
 8472SOL    HW126315   6.517   1.482   6.820
 8472SOL    HW226316   6.374   1.423   6.871
 8473SOL     OW26317   4.797   5.159   5.776
 8473SOL    HW126318   4.840   5.073   5.802
 8473SOL    HW226319   4.769   5.154   5.680
 8474SOL     OW26320   2.909   4.252   6.690
 8474SOL    HW126321   2.929   4.231   6.595
 8474SOL    HW226322   2.832   4.196   6.722
 8475SOL     OW26323   0.859   1.830   3.050
 8475SOL    HW126324   0.912   1.858   3.130
 8475SOL    HW226325   0.881   1.735   3.026
 8476SOL     OW26326   6.829   0.459   2.296
 8476SOL    HW126327   6.820   0.522   2.219
 8476SOL    HW226328   6.841   0.511   2.380
 8477SOL     OW26329   6.288   0.369   1.001
 8477SOL    HW126330   6.358   0.311   0.960
 8477SOL    HW226331   6.332   0.436   1.061
 8478SOL     OW26332   2.227   6.737   0.148
 8478SOL    HW126333   2.135   6.748   0.185
 8478SOL    HW226334   2.231   6.772   0.055
 8479SOL     OW26335   1.729   1.632   0.058
 8479SOL    HW126336   1.660   1.568   0.026
 8479SOL    HW226337   1.728   1.714   0.000
 8480SOL     OW26338   3.292   4.473   1.601
 8480SOL    HW126339   3.354   4.482   1.679
 8480SOL    HW226340   3.227   4.549   1.602
 8481SOL     OW26341   5.990   3.281   1.751
 8481SOL    HW126342   5.894   3.298   1.728
 8481SOL    HW226343   6.016   3.338   1.829
 8482SOL     OW26344   5.064   6.751   5.340
 8482SOL    HW126345   5.027   6.805   5.264
 8482SOL    HW226346   5.032   6.790   5.426
 8483SOL     OW26347   4.562   5.320   3.747
 8483SOL    HW126348   4.497   5.247   3.726
 8483SOL    HW226349   4.582   5.321   3.845
 8484SOL     OW26350   5.764   6.797   5.447
 8484SOL    HW126351   5.777   6.723   5.382
 8484SOL    HW226352   5.851   6.842   5.465
 8485SOL     OW26353   3.366   0.655   5.877
 8485SOL    HW126354   3.410   0.697   5.956
 8485SOL    HW226355   3.327   0.726   5.819
 8486SOL     OW26356   4.807   2.670   4.475
 8486SOL    HW126357   4.893   2.681   4.425
 8486SOL    HW226358   4.785   2.755   4.522
 8487SOL     OW26359   1.258   1.346   5.795
 8487SOL    HW126360   1.224   1.340   5.889
 8487SOL    HW226361   1.181   1.362   5.733
 8488SOL     OW26362   4.061   5.788   3.111
 8488SOL    HW126363   4.083   5.719   3.042
 8488SOL    HW226364   3.962   5.788   3.128
 8489SOL     OW26365   6.295   2.382   1.685
 8489SOL    HW126366   6.383   2.404   1.728
 8489SOL    HW226367   6.304   2.298   1.631
 8490SOL     OW26368   4.203   0.489   0.265
 8490SOL    HW126369   4.211   0.488   0.365
 8490SOL    HW226370   4.283   0.532   0.225
 8491SOL     OW26371   3.039   6.051   1.844
 8491SOL    HW126372   3.005   6.003   1.763
 8491SOL    HW226373   3.112   5.996   1.886
 8492SOL     OW26374   6.129   6.616   4.197
 8492SOL    HW126375   6.164   6.575   4.282
 8492SOL    HW226376   6.197   6.677   4.159
 8493SOL     OW26377   4.985   0.243   5.200
 8493SOL    HW126378   4.909   0.197   5.153
 8493SOL    HW226379   5.028   0.308   5.137
 8494SOL     OW26380   0.237   3.576   2.099
 8494SOL    HW126381   0.316   3.618   2.053
 8494SOL    HW226382   0.270   3.510   2.167
 8495SOL     OW26383   4.029   5.443   4.703
 8495SOL    HW126384   3.933   5.445   4.733
 8495SOL    HW226385   4.034   5.404   4.611
 8496SOL     OW26386   4.062   2.153   2.475
 8496SOL    HW126387   4.071   2.075   2.537
 8496SOL    HW226388   3.965   2.172   2.460
 8497SOL     OW26389   5.931   1.080   3.432
 8497SOL    HW126390   5.834   1.055   3.429
 8497SOL    HW226391   5.981   1.027   3.364
 8498SOL     OW26392   6.029   6.036   5.501
 8498SOL    HW126393   6.061   5.942   5.511
 8498SOL    HW226394   5.963   6.041   5.426
 8499SOL     OW26395   6.691   0.078   6.204
 8499SOL    HW126396   6.692   0.043   6.298
 8499SOL    HW226397   6.681   0.178   6.205
 8500SOL     OW26398   0.314   0.272   5.608
 8500SOL    HW126399   0.299   0.313   5.518
 8500SOL    HW226400   0.229   0.230   5.640
 8501SOL     OW26401   3.757   6.745   4.585
 8501SOL    HW126402   3.674   6.691   4.596
 8501SOL    HW226403   3.814   6.705   4.514
 8502SOL     OW26404   6.954   2.669   0.754
 8502SOL    HW126405   6.975   2.765   0.774
 8502SOL    HW226406   6.993   2.644   0.665
 8503SOL     OW26407   4.722   2.474   5.932
 8503SOL    HW126408   4.685   2.458   5.840
 8503SOL    HW226409   4.815   2.510   5.924
 8504SOL     OW26410   1.590   1.144   3.358
 8504SOL    HW126411   1.689   1.160   3.358
 8504SOL    HW226412   1.564   1.102   3.271
 8505SOL     OW26413   6.111   1.402   2.638
 8505SOL    HW126414   6.124   1.442   2.729
 8505SOL    HW226415   6.014   1.403   2.615
 8506SOL     OW26416   2.425   1.044   4.328
 8506SOL    HW126417   2.334   1.003   4.334
 8506SOL    HW226418   2.438   1.084   4.238
 8507SOL     OW26419   4.242   5.356   0.196
 8507SOL    HW126420   4.324   5.394   0.239
 8507SOL    HW226421   4.217   5.413   0.117
 8508SOL     OW26422   3.005   1.139   6.142
 8508SOL    HW126423   2.961   1.051   6.125
 8508SOL    HW226424   3.006   1.157   6.241
 8509SOL     OW26425   3.825   1.712   2.305
 8509SOL    HW126426   3.749   1.683   2.362
 8509SOL    HW226427   3.910   1.675   2.341
 8510SOL     OW26428   0.761   2.436   5.650
 8510SOL    HW126429   0.819   2.422   5.730
 8510SOL    HW226430   0.812   2.487   5.581
 8511SOL     OW26431   6.014   1.810   3.730
 8511SOL    HW126432   6.017   1.784   3.827
 8511SOL    HW226433   5.933   1.867   3.714
 8512SOL     OW26434   2.652   6.905   6.479
 8512SOL    HW126435   2.683   6.836   6.414
 8512SOL    HW226436   2.720   6.979   6.484
 8513SOL     OW26437   3.566   6.230   6.792
 8513SOL    HW126438   3.554   6.189   6.883
 8513SOL    HW226439   3.531   6.324   6.794
 8514SOL     OW26440   4.643   5.727   4.375
 8514SOL    HW126441   4.566   5.667   4.394
 8514SOL    HW226442   4.634   5.767   4.284
 8515SOL     OW26443   5.432   2.625   1.942
 8515SOL    HW126444   5.485   2.653   2.022
 8515SOL    HW226445   5.376   2.702   1.911
 8516SOL     OW26446   0.138   2.976   1.462
 8516SOL    HW126447   0.193   3.041   1.513
 8516SOL    HW226448   0.191   2.893   1.444
 8517SOL     OW26449   0.712   3.710   4.688
 8517SOL    HW126450   0.658   3.789   4.659
 8517SOL    HW226451   0.798   3.741   4.727
 8518SOL     OW26452   3.341   5.491   1.452
 8518SOL    HW126453   3.344   5.481   1.552
 8518SOL    HW226454   3.250   5.519   1.424
 8519SOL     OW26455   3.106   5.482   3.165
 8519SOL    HW126456   3.049   5.438   3.235
 8519SOL    HW226457   3.110   5.424   3.084
 8520SOL     OW26458   3.557   5.608   6.774
 8520SOL    HW126459   3.606   5.652   6.698
 8520SOL    HW226460   3.581   5.655   6.860
 8521SOL     OW26461   0.328   0.949   4.023
 8521SOL    HW126462   0.305   0.976   3.929
 8521SOL    HW226463   0.423   0.917   4.027
 8522SOL     OW26464   2.766   5.868   4.730
 8522SOL    HW126465   2.691   5.819   4.776
 8522SOL    HW226466   2.730   5.952   4.689
 8523SOL     OW26467   1.906   5.525   0.104
 8523SOL    HW126468   1.990   5.479   0.133
 8523SOL    HW226469   1.929   5.607   0.053
 8524SOL     OW26470   2.028   1.018   6.185
 8524SOL    HW126471   2.121   1.002   6.153
 8524SOL    HW226472   2.003   0.948   6.253
 8525SOL     OW26473   5.976   4.003   4.994
 8525SOL    HW126474   5.895   3.952   5.023
 8525SOL    HW226475   6.002   3.973   4.902
 8526SOL     OW26476   6.795   2.797   1.425
 8526SOL    HW126477   6.761   2.868   1.364
 8526SOL    HW226478   6.830   2.839   1.509
 8527SOL     OW26479   4.704   1.579   4.963
 8527SOL    HW126480   4.612   1.557   4.995
 8527SOL    HW226481   4.699   1.636   4.881
 8528SOL     OW26482   6.221   6.744   0.185
 8528SOL    HW126483   6.266   6.711   0.268
 8528SOL    HW226484   6.282   6.730   0.107
 8529SOL     OW26485   0.027   1.431   4.527
 8529SOL    HW126486   7.000   1.476   4.454
 8529SOL    HW226487   0.015   1.482   4.613
 8530SOL     OW26488   1.618   5.702   5.586
 8530SOL    HW126489   1.645   5.652   5.668
 8530SOL    HW226490   1.521   5.687   5.567
 8531SOL     OW26491   2.978   5.221   3.219
 8531SOL    HW126492   2.885   5.194   3.194
 8531SOL    HW226493   2.977   5.268   3.307
 8532SOL     OW26494   1.288   2.916   6.753
 8532SOL    HW126495   1.221   2.861   6.801
 8532SOL    HW226496   1.267   2.916   6.655
 8533SOL     OW26497   3.095   0.459   6.725
 8533SOL    HW126498   3.061   0.388   6.662
 8533SOL    HW226499   3.187   0.486   6.697
 8534SOL     OW26500   3.540   2.509   0.965
 8534SOL    HW126501   3.624   2.456   0.978
 8534SOL    HW226502   3.559   2.606   0.977
 8535SOL     OW26503   0.176   2.098   5.534
 8535SOL    HW126504   0.261   2.133   5.496
 8535SOL    HW226505   0.099   2.150   5.498
 8536SOL     OW26506   6.613   0.337   6.189
 8536SOL    HW126507   6.600   0.349   6.288
 8536SOL    HW226508   6.523   0.327   6.146
 8537SOL     OW26509   3.210   6.251   3.533
 8537SOL    HW126510   3.270   6.182   3.572
 8537SOL    HW226511   3.126   6.257   3.587
 8538SOL     OW26512   4.069   1.924   5.403
 8538SOL    HW126513   4.047   1.879   5.317
 8538SOL    HW226514   4.085   1.856   5.474
 8539SOL     OW26515   0.773   2.965   2.709
 8539SOL    HW126516   0.828   3.028   2.763
 8539SOL    HW226517   0.725   3.015   2.637
 8540SOL     OW26518   4.463   5.997   6.074
 8540SOL    HW126519   4.428   6.050   5.996
 8540SOL    HW226520   4.429   5.903   6.067
 8541SOL     OW26521   3.515   6.195   5.437
 8541SOL    HW126522   3.502   6.228   5.531
 8541SOL    HW226523   3.525   6.273   5.375
 8542SOL     OW26524   1.605   5.132   4.366
 8542SOL    HW126525   1.562   5.161   4.451
 8542SOL    HW226526   1.702   5.113   4.382
 8543SOL     OW26527   3.440   1.717   5.696
 8543SOL    HW126528   3.500   1.771   5.755
 8543SOL    HW226529   3.350   1.709   5.737
 8544SOL     OW26530   4.766   4.023   5.520
 8544SOL    HW126531   4.831   3.962   5.474
 8544SOL    HW226532   4.801   4.047   5.610
 8545SOL     OW26533   2.148   0.534   6.778
 8545SOL    HW126534   2.131   0.605   6.710
 8545SOL    HW226535   2.243   0.539   6.808
 8546SOL     OW26536   2.854   1.691   4.321
 8546SOL    HW126537   2.909   1.687   4.404
 8546SOL    HW226538   2.757   1.700   4.345
 8547SOL     OW26539   5.500   4.824   5.863
 8547SOL    HW126540   5.452   4.831   5.776
 8547SOL    HW226541   5.447   4.872   5.934
 8548SOL     OW26542   1.808   4.052   3.747
 8548SOL    HW126543   1.855   4.002   3.819
 8548SOL    HW226544   1.751   3.989   3.694
 8549SOL     OW26545   2.853   0.100   3.573
 8549SOL    HW126546   2.949   0.074   3.559
 8549SOL    HW226547   2.794   0.029   3.536
 8550SOL     OW26548   0.249   3.596   5.051
 8550SOL    HW126549   0.190   3.561   4.979
 8550SOL    HW226550   0.313   3.524   5.080
 8551SOL     OW26551   3.480   2.151   4.412
 8551SOL    HW126552   3.441   2.243   4.410
 8551SOL    HW226553   3.434   2.095   4.344
 8552SOL     OW26554   3.937   1.371   1.793
 8552SOL    HW126555   3.996   1.292   1.779
 8552SOL    HW226556   3.964   1.418   1.878
 8553SOL     OW26557   6.094   2.376   0.388
 8553SOL    HW126558   6.108   2.380   0.486
 8553SOL    HW226559   6.070   2.282   0.362
 8554SOL     OW26560   0.267   0.959   6.269
 8554SOL    HW126561   0.265   0.972   6.170
 8554SOL    HW226562   0.269   0.861   6.289
 8555SOL     OW26563   3.765   1.399   4.149
 8555SOL    HW126564   3.789   1.496   4.160
 8555SOL    HW226565   3.848   1.345   4.137
 8556SOL     OW26566   1.283   3.809   6.180
 8556SOL    HW126567   1.369   3.857   6.197
 8556SOL    HW226568   1.264   3.747   6.256
 8557SOL     OW26569   6.139   6.812   0.554
 8557SOL    HW126570   6.146   6.886   0.621
 8557SOL    HW226571   6.046   6.806   0.519
 8558SOL     OW26572   1.883   5.953   3.653
 8558SOL    HW126573   1.909   6.044   3.686
 8558SOL    HW226574   1.893   5.949   3.554
 8559SOL     OW26575   1.593   2.145   2.605
 8559SOL    HW126576   1.495   2.151   2.625
 8559SOL    HW226577   1.645   2.142   2.691
 8560SOL     OW26578   3.438   4.764   1.635
 8560SOL    HW126579   3.503   4.740   1.707
 8560SOL    HW226580   3.487   4.779   1.549
 8561SOL     OW26581   3.728   1.078   2.375
 8561SOL    HW126582   3.753   1.087   2.279
 8561SOL    HW226583   3.636   1.039   2.382
 8562SOL     OW26584   6.041   4.141   5.826
 8562SOL    HW126585   6.124   4.188   5.856
 8562SOL    HW226586   6.029   4.151   5.727
 8563SOL     OW26587   0.264   4.061   3.828
 8563SOL    HW126588   0.334   4.094   3.764
 8563SOL    HW226589   0.174   4.081   3.790
 8564SOL     OW26590   4.053   6.583   6.931
 8564SOL    HW126591   4.062   6.484   6.926
 8564SOL    HW226592   4.019   6.618   6.844
 8565SOL     OW26593   1.639   4.985   1.021
 8565SOL    HW126594   1.569   4.930   0.975
 8565SOL    HW226595   1.606   5.079   1.031
 8566SOL     OW26596   2.666   1.164   3.832
 8566SOL    HW126597   2.703   1.246   3.790
 8566SOL    HW226598   2.566   1.165   3.824
 8567SOL     OW26599   1.522   2.583   0.092
 8567SOL    HW126600   1.586   2.649   0.053
 8567SOL    HW226601   1.561   2.491   0.084
 8568SOL     OW26602   5.858   0.364   5.780
 8568SOL    HW126603   5.946   0.347   5.735
 8568SOL    HW226604   5.784   0.331   5.723
 8569SOL     OW26605   4.468   1.821   6.008
 8569SOL    HW126606   4.432   1.849   6.097
 8569SOL    HW226607   4.566   1.807   6.014
 8570SOL     OW26608   1.359   2.194   4.189
 8570SOL    HW126609   1.392   2.282   4.222
 8570SOL    HW226610   1.259   2.192   4.196
 8571SOL     OW26611   1.763   0.859   3.547
 8571SOL    HW126612   1.669   0.878   3.519
 8571SOL    HW226613   1.763   0.823   3.640
 8572SOL     OW26614   2.691   3.155   6.395
 8572SOL    HW126615   2.713   3.113   6.483
 8572SOL    HW226616   2.617   3.222   6.408
 8573SOL     OW26617   1.910   6.348   5.138
 8573SOL    HW126618   1.824   6.375   5.094
 8573SOL    HW226619   1.927   6.251   5.122
 8574SOL     OW26620   6.559   2.646   5.844
 8574SOL    HW126621   6.598   2.598   5.766
 8574SOL    HW226622   6.519   2.732   5.814
 8575SOL     OW26623   1.679   6.740   4.144
 8575SOL    HW126624   1.721   6.650   4.128
 8575SOL    HW226625   1.672   6.789   4.057
 8576SOL     OW26626   1.467   4.335   4.410
 8576SOL    HW126627   1.453   4.347   4.312
 8576SOL    HW226628   1.517   4.250   4.426
 8577SOL     OW26629   1.845   1.001   1.385
 8577SOL    HW126630   1.820   1.097   1.388
 8577SOL    HW226631   1.814   0.955   1.469
 8578SOL     OW26632   2.025   0.564   6.354
 8578SOL    HW126633   2.045   0.635   6.287
 8578SOL    HW226634   1.928   0.540   6.349
 8579SOL     OW26635   2.626   6.918   3.138
 8579SOL    HW126636   2.666   6.959   3.220
 8579SOL    HW226637   2.548   6.862   3.164
 8580SOL     OW26638   1.152   0.106   1.810
 8580SOL    HW126639   1.242   0.064   1.813
 8580SOL    HW226640   1.084   0.038   1.784
 8581SOL     OW26641   3.989   3.211   3.793
 8581SOL    HW126642   3.892   3.232   3.787
 8581SOL    HW226643   4.011   3.181   3.886
 8582SOL     OW26644   5.683   5.133   0.204
 8582SOL    HW126645   5.666   5.209   0.142
 8582SOL    HW226646   5.697   5.049   0.151
 8583SOL     OW26647   3.591   6.850   1.987
 8583SOL    HW126648   3.634   6.885   1.904
 8583SOL    HW226649   3.645   6.877   2.067
 8584SOL     OW26650   6.031   3.057   6.351
 8584SOL    HW126651   6.000   3.077   6.443
 8584SOL    HW226652   5.976   3.108   6.285
 8585SOL     OW26653   5.308   2.985   2.735
 8585SOL    HW126654   5.236   3.037   2.780
 8585SOL    HW226655   5.270   2.938   2.655
 8586SOL     OW26656   6.131   6.806   5.857
 8586SOL    HW126657   6.210   6.775   5.805
 8586SOL    HW226658   6.121   6.750   5.939
 8587SOL     OW26659   5.930   6.917   1.002
 8587SOL    HW126660   5.955   6.952   0.912
 8587SOL    HW226661   5.912   6.819   0.996
 8588SOL     OW26662   1.727   2.891   5.736
 8588SOL    HW126663   1.772   2.955   5.673
 8588SOL    HW226664   1.658   2.940   5.789
 8589SOL     OW26665   6.415   3.255   6.303
 8589SOL    HW126666   6.327   3.299   6.320
 8589SOL    HW226667   6.403   3.155   6.305
 8590SOL     OW26668   1.145   1.383   2.794
 8590SOL    HW126669   1.107   1.294   2.768
 8590SOL    HW226670   1.074   1.439   2.837
 8591SOL     OW26671   1.101   4.529   6.340
 8591SOL    HW126672   1.074   4.545   6.245
 8591SOL    HW226673   1.146   4.610   6.376
 8592SOL     OW26674   0.179   2.118   4.925
 8592SOL    HW126675   0.096   2.077   4.889
 8592SOL    HW226676   0.168   2.217   4.930
 8593SOL     OW26677   0.590   0.728   0.404
 8593SOL    HW126678   0.499   0.768   0.406
 8593SOL    HW226679   0.584   0.633   0.373
 8594SOL     OW26680   5.986   2.413   0.025
 8594SOL    HW126681   6.028   2.338   0.076
 8594SOL    HW226682   6.021   2.500   0.059
 8595SOL     OW26683   5.584   6.853   1.598
 8595SOL    HW126684   5.489   6.869   1.626
 8595SOL    HW226685   5.646   6.884   1.670
 8596SOL     OW26686   0.612   2.810   5.477
 8596SOL    HW126687   0.568   2.747   5.414
 8596SOL    HW226688   0.622   2.767   5.567
 8597SOL     OW26689   6.358   2.911   5.997
 8597SOL    HW126690   6.384   2.991   5.944
 8597SOL    HW226691   6.379   2.927   6.094
 8598SOL     OW26692   6.447   6.816   5.697
 8598SOL    HW126693   6.507   6.895   5.711
 8598SOL    HW226694   6.500   6.732   5.708
 8599SOL     OW26695   6.373   4.585   5.866
 8599SOL    HW126696   6.337   4.622   5.780
 8599SOL    HW226697   6.373   4.657   5.935
 8600SOL     OW26698   3.577   3.029   1.986
 8600SOL    HW126699   3.542   2.937   1.968
 8600SOL    HW226700   3.644   3.025   2.060
 8601SOL     OW26701   4.440   4.837   1.259
 8601SOL    HW126702   4.478   4.747   1.278
 8601SOL    HW226703   4.511   4.897   1.224
 8602SOL     OW26704   2.265   6.331   5.346
 8602SOL    HW126705   2.267   6.415   5.294
 8602SOL    HW226706   2.250   6.352   5.443
 8603SOL     OW26707   0.485   1.390   6.594
 8603SOL    HW126708   0.428   1.311   6.573
 8603SOL    HW226709   0.494   1.400   6.693
 8604SOL     OW26710   1.761   5.987   6.204
 8604SOL    HW126711   1.798   6.079   6.205
 8604SOL    HW226712   1.797   5.935   6.282
 8605SOL     OW26713   0.283   4.762   4.255
 8605SOL    HW126714   0.206   4.706   4.286
 8605SOL    HW226715   0.257   4.859   4.262
 8606SOL     OW26716   0.135   0.292   6.403
 8606SOL    HW126717   0.162   0.238   6.324
 8606SOL    HW226718   0.214   0.340   6.440
 8607SOL     OW26719   2.955   2.427   1.392
 8607SOL    HW126720   2.885   2.475   1.445
 8607SOL    HW226721   2.920   2.408   1.301
 8608SOL     OW26722   1.672   5.500   2.240
 8608SOL    HW126723   1.756   5.465   2.282
 8608SOL    HW226724   1.633   5.430   2.181
 8609SOL     OW26725   5.452   2.563   4.352
 8609SOL    HW126726   5.421   2.511   4.273
 8609SOL    HW226727   5.489   2.501   4.421
 8610SOL     OW26728   0.548   5.236   2.495
 8610SOL    HW126729   0.575   5.156   2.548
 8610SOL    HW226730   0.605   5.243   2.413
 8611SOL     OW26731   2.138   1.449   6.206
 8611SOL    HW126732   2.077   1.379   6.243
 8611SOL    HW226733   2.113   1.469   6.111
 8612SOL     OW26734   3.500   3.059   6.334
 8612SOL    HW126735   3.489   3.099   6.243
 8612SOL    HW226736   3.540   2.968   6.326
 8613SOL     OW26737   3.499   3.288   3.826
 8613SOL    HW126738   3.445   3.352   3.881
 8613SOL    HW226739   3.455   3.198   3.827
 8614SOL     OW26740   0.358   3.529   3.703
 8614SOL    HW126741   0.283   3.592   3.723
 8614SOL    HW226742   0.419   3.523   3.781
 8615SOL     OW26743   3.976   0.278   5.095
 8615SOL    HW126744   3.898   0.338   5.113
 8615SOL    HW226745   4.001   0.285   4.998
 8616SOL     OW26746   6.419   4.158   5.036
 8616SOL    HW126747   6.358   4.135   5.111
 8616SOL    HW226748   6.368   4.205   4.964
 8617SOL     OW26749   0.794   6.994   4.721
 8617SOL    HW126750   0.758   7.013   4.630
 8617SOL    HW226751   0.730   0.002   4.790
 8618SOL     OW26752   0.051   4.549   1.075
 8618SOL    HW126753   0.086   4.629   1.125
 8618SOL    HW226754   0.108   4.470   1.095
 8619SOL     OW26755   6.109   4.289   6.543
 8619SOL    HW126756   6.046   4.351   6.496
 8619SOL    HW226757   6.095   4.296   6.642
 8620SOL     OW26758   0.610   6.810   4.070
 8620SOL    HW126759   0.627   6.908   4.077
 8620SOL    HW226760   0.652   6.775   3.986
 8621SOL     OW26761   6.720   3.285   2.163
 8621SOL    HW126762   6.722   3.204   2.222
 8621SOL    HW226763   6.659   3.354   2.203
 8622SOL     OW26764   0.820   5.934   1.901
 8622SOL    HW126765   0.857   5.878   1.827
 8622SOL    HW226766   0.725   5.909   1.918
 8623SOL     OW26767   1.551   2.290   3.851
 8623SOL    HW126768   1.623   2.292   3.921
 8623SOL    HW226769   1.469   2.334   3.887
 8624SOL     OW26770   3.601   3.690   6.323
 8624SOL    HW126771   3.568   3.616   6.381
 8624SOL    HW226772   3.633   3.766   6.381
 8625SOL     OW26773   4.401   2.739   6.068
 8625SOL    HW126774   4.323   2.750   6.130
 8625SOL    HW226775   4.422   2.642   6.057
 8626SOL     OW26776   5.886   1.220   0.323
 8626SOL    HW126777   5.855   1.172   0.406
 8626SOL    HW226778   5.845   1.177   0.243
 8627SOL     OW26779   6.730   0.275   2.555
 8627SOL    HW126780   6.688   0.354   2.511
 8627SOL    HW226781   6.800   0.237   2.495
 8628SOL     OW26782   1.322   6.232   0.687
 8628SOL    HW126783   1.398   6.256   0.748
 8628SOL    HW226784   1.254   6.304   0.689
 8629SOL     OW26785   0.442   0.988   4.596
 8629SOL    HW126786   0.469   0.892   4.592
 8629SOL    HW226787   0.404   1.016   4.508
 8630SOL     OW26788   5.982   3.586   1.621
 8630SOL    HW126789   6.050   3.559   1.689
 8630SOL    HW226790   5.891   3.586   1.663
 8631SOL     OW26791   1.788   5.892   6.949
 8631SOL    HW126792   1.720   5.905   7.021
 8631SOL    HW226793   1.829   5.980   6.926
 8632SOL     OW26794   5.739   5.752   2.878
 8632SOL    HW126795   5.772   5.790   2.791
 8632SOL    HW226796   5.794   5.673   2.903
 8633SOL     OW26797   6.700   4.132   5.915
 8633SOL    HW126798   6.648   4.217   5.924
 8633SOL    HW226799   6.787   4.141   5.964
 8634SOL     OW26800   4.719   4.247   0.174
 8634SOL    HW126801   4.736   4.195   0.258
 8634SOL    HW226802   4.772   4.208   0.099
 8635SOL     OW26803   5.236   1.355   0.064
 8635SOL    HW126804   5.148   1.337   0.021
 8635SOL    HW226805   5.308   1.355   7.019
 8636SOL     OW26806   4.807   6.106   0.775
 8636SOL    HW126807   4.776   6.168   0.703
 8636SOL    HW226808   4.886   6.053   0.741
 8637SOL     OW26809   2.922   2.867   0.956
 8637SOL    HW126810   2.868   2.816   1.023
 8637SOL    HW226811   3.020   2.851   0.973
 8638SOL     OW26812   5.225   2.399   4.896
 8638SOL    HW126813   5.260   2.458   4.824
 8638SOL    HW226814   5.194   2.313   4.857
 8639SOL     OW26815   3.996   3.875   0.310
 8639SOL    HW126816   3.966   3.835   0.396
 8639SOL    HW226817   4.077   3.932   0.326
 8640SOL     OW26818   2.831   2.861   0.004
 8640SOL    HW126819   2.905   2.925   7.005
 8640SOL    HW226820   2.829   2.847   0.102
 8641SOL     OW26821   3.150   4.838   3.097
 8641SOL    HW126822   3.241   4.801   3.075
 8641SOL    HW226823   3.154   4.883   3.187
 8642SOL     OW26824   2.782   6.441   3.381
 8642SOL    HW126825   2.787   6.365   3.445
 8642SOL    HW226826   2.688   6.475   3.377
 8643SOL     OW26827   3.829   6.502   1.268
 8643SOL    HW126828   3.755   6.495   1.201
 8643SOL    HW226829   3.791   6.500   1.360
 8644SOL     OW26830   4.769   2.514   6.398
 8644SOL    HW126831   4.700   2.502   6.327
 8644SOL    HW226832   4.850   2.460   6.375
 8645SOL     OW26833   4.746   4.714   3.084
 8645SOL    HW126834   4.774   4.809   3.073
 8645SOL    HW226835   4.689   4.686   3.007
 8646SOL     OW26836   5.840   2.375   4.080
 8646SOL    HW126837   5.756   2.328   4.108
 8646SOL    HW226838   5.888   2.320   4.012
 8647SOL     OW26839   2.282   4.816   2.215
 8647SOL    HW126840   2.309   4.892   2.155
 8647SOL    HW226841   2.363   4.779   2.260
 8648SOL     OW26842   5.783   6.064   6.387
 8648SOL    HW126843   5.823   5.980   6.422
 8648SOL    HW226844   5.785   6.064   6.287
 8649SOL     OW26845   5.320   3.145   1.879
 8649SOL    HW126846   5.370   3.166   1.963
 8649SOL    HW226847   5.371   3.180   1.801
 8650SOL     OW26848   1.235   1.197   5.373
 8650SOL    HW126849   1.151   1.143   5.373
 8650SOL    HW226850   1.235   1.259   5.294
 8651SOL     OW26851   4.757   1.568   1.324
 8651SOL    HW126852   4.802   1.488   1.286
 8651SOL    HW226853   4.823   1.622   1.377
 8652SOL     OW26854   6.253   3.294   4.819
 8652SOL    HW126855   6.326   3.347   4.777
 8652SOL    HW226856   6.182   3.276   4.750
 8653SOL     OW26857   4.429   0.888   6.874
 8653SOL    HW126858   4.422   0.975   6.826
 8653SOL    HW226859   4.424   0.813   6.808
 8654SOL     OW26860   6.647   4.937   3.681
 8654SOL    HW126861   6.603   4.878   3.614
 8654SOL    HW226862   6.674   4.883   3.761
 8655SOL     OW26863   1.890   6.927   4.696
 8655SOL    HW126864   1.873   6.994   4.624
 8655SOL    HW226865   1.848   6.958   4.782
 8656SOL     OW26866   3.889   6.710   0.371
 8656SOL    HW126867   3.890   6.810   0.369
 8656SOL    HW226868   3.795   6.678   0.364
 8657SOL     OW26869   2.692   1.612   2.302
 8657SOL    HW126870   2.609   1.582   2.349
 8657SOL    HW226871   2.772   1.591   2.358
 8658SOL     OW26872   6.049   4.086   0.817
 8658SOL    HW126873   6.047   4.138   0.902
 8658SOL    HW226874   6.123   4.019   0.820
 8659SOL     OW26875   2.973   6.455   3.616
 8659SOL    HW126876   2.949   6.414   3.528
 8659SOL    HW226877   2.922   6.409   3.689
 8660SOL     OW26878   6.654   4.286   1.028
 8660SOL    HW126879   6.581   4.245   0.974
 8660SOL    HW226880   6.685   4.370   0.984
 8661SOL     OW26881   6.090   2.350   1.263
 8661SOL    HW126882   6.066   2.343   1.360
 8661SOL    HW226883   6.120   2.443   1.243
 8662SOL     OW26884   1.814   3.018   1.840
 8662SOL    HW126885   1.866   2.955   1.783
 8662SOL    HW226886   1.810   2.984   1.934
 8663SOL     OW26887   3.699   5.702   1.764
 8663SOL    HW126888   3.686   5.693   1.863
 8663SOL    HW226889   3.711   5.612   1.723
 8664SOL     OW26890   3.539   5.865   4.871
 8664SOL    HW126891   3.452   5.830   4.906
 8664SOL    HW226892   3.548   5.962   4.894
 8665SOL     OW26893   0.808   2.991   6.422
 8665SOL    HW126894   0.784   2.908   6.371
 8665SOL    HW226895   0.882   2.970   6.486
 8666SOL     OW26896   3.750   6.886   2.218
 8666SOL    HW126897   3.726   6.868   2.313
 8666SOL    HW226898   3.785   6.979   2.210
 8667SOL     OW26899   4.238   2.249   2.260
 8667SOL    HW126900   4.164   2.267   2.195
 8667SOL    HW226901   4.201   2.200   2.339
 8668SOL     OW26902   3.492   1.779   2.992
 8668SOL    HW126903   3.526   1.716   3.062
 8668SOL    HW226904   3.563   1.845   2.969
 8669SOL     OW26905   0.318   6.112   6.306
 8669SOL    HW126906   0.223   6.132   6.328
 8669SOL    HW226907   0.328   6.103   6.207
 8670SOL     OW26908   6.724   5.060   5.279
 8670SOL    HW126909   6.767   5.128   5.338
 8670SOL    HW226910   6.776   5.051   5.194
 8671SOL     OW26911   6.984   3.717   3.348
 8671SOL    HW126912   6.912   3.690   3.285
 8671SOL    HW226913   0.024   3.778   3.301
 8672SOL     OW26914   6.414   0.887   2.000
 8672SOL    HW126915   6.441   0.867   1.906
 8672SOL    HW226916   6.319   0.861   2.015
 8673SOL     OW26917   6.847   1.046   2.219
 8673SOL    HW126918   6.876   1.006   2.306
 8673SOL    HW226919   6.922   1.041   2.153
 8674SOL     OW26920   0.491   2.575   3.913
 8674SOL    HW126921   0.500   2.539   3.820
 8674SOL    HW226922   0.502   2.674   3.911
 8675SOL     OW26923   5.896   2.569   4.571
 8675SOL    HW126924   5.895   2.484   4.520
 8675SOL    HW226925   5.981   2.575   4.624
 8676SOL     OW26926   5.630   2.496   1.188
 8676SOL    HW126927   5.678   2.525   1.106
 8676SOL    HW226928   5.533   2.514   1.179
 8677SOL     OW26929   3.108   1.738   6.936
 8677SOL    HW126930   3.181   1.703   6.995
 8677SOL    HW226931   3.055   1.807   6.986
 8678SOL     OW26932   2.356   2.246   6.972
 8678SOL    HW126933   2.345   2.220   0.043
 8678SOL    HW226934   2.298   2.188   6.914
 8679SOL     OW26935   1.794   2.211   6.926
 8679SOL    HW126936   1.813   2.198   6.829
 8679SOL    HW226937   1.710   2.264   6.937
 8680SOL     OW26938   6.929   0.005   0.906
 8680SOL    HW126939   6.920   6.943   0.856
 8680SOL    HW226940   0.001   0.019   0.930
 8681SOL     OW26941   5.517   5.210   1.586
 8681SOL    HW126942   5.605   5.165   1.574
 8681SOL    HW226943   5.455   5.185   1.512
 8682SOL     OW26944   1.381   2.394   1.511
 8682SOL    HW126945   1.326   2.329   1.460
 8682SOL    HW226946   1.377   2.484   1.467
 8683SOL     OW26947   2.598   4.739   4.569
 8683SOL    HW126948   2.662   4.735   4.645
 8683SOL    HW226949   2.635   4.799   4.497
 8684SOL     OW26950   2.632   4.621   3.750
 8684SOL    HW126951   2.594   4.609   3.658
 8684SOL    HW226952   2.722   4.665   3.744
 8685SOL     OW26953   4.279   3.098   5.288
 8685SOL    HW126954   4.373   3.092   5.320
 8685SOL    HW226955   4.217   3.071   5.361
 8686SOL     OW26956   0.542   4.591   2.503
 8686SOL    HW126957   0.613   4.527   2.473
 8686SOL    HW226958   0.548   4.603   2.602
 8687SOL     OW26959   5.359   3.112   5.653
 8687SOL    HW126960   5.397   3.023   5.629
 8687SOL    HW226961   5.259   3.108   5.648
 8688SOL     OW26962   1.706   3.208   4.275
 8688SOL    HW126963   1.657   3.282   4.321
 8688SOL    HW226964   1.736   3.141   4.343
 8689SOL     OW26965   5.191   3.359   0.742
 8689SOL    HW126966   5.190   3.267   0.783
 8689SOL    HW226967   5.202   3.427   0.814
 8690SOL     OW26968   1.295   2.848   2.764
 8690SOL    HW126969   1.344   2.761   2.759
 8690SOL    HW226970   1.353   2.917   2.806
 8691SOL     OW26971   4.413   1.113   6.731
 8691SOL    HW126972   4.506   1.147   6.718
 8691SOL    HW226973   4.360   1.126   6.648
 8692SOL     OW26974   5.746   1.922   4.812
 8692SOL    HW126975   5.708   1.916   4.904
 8692SOL    HW226976   5.816   1.993   4.810
 8693SOL     OW26977   1.104   0.678   4.868
 8693SOL    HW126978   1.091   0.579   4.861
 8693SOL    HW226979   1.112   0.717   4.776
 8694SOL     OW26980   3.266   3.645   6.077
 8694SOL    HW126981   3.329   3.722   6.083
 8694SOL    HW226982   3.312   3.562   6.110
 8695SOL     OW26983   4.205   3.912   1.313
 8695SOL    HW126984   4.197   3.924   1.412
 8695SOL    HW226985   4.172   3.821   1.288
 8696SOL     OW26986   2.703   4.478   6.524
 8696SOL    HW126987   2.710   4.560   6.467
 8696SOL    HW226988   2.769   4.410   6.494
 8697SOL     OW26989   1.136   3.308   4.743
 8697SOL    HW126990   1.059   3.293   4.804
 8697SOL    HW226991   1.134   3.241   4.669
 8698SOL     OW26992   5.189   4.706   6.762
 8698SOL    HW126993   5.221   4.638   6.828
 8698SOL    HW226994   5.255   4.781   6.756
 8699SOL     OW26995   2.029   1.555   1.429
 8699SOL    HW126996   2.093   1.479   1.439
 8699SOL    HW226997   2.071   1.627   1.374
 8700SOL     OW26998   0.659   2.638   5.023
 8700SOL    HW126999   0.689   2.571   4.954
 8700SOL    HW227000   0.574   2.606   5.065
 8701SOL     OW27001   2.593   3.146   0.524
 8701SOL    HW127002   2.593   3.234   0.573
 8701SOL    HW227003   2.664   3.087   0.562
 8702SOL     OW27004   4.972   4.294   0.478
 8702SOL    HW127005   4.942   4.361   0.546
 8702SOL    HW227006   4.895   4.237   0.451
 8703SOL     OW27007   2.343   5.638   0.569
 8703SOL    HW127008   2.403   5.564   0.599
 8703SOL    HW227009   2.248   5.609   0.578
 8704SOL     OW27010   6.776   1.689   3.849
 8704SOL    HW127011   6.702   1.662   3.910
 8704SOL    HW227012   6.811   1.778   3.875
 8705SOL     OW27013   3.398   2.285   0.575
 8705SOL    HW127014   3.496   2.269   0.591
 8705SOL    HW227015   3.345   2.238   0.645
 8706SOL     OW27016   5.095   3.040   5.165
 8706SOL    HW127017   5.082   3.132   5.128
 8706SOL    HW227018   5.040   2.974   5.113
 8707SOL     OW27019   1.591   0.324   2.921
 8707SOL    HW127020   1.686   0.315   2.894
 8707SOL    HW227021   1.548   0.398   2.869
 8708SOL     OW27022   5.659   2.076   0.215
 8708SOL    HW127023   5.716   2.034   0.287
 8708SOL    HW227024   5.643   2.009   0.143
 8709SOL     OW27025   6.009   6.150   4.235
 8709SOL    HW127026   5.934   6.105   4.187
 8709SOL    HW227027   5.972   6.211   4.306
 8710SOL     OW27028   1.662   2.658   3.328
 8710SOL    HW127029   1.643   2.668   3.426
 8710SOL    HW227030   1.629   2.739   3.280
 8711SOL     OW27031   0.626   1.937   2.338
 8711SOL    HW127032   0.637   1.838   2.349
 8711SOL    HW227033   0.594   1.977   2.424
 8712SOL     OW27034   1.151   3.871   4.326
 8712SOL    HW127035   1.067   3.881   4.380
 8712SOL    HW227036   1.173   3.958   4.284
 8713SOL     OW27037   0.430   4.138   4.674
 8713SOL    HW127038   0.456   4.191   4.755
 8713SOL    HW227039   0.336   4.159   4.649
 8714SOL     OW27040   1.549   3.478   6.234
 8714SOL    HW127041   1.566   3.549   6.302
 8714SOL    HW227042   1.524   3.393   6.280
 8715SOL     OW27043   2.384   4.790   1.457
 8715SOL    HW127044   2.360   4.728   1.531
 8715SOL    HW227045   2.324   4.870   1.459
 8716SOL     OW27046   5.602   0.228   2.804
 8716SOL    HW127047   5.515   0.178   2.802
 8716SOL    HW227048   5.586   0.319   2.844
 8717SOL     OW27049   4.879   1.659   6.574
 8717SOL    HW127050   4.809   1.729   6.561
 8717SOL    HW227051   4.945   1.690   6.643
 8718SOL     OW27052   2.613   5.180   6.463
 8718SOL    HW127053   2.707   5.165   6.495
 8718SOL    HW227054   2.614   5.250   6.391
 8719SOL     OW27055   3.160   1.710   4.210
 8719SOL    HW127056   3.100   1.789   4.207
 8719SOL    HW227057   3.199   1.694   4.119
 8720SOL     OW27058   0.425   6.794   4.904
 8720SOL    HW127059   0.352   6.728   4.922
 8720SOL    HW227060   0.406   6.842   4.819
 8721SOL     OW27061   0.718   0.586   1.975
 8721SOL    HW127062   0.680   0.590   1.882
 8721SOL    HW227063   0.659   0.638   2.037
 8722SOL     OW27064   3.640   1.129   0.785
 8722SOL    HW127065   3.554   1.173   0.758
 8722SOL    HW227066   3.626   1.030   0.790
 8723SOL     OW27067   3.023   6.124   3.729
 8723SOL    HW127068   2.953   6.088   3.668
 8723SOL    HW227069   3.088   6.051   3.752
 8724SOL     OW27070   5.914   6.915   5.100
 8724SOL    HW127071   5.840   6.968   5.058
 8724SOL    HW227072   5.876   6.835   5.146
 8725SOL     OW27073   6.147   0.942   2.472
 8725SOL    HW127074   6.145   0.845   2.451
 8725SOL    HW227075   6.242   0.973   2.477
 8726SOL     OW27076   6.684   6.927   1.142
 8726SOL    HW127077   6.741   6.999   1.181
 8726SOL    HW227078   6.637   6.962   1.060
 8727SOL     OW27079   4.788   5.096   6.600
 8727SOL    HW127080   4.738   5.181   6.614
 8727SOL    HW227081   4.763   5.056   6.512
 8728SOL     OW27082   5.168   0.380   3.879
 8728SOL    HW127083   5.117   0.333   3.951
 8728SOL    HW227084   5.121   0.465   3.855
 8729SOL     OW27085   5.571   5.667   6.380
 8729SOL    HW127086   5.617   5.652   6.292
 8729SOL    HW227087   5.543   5.763   6.387
 8730SOL     OW27088   4.106   5.006   1.881
 8730SOL    HW127089   4.149   4.916   1.887
 8730SOL    HW227090   4.144   5.056   1.803
 8731SOL     OW27091   0.136   2.872   3.742
 8731SOL    HW127092   0.105   2.921   3.660
 8731SOL    HW227093   0.087   2.906   3.822
 8732SOL     OW27094   5.403   6.423   5.480
 8732SOL    HW127095   5.349   6.443   5.399
 8732SOL    HW227096   5.355   6.458   5.561
 8733SOL     OW27097   5.886   3.978   1.665
 8733SOL    HW127098   5.865   3.923   1.584
 8733SOL    HW227099   5.858   3.929   1.747
 8734SOL     OW27100   6.931   6.423   0.713
 8734SOL    HW127101   6.843   6.464   0.736
 8734SOL    HW227102   6.981   6.484   0.650
 8735SOL     OW27103   1.506   2.035   6.785
 8735SOL    HW127104   1.485   1.967   6.715
 8735SOL    HW227105   1.427   2.095   6.799
 8736SOL     OW27106   0.423   6.268   3.834
 8736SOL    HW127107   0.466   6.309   3.915
 8736SOL    HW227108   0.398   6.173   3.855
 8737SOL     OW27109   0.988   5.957   6.447
 8737SOL    HW127110   0.936   5.989   6.525
 8737SOL    HW227111   1.002   5.858   6.454
 8738SOL     OW27112   1.368   2.068   2.066
 8738SOL    HW127113   1.374   1.973   2.033
 8738SOL    HW227114   1.458   2.111   2.057
 8739SOL     OW27115   5.115   4.820   3.297
 8739SOL    HW127116   5.041   4.753   3.290
 8739SOL    HW227117   5.078   4.905   3.336
 8740SOL     OW27118   1.681   0.658   2.758
 8740SOL    HW127119   1.583   0.681   2.753
 8740SOL    HW227120   1.712   0.629   2.668
 8741SOL     OW27121   1.834   2.505   2.540
 8741SOL    HW127122   1.891   2.427   2.514
 8741SOL    HW227123   1.749   2.472   2.582
 8742SOL     OW27124   1.411   3.662   0.365
 8742SOL    HW127125   1.365   3.704   0.444
 8742SOL    HW227126   1.350   3.664   0.286
 8743SOL     OW27127   2.103   2.800   0.250
 8743SOL    HW127128   2.086   2.835   0.158
 8743SOL    HW227129   2.016   2.790   0.299
 8744SOL     OW27130   2.706   4.026   5.616
 8744SOL    HW127131   2.761   3.981   5.545
 8744SOL    HW227132   2.762   4.095   5.663
 8745SOL     OW27133   5.467   0.766   7.010
 8745SOL    HW127134   5.483   0.766   0.084
 8745SOL    HW227135   5.412   0.846   6.985
 8746SOL     OW27136   4.634   4.788   4.576
 8746SOL    HW127137   4.602   4.741   4.658
 8746SOL    HW227138   4.562   4.847   4.540
 8747SOL     OW27139   6.867   6.503   1.344
 8747SOL    HW127140   6.799   6.515   1.417
 8747SOL    HW227141   6.923   6.585   1.338
 8748SOL     OW27142   5.623   2.414   5.227
 8748SOL    HW127143   5.682   2.365   5.291
 8748SOL    HW227144   5.585   2.495   5.271
 8749SOL     OW27145   1.489   1.485   4.024
 8749SOL    HW127146   1.583   1.452   4.025
 8749SOL    HW227147   1.489   1.585   4.011
 8750SOL     OW27148   3.518   4.057   2.471
 8750SOL    HW127149   3.471   3.996   2.407
 8750SOL    HW227150   3.549   4.139   2.423
 8751SOL     OW27151   1.333   6.712   6.875
 8751SOL    HW127152   1.324   6.654   6.795
 8751SOL    HW227153   1.318   6.658   6.958
 8752SOL     OW27154   0.993   2.538   6.870
 8752SOL    HW127155   0.893   2.543   6.868
 8752SOL    HW227156   1.022   2.460   6.925
 8753SOL     OW27157   2.054   1.813   1.347
 8753SOL    HW127158   2.123   1.863   1.400
 8753SOL    HW227159   1.966   1.861   1.353
 8754SOL     OW27160   1.936   6.452   6.991
 8754SOL    HW127161   2.011   6.495   6.940
 8754SOL    HW227162   1.895   6.380   6.936
 8755SOL     OW27163   6.143   1.222   1.519
 8755SOL    HW127164   6.084   1.143   1.534
 8755SOL    HW227165   6.157   1.271   1.605
 8756SOL     OW27166   1.526   0.965   2.115
 8756SOL    HW127167   1.433   0.991   2.089
 8756SOL    HW227168   1.587   1.043   2.101
 8757SOL     OW27169   5.355   5.502   6.057
 8757SOL    HW127170   5.303   5.462   5.982
 8757SOL    HW227171   5.396   5.588   6.027
 8758SOL     OW27172   3.948   4.913   6.560
 8758SOL    HW127173   3.929   4.947   6.652
 8758SOL    HW227174   3.880   4.843   6.536
 8759SOL     OW27175   6.647   0.640   1.637
 8759SOL    HW127176   6.686   0.555   1.673
 8759SOL    HW227177   6.609   0.624   1.546
 8760SOL     OW27178   1.439   2.526   4.278
 8760SOL    HW127179   1.350   2.501   4.316
 8760SOL    HW227180   1.486   2.587   4.341
 8761SOL     OW27181   5.086   2.628   4.383
 8761SOL    HW127182   5.095   2.673   4.294
 8761SOL    HW227183   5.127   2.537   4.378
 8762SOL     OW27184   3.877   6.324   2.425
 8762SOL    HW127185   3.849   6.362   2.514
 8762SOL    HW227186   3.962   6.272   2.437
 8763SOL     OW27187   6.529   1.661   5.447
 8763SOL    HW127188   6.448   1.711   5.475
 8763SOL    HW227189   6.554   1.688   5.354
 8764SOL     OW27190   2.373   5.375   5.717
 8764SOL    HW127191   2.297   5.310   5.714
 8764SOL    HW227192   2.403   5.396   5.624
 8765SOL     OW27193   4.669   0.030   3.256
 8765SOL    HW127194   4.707   0.112   3.298
 8765SOL    HW227195   4.706   6.973   3.302
 8766SOL     OW27196   6.476   0.708   4.991
 8766SOL    HW127197   6.512   0.641   4.926
 8766SOL    HW227198   6.377   0.697   5.000
 8767SOL     OW27199   1.881   1.256   4.975
 8767SOL    HW127200   1.961   1.262   5.034
 8767SOL    HW227201   1.911   1.259   4.879
 8768SOL     OW27202   0.345   2.535   6.926
 8768SOL    HW127203   0.359   2.632   6.907
 8768SOL    HW227204   0.252   2.521   6.959
 8769SOL     OW27205   0.302   0.612   6.761
 8769SOL    HW127206   0.258   0.694   6.797
 8769SOL    HW227207   0.396   0.633   6.735
 8770SOL     OW27208   4.171   1.814   1.025
 8770SOL    HW127209   4.118   1.739   0.986
 8770SOL    HW227210   4.109   1.887   1.055
 8771SOL     OW27211   0.729   2.597   6.883
 8771SOL    HW127212   0.656   2.539   6.845
 8771SOL    HW227213   0.694   2.646   6.963
 8772SOL     OW27214   6.531   0.104   3.500
 8772SOL    HW127215   6.531   0.029   3.433
 8772SOL    HW227216   6.438   0.131   3.521
 8773SOL     OW27217   6.427   1.598   4.414
 8773SOL    HW127218   6.432   1.689   4.456
 8773SOL    HW227219   6.476   1.532   4.471
 8774SOL     OW27220   1.011   2.094   6.775
 8774SOL    HW127221   1.009   2.143   6.862
 8774SOL    HW227222   1.010   2.160   6.700
 8775SOL     OW27223   4.762   2.110   2.425
 8775SOL    HW127224   4.682   2.075   2.474
 8775SOL    HW227225   4.804   2.183   2.478
 8776SOL     OW27226   5.921   2.911   0.753
 8776SOL    HW127227   5.995   2.856   0.793
 8776SOL    HW227228   5.956   3.001   0.729
 8777SOL     OW27229   6.342   2.480   4.563
 8777SOL    HW127230   6.365   2.518   4.473
 8777SOL    HW227231   6.270   2.412   4.554
 8778SOL     OW27232   1.614   4.411   5.370
 8778SOL    HW127233   1.585   4.446   5.280
 8778SOL    HW227234   1.712   4.427   5.381
 8779SOL     OW27235   2.713   6.592   3.710
 8779SOL    HW127236   2.770   6.623   3.634
 8779SOL    HW227237   2.758   6.515   3.756
 8780SOL     OW27238   1.586   3.386   3.857
 8780SOL    HW127239   1.495   3.367   3.821
 8780SOL    HW227240   1.611   3.315   3.923
 8781SOL     OW27241   3.828   0.514   2.471
 8781SOL    HW127242   3.819   0.592   2.409
 8781SOL    HW227243   3.889   0.446   2.430
 8782SOL     OW27244   0.339   2.829   6.930
 8782SOL    HW127245   0.300   2.805   6.841
 8782SOL    HW227246   0.300   2.915   6.962
 8783SOL     OW27247   3.350   3.941   6.506
 8783SOL    HW127248   3.413   3.867   6.532
 8783SOL    HW227249   3.358   4.016   6.571
 8784SOL     OW27250   4.732   1.817   6.038
 8784SOL    HW127251   4.786   1.766   6.105
 8784SOL    HW227252   4.743   1.915   6.053
 8785SOL     OW27253   0.201   6.967   5.996
 8785SOL    HW127254   0.112   6.979   6.040
 8785SOL    HW227255   0.274   6.994   6.059
 8786SOL     OW27256   4.315   2.349   3.318
 8786SOL    HW127257   4.395   2.400   3.350
 8786SOL    HW227258   4.279   2.392   3.235
 8787SOL     OW27259   3.056   5.479   2.435
 8787SOL    HW127260   3.040   5.450   2.530
 8787SOL    HW227261   3.072   5.577   2.432
 8788SOL     OW27262   6.227   0.698   3.122
 8788SOL    HW127263   6.327   0.699   3.120
 8788SOL    HW227264   6.193   0.642   3.047
 8789SOL     OW27265   1.899   3.993   6.973
 8789SOL    HW127266   1.943   4.081   6.990
 8789SOL    HW227267   1.803   4.007   6.951
 8790SOL     OW27268   4.891   3.665   5.310
 8790SOL    HW127269   4.967   3.678   5.246
 8790SOL    HW227270   4.810   3.636   5.260
 8791SOL     OW27271   3.668   6.760   5.236
 8791SOL    HW127272   3.665   6.817   5.154
 8791SOL    HW227273   3.579   6.718   5.251
 8792SOL     OW27274   4.940   3.984   1.013
 8792SOL    HW127275   4.989   4.042   0.947
 8792SOL    HW227276   4.842   3.998   1.003
 8793SOL     OW27277   6.765   1.002   4.982
 8793SOL    HW127278   6.667   0.988   4.972
 8793SOL    HW227279   6.804   1.033   4.895
 8794SOL     OW27280   1.577   2.850   2.926
 8794SOL    HW127281   1.539   2.820   3.013
 8794SOL    HW227282   1.595   2.948   2.929
 8795SOL     OW27283   1.023   0.439   6.492
 8795SOL    HW127284   0.953   0.409   6.557
 8795SOL    HW227285   1.087   0.500   6.537
 8796SOL     OW27286   6.107   5.497   4.005
 8796SOL    HW127287   6.063   5.585   4.020
 8796SOL    HW227288   6.189   5.490   4.062
 8797SOL     OW27289   5.576   5.256   6.243
 8797SOL    HW127290   5.657   5.310   6.266
 8797SOL    HW227291   5.602   5.181   6.183
 8798SOL     OW27292   2.012   5.043   0.061
 8798SOL    HW127293   2.086   5.099   0.023
 8798SOL    HW227294   2.021   4.949   0.027
 8799SOL     OW27295   0.349   5.833   2.402
 8799SOL    HW127296   0.370   5.735   2.406
 8799SOL    HW227297   0.258   5.846   2.361
 8800SOL     OW27298   0.057   6.583   4.618
 8800SOL    HW127299   0.039   6.517   4.545
 8800SOL    HW227300   0.143   6.560   4.664
 8801SOL     OW27301   5.738   3.208   5.916
 8801SOL    HW127302   5.640   3.225   5.920
 8801SOL    HW227303   5.760   3.156   5.834
 8802SOL     OW27304   1.167   6.212   6.768
 8802SOL    HW127305   1.230   6.247   6.837
 8802SOL    HW227306   1.216   6.148   6.708
 8803SOL     OW27307   5.037   5.119   5.074
 8803SOL    HW127308   5.085   5.044   5.117
 8803SOL    HW227309   5.103   5.183   5.033
 8804SOL     OW27310   2.253   5.918   1.512
 8804SOL    HW127311   2.212   5.829   1.532
 8804SOL    HW227312   2.351   5.915   1.533
 8805SOL     OW27313   4.878   5.296   0.501
 8805SOL    HW127314   4.780   5.314   0.506
 8805SOL    HW227315   4.895   5.225   0.432
 8806SOL     OW27316   1.426   1.256   1.655
 8806SOL    HW127317   1.343   1.295   1.614
 8806SOL    HW227318   1.500   1.323   1.652
 8807SOL     OW27319   5.040   1.464   1.617
 8807SOL    HW127320   4.950   1.421   1.624
 8807SOL    HW227321   5.085   1.433   1.533
 8808SOL     OW27322   1.825   1.683   0.667
 8808SOL    HW127323   1.828   1.754   0.596
 8808SOL    HW227324   1.748   1.622   0.650
 8809SOL     OW27325   1.478   3.184   2.731
 8809SOL    HW127326   1.479   3.151   2.637
 8809SOL    HW227327   1.511   3.279   2.734
 8810SOL     OW27328   6.683   2.801   3.515
 8810SOL    HW127329   6.657   2.897   3.527
 8810SOL    HW227330   6.742   2.773   3.591
 8811SOL     OW27331   3.495   5.882   2.546
 8811SOL    HW127332   3.420   5.938   2.581
 8811SOL    HW227333   3.583   5.924   2.569
 8812SOL     OW27334   5.732   0.759   6.867
 8812SOL    HW127335   5.749   0.857   6.860
 8812SOL    HW227336   5.651   0.743   6.924
 8813SOL     OW27337   1.306   2.609   0.983
 8813SOL    HW127338   1.309   2.533   0.918
 8813SOL    HW227339   1.305   2.696   0.933
 8814SOL     OW27340   6.012   1.200   4.271
 8814SOL    HW127341   6.042   1.105   4.261
 8814SOL    HW227342   5.968   1.231   4.186
 8815SOL     OW27343   4.936   0.777   1.421
 8815SOL    HW127344   4.848   0.823   1.437
 8815SOL    HW227345   5.009   0.845   1.421
 8816SOL     OW27346   6.307   1.293   2.884
 8816SOL    HW127347   6.336   1.352   2.958
 8816SOL    HW227348   6.371   1.300   2.808
 8817SOL     OW27349   1.125   2.134   4.323
 8817SOL    HW127350   1.196   2.182   4.373
 8817SOL    HW227351   1.036   2.178   4.340
 8818SOL     OW27352   1.595   5.536   6.396
 8818SOL    HW127353   1.597   5.614   6.459
 8818SOL    HW227354   1.673   5.476   6.415
 8819SOL     OW27355   5.127   6.045   6.770
 8819SOL    HW127356   5.209   5.989   6.759
 8819SOL    HW227357   5.115   6.068   6.867
 8820SOL     OW27358   3.628   6.506   5.439
 8820SOL    HW127359   3.529   6.497   5.428
 8820SOL    HW227360   3.647   6.547   5.529
 8821SOL     OW27361   1.948   5.386   5.552
 8821SOL    HW127362   1.871   5.325   5.570
 8821SOL    HW227363   1.961   5.448   5.630
 8822SOL     OW27364   0.252   0.705   5.103
 8822SOL    HW127365   0.295   0.709   5.193
 8822SOL    HW227366   0.171   0.647   5.107
 8823SOL     OW27367   4.524   2.448   3.531
 8823SOL    HW127368   4.617   2.451   3.492
 8823SOL    HW227369   4.498   2.539   3.562
 8824SOL     OW27370   1.238   0.362   3.294
 8824SOL    HW127371   1.330   0.345   3.259
 8824SOL    HW227372   1.195   0.275   3.319
 8825SOL     OW27373   1.863   6.343   6.488
 8825SOL    HW127374   1.907   6.253   6.482
 8825SOL    HW227375   1.816   6.362   6.402
 8826SOL     OW27376   0.895   2.719   0.124
 8826SOL    HW127377   0.802   2.682   0.127
 8826SOL    HW227378   0.897   2.809   0.166
 8827SOL     OW27379   5.038   6.726   4.007
 8827SOL    HW127380   5.097   6.696   3.933
 8827SOL    HW227381   5.080   6.803   4.055
 8828SOL     OW27382   4.964   2.593   5.877
 8828SOL    HW127383   4.985   2.688   5.901
 8828SOL    HW227384   5.049   2.544   5.858
 8829SOL     OW27385   6.197   0.703   2.735
 8829SOL    HW127386   6.149   0.663   2.813
 8829SOL    HW227387   6.260   0.773   2.768
 8830SOL     OW27388   2.745   2.385   2.810
 8830SOL    HW127389   2.723   2.433   2.894
 8830SOL    HW227390   2.836   2.343   2.818
 8831SOL     OW27391   0.283   1.919   2.574
 8831SOL    HW127392   0.207   1.966   2.528
 8831SOL    HW227393   0.368   1.968   2.557
 8832SOL     OW27394   6.179   0.178   4.931
 8832SOL    HW127395   6.128   0.227   5.001
 8832SOL    HW227396   6.275   0.168   4.961
 8833SOL     OW27397   4.954   2.468   1.032
 8833SOL    HW127398   4.858   2.493   1.016
 8833SOL    HW227399   5.014   2.540   0.996
 8834SOL     OW27400   6.316   4.107   5.706
 8834SOL    HW127401   6.410   4.073   5.710
 8834SOL    HW227402   6.311   4.197   5.750
 8835SOL     OW27403   6.074   1.493   5.099
 8835SOL    HW127404   6.012   1.463   5.171
 8835SOL    HW227405   6.033   1.568   5.048
 8836SOL     OW27406   4.140   1.330   0.144
 8836SOL    HW127407   4.122   1.265   0.218
 8836SOL    HW227408   4.229   1.310   0.103
 8837SOL     OW27409   5.660   5.450   1.293
 8837SOL    HW127410   5.561   5.456   1.309
 8837SOL    HW227411   5.708   5.510   1.358
 8838SOL     OW27412   0.824   2.522   1.684
 8838SOL    HW127413   0.724   2.521   1.686
 8838SOL    HW227414   0.859   2.484   1.769
 8839SOL     OW27415   4.590   4.475   1.812
 8839SOL    HW127416   4.683   4.458   1.845
 8839SOL    HW227417   4.525   4.420   1.865
 8840SOL     OW27418   0.246   6.725   0.966
 8840SOL    HW127419   0.260   6.738   1.064
 8840SOL    HW227420   0.305   6.652   0.933
 8841SOL     OW27421   4.649   2.069   0.557
 8841SOL    HW127422   4.553   2.079   0.582
 8841SOL    HW227423   4.706   2.077   0.639
 8842SOL     OW27424   3.116   3.016   3.378
 8842SOL    HW127425   3.070   2.930   3.403
 8842SOL    HW227426   3.197   2.996   3.322
 8843SOL     OW27427   2.351   6.521   5.077
 8843SOL    HW127428   2.299   6.481   5.001
 8843SOL    HW227429   2.374   6.616   5.055
 8844SOL     OW27430   4.097   2.402   5.339
 8844SOL    HW127431   4.150   2.441   5.265
 8844SOL    HW227432   4.122   2.445   5.426
 8845SOL     OW27433   0.212   3.706   2.336
 8845SOL    HW127434   0.217   3.689   2.237
 8845SOL    HW227435   0.281   3.650   2.383
 8846SOL     OW27436   5.169   5.737   4.178
 8846SOL    HW127437   5.077   5.772   4.162
 8846SOL    HW227438   5.228   5.762   4.101
 8847SOL     OW27439   1.011   3.089   3.734
 8847SOL    HW127440   1.062   3.066   3.651
 8847SOL    HW227441   1.073   3.091   3.812
 8848SOL     OW27442   6.563   2.672   1.433
 8848SOL    HW127443   6.592   2.588   1.479
 8848SOL    HW227444   6.632   2.743   1.447
 8849SOL     OW27445   3.579   5.271   4.412
 8849SOL    HW127446   3.512   5.334   4.373
 8849SOL    HW227447   3.588   5.288   4.510
 8850SOL     OW27448   4.490   1.578   1.264
 8850SOL    HW127449   4.572   1.558   1.318
 8850SOL    HW227450   4.514   1.641   1.190
 8851SOL     OW27451   6.505   5.146   3.575
 8851SOL    HW127452   6.541   5.068   3.626
 8851SOL    HW227453   6.514   5.229   3.630
 8852SOL     OW27454   5.902   4.529   4.516
 8852SOL    HW127455   5.957   4.612   4.508
 8852SOL    HW227456   5.833   4.541   4.588
 8853SOL     OW27457   4.747   1.847   4.479
 8853SOL    HW127458   4.678   1.918   4.490
 8853SOL    HW227459   4.744   1.786   4.558
 8854SOL     OW27460   2.925   0.662   6.644
 8854SOL    HW127461   2.877   0.737   6.689
 8854SOL    HW227462   2.996   0.626   6.704
 8855SOL     OW27463   6.759   4.536   6.392
 8855SOL    HW127464   6.847   4.502   6.361
 8855SOL    HW227465   6.730   4.487   6.474
 8856SOL     OW27466   5.595   1.597   6.203
 8856SOL    HW127467   5.556   1.556   6.285
 8856SOL    HW227468   5.538   1.574   6.124
 8857SOL     OW27469   1.735   3.528   4.686
 8857SOL    HW127470   1.742   3.503   4.782
 8857SOL    HW227471   1.820   3.571   4.656
 8858SOL     OW27472   1.647   3.592   6.006
 8858SOL    HW127473   1.598   3.589   6.093
 8858SOL    HW227474   1.624   3.512   5.951
 8859SOL     OW27475   2.881   5.341   4.881
 8859SOL    HW127476   2.915   5.255   4.842
 8859SOL    HW227477   2.781   5.342   4.877
 8860SOL     OW27478   2.498   0.934   2.129
 8860SOL    HW127479   2.487   0.858   2.066
 8860SOL    HW227480   2.533   1.014   2.080
 8861SOL     OW27481   2.366   1.055   7.024
 8861SOL    HW127482   2.428   1.128   6.997
 8861SOL    HW227483   2.384   0.973   6.969
 8862SOL     OW27484   0.650   3.529   3.621
 8862SOL    HW127485   0.551   3.531   3.606
 8862SOL    HW227486   0.679   3.615   3.663
 8863SOL     OW27487   1.678   5.657   4.869
 8863SOL    HW127488   1.603   5.712   4.834
 8863SOL    HW227489   1.668   5.562   4.839
 8864SOL     OW27490   2.158   3.794   5.107
 8864SOL    HW127491   2.203   3.882   5.121
 8864SOL    HW227492   2.178   3.759   5.015
 8865SOL     OW27493   2.947   1.872   5.700
 8865SOL    HW127494   2.933   1.970   5.708
 8865SOL    HW227495   2.987   1.851   5.611
 8866SOL     OW27496   5.717   7.024   4.958
 8866SOL    HW127497   5.732   0.020   4.861
 8866SOL    HW227498   5.620   7.024   4.978
 8867SOL     OW27499   5.201   1.340   2.820
 8867SOL    HW127500   5.220   1.438   2.828
 8867SOL    HW227501   5.184   1.317   2.724
 8868SOL     OW27502   5.717   2.524   0.566
 8868SOL    HW127503   5.719   2.624   0.577
 8868SOL    HW227504   5.756   2.499   0.478
 8869SOL     OW27505   1.442   1.194   4.012
 8869SOL    HW127506   1.440   1.277   4.068
 8869SOL    HW227507   1.383   1.125   4.053
 8870SOL     OW27508   3.688   6.792   1.599
 8870SOL    HW127509   3.673   6.700   1.564
 8870SOL    HW227510   3.600   6.834   1.621
 8871SOL     OW27511   0.677   2.298   3.577
 8871SOL    HW127512   0.750   2.270   3.640
 8871SOL    HW227513   0.606   2.227   3.575
 8872SOL     OW27514   0.311   0.835   2.565
 8872SOL    HW127515   0.249   0.822   2.642
 8872SOL    HW227516   0.395   0.782   2.580
 8873SOL     OW27517   6.839   5.960   4.403
 8873SOL    HW127518   6.881   5.970   4.493
 8873SOL    HW227519   6.853   5.866   4.371
 8874SOL     OW27520   0.464   1.287   5.978
 8874SOL    HW127521   0.475   1.319   5.883
 8874SOL    HW227522   0.505   1.197   5.988
 8875SOL     OW27523   1.417   0.823   4.272
 8875SOL    HW127524   1.459   0.852   4.186
 8875SOL    HW227525   1.466   0.743   4.308
 8876SOL     OW27526   3.305   1.275   4.189
 8876SOL    HW127527   3.312   1.271   4.288
 8876SOL    HW227528   3.239   1.346   4.163
 8877SOL     OW27529   2.268   6.708   5.900
 8877SOL    HW127530   2.244   6.797   5.938
 8877SOL    HW227531   2.305   6.649   5.972
 8878SOL     OW27532   6.012   4.218   5.262
 8878SOL    HW127533   5.995   4.165   5.345
 8878SOL    HW227534   6.110   4.218   5.242
 8879SOL     OW27535   6.354   5.952   5.084
 8879SOL    HW127536   6.276   5.915   5.133
 8879SOL    HW227537   6.389   5.884   5.020
 8880SOL     OW27538   1.487   0.094   5.177
 8880SOL    HW127539   1.388   0.098   5.165
 8880SOL    HW227540   1.523   0.185   5.197
 8881SOL     OW27541   5.963   1.034   1.574
 8881SOL    HW127542   5.926   0.964   1.635
 8881SOL    HW227543   5.940   1.011   1.479
 8882SOL     OW27544   5.275   1.946   0.289
 8882SOL    HW127545   5.184   1.909   0.270
 8882SOL    HW227546   5.268   2.013   0.363
 8883SOL     OW27547   5.840   1.540   5.668
 8883SOL    HW127548   5.754   1.542   5.719
 8883SOL    HW227549   5.829   1.587   5.580
 8884SOL     OW27550   0.841   1.347   6.265
 8884SOL    HW127551   0.940   1.345   6.284
 8884SOL    HW227552   0.792   1.373   6.349
 8885SOL     OW27553   5.622   3.633   1.569
 8885SOL    HW127554   5.536   3.675   1.597
 8885SOL    HW227555   5.671   3.599   1.650
 8886SOL     OW27556   3.124   6.416   6.039
 8886SOL    HW127557   3.145   6.319   6.035
 8886SOL    HW227558   3.203   6.469   6.008
 8887SOL     OW27559   1.646   1.109   6.802
 8887SOL    HW127560   1.715   1.075   6.865
 8887SOL    HW227561   1.627   1.039   6.733
 8888SOL     OW27562   1.839   1.754   3.458
 8888SOL    HW127563   1.827   1.851   3.480
 8888SOL    HW227564   1.835   1.742   3.359
 8889SOL     OW27565   3.270   0.863   5.763
 8889SOL    HW127566   3.256   0.899   5.856
 8889SOL    HW227567   3.189   0.883   5.708
 8890SOL     OW27568   5.914   5.528   3.176
 8890SOL    HW127569   5.955   5.617   3.196
 8890SOL    HW227570   5.904   5.516   3.078
 8891SOL     OW27571   3.248   1.888   6.369
 8891SOL    HW127572   3.280   1.955   6.303
 8891SOL    HW227573   3.204   1.934   6.446
 8892SOL     OW27574   1.061   0.430   3.773
 8892SOL    HW127575   1.037   0.333   3.782
 8892SOL    HW227576   1.144   0.438   3.718
 8893SOL     OW27577   0.184   0.563   0.518
 8893SOL    HW127578   0.232   0.651   0.513
 8893SOL    HW227579   0.091   0.578   0.551
 8894SOL     OW27580   5.024   3.292   5.529
 8894SOL    HW127581   5.043   3.339   5.615
 8894SOL    HW227582   5.049   3.351   5.453
 8895SOL     OW27583   0.817   1.162   3.262
 8895SOL    HW127584   0.873   1.233   3.306
 8895SOL    HW227585   0.744   1.134   3.324
 8896SOL     OW27586   1.755   4.115   4.276
 8896SOL    HW127587   1.702   4.169   4.210
 8896SOL    HW227588   1.849   4.106   4.243
 8897SOL     OW27589   0.070   1.635   2.280
 8897SOL    HW127590   0.085   1.710   2.215
 8897SOL    HW227591   7.007   1.590   2.259
 8898SOL     OW27592   1.321   2.088   4.901
 8898SOL    HW127593   1.405   2.142   4.911
 8898SOL    HW227594   1.272   2.086   4.988
 8899SOL     OW27595   4.107   6.792   3.161
 8899SOL    HW127596   4.124   6.874   3.216
 8899SOL    HW227597   4.022   6.803   3.110
 8900SOL     OW27598   6.306   1.782   3.680
 8900SOL    HW127599   6.208   1.797   3.668
 8900SOL    HW227600   6.357   1.854   3.632
 8901SOL     OW27601   1.032   6.813   1.814
 8901SOL    HW127602   1.070   6.732   1.858
 8901SOL    HW227603   0.934   6.800   1.798
 8902SOL     OW27604   4.585   6.799   5.760
 8902SOL    HW127605   4.493   6.800   5.719
 8902SOL    HW227606   4.625   6.890   5.754
 8903SOL     OW27607   6.111   2.006   3.084
 8903SOL    HW127608   6.042   1.934   3.089
 8903SOL    HW227609   6.159   2.002   2.997
 8904SOL     OW27610   2.414   4.411   4.034
 8904SOL    HW127611   2.331   4.435   3.983
 8904SOL    HW227612   2.389   4.386   4.128
 8905SOL     OW27613   2.043   4.246   4.761
 8905SOL    HW127614   2.124   4.221   4.708
 8905SOL    HW227615   2.026   4.176   4.830
 8906SOL     OW27616   1.570   4.950   4.172
 8906SOL    HW127617   1.555   5.013   4.248
 8906SOL    HW227618   1.502   4.877   4.176
 8907SOL     OW27619   3.941   2.923   6.959
 8907SOL    HW127620   3.971   2.931   6.864
 8907SOL    HW227621   3.914   3.013   6.992
 8908SOL     OW27622   1.116   2.808   2.986
 8908SOL    HW127623   1.173   2.813   2.904
 8908SOL    HW227624   1.151   2.872   3.055
 8909SOL     OW27625   3.460   0.051   4.717
 8909SOL    HW127626   3.432   0.098   4.801
 8909SOL    HW227627   3.554   0.020   4.727
 8910SOL     OW27628   4.392   2.875   6.753
 8910SOL    HW127629   4.334   2.862   6.833
 8910SOL    HW227630   4.480   2.913   6.780
 8911SOL     OW27631   5.252   3.973   4.995
 8911SOL    HW127632   5.233   4.003   5.088
 8911SOL    HW227633   5.216   3.881   4.981
 8912SOL     OW27634   3.783   1.194   0.379
 8912SOL    HW127635   3.814   1.259   0.311
 8912SOL    HW227636   3.817   1.220   0.469
 8913SOL     OW27637   3.868   3.272   1.568
 8913SOL    HW127638   3.944   3.235   1.514
 8913SOL    HW227639   3.864   3.223   1.656
 8914SOL     OW27640   5.733   4.477   3.150
 8914SOL    HW127641   5.700   4.559   3.102
 8914SOL    HW227642   5.672   4.456   3.226
 8915SOL     OW27643   1.455   5.608   1.786
 8915SOL    HW127644   1.539   5.604   1.840
 8915SOL    HW227645   1.377   5.587   1.845
 8916SOL     OW27646   5.339   2.603   0.995
 8916SOL    HW127647   5.364   2.613   1.091
 8916SOL    HW227648   5.255   2.655   0.976
 8917SOL     OW27649   5.597   4.144   5.861
 8917SOL    HW127650   5.617   4.210   5.933
 8917SOL    HW227651   5.529   4.079   5.893
 8918SOL     OW27652   5.072   4.586   5.510
 8918SOL    HW127653   4.989   4.629   5.475
 8918SOL    HW227654   5.054   4.490   5.530
 8919SOL     OW27655   1.899   3.153   1.025
 8919SOL    HW127656   1.868   3.061   1.003
 8919SOL    HW227657   1.992   3.150   1.061
 8920SOL     OW27658   5.864   5.439   5.632
 8920SOL    HW127659   5.802   5.381   5.578
 8920SOL    HW227660   5.953   5.395   5.638
 8921SOL     OW27661   0.325   5.384   3.114
 8921SOL    HW127662   0.421   5.360   3.097
 8921SOL    HW227663   0.302   5.469   3.067
 8922SOL     OW27664   1.101   3.049   0.468
 8922SOL    HW127665   1.009   3.068   0.433
 8922SOL    HW227666   1.108   3.080   0.563
 8923SOL     OW27667   2.332   5.398   4.406
 8923SOL    HW127668   2.337   5.395   4.306
 8923SOL    HW227669   2.287   5.315   4.439
 8924SOL     OW27670   2.056   6.360   4.404
 8924SOL    HW127671   2.105   6.317   4.329
 8924SOL    HW227672   1.994   6.430   4.368
 8925SOL     OW27673   4.432   5.447   1.456
 8925SOL    HW127674   4.470   5.376   1.398
 8925SOL    HW227675   4.362   5.498   1.405
 8926SOL     OW27676   5.530   6.583   0.489
 8926SOL    HW127677   5.521   6.490   0.454
 8926SOL    HW227678   5.604   6.630   0.441
 8927SOL     OW27679   2.809   1.993   5.405
 8927SOL    HW127680   2.729   2.025   5.355
 8927SOL    HW227681   2.884   2.057   5.392
 8928SOL     OW27682   1.349   0.158   6.012
 8928SOL    HW127683   1.409   0.202   6.079
 8928SOL    HW227684   1.369   0.060   6.009
 8929SOL     OW27685   4.691   4.131   3.225
 8929SOL    HW127686   4.598   4.153   3.256
 8929SOL    HW227687   4.716   4.191   3.150
 8930SOL     OW27688   0.705   5.482   5.190
 8930SOL    HW127689   0.660   5.569   5.210
 8930SOL    HW227690   0.701   5.465   5.092
 8931SOL     OW27691   5.653   0.892   1.498
 8931SOL    HW127692   5.633   0.985   1.468
 8931SOL    HW227693   5.640   0.829   1.421
 8932SOL     OW27694   3.567   0.771   6.413
 8932SOL    HW127695   3.606   0.753   6.503
 8932SOL    HW227696   3.469   0.752   6.414
 8933SOL     OW27697   1.724   0.532   5.768
 8933SOL    HW127698   1.699   0.593   5.693
 8933SOL    HW227699   1.642   0.490   5.807
 8934SOL     OW27700   2.216   6.419   3.130
 8934SOL    HW127701   2.156   6.479   3.076
 8934SOL    HW227702   2.302   6.407   3.081
 8935SOL     OW27703   4.819   2.398   2.064
 8935SOL    HW127704   4.824   2.299   2.076
 8935SOL    HW227705   4.888   2.442   2.122
 8936SOL     OW27706   0.873   3.492   2.476
 8936SOL    HW127707   0.850   3.588   2.461
 8936SOL    HW227708   0.955   3.469   2.423
 8937SOL     OW27709   3.408   5.996   5.239
 8937SOL    HW127710   3.331   5.938   5.266
 8937SOL    HW227711   3.390   6.090   5.268
 8938SOL     OW27712   4.663   6.489   2.285
 8938SOL    HW127713   4.597   6.420   2.314
 8938SOL    HW227714   4.717   6.517   2.364
 8939SOL     OW27715   6.913   3.545   5.679
 8939SOL    HW127716   6.967   3.497   5.610
 8939SOL    HW227717   6.854   3.480   5.727
 8940SOL     OW27718   6.167   4.091   2.815
 8940SOL    HW127719   6.124   4.128   2.733
 8940SOL    HW227720   6.126   4.003   2.838
 8941SOL     OW27721   5.987   2.858   4.136
 8941SOL    HW127722   5.922   2.784   4.152
 8941SOL    HW227723   6.047   2.869   4.216
 8942SOL     OW27724   5.213   6.589   4.303
 8942SOL    HW127725   5.114   6.580   4.290
 8942SOL    HW227726   5.253   6.498   4.309
 8943SOL     OW27727   4.390   3.383   0.513
 8943SOL    HW127728   4.489   3.378   0.523
 8943SOL    HW227729   4.367   3.429   0.428
 8944SOL     OW27730   4.440   5.718   6.130
 8944SOL    HW127731   4.350   5.721   6.086
 8944SOL    HW227732   4.467   5.623   6.142
 8945SOL     OW27733   6.513   4.220   1.957
 8945SOL    HW127734   6.498   4.302   1.903
 8945SOL    HW227735   6.505   4.139   1.899
 8946SOL     OW27736   3.979   1.863   3.704
 8946SOL    HW127737   3.899   1.912   3.739
 8946SOL    HW227738   4.061   1.900   3.747
 8947SOL     OW27739   3.297   5.458   0.233
 8947SOL    HW127740   3.260   5.424   0.147
 8947SOL    HW227741   3.380   5.511   0.214
 8948SOL     OW27742   5.838   6.669   2.998
 8948SOL    HW127743   5.863   6.686   2.903
 8948SOL    HW227744   5.875   6.742   3.056
 8949SOL     OW27745   3.555   6.363   0.787
 8949SOL    HW127746   3.620   6.407   0.726
 8949SOL    HW227747   3.599   6.287   0.834
 8950SOL     OW27748   3.279   3.371   3.607
 8950SOL    HW127749   3.326   3.321   3.680
 8950SOL    HW227750   3.322   3.350   3.519
 8951SOL     OW27751   0.795   0.714   4.113
 8951SOL    HW127752   0.800   0.754   4.205
 8951SOL    HW227753   0.830   0.621   4.116
 8952SOL     OW27754   1.717   4.252   4.535
 8952SOL    HW127755   1.727   4.349   4.513
 8952SOL    HW227756   1.754   4.197   4.461
 8953SOL     OW27757   2.199   5.331   0.746
 8953SOL    HW127758   2.141   5.339   0.664
 8953SOL    HW227759   2.295   5.343   0.721
 8954SOL     OW27760   1.981   3.750   5.479
 8954SOL    HW127761   1.998   3.832   5.534
 8954SOL    HW227762   1.937   3.776   5.393
 8955SOL     OW27763   6.804   2.523   6.452
 8955SOL    HW127764   6.846   2.468   6.524
 8955SOL    HW227765   6.855   2.608   6.440
 8956SOL     OW27766   1.220   6.504   0.953
 8956SOL    HW127767   1.164   6.422   0.938
 8956SOL    HW227768   1.276   6.492   1.035
 8957SOL     OW27769   0.361   0.135   4.176
 8957SOL    HW127770   0.304   0.057   4.201
 8957SOL    HW227771   0.305   0.204   4.131
 8958SOL     OW27772   0.253   2.974   4.617
 8958SOL    HW127773   0.337   3.027   4.628
 8958SOL    HW227774   0.202   3.008   4.538
 8959SOL     OW27775   5.861   1.563   3.625
 8959SOL    HW127776   5.812   1.529   3.705
 8959SOL    HW227777   5.954   1.526   3.625
 8960SOL     OW27778   3.374   6.937   1.561
 8960SOL    HW127779   3.387   6.902   1.469
 8960SOL    HW227780   3.325   7.024   1.557
 8961SOL     OW27781   2.101   2.492   5.444
 8961SOL    HW127782   2.095   2.425   5.519
 8961SOL    HW227783   2.142   2.448   5.364
 8962SOL     OW27784   6.884   5.637   0.475
 8962SOL    HW127785   6.982   5.630   0.456
 8962SOL    HW227786   6.841   5.698   0.408
 8963SOL     OW27787   2.350   5.060   5.222
 8963SOL    HW127788   2.335   4.974   5.173
 8963SOL    HW227789   2.372   5.040   5.317
 8964SOL     OW27790   1.687   3.840   4.076
 8964SOL    HW127791   1.741   3.919   4.045
 8964SOL    HW227792   1.731   3.756   4.045
 8965SOL     OW27793   3.126   6.867   6.400
 8965SOL    HW127794   3.083   6.933   6.339
 8965SOL    HW227795   3.174   6.798   6.346
 8966SOL     OW27796   4.016   6.846   5.467
 8966SOL    HW127797   4.107   6.815   5.437
 8966SOL    HW227798   3.983   6.917   5.406
 8967SOL     OW27799   2.061   6.948   2.822
 8967SOL    HW127800   1.994   6.877   2.844
 8967SOL    HW227801   2.144   6.932   2.874
 8968SOL     OW27802   3.003   5.486   2.720
 8968SOL    HW127803   3.093   5.530   2.722
 8968SOL    HW227804   3.008   5.398   2.768
 8969SOL     OW27805   6.692   0.379   1.070
 8969SOL    HW127806   6.657   0.417   0.984
 8969SOL    HW227807   6.791   0.369   1.064
 8970SOL     OW27808   2.809   1.976   4.713
 8970SOL    HW127809   2.801   2.042   4.788
 8970SOL    HW227810   2.789   2.022   4.626
 8971SOL     OW27811   2.563   5.970   1.208
 8971SOL    HW127812   2.506   6.044   1.173
 8971SOL    HW227813   2.612   6.000   1.290
 8972SOL     OW27814   6.794   4.290   0.210
 8972SOL    HW127815   6.851   4.318   0.287
 8972SOL    HW227816   6.783   4.368   0.147
 8973SOL     OW27817   2.717   1.821   3.058
 8973SOL    HW127818   2.806   1.778   3.042
 8973SOL    HW227819   2.667   1.824   2.971
 8974SOL     OW27820   0.609   4.666   5.417
 8974SOL    HW127821   0.673   4.720   5.363
 8974SOL    HW227822   0.659   4.605   5.479
 8975SOL     OW27823   1.128   3.763   6.466
 8975SOL    HW127824   1.126   3.669   6.431
 8975SOL    HW227825   1.190   3.768   6.543
 8976SOL     OW27826   5.511   6.693   1.391
 8976SOL    HW127827   5.438   6.744   1.344
 8976SOL    HW227828   5.551   6.752   1.462
 8977SOL     OW27829   1.042   5.483   6.370
 8977SOL    HW127830   1.006   5.530   6.290
 8977SOL    HW227831   1.134   5.449   6.350
 8978SOL     OW27832   6.713   4.718   4.760
 8978SOL    HW127833   6.658   4.704   4.842
 8978SOL    HW227834   6.742   4.629   4.723
 8979SOL     OW27835   1.795   4.779   3.177
 8979SOL    HW127836   1.793   4.748   3.272
 8979SOL    HW227837   1.707   4.821   3.154
 8980SOL     OW27838   4.755   1.398   6.569
 8980SOL    HW127839   4.807   1.484   6.564
 8980SOL    HW227840   4.685   1.399   6.498
 8981SOL     OW27841   3.716   2.381   6.812
 8981SOL    HW127842   3.623   2.417   6.800
 8981SOL    HW227843   3.724   2.336   6.901
 8982SOL     OW27844   0.243   0.973   3.762
 8982SOL    HW127845   0.299   0.916   3.703
 8982SOL    HW227846   0.153   0.931   3.773
 8983SOL     OW27847   1.515   0.049   2.198
 8983SOL    HW127848   1.492   0.116   2.268
 8983SOL    HW227849   1.432   0.025   2.146
 8984SOL     OW27850   6.572   0.835   3.773
 8984SOL    HW127851   6.530   0.746   3.756
 8984SOL    HW227852   6.671   0.826   3.769
 8985SOL     OW27853   5.505   0.413   0.256
 8985SOL    HW127854   5.425   0.442   0.203
 8985SOL    HW227855   5.555   0.494   0.287
 8986SOL     OW27856   1.103   0.120   6.311
 8986SOL    HW127857   1.135   0.130   6.406
 8986SOL    HW227858   1.013   0.077   6.311
 8987SOL     OW27859   3.190   6.355   3.248
 8987SOL    HW127860   3.112   6.418   3.250
 8987SOL    HW227861   3.223   6.340   3.342
 8988SOL     OW27862   2.035   6.303   1.704
 8988SOL    HW127863   2.001   6.316   1.612
 8988SOL    HW227864   1.973   6.244   1.755
 8989SOL     OW27865   6.435   1.704   2.240
 8989SOL    HW127866   6.399   1.614   2.216
 8989SOL    HW227867   6.376   1.747   2.308
 8990SOL     OW27868   3.773   1.848   3.191
 8990SOL    HW127869   3.720   1.764   3.201
 8990SOL    HW227870   3.868   1.831   3.216
 8991SOL     OW27871   1.543   2.204   1.260
 8991SOL    HW127872   1.572   2.176   1.169
 8991SOL    HW227873   1.454   2.249   1.254
 8992SOL     OW27874   0.715   5.324   4.631
 8992SOL    HW127875   0.669   5.237   4.646
 8992SOL    HW227876   0.767   5.320   4.545
 8993SOL     OW27877   5.386   4.581   3.729
 8993SOL    HW127878   5.340   4.619   3.649
 8993SOL    HW227879   5.323   4.580   3.807
 8994SOL     OW27880   1.205   6.162   2.898
 8994SOL    HW127881   1.277   6.108   2.943
 8994SOL    HW227882   1.116   6.119   2.915
 8995SOL     OW27883   1.729   3.636   2.977
 8995SOL    HW127884   1.783   3.637   2.893
 8995SOL    HW227885   1.720   3.542   3.011
 8996SOL     OW27886   3.380   3.975   1.417
 8996SOL    HW127887   3.424   4.059   1.446
 8996SOL    HW227888   3.392   3.963   1.318
 8997SOL     OW27889   4.458   1.242   4.848
 8997SOL    HW127890   4.438   1.247   4.946
 8997SOL    HW227891   4.373   1.227   4.797
 8998SOL     OW27892   0.996   1.559   5.822
 8998SOL    HW127893   0.902   1.570   5.855
 8998SOL    HW227894   1.050   1.513   5.893
 8999SOL     OW27895   0.092   2.753   5.201
 8999SOL    HW127896   0.106   2.674   5.261
 8999SOL    HW227897   0.147   2.742   5.119
 9000SOL     OW27898   3.946   5.183   1.538
 9000SOL    HW127899   3.889   5.145   1.610
 9000SOL    HW227900   3.970   5.111   1.472
 9001SOL     OW27901   1.297   3.384   3.820
 9001SOL    HW127902   1.270   3.408   3.727
 9001SOL    HW227903   1.259   3.294   3.843
 9002SOL     OW27904   5.187   2.895   6.972
 9002SOL    HW127905   5.215   2.975   0.001
 9002SOL    HW227906   5.129   2.836   0.004
 9003SOL     OW27907   0.341   3.577   0.392
 9003SOL    HW127908   0.287   3.640   0.447
 9003SOL    HW227909   0.406   3.529   0.451
 9004SOL     OW27910   5.580   5.843   1.142
 9004SOL    HW127911   5.542   5.931   1.115
 9004SOL    HW227912   5.623   5.799   1.063
 9005SOL     OW27913   4.771   4.228   4.107
 9005SOL    HW127914   4.830   4.148   4.118
 9005SOL    HW227915   4.756   4.246   4.010
 9006SOL     OW27916   3.343   6.359   2.883
 9006SOL    HW127917   3.355   6.425   2.957
 9006SOL    HW227918   3.426   6.357   2.827
 9007SOL     OW27919   2.039   0.538   5.589
 9007SOL    HW127920   2.010   0.630   5.561
 9007SOL    HW227921   2.088   0.544   5.676
 9008SOL     OW27922   6.879   5.096   1.814
 9008SOL    HW127923   6.970   5.083   1.853
 9008SOL    HW227924   6.836   5.007   1.800
 9009SOL     OW27925   4.324   6.639   6.990
 9009SOL    HW127926   4.344   6.706   0.037
 9009SOL    HW227927   4.228   6.646   6.963
 9010SOL     OW27928   6.732   6.277   4.636
 9010SOL    HW127929   6.827   6.280   4.602
 9010SOL    HW227930   6.680   6.210   4.584
 9011SOL     OW27931   4.606   2.542   2.470
 9011SOL    HW127932   4.563   2.458   2.437
 9011SOL    HW227933   4.642   2.593   2.392
 9012SOL     OW27934   3.909   4.844   2.080
 9012SOL    HW127935   3.996   4.799   2.100
 9012SOL    HW227936   3.927   4.940   2.055
 9013SOL     OW27937   3.083   6.135   1.115
 9013SOL    HW127938   3.176   6.149   1.150
 9013SOL    HW227939   3.034   6.222   1.113
 9014SOL     OW27940   2.193   1.756   2.384
 9014SOL    HW127941   2.159   1.767   2.291
 9014SOL    HW227942   2.261   1.827   2.403
 9015SOL     OW27943   6.358   2.236   4.807
 9015SOL    HW127944   6.275   2.281   4.842
 9015SOL    HW227945   6.425   2.306   4.782
 9016SOL     OW27946   0.230   4.840   0.464
 9016SOL    HW127947   0.137   4.846   0.501
 9016SOL    HW227948   0.292   4.806   0.535
 9017SOL     OW27949   6.230   3.057   2.078
 9017SOL    HW127950   6.208   2.979   2.019
 9017SOL    HW227951   6.145   3.092   2.118
 9018SOL     OW27952   5.602   2.132   6.564
 9018SOL    HW127953   5.554   2.120   6.651
 9018SOL    HW227954   5.678   2.195   6.577
 9019SOL     OW27955   1.937   5.864   0.342
 9019SOL    HW127956   2.010   5.888   0.278
 9019SOL    HW227957   1.931   5.765   0.351
 9020SOL     OW27958   0.812   5.043   4.651
 9020SOL    HW127959   0.901   5.080   4.675
 9020SOL    HW227960   0.821   4.983   4.572
 9021SOL     OW27961   6.758   5.405   5.082
 9021SOL    HW127962   6.702   5.438   5.006
 9021SOL    HW227963   6.822   5.335   5.049
 9022SOL     OW27964   0.863   6.896   5.385
 9022SOL    HW127965   0.881   6.994   5.395
 9022SOL    HW227966   0.948   6.849   5.363
 9023SOL     OW27967   3.314   3.606   4.472
 9023SOL    HW127968   3.217   3.629   4.465
 9023SOL    HW227969   3.367   3.688   4.490
 9024SOL     OW27970   1.494   0.538   0.847
 9024SOL    HW127971   1.415   0.479   0.828
 9024SOL    HW227972   1.478   0.589   0.932
 9025SOL     OW27973   0.293   2.530   0.359
 9025SOL    HW127974   0.288   2.589   0.279
 9025SOL    HW227975   0.366   2.561   0.419
 9026SOL     OW27976   2.890   4.402   6.132
 9026SOL    HW127977   2.844   4.485   6.163
 9026SOL    HW227978   2.823   4.343   6.085
 9027SOL     OW27979   1.412   3.507   2.012
 9027SOL    HW127980   1.481   3.558   1.961
 9027SOL    HW227981   1.324   3.555   2.006
 9028SOL     OW27982   1.903   3.749   5.198
 9028SOL    HW127983   1.987   3.769   5.149
 9028SOL    HW227984   1.866   3.661   5.167
 9029SOL     OW27985   4.529   5.364   2.785
 9029SOL    HW127986   4.545   5.272   2.750
 9029SOL    HW227987   4.431   5.378   2.797
 9030SOL     OW27988   5.142   2.670   2.089
 9030SOL    HW127989   5.046   2.699   2.090
 9030SOL    HW227990   5.189   2.714   2.013
 9031SOL     OW27991   2.356   0.674   2.780
 9031SOL    HW127992   2.405   0.761   2.783
 9031SOL    HW227993   2.272   0.685   2.727
 9032SOL     OW27994   0.660   4.077   3.052
 9032SOL    HW127995   0.705   4.004   3.002
 9032SOL    HW227996   0.705   4.091   3.140
 9033SOL     OW27997   0.709   2.603   2.541
 9033SOL    HW127998   0.759   2.591   2.627
 9033SOL    HW227999   0.612   2.617   2.560
 9034SOL     OW28000   1.410   6.380   1.116
 9034SOL    HW128001   1.454   6.299   1.077
 9034SOL    HW228002   1.480   6.451   1.131
 9035SOL     OW28003   6.136   1.593   4.364
 9035SOL    HW128004   6.078   1.645   4.426
 9035SOL    HW228005   6.230   1.592   4.400
 9036SOL     OW28006   6.853   1.916   4.013
 9036SOL    HW128007   6.810   1.957   4.093
 9036SOL    HW228008   6.950   1.941   4.011
 9037SOL     OW28009   2.919   4.173   6.392
 9037SOL    HW128010   2.987   4.164   6.319
 9037SOL    HW228011   2.832   4.202   6.353
 9038SOL     OW28012   3.791   6.101   5.611
 9038SOL    HW128013   3.789   6.002   5.604
 9038SOL    HW228014   3.748   6.141   5.530
 9039SOL     OW28015   2.656   4.851   0.355
 9039SOL    HW128016   2.726   4.818   0.292
 9039SOL    HW228017   2.576   4.792   0.350
 9040SOL     OW28018   3.862   1.365   2.334
 9040SOL    HW128019   3.825   1.279   2.370
 9040SOL    HW228020   3.851   1.437   2.403
 9041SOL     OW28021   2.537   2.660   5.217
 9041SOL    HW128022   2.441   2.650   5.194
 9041SOL    HW228023   2.566   2.754   5.201
 9042SOL     OW28024   1.566   5.206   2.408
 9042SOL    HW128025   1.543   5.110   2.427
 9042SOL    HW228026   1.537   5.263   2.485
 9043SOL     OW28027   0.738   1.439   6.514
 9043SOL    HW128028   0.642   1.414   6.527
 9043SOL    HW228029   0.755   1.529   6.554
 9044SOL     OW28030   0.499   4.385   1.146
 9044SOL    HW128031   0.514   4.467   1.202
 9044SOL    HW228032   0.410   4.346   1.167
 9045SOL     OW28033   1.495   4.771   5.087
 9045SOL    HW128034   1.506   4.813   4.997
 9045SOL    HW228035   1.478   4.673   5.076
 9046SOL     OW28036   4.294   4.635   6.090
 9046SOL    HW128037   4.265   4.550   6.047
 9046SOL    HW228038   4.217   4.699   6.093
 9047SOL     OW28039   0.650   5.109   3.971
 9047SOL    HW128040   0.562   5.111   4.020
 9047SOL    HW228041   0.716   5.055   4.023
 9048SOL     OW28042   1.107   1.766   5.682
 9048SOL    HW128043   1.203   1.743   5.702
 9048SOL    HW228044   1.047   1.703   5.732
 9049SOL     OW28045   4.134   5.726   5.705
 9049SOL    HW128046   4.192   5.770   5.773
 9049SOL    HW228047   4.139   5.776   5.619
 9050SOL     OW28048   0.705   3.527   6.989
 9050SOL    HW128049   0.660   3.524   6.900
 9050SOL    HW228050   0.640   3.501   0.036
 9051SOL     OW28051   6.937   5.889   6.544
 9051SOL    HW128052   6.843   5.871   6.573
 9051SOL    HW228053   6.960   5.831   6.466
 9052SOL     OW28054   2.024   4.655   4.039
 9052SOL    HW128055   1.946   4.615   3.991
 9052SOL    HW228056   2.001   4.749   4.066
 9053SOL     OW28057   0.891   0.442   2.894
 9053SOL    HW128058   0.808   0.470   2.943
 9053SOL    HW228059   0.868   0.372   2.827
 9054SOL     OW28060   1.082   6.937   1.569
 9054SOL    HW128061   1.083   6.890   1.658
 9054SOL    HW228062   0.988   6.938   1.534
 9055SOL     OW28063   1.577   3.162   5.560
 9055SOL    HW128064   1.673   3.135   5.556
 9055SOL    HW228065   1.542   3.174   5.468
 9056SOL     OW28066   5.223   2.387   1.985
 9056SOL    HW128067   5.174   2.422   2.064
 9056SOL    HW228068   5.309   2.346   2.014
 9057SOL     OW28069   3.463   0.246   5.947
 9057SOL    HW128070   3.388   0.264   6.011
 9057SOL    HW228071   3.456   0.309   5.869
 9058SOL     OW28072   2.291   2.859   3.448
 9058SOL    HW128073   2.366   2.793   3.445
 9058SOL    HW228074   2.204   2.811   3.442
 9059SOL     OW28075   0.679   6.925   2.280
 9059SOL    HW128076   0.745   6.880   2.340
 9059SOL    HW228077   0.727   6.992   2.223
 9060SOL     OW28078   0.670   4.936   0.288
 9060SOL    HW128079   0.585   4.884   0.286
 9060SOL    HW228080   0.721   4.914   0.371
 9061SOL     OW28081   3.813   4.843   2.667
 9061SOL    HW128082   3.833   4.820   2.762
 9061SOL    HW228083   3.898   4.839   2.613
 9062SOL     OW28084   6.614   6.009   3.125
 9062SOL    HW128085   6.655   6.086   3.076
 9062SOL    HW228086   6.659   5.924   3.096
 9063SOL     OW28087   6.005   6.249   1.206
 9063SOL    HW128088   6.015   6.302   1.123
 9063SOL    HW228089   5.953   6.166   1.186
 9064SOL     OW28090   1.327   6.234   3.574
 9064SOL    HW128091   1.294   6.143   3.550
 9064SOL    HW228092   1.323   6.246   3.674
 9065SOL     OW28093   3.320   4.034   6.959
 9065SOL    HW128094   3.244   3.979   6.993
 9065SOL    HW228095   3.291   4.085   6.878
 9066SOL     OW28096   5.469   5.331   4.119
 9066SOL    HW128097   5.567   5.348   4.129
 9066SOL    HW228098   5.436   5.372   4.034
 9067SOL     OW28099   2.116   0.291   3.677
 9067SOL    HW128100   2.085   0.203   3.642
 9067SOL    HW228101   2.201   0.318   3.631
 9068SOL     OW28102   5.487   0.727   4.458
 9068SOL    HW128103   5.512   0.636   4.427
 9068SOL    HW228104   5.460   0.723   4.555
 9069SOL     OW28105   4.315   2.559   1.072
 9069SOL    HW128106   4.236   2.524   1.123
 9069SOL    HW228107   4.397   2.552   1.129
 9070SOL     OW28108   0.692   0.368   6.348
 9070SOL    HW128109   0.623   0.386   6.278
 9070SOL    HW228110   0.783   0.385   6.310
 9071SOL     OW28111   5.635   2.391   0.146
 9071SOL    HW128112   5.607   2.300   0.176
 9071SOL    HW228113   5.555   2.450   0.141
 9072SOL     OW28114   5.783   0.753   1.686
 9072SOL    HW128115   5.786   0.655   1.666
 9072SOL    HW228116   5.714   0.797   1.628
 9073SOL     OW28117   4.797   3.024   6.416
 9073SOL    HW128118   4.753   2.942   6.378
 9073SOL    HW228119   4.869   2.997   6.480
 9074SOL     OW28120   1.989   0.237   3.057
 9074SOL    HW128121   1.995   0.262   2.960
 9074SOL    HW228122   1.899   0.198   3.076
 9075SOL     OW28123   5.007   5.786   1.258
 9075SOL    HW128124   4.937   5.836   1.206
 9075SOL    HW228125   5.097   5.804   1.219
 9076SOL     OW28126   1.055   6.935   2.046
 9076SOL    HW128127   0.989   7.008   2.029
 9076SOL    HW228128   1.044   6.862   1.978
 9077SOL     OW28129   6.377   0.304   6.912
 9077SOL    HW128130   6.462   0.338   6.952
 9077SOL    HW228131   6.338   0.374   6.852
 9078SOL     OW28132   5.152   6.474   6.836
 9078SOL    HW128133   5.110   6.494   6.748
 9078SOL    HW228134   5.083   6.477   6.908
 9079SOL     OW28135   2.972   1.267   6.384
 9079SOL    HW128136   2.978   1.358   6.345
 9079SOL    HW228137   2.877   1.249   6.413
 9080SOL     OW28138   6.706   4.924   1.067
 9080SOL    HW128139   6.684   4.848   1.128
 9080SOL    HW228140   6.745   4.888   0.982
 9081SOL     OW28141   5.194   1.746   6.110
 9081SOL    HW128142   5.278   1.779   6.152
 9081SOL    HW228143   5.188   1.780   6.016
 9082SOL     OW28144   2.907   4.707   6.656
 9082SOL    HW128145   2.866   4.736   6.570
 9082SOL    HW228146   2.975   4.773   6.685
 9083SOL     OW28147   3.410   0.273   0.737
 9083SOL    HW128148   3.328   0.279   0.794
 9083SOL    HW228149   3.385   0.288   0.642
 9084SOL     OW28150   0.287   4.385   4.304
 9084SOL    HW128151   0.311   4.403   4.400
 9084SOL    HW228152   0.192   4.412   4.288
 9085SOL     OW28153   3.224   4.943   2.271
 9085SOL    HW128154   3.151   5.011   2.270
 9085SOL    HW228155   3.248   4.921   2.365
 9086SOL     OW28156   0.441   1.477   0.357
 9086SOL    HW128157   0.387   1.464   0.274
 9086SOL    HW228158   0.440   1.574   0.382
 9087SOL     OW28159   4.581   1.729   0.281
 9087SOL    HW128160   4.534   1.641   0.274
 9087SOL    HW228161   4.616   1.756   0.192
 9088SOL     OW28162   5.936   6.367   0.732
 9088SOL    HW128163   5.982   6.285   0.696
 9088SOL    HW228164   5.898   6.346   0.822
 9089SOL     OW28165   4.726   5.008   3.076
 9089SOL    HW128166   4.758   5.058   2.996
 9089SOL    HW228167   4.744   5.062   3.158
 9090SOL     OW28168   6.292   4.587   5.004
 9090SOL    HW128169   6.372   4.645   5.013
 9090SOL    HW228170   6.297   4.513   5.071
 9091SOL     OW28171   1.574   1.786   2.174
 9091SOL    HW128172   1.571   1.875   2.221
 9091SOL    HW228173   1.566   1.800   2.075
 9092SOL     OW28174   3.576   1.889   5.140
 9092SOL    HW128175   3.620   1.911   5.053
 9092SOL    HW228176   3.516   1.810   5.128
 9093SOL     OW28177   1.450   3.981   1.084
 9093SOL    HW128178   1.371   3.943   1.130
 9093SOL    HW228179   1.529   3.977   1.145
 9094SOL     OW28180   0.889   2.715   6.526
 9094SOL    HW128181   0.903   2.616   6.536
 9094SOL    HW228182   0.905   2.760   6.614
 9095SOL     OW28183   2.861   2.373   1.137
 9095SOL    HW128184   2.830   2.284   1.105
 9095SOL    HW228185   2.924   2.413   1.070
 9096SOL     OW28186   0.072   4.063   3.607
 9096SOL    HW128187   7.006   4.076   3.566
 9096SOL    HW228188   0.121   3.990   3.558
 9097SOL     OW28189   6.762   5.953   5.861
 9097SOL    HW128190   6.839   5.969   5.799
 9097SOL    HW228191   6.796   5.909   5.944
 9098SOL     OW28192   2.987   3.173   6.000
 9098SOL    HW128193   2.947   3.204   6.086
 9098SOL    HW228194   2.939   3.216   5.924
 9099SOL     OW28195   2.025   2.687   6.084
 9099SOL    HW128196   2.042   2.762   6.147
 9099SOL    HW228197   1.966   2.619   6.128
 9100SOL     OW28198   1.540   1.585   0.716
 9100SOL    HW128199   1.455   1.533   0.706
 9100SOL    HW228200   1.523   1.680   0.693
 9101SOL     OW28201   2.464   1.958   0.433
 9101SOL    HW128202   2.436   1.974   0.527
 9101SOL    HW228203   2.564   1.964   0.426
 9102SOL     OW28204   4.245   5.995   2.504
 9102SOL    HW128205   4.342   6.017   2.499
 9102SOL    HW228206   4.233   5.906   2.549
 9103SOL     OW28207   1.574   3.893   6.229
 9103SOL    HW128208   1.669   3.892   6.196
 9103SOL    HW228209   1.537   3.985   6.220
 9104SOL     OW28210   4.709   6.849   2.892
 9104SOL    HW128211   4.705   6.806   2.983
 9104SOL    HW228212   4.707   6.948   2.903
 9105SOL     OW28213   3.332   2.107   6.242
 9105SOL    HW128214   3.326   2.126   6.144
 9105SOL    HW228215   3.323   2.192   6.293
 9106SOL     OW28216   6.875   5.519   1.532
 9106SOL    HW128217   6.791   5.518   1.585
 9106SOL    HW228218   6.933   5.442   1.560
 9107SOL     OW28219   4.817   6.771   6.901
 9107SOL    HW128220   4.725   6.751   6.866
 9107SOL    HW228221   4.872   6.687   6.897
 9108SOL     OW28222   3.672   5.734   0.440
 9108SOL    HW128223   3.574   5.717   0.438
 9108SOL    HW228224   3.698   5.796   0.365
 9109SOL     OW28225   3.522   1.500   4.458
 9109SOL    HW128226   3.540   1.402   4.445
 9109SOL    HW228227   3.423   1.516   4.458
 9110SOL     OW28228   0.572   3.935   3.461
 9110SOL    HW128229   0.669   3.932   3.481
 9110SOL    HW228230   0.548   3.861   3.399
 9111SOL     OW28231   3.593   4.435   1.633
 9111SOL    HW128232   3.602   4.514   1.694
 9111SOL    HW228233   3.648   4.450   1.551
 9112SOL     OW28234   1.131   6.434   2.531
 9112SOL    HW128235   1.201   6.366   2.509
 9112SOL    HW228236   1.135   6.509   2.464
 9113SOL     OW28237   2.065   6.913   1.178
 9113SOL    HW128238   2.097   6.841   1.239
 9113SOL    HW228239   1.970   6.937   1.200
 9114SOL     OW28240   3.255   3.530   2.179
 9114SOL    HW128241   3.269   3.513   2.081
 9114SOL    HW228242   3.331   3.584   2.215
 9115SOL     OW28243   1.377   4.755   4.108
 9115SOL    HW128244   1.367   4.731   4.011
 9115SOL    HW228245   1.396   4.672   4.160
 9116SOL     OW28246   3.429   2.702   0.074
 9116SOL    HW128247   3.347   2.757   0.088
 9116SOL    HW228248   3.415   2.642   7.020
 9117SOL     OW28249   1.352   2.694   0.563
 9117SOL    HW128250   1.363   2.595   0.571
 9117SOL    HW228251   1.367   2.721   0.468
 9118SOL     OW28252   0.496   6.569   1.749
 9118SOL    HW128253   0.486   6.541   1.653
 9118SOL    HW228254   0.426   6.524   1.804
 9119SOL     OW28255   6.081   0.258   0.505
 9119SOL    HW128256   6.079   0.163   0.474
 9119SOL    HW228257   6.165   0.302   0.473
 9120SOL     OW28258   6.122   6.840   6.247
 9120SOL    HW128259   6.147   6.758   6.196
 9120SOL    HW228260   6.087   6.815   6.337
 9121SOL     OW28261   1.056   0.658   5.801
 9121SOL    HW128262   1.033   0.684   5.895
 9121SOL    HW228263   1.014   0.723   5.737
 9122SOL     OW28264   6.716   3.636   1.156
 9122SOL    HW128265   6.653   3.590   1.218
 9122SOL    HW228266   6.803   3.587   1.154
 9123SOL     OW28267   1.242   0.166   5.404
 9123SOL    HW128268   1.255   0.067   5.396
 9123SOL    HW228269   1.301   0.203   5.476
 9124SOL     OW28270   0.165   4.026   5.226
 9124SOL    HW128271   0.146   4.020   5.324
 9124SOL    HW228272   0.202   3.938   5.195
 9125SOL     OW28273   4.744   5.794   1.626
 9125SOL    HW128274   4.792   5.879   1.603
 9125SOL    HW228275   4.799   5.741   1.690
 9126SOL     OW28276   5.096   0.857   3.379
 9126SOL    HW128277   5.160   0.782   3.362
 9126SOL    HW228278   5.144   0.933   3.424
 9127SOL     OW28279   5.810   5.093   5.723
 9127SOL    HW128280   5.833   5.150   5.644
 9127SOL    HW228281   5.727   5.128   5.766
 9128SOL     OW28282   4.780   2.999   4.895
 9128SOL    HW128283   4.797   3.010   4.797
 9128SOL    HW228284   4.854   2.946   4.936
 9129SOL     OW28285   3.622   0.884   0.863
 9129SOL    HW128286   3.638   0.908   0.959
 9129SOL    HW228287   3.543   0.822   0.856
 9130SOL     OW28288   5.963   5.409   1.511
 9130SOL    HW128289   5.956   5.461   1.426
 9130SOL    HW228290   5.936   5.467   1.588
 9131SOL     OW28291   0.795   4.519   3.728
 9131SOL    HW128292   0.808   4.615   3.752
 9131SOL    HW228293   0.861   4.463   3.778
 9132SOL     OW28294   1.135   2.910   4.258
 9132SOL    HW128295   1.107   2.831   4.204
 9132SOL    HW228296   1.055   2.955   4.297
 9133SOL     OW28297   1.969   5.288   0.937
 9133SOL    HW128298   2.058   5.318   0.904
 9133SOL    HW228299   1.897   5.339   0.890
 9134SOL     OW28300   3.194   5.184   6.278
 9134SOL    HW128301   3.178   5.134   6.363
 9134SOL    HW228302   3.113   5.180   6.220
 9135SOL     OW28303   1.007   0.136   2.565
 9135SOL    HW128304   1.079   0.197   2.599
 9135SOL    HW228305   0.919   0.164   2.602
 9136SOL     OW28306   3.673   5.264   6.075
 9136SOL    HW128307   3.725   5.301   5.997
 9136SOL    HW228308   3.705   5.306   6.159
 9137SOL     OW28309   3.232   0.129   2.665
 9137SOL    HW128310   3.300   0.185   2.616
 9137SOL    HW228311   3.177   0.188   2.723
 9138SOL     OW28312   3.884   4.458   1.138
 9138SOL    HW128313   3.970   4.502   1.162
 9138SOL    HW228314   3.877   4.448   1.039
 9139SOL     OW28315   4.477   0.881   5.512
 9139SOL    HW128316   4.559   0.855   5.562
 9139SOL    HW228317   4.406   0.813   5.526
 9140SOL     OW28318   6.590   2.158   4.114
 9140SOL    HW128319   6.605   2.147   4.015
 9140SOL    HW228320   6.514   2.221   4.129
 9141SOL     OW28321   5.209   1.523   5.021
 9141SOL    HW128322   5.273   1.465   4.972
 9141SOL    HW228323   5.147   1.467   5.076
 9142SOL     OW28324   1.544   2.883   6.829
 9142SOL    HW128325   1.611   2.953   6.802
 9142SOL    HW228326   1.459   2.898   6.780
 9143SOL     OW28327   6.554   3.884   1.062
 9143SOL    HW128328   6.589   3.794   1.086
 9143SOL    HW228329   6.543   3.891   0.963
 9144SOL     OW28330   1.346   5.867   4.242
 9144SOL    HW128331   1.324   5.904   4.151
 9144SOL    HW228332   1.439   5.832   4.243
 9145SOL     OW28333   1.720   2.786   7.007
 9145SOL    HW128334   1.733   2.857   0.051
 9145SOL    HW228335   1.638   2.806   6.952
 9146SOL     OW28336   0.310   1.367   2.144
 9146SOL    HW128337   0.297   1.386   2.046
 9146SOL    HW228338   0.356   1.445   2.187
 9147SOL     OW28339   4.069   5.237   6.299
 9147SOL    HW128340   4.079   5.292   6.216
 9147SOL    HW228341   3.976   5.246   6.334
 9148SOL     OW28342   3.716   5.184   3.067
 9148SOL    HW128343   3.746   5.089   3.071
 9148SOL    HW228344   3.649   5.200   3.140
 9149SOL     OW28345   6.298   3.581   4.730
 9149SOL    HW128346   6.211   3.542   4.701
 9149SOL    HW228347   6.310   3.672   4.688
 9150SOL     OW28348   3.650   1.154   3.098
 9150SOL    HW128349   3.725   1.130   3.036
 9150SOL    HW228350   3.606   1.071   3.131
 9151SOL     OW28351   6.119   3.762   1.991
 9151SOL    HW128352   6.121   3.862   1.994
 9151SOL    HW228353   6.052   3.728   2.057
 9152SOL     OW28354   2.005   4.404   2.536
 9152SOL    HW128355   1.996   4.503   2.549
 9152SOL    HW228356   2.100   4.382   2.516
 9153SOL     OW28357   2.313   2.498   0.595
 9153SOL    HW128358   2.324   2.553   0.512
 9153SOL    HW228359   2.220   2.509   0.630
 9154SOL     OW28360   0.837   4.912   0.813
 9154SOL    HW128361   0.928   4.879   0.788
 9154SOL    HW228362   0.846   4.991   0.873
 9155SOL     OW28363   1.746   5.044   6.949
 9155SOL    HW128364   1.731   5.143   6.938
 9155SOL    HW228365   1.841   5.028   6.978
 9156SOL     OW28366   4.684   2.758   1.647
 9156SOL    HW128367   4.639   2.739   1.734
 9156SOL    HW228368   4.756   2.826   1.662
 9157SOL     OW28369   5.408   3.939   5.544
 9157SOL    HW128370   5.395   4.012   5.477
 9157SOL    HW228371   5.498   3.947   5.586
 9158SOL     OW28372   1.035   4.517   3.384
 9158SOL    HW128373   1.009   4.440   3.325
 9158SOL    HW228374   1.129   4.503   3.416
 9159SOL     OW28375   0.228   5.940   1.948
 9159SOL    HW128376   0.263   5.998   1.874
 9159SOL    HW228377   0.188   5.998   2.020
 9160SOL     OW28378   1.003   6.050   0.470
 9160SOL    HW128379   0.984   5.999   0.386
 9160SOL    HW228380   1.096   6.088   0.465
 9161SOL     OW28381   4.985   2.724   1.827
 9161SOL    HW128382   5.065   2.696   1.774
 9161SOL    HW228383   4.973   2.823   1.820
 9162SOL     OW28384   5.709   3.127   3.605
 9162SOL    HW128385   5.699   3.029   3.621
 9162SOL    HW228386   5.782   3.163   3.662
 9163SOL     OW28387   3.832   0.723   5.132
 9163SOL    HW128388   3.732   0.731   5.140
 9163SOL    HW228389   3.872   0.815   5.136
 9164SOL     OW28390   2.720   0.369   1.299
 9164SOL    HW128391   2.733   0.416   1.211
 9164SOL    HW228392   2.776   0.287   1.301
 9165SOL     OW28393   5.351   5.531   1.315
 9165SOL    HW128394   5.351   5.448   1.260
 9165SOL    HW228395   5.381   5.510   1.408
 9166SOL     OW28396   3.627   4.988   1.004
 9166SOL    HW128397   3.657   4.912   0.947
 9166SOL    HW228398   3.698   5.009   1.072
 9167SOL     OW28399   0.936   3.800   4.514
 9167SOL    HW128400   0.978   3.718   4.552
 9167SOL    HW228401   0.860   3.829   4.572
 9168SOL     OW28402   4.070   1.217   6.882
 9168SOL    HW128403   4.123   1.157   6.941
 9168SOL    HW228404   4.009   1.274   6.937
 9169SOL     OW28405   1.074   0.264   4.113
 9169SOL    HW128406   1.143   0.231   4.048
 9169SOL    HW228407   1.007   0.192   4.130
 9170SOL     OW28408   6.534   5.034   0.660
 9170SOL    HW128409   6.529   5.059   0.757
 9170SOL    HW228410   6.554   5.115   0.606
 9171SOL     OW28411   4.228   5.707   4.338
 9171SOL    HW128412   4.216   5.695   4.437
 9171SOL    HW228413   4.139   5.702   4.293
 9172SOL     OW28414   1.732   2.299   4.057
 9172SOL    HW128415   1.801   2.309   3.986
 9172SOL    HW228416   1.725   2.384   4.109
 9173SOL     OW28417   6.597   5.535   4.905
 9173SOL    HW128418   6.623   5.542   4.809
 9173SOL    HW228419   6.498   5.544   4.914
 9174SOL     OW28420   0.206   5.442   6.297
 9174SOL    HW128421   0.156   5.526   6.318
 9174SOL    HW228422   0.168   5.366   6.350
 9175SOL     OW28423   1.760   6.459   6.245
 9175SOL    HW128424   1.769   6.419   6.153
 9175SOL    HW228425   1.814   6.542   6.250
 9176SOL     OW28426   1.178   2.736   5.906
 9176SOL    HW128427   1.106   2.758   5.840
 9176SOL    HW228428   1.175   2.639   5.927
 9177SOL     OW28429   1.809   4.241   2.674
 9177SOL    HW128430   1.810   4.214   2.770
 9177SOL    HW228431   1.898   4.280   2.649
 9178SOL     OW28432   1.583   3.807   0.080
 9178SOL    HW128433   1.505   3.767   0.032
 9178SOL    HW228434   1.657   3.740   0.085
 9179SOL     OW28435   3.030   4.366   5.308
 9179SOL    HW128436   2.949   4.322   5.344
 9179SOL    HW228437   3.004   4.441   5.247
 9180SOL     OW28438   4.970   1.528   2.039
 9180SOL    HW128439   4.945   1.469   2.116
 9180SOL    HW228440   5.024   1.475   1.973
 9181SOL     OW28441   3.765   1.126   2.100
 9181SOL    HW128442   3.705   1.196   2.139
 9181SOL    HW228443   3.754   1.124   2.001
 9182SOL     OW28444   2.428   6.812   1.750
 9182SOL    HW128445   2.512   6.810   1.696
 9182SOL    HW228446   2.351   6.785   1.692
 9183SOL     OW28447   5.505   4.915   5.336
 9183SOL    HW128448   5.505   4.848   5.411
 9183SOL    HW228449   5.427   4.897   5.276
 9184SOL     OW28450   5.835   0.084   0.157
 9184SOL    HW128451   5.866   0.161   0.101
 9184SOL    HW228452   5.904   0.013   0.157
 9185SOL     OW28453   5.171   1.136   5.082
 9185SOL    HW128454   5.217   1.218   5.116
 9185SOL    HW228455   5.187   1.127   4.984
 9186SOL     OW28456   5.166   1.217   5.994
 9186SOL    HW128457   5.157   1.303   6.044
 9186SOL    HW228458   5.159   1.234   5.896
 9187SOL     OW28459   1.495   6.131   2.527
 9187SOL    HW128460   1.530   6.080   2.448
 9187SOL    HW228461   1.427   6.197   2.496
 9188SOL     OW28462   3.123   5.581   0.395
 9188SOL    HW128463   3.067   5.508   0.434
 9188SOL    HW228464   3.189   5.542   0.331
 9189SOL     OW28465   5.252   4.733   2.300
 9189SOL    HW128466   5.186   4.732   2.226
 9189SOL    HW228467   5.209   4.768   2.383
 9190SOL     OW28468   1.616   5.870   0.141
 9190SOL    HW128469   1.617   5.770   0.145
 9190SOL    HW228470   1.600   5.907   0.232
 9191SOL     OW28471   6.521   0.366   6.444
 9191SOL    HW128472   6.549   0.289   6.501
 9191SOL    HW228473   6.565   0.450   6.476
 9192SOL     OW28474   1.324   3.527   4.768
 9192SOL    HW128475   1.290   3.437   4.741
 9192SOL    HW228476   1.380   3.565   4.694
 9193SOL     OW28477   4.242   4.184   0.712
 9193SOL    HW128478   4.286   4.178   0.622
 9193SOL    HW228479   4.160   4.241   0.706
 9194SOL     OW28480   3.412   0.448   4.544
 9194SOL    HW128481   3.464   0.527   4.512
 9194SOL    HW228482   3.469   0.366   4.539
 9195SOL     OW28483   1.993   1.601   3.994
 9195SOL    HW128484   2.056   1.678   4.009
 9195SOL    HW228485   1.903   1.636   3.967
 9196SOL     OW28486   5.461   1.183   5.354
 9196SOL    HW128487   5.372   1.154   5.389
 9196SOL    HW228488   5.494   1.262   5.406
 9197SOL     OW28489   3.041   3.505   0.605
 9197SOL    HW128490   2.973   3.566   0.564
 9197SOL    HW228491   3.088   3.552   0.680
 9198SOL     OW28492   1.530   4.498   5.088
 9198SOL    HW128493   1.619   4.452   5.074
 9198SOL    HW228494   1.474   4.487   5.006
 9199SOL     OW28495   6.239   5.422   4.740
 9199SOL    HW128496   6.142   5.412   4.721
 9199SOL    HW228497   6.280   5.332   4.756
 9200SOL     OW28498   3.569   6.106   1.174
 9200SOL    HW128499   3.627   6.037   1.217
 9200SOL    HW228500   3.612   6.138   1.090
 9201SOL     OW28501   2.365   4.888   0.975
 9201SOL    HW128502   2.464   4.904   0.968
 9201SOL    HW228503   2.317   4.957   0.921
 9202SOL     OW28504   2.598   1.391   4.218
 9202SOL    HW128505   2.588   1.456   4.142
 9202SOL    HW228506   2.597   1.298   4.182
 9203SOL     OW28507   6.464   6.389   1.221
 9203SOL    HW128508   6.383   6.396   1.280
 9203SOL    HW228509   6.509   6.478   1.216
 9204SOL     OW28510   5.702   0.274   5.167
 9204SOL    HW128511   5.689   0.181   5.199
 9204SOL    HW228512   5.716   0.335   5.245
 9205SOL     OW28513   0.095   5.166   2.802
 9205SOL    HW128514   0.119   5.148   2.898
 9205SOL    HW228515   7.022   5.151   2.789
 9206SOL     OW28516   4.002   0.760   6.927
 9206SOL    HW128517   4.015   0.755   0.002
 9206SOL    HW228518   4.044   0.680   6.884
 9207SOL     OW28519   5.000   5.472   6.561
 9207SOL    HW128520   5.034   5.457   6.653
 9207SOL    HW228521   4.917   5.528   6.564
 9208SOL     OW28522   1.759   3.566   2.196
 9208SOL    HW128523   1.707   3.646   2.165
 9208SOL    HW228524   1.794   3.583   2.288
 9209SOL     OW28525   2.361   6.338   6.434
 9209SOL    HW128526   2.447   6.384   6.453
 9209SOL    HW228527   2.286   6.404   6.442
 9210SOL     OW28528   6.101   0.396   3.913
 9210SOL    HW128529   6.073   0.455   3.838
 9210SOL    HW228530   6.125   0.453   3.992
 9211SOL     OW28531   1.112   1.631   2.987
 9211SOL    HW128532   1.186   1.589   3.039
 9211SOL    HW228533   1.026   1.584   3.008
 9212SOL     OW28534   4.863   4.930   4.882
 9212SOL    HW128535   4.838   4.970   4.794
 9212SOL    HW228536   4.938   4.983   4.923
 9213SOL     OW28537   6.046   3.780   0.941
 9213SOL    HW128538   6.036   3.729   1.026
 9213SOL    HW228539   5.977   3.852   0.937
 9214SOL     OW28540   6.819   5.359   0.859
 9214SOL    HW128541   6.743   5.342   0.795
 9214SOL    HW228542   6.854   5.452   0.845
 9215SOL     OW28543   0.882   1.287   0.998
 9215SOL    HW128544   0.971   1.275   1.042
 9215SOL    HW228545   0.845   1.377   1.021
 9216SOL     OW28546   1.649   6.905   3.930
 9216SOL    HW128547   1.608   6.854   3.855
 9216SOL    HW228548   1.716   6.970   3.893
 9217SOL     OW28549   0.676   2.207   1.126
 9217SOL    HW128550   0.665   2.295   1.079
 9217SOL    HW228551   0.724   2.144   1.065
 9218SOL     OW28552   2.369   1.047   1.006
 9218SOL    HW128553   2.273   1.029   0.986
 9218SOL    HW228554   2.406   0.973   1.062
 9219SOL     OW28555   5.682   1.058   0.854
 9219SOL    HW128556   5.669   0.971   0.808
 9219SOL    HW228557   5.743   1.116   0.800
 9220SOL     OW28558   3.663   6.576   0.350
 9220SOL    HW128559   3.665   6.494   0.292
 9220SOL    HW228560   3.586   6.634   0.324
 9221SOL     OW28561   3.194   4.894   4.785
 9221SOL    HW128562   3.258   4.872   4.711
 9221SOL    HW228563   3.242   4.945   4.856
 9222SOL     OW28564   3.067   2.443   0.184
 9222SOL    HW128565   3.141   2.393   0.229
 9222SOL    HW228566   3.069   2.425   0.086
 9223SOL     OW28567   2.876   3.201   5.280
 9223SOL    HW128568   2.812   3.277   5.266
 9223SOL    HW228569   2.825   3.115   5.287
 9224SOL     OW28570   2.285   4.738   5.418
 9224SOL    HW128571   2.204   4.699   5.374
 9224SOL    HW228572   2.364   4.679   5.399
 9225SOL     OW28573   1.580   5.590   0.142
 9225SOL    HW128574   1.615   5.580   0.049
 9225SOL    HW228575   1.632   5.532   0.204
 9226SOL     OW28576   4.956   6.375   0.753
 9226SOL    HW128577   5.027   6.356   0.685
 9226SOL    HW228578   4.918   6.466   0.737
 9227SOL     OW28579   1.084   6.345   2.069
 9227SOL    HW128580   1.045   6.299   1.989
 9227SOL    HW228581   1.181   6.323   2.075
 9228SOL     OW28582   1.177   5.945   7.017
 9228SOL    HW128583   1.190   6.021   0.056
 9228SOL    HW228584   1.264   5.921   6.975
 9229SOL     OW28585   1.344   6.039   5.054
 9229SOL    HW128586   1.403   5.991   4.989
 9229SOL    HW228587   1.401   6.089   5.120
 9230SOL     OW28588   4.961   1.069   3.246
 9230SOL    HW128589   5.022   0.990   3.237
 9230SOL    HW228590   4.961   1.121   3.160
 9231SOL     OW28591   2.127   3.114   3.466
 9231SOL    HW128592   2.073   3.030   3.466
 9231SOL    HW228593   2.220   3.094   3.437
 9232SOL     OW28594   4.002   5.551   0.641
 9232SOL    HW128595   4.031   5.610   0.566
 9232SOL    HW228596   3.917   5.586   0.681
 9233SOL     OW28597   6.397   4.164   0.883
 9233SOL    HW128598   6.382   4.074   0.842
 9233SOL    HW228599   6.373   4.235   0.817
 9234SOL     OW28600   1.255   5.960   3.989
 9234SOL    HW128601   1.188   6.008   4.044
 9234SOL    HW228602   1.210   5.914   3.913
 9235SOL     OW28603   0.753   2.567   3.262
 9235SOL    HW128604   0.761   2.662   3.231
 9235SOL    HW228605   0.675   2.524   3.217
 9236SOL     OW28606   3.222   2.562   6.619
 9236SOL    HW128607   3.297   2.562   6.553
 9236SOL    HW228608   3.160   2.486   6.599
 9237SOL     OW28609   1.501   3.448   2.624
 9237SOL    HW128610   1.572   3.519   2.627
 9237SOL    HW228611   1.411   3.491   2.628
 9238SOL     OW28612   4.545   4.604   6.941
 9238SOL    HW128613   4.537   4.532   6.872
 9238SOL    HW228614   4.576   4.563   0.003
 9239SOL     OW28615   2.084   3.235   6.988
 9239SOL    HW128616   2.039   3.270   6.905
 9239SOL    HW228617   2.027   3.165   0.006
 9240SOL     OW28618   4.501   0.533   2.196
 9240SOL    HW128619   4.412   0.489   2.209
 9240SOL    HW228620   4.568   0.494   2.259
 9241SOL     OW28621   1.249   5.739   5.270
 9241SOL    HW128622   1.311   5.726   5.193
 9241SOL    HW228623   1.160   5.700   5.248
 9242SOL     OW28624   4.881   6.666   1.395
 9242SOL    HW128625   4.939   6.607   1.338
 9242SOL    HW228626   4.907   6.762   1.381
 9243SOL     OW28627   5.726   0.556   4.484
 9243SOL    HW128628   5.746   0.649   4.453
 9243SOL    HW228629   5.805   0.498   4.464
 9244SOL     OW28630   3.258   6.464   0.545
 9244SOL    HW128631   3.259   6.387   0.609
 9244SOL    HW228632   3.306   6.541   0.586
 9245SOL     OW28633   0.251   6.487   2.108
 9245SOL    HW128634   0.307   6.424   2.054
 9245SOL    HW228635   0.308   6.533   2.176
 9246SOL     OW28636   6.591   5.511   3.393
 9246SOL    HW128637   6.669   5.569   3.369
 9246SOL    HW228638   6.547   5.546   3.476
 9247SOL     OW28639   1.139   0.887   3.181
 9247SOL    HW128640   1.041   0.902   3.165
 9247SOL    HW228641   1.184   0.865   3.095
 9248SOL     OW28642   4.470   1.303   6.182
 9248SOL    HW128643   4.430   1.388   6.147
 9248SOL    HW228644   4.556   1.286   6.135
 9249SOL     OW28645   3.741   6.511   4.267
 9249SOL    HW128646   3.797   6.452   4.210
 9249SOL    HW228647   3.646   6.506   4.238
 9250SOL     OW28648   4.928   3.379   3.302
 9250SOL    HW128649   4.928   3.322   3.384
 9250SOL    HW228650   4.858   3.348   3.239
 9251SOL     OW28651   4.421   2.109   2.536
 9251SOL    HW128652   4.446   2.113   2.633
 9251SOL    HW228653   4.393   2.015   2.512
 9252SOL     OW28654   1.657   6.759   4.840
 9252SOL    HW128655   1.647   6.853   4.874
 9252SOL    HW228656   1.600   6.748   4.758
 9253SOL     OW28657   1.059   6.845   5.731
 9253SOL    HW128658   1.070   6.944   5.718
 9253SOL    HW228659   1.146   6.800   5.711
 9254SOL     OW28660   4.370   2.401   0.704
 9254SOL    HW128661   4.467   2.398   0.728
 9254SOL    HW228662   4.357   2.360   0.613
 9255SOL     OW28663   0.085   4.601   0.761
 9255SOL    HW128664   0.045   4.574   0.848
 9255SOL    HW228665   0.014   4.637   0.701
 9256SOL     OW28666   3.931   5.234   2.540
 9256SOL    HW128667   3.915   5.144   2.500
 9256SOL    HW228668   3.954   5.223   2.637
 9257SOL     OW28669   0.530   3.913   0.603
 9257SOL    HW128670   0.595   3.896   0.677
 9257SOL    HW228671   0.442   3.940   0.641
 9258SOL     OW28672   3.071   2.832   5.251
 9258SOL    HW128673   2.986   2.848   5.302
 9258SOL    HW228674   3.109   2.743   5.278
 9259SOL     OW28675   1.857   2.816   0.616
 9259SOL    HW128676   1.818   2.905   0.592
 9259SOL    HW228677   1.845   2.752   0.540
 9260SOL     OW28678   6.577   4.137   0.281
 9260SOL    HW128679   6.647   4.203   0.254
 9260SOL    HW228680   6.489   4.164   0.240
 9261SOL     OW28681   1.893   6.838   5.508
 9261SOL    HW128682   1.805   6.812   5.468
 9261SOL    HW228683   1.883   6.925   5.556
 9262SOL     OW28684   6.364   6.741   6.988
 9262SOL    HW128685   6.308   6.679   6.932
 9262SOL    HW228686   6.456   6.703   6.998
 9263SOL     OW28687   5.671   3.920   2.381
 9263SOL    HW128688   5.595   3.913   2.316
 9263SOL    HW228689   5.636   3.919   2.474
 9264SOL     OW28690   5.416   2.151   0.625
 9264SOL    HW128691   5.326   2.194   0.623
 9264SOL    HW228692   5.479   2.208   0.678
 9265SOL     OW28693   1.690   1.326   5.488
 9265SOL    HW128694   1.723   1.360   5.576
 9265SOL    HW228695   1.599   1.286   5.500
 9266SOL     OW28696   3.266   6.689   3.331
 9266SOL    HW128697   3.329   6.653   3.262
 9266SOL    HW228698   3.179   6.640   3.326
 9267SOL     OW28699   3.020   4.878   6.029
 9267SOL    HW128700   2.959   4.888   6.107
 9267SOL    HW228701   3.058   4.967   6.004
 9268SOL     OW28702   1.273   1.151   3.097
 9268SOL    HW128703   1.179   1.144   3.064
 9268SOL    HW228704   1.293   1.073   3.157
 9269SOL     OW28705   4.405   1.233   5.093
 9269SOL    HW128706   4.470   1.261   5.164
 9269SOL    HW228707   4.312   1.232   5.131
 9270SOL     OW28708   1.945   0.754   5.401
 9270SOL    HW128709   1.891   0.828   5.360
 9270SOL    HW228710   2.042   0.773   5.386
 9271SOL     OW28711   0.297   5.736   5.755
 9271SOL    HW128712   0.341   5.816   5.797
 9271SOL    HW228713   0.250   5.684   5.826
 9272SOL     OW28714   2.221   5.413   6.633
 9272SOL    HW128715   2.158   5.380   6.703
 9272SOL    HW228716   2.222   5.350   6.556
 9273SOL     OW28717   3.358   5.418   5.987
 9273SOL    HW128718   3.373   5.499   6.045
 9273SOL    HW228719   3.434   5.355   5.999
 9274SOL     OW28720   4.776   1.419   1.679
 9274SOL    HW128721   4.773   1.392   1.775
 9274SOL    HW228722   4.691   1.465   1.654
 9275SOL     OW28723   6.896   0.300   6.149
 9275SOL    HW128724   6.911   0.303   6.248
 9275SOL    HW228725   6.818   0.358   6.126
 9276SOL     OW28726   5.068   0.638   3.751
 9276SOL    HW128727   5.008   0.711   3.783
 9276SOL    HW228728   5.036   0.604   3.663
 9277SOL     OW28729   5.367   2.371   7.001
 9277SOL    HW128730   5.428   2.447   7.024
 9277SOL    HW228731   5.319   2.391   6.916
 9278SOL     OW28732   1.225   2.103   1.079
 9278SOL    HW128733   1.177   2.063   1.157
 9278SOL    HW228734   1.161   2.156   1.024
 9279SOL     OW28735   2.687   0.269   0.795
 9279SOL    HW128736   2.674   0.170   0.799
 9279SOL    HW228737   2.766   0.290   0.737
 9280SOL     OW28738   1.786   0.773   2.195
 9280SOL    HW128739   1.686   0.764   2.198
 9280SOL    HW228740   1.825   0.731   2.277
 9281SOL     OW28741   1.558   2.411   0.399
 9281SOL    HW128742   1.639   2.414   0.457
 9281SOL    HW228743   1.583   2.384   0.306
 9282SOL     OW28744   4.056   0.621   5.703
 9282SOL    HW128745   4.081   0.589   5.611
 9282SOL    HW228746   4.050   0.721   5.703
 9283SOL     OW28747   5.760   2.649   3.626
 9283SOL    HW128748   5.735   2.724   3.687
 9283SOL    HW228749   5.778   2.686   3.535
 9284SOL     OW28750   3.805   3.927   2.489
 9284SOL    HW128751   3.712   3.963   2.478
 9284SOL    HW228752   3.855   3.937   2.403
 9285SOL     OW28753   6.661   2.611   0.020
 9285SOL    HW128754   6.657   2.563   6.957
 9285SOL    HW228755   6.611   2.697   0.013
 9286SOL     OW28756   5.575   5.254   4.918
 9286SOL    HW128757   5.616   5.168   4.888
 9286SOL    HW228758   5.533   5.300   4.840
 9287SOL     OW28759   3.639   6.862   2.745
 9287SOL    HW128760   3.734   6.893   2.743
 9287SOL    HW228761   3.601   6.864   2.652
 9288SOL     OW28762   4.558   1.878   6.925
 9288SOL    HW128763   4.628   1.841   6.986
 9288SOL    HW228764   4.486   1.811   6.911
 9289SOL     OW28765   5.415   3.486   3.759
 9289SOL    HW128766   5.400   3.466   3.663
 9289SOL    HW228767   5.342   3.545   3.793
 9290SOL     OW28768   4.092   2.142   4.401
 9290SOL    HW128769   4.006   2.145   4.350
 9290SOL    HW228770   4.155   2.078   4.358
 9291SOL     OW28771   0.645   3.287   4.948
 9291SOL    HW128772   0.556   3.288   4.993
 9291SOL    HW228773   0.657   3.201   4.899
 9292SOL     OW28774   1.372   4.107   6.857
 9292SOL    HW128775   1.307   4.041   6.895
 9292SOL    HW228776   1.326   4.161   6.787
 9293SOL     OW28777   5.403   3.293   6.102
 9293SOL    HW128778   5.339   3.245   6.162
 9293SOL    HW228779   5.444   3.227   6.039
 9294SOL     OW28780   5.229   5.767   6.996
 9294SOL    HW128781   5.308   5.814   0.013
 9294SOL    HW228782   5.149   5.780   0.030
 9295SOL     OW28783   4.903   2.984   3.322
 9295SOL    HW128784   4.819   2.935   3.298
 9295SOL    HW228785   4.967   2.981   3.246
 9296SOL     OW28786   6.168   0.606   4.817
 9296SOL    HW128787   6.159   0.507   4.824
 9296SOL    HW228788   6.162   0.647   4.908
 9297SOL     OW28789   0.408   6.825   1.803
 9297SOL    HW128790   0.330   6.858   1.750
 9297SOL    HW228791   0.418   6.726   1.792
 9298SOL     OW28792   7.003   6.694   4.229
 9298SOL    HW128793   0.010   6.699   4.134
 9298SOL    HW228794   7.018   6.782   4.274
 9299SOL     OW28795   1.973   2.115   4.604
 9299SOL    HW128796   1.914   2.108   4.524
 9299SOL    HW228797   2.024   2.201   4.601
 9300SOL     OW28798   5.831   4.796   3.995
 9300SOL    HW128799   5.823   4.849   3.911
 9300SOL    HW228800   5.890   4.845   4.059
 9301SOL     OW28801   6.433   4.901   1.385
 9301SOL    HW128802   6.411   4.976   1.324
 9301SOL    HW228803   6.350   4.852   1.411
 9302SOL     OW28804   1.061   2.038   2.954
 9302SOL    HW128805   1.133   1.987   2.907
 9302SOL    HW228806   0.974   1.990   2.943
 9303SOL     OW28807   4.612   4.026   6.949
 9303SOL    HW128808   4.520   3.995   6.971
 9303SOL    HW228809   4.613   4.067   6.858
 9304SOL     OW28810   5.093   3.926   0.708
 9304SOL    HW128811   5.132   3.849   0.758
 9304SOL    HW228812   5.001   3.902   0.676
 9305SOL     OW28813   4.623   3.842   1.699
 9305SOL    HW128814   4.652   3.898   1.622
 9305SOL    HW228815   4.701   3.790   1.734
 9306SOL     OW28816   0.485   6.495   2.837
 9306SOL    HW128817   0.454   6.557   2.766
 9306SOL    HW228818   0.578   6.518   2.864
 9307SOL     OW28819   2.165   0.695   6.539
 9307SOL    HW128820   2.260   0.705   6.510
 9307SOL    HW228821   2.116   0.637   6.473
 9308SOL     OW28822   0.417   1.705   0.561
 9308SOL    HW128823   0.406   1.667   0.652
 9308SOL    HW228824   0.327   1.716   0.518
 9309SOL     OW28825   4.109   2.808   0.124
 9309SOL    HW128826   4.043   2.867   0.079
 9309SOL    HW228827   4.070   2.772   0.209
 9310SOL     OW28828   4.383   5.809   1.402
 9310SOL    HW128829   4.477   5.775   1.388
 9310SOL    HW228830   4.367   5.887   1.341
 9311SOL     OW28831   0.415   3.058   1.229
 9311SOL    HW128832   0.333   3.077   1.284
 9311SOL    HW228833   0.435   2.960   1.231
 9312SOL     OW28834   1.761   3.499   5.090
 9312SOL    HW128835   1.672   3.534   5.120
 9312SOL    HW228836   1.747   3.438   5.011
 9313SOL     OW28837   6.719   0.674   3.541
 9313SOL    HW128838   6.621   0.684   3.558
 9313SOL    HW228839   6.758   0.613   3.610
 9314SOL     OW28840   6.967   3.921   0.407
 9314SOL    HW128841   6.936   4.013   0.432
 9314SOL    HW228842   6.918   3.853   0.462
 9315SOL     OW28843   0.641   6.008   6.143
 9315SOL    HW128844   0.598   6.097   6.129
 9315SOL    HW228845   0.616   5.974   6.234
 9316SOL     OW28846   2.972   4.816   4.636
 9316SOL    HW128847   3.055   4.831   4.691
 9316SOL    HW228848   2.906   4.764   4.690
 9317SOL     OW28849   3.969   4.278   5.913
 9317SOL    HW128850   3.981   4.201   5.851
 9317SOL    HW228851   3.873   4.283   5.942
 9318SOL     OW28852   0.282   6.799   5.796
 9318SOL    HW128853   0.248   6.874   5.854
 9318SOL    HW228854   0.287   6.830   5.701
 9319SOL     OW28855   6.663   4.240   3.838
 9319SOL    HW128856   6.576   4.231   3.789
 9319SOL    HW228857   6.678   4.159   3.895
 9320SOL     OW28858   3.858   3.144   5.593
 9320SOL    HW128859   3.820   3.065   5.546
 9320SOL    HW228860   3.876   3.217   5.527
 9321SOL     OW28861   5.485   0.463   4.317
 9321SOL    HW128862   5.427   0.434   4.392
 9321SOL    HW228863   5.570   0.411   4.317
 9322SOL     OW28864   0.773   5.769   1.189
 9322SOL    HW128865   0.772   5.852   1.133
 9322SOL    HW228866   0.862   5.725   1.182
 9323SOL     OW28867   0.780   1.209   5.643
 9323SOL    HW128868   0.710   1.274   5.614
 9323SOL    HW228869   0.870   1.246   5.621
 9324SOL     OW28870   1.238   5.597   0.077
 9324SOL    HW128871   1.269   5.506   0.049
 9324SOL    HW228872   1.315   5.648   0.117
 9325SOL     OW28873   0.262   3.426   6.604
 9325SOL    HW128874   0.301   3.421   6.696
 9325SOL    HW228875   0.187   3.492   6.603
 9326SOL     OW28876   2.370   6.135   1.967
 9326SOL    HW128877   2.464   6.102   1.956
 9326SOL    HW228878   2.313   6.102   1.891
 9327SOL     OW28879   2.270   1.432   4.469
 9327SOL    HW128880   2.344   1.500   4.470
 9327SOL    HW228881   2.182   1.479   4.481
 9328SOL     OW28882   2.363   1.752   1.988
 9328SOL    HW128883   2.396   1.663   1.958
 9328SOL    HW228884   2.410   1.778   2.073
 9329SOL     OW28885   0.859   4.110   1.332
 9329SOL    HW128886   0.866   4.131   1.430
 9329SOL    HW228887   0.791   4.037   1.319
 9330SOL     OW28888   5.714   5.830   6.706
 9330SOL    HW128889   5.629   5.809   6.756
 9330SOL    HW228890   5.778   5.877   6.767
 9331SOL     OW28891   1.187   0.656   0.101
 9331SOL    HW128892   1.139   0.603   0.172
 9331SOL    HW228893   1.286   0.646   0.113
 9332SOL     OW28894   3.661   3.837   4.699
 9332SOL    HW128895   3.610   3.917   4.729
 9332SOL    HW228896   3.759   3.856   4.705
 9333SOL     OW28897   5.336   6.385   1.100
 9333SOL    HW128898   5.268   6.317   1.128
 9333SOL    HW228899   5.332   6.396   1.000
 9334SOL     OW28900   1.979   6.616   5.178
 9334SOL    HW128901   2.070   6.640   5.210
 9334SOL    HW228902   1.972   6.517   5.168
 9335SOL     OW28903   0.322   1.676   2.665
 9335SOL    HW128904   0.247   1.610   2.656
 9335SOL    HW228905   0.291   1.767   2.639
 9336SOL     OW28906   3.316   0.262   5.252
 9336SOL    HW128907   3.372   0.270   5.334
 9336SOL    HW228908   3.353   0.323   5.181
 9337SOL     OW28909   5.354   6.595   3.487
 9337SOL    HW128910   5.356   6.692   3.464
 9337SOL    HW228911   5.409   6.579   3.568
 9338SOL     OW28912   2.030   6.408   2.650
 9338SOL    HW128913   2.057   6.448   2.562
 9338SOL    HW228914   1.995   6.315   2.636
 9339SOL     OW28915   3.912   5.618   0.966
 9339SOL    HW128916   4.003   5.630   0.926
 9339SOL    HW228917   3.919   5.621   1.066
 9340SOL     OW28918   0.009   2.978   6.653
 9340SOL    HW128919   0.092   3.018   6.693
 9340SOL    HW228920   6.994   3.042   6.588
 9341SOL     OW28921   0.687   3.963   5.952
 9341SOL    HW128922   0.774   3.994   5.990
 9341SOL    HW228923   0.704   3.911   5.868
 9342SOL     OW28924   1.271   0.341   0.450
 9342SOL    HW128925   1.206   0.273   0.415
 9342SOL    HW228926   1.319   0.384   0.373
 9343SOL     OW28927   6.318   6.703   3.046
 9343SOL    HW128928   6.287   6.706   2.951
 9343SOL    HW228929   6.242   6.679   3.106
 9344SOL     OW28930   5.392   6.148   0.816
 9344SOL    HW128931   5.374   6.247   0.809
 9344SOL    HW228932   5.317   6.098   0.771
 9345SOL     OW28933   0.755   2.306   0.516
 9345SOL    HW128934   0.811   2.255   0.451
 9345SOL    HW228935   0.796   2.396   0.531
 9346SOL     OW28936   6.136   0.646   1.022
 9346SOL    HW128937   6.052   0.598   0.994
 9346SOL    HW228938   6.205   0.579   1.049
 9347SOL     OW28939   1.787   6.144   2.994
 9347SOL    HW128940   1.849   6.066   2.990
 9347SOL    HW228941   1.732   6.148   2.911
 9348SOL     OW28942   3.178   4.982   0.541
 9348SOL    HW128943   3.148   5.008   0.450
 9348SOL    HW228944   3.262   4.929   0.535
 9349SOL     OW28945   1.092   6.384   3.054
 9349SOL    HW128946   1.123   6.466   3.006
 9349SOL    HW228947   1.117   6.303   3.000
 9350SOL     OW28948   0.466   3.228   5.344
 9350SOL    HW128949   0.439   3.144   5.390
 9350SOL    HW228950   0.559   3.218   5.308
 9351SOL     OW28951   3.048   6.530   0.015
 9351SOL    HW128952   2.970   6.592   0.001
 9351SOL    HW228953   3.018   6.435   0.005
 9352SOL     OW28954   2.703   4.655   6.106
 9352SOL    HW128955   2.770   4.728   6.090
 9352SOL    HW228956   2.618   4.677   6.059
 9353SOL     OW28957   6.812   6.707   1.044
 9353SOL    HW128958   6.752   6.783   1.068
 9353SOL    HW228959   6.884   6.740   0.982
 9354SOL     OW28960   1.009   1.019   5.414
 9354SOL    HW128961   0.986   0.977   5.502
 9354SOL    HW228962   0.938   1.084   5.388
 9355SOL     OW28963   0.981   1.461   5.169
 9355SOL    HW128964   1.043   1.532   5.136
 9355SOL    HW228965   0.931   1.495   5.249
 9356SOL     OW28966   3.792   0.273   3.035
 9356SOL    HW128967   3.825   0.359   3.073
 9356SOL    HW228968   3.737   0.225   3.105
 9357SOL     OW28969   1.916   2.536   0.701
 9357SOL    HW128970   1.926   2.628   0.738
 9357SOL    HW228971   1.993   2.480   0.733
 9358SOL     OW28972   0.870   1.486   0.361
 9358SOL    HW128973   0.808   1.436   0.421
 9358SOL    HW228974   0.907   1.423   0.292
 9359SOL     OW28975   0.393   0.810   5.637
 9359SOL    HW128976   0.472   0.778   5.690
 9359SOL    HW228977   0.409   0.905   5.608
 9360SOL     OW28978   6.504   6.473   6.016
 9360SOL    HW128979   6.576   6.412   6.048
 9360SOL    HW228980   6.437   6.488   6.089
 9361SOL     OW28981   2.477   5.663   4.320
 9361SOL    HW128982   2.463   5.577   4.270
 9361SOL    HW228983   2.560   5.656   4.375
 9362SOL     OW28984   1.619   0.464   2.466
 9362SOL    HW128985   1.716   0.462   2.489
 9362SOL    HW228986   1.582   0.371   2.467
 9363SOL     OW28987   1.413   2.573   2.131
 9363SOL    HW128988   1.495   2.630   2.130
 9363SOL    HW228989   1.404   2.525   2.044
 9364SOL     OW28990   0.659   1.973   6.827
 9364SOL    HW128991   0.711   1.924   6.757
 9364SOL    HW228992   0.569   1.931   6.838
 9365SOL     OW28993   3.063   0.922   5.269
 9365SOL    HW128994   3.162   0.922   5.279
 9365SOL    HW228995   3.039   0.950   5.175
 9366SOL     OW28996   3.212   5.981   2.402
 9366SOL    HW128997   3.175   6.073   2.417
 9366SOL    HW228998   3.293   5.967   2.459
 9367SOL     OW28999   6.936   7.000   1.583
 9367SOL    HW129000   6.945   7.006   1.483
 9367SOL    HW229001   7.021   6.963   1.621
 9368SOL     OW29002   2.077   0.760   3.239
 9368SOL    HW129003   2.133   0.736   3.160
 9368SOL    HW229004   2.029   0.846   3.222
 9369SOL     OW29005   3.364   5.283   0.708
 9369SOL    HW129006   3.432   5.269   0.780
 9369SOL    HW229007   3.397   5.243   0.623
 9370SOL     OW29008   4.766   2.529   5.379
 9370SOL    HW129009   4.824   2.533   5.298
 9370SOL    HW229010   4.822   2.529   5.461
 9371SOL     OW29011   3.750   5.189   0.426
 9371SOL    HW129012   3.809   5.121   0.469
 9371SOL    HW229013   3.797   5.277   0.422
 9372SOL     OW29014   5.466   6.782   0.698
 9372SOL    HW129015   5.511   6.718   0.635
 9372SOL    HW229016   5.433   6.861   0.647
 9373SOL     OW29017   6.969   1.438   1.580
 9373SOL    HW129018   0.029   1.476   1.617
 9373SOL    HW229019   6.903   1.427   1.654
 9374SOL     OW29020   6.939   5.753   6.046
 9374SOL    HW129021   6.896   5.677   6.096
 9374SOL    HW229022   6.916   5.839   6.090
 9375SOL     OW29023   1.555   1.502   6.891
 9375SOL    HW129024   1.619   1.490   6.816
 9375SOL    HW229025   1.488   1.572   6.866
 9376SOL     OW29026   3.325   3.995   0.734
 9376SOL    HW129027   3.226   4.012   0.728
 9376SOL    HW229028   3.367   4.015   0.645
 9377SOL     OW29029   0.868   0.903   3.191
 9377SOL    HW129030   0.778   0.878   3.156
 9377SOL    HW229031   0.871   1.001   3.210
 9378SOL     OW29032   4.411   1.141   5.551
 9378SOL    HW129033   4.452   1.050   5.548
 9378SOL    HW229034   4.427   1.188   5.464
 9379SOL     OW29035   3.823   0.163   4.482
 9379SOL    HW129036   3.873   0.226   4.423
 9379SOL    HW229037   3.827   0.195   4.576
 9380SOL     OW29038   5.088   6.345   1.452
 9380SOL    HW129039   5.008   6.333   1.511
 9380SOL    HW229040   5.147   6.265   1.458
 9381SOL     OW29041   4.506   1.677   4.788
 9381SOL    HW129042   4.425   1.706   4.738
 9381SOL    HW229043   4.480   1.642   4.878
 9382SOL     OW29044   2.546   6.083   5.761
 9382SOL    HW129045   2.540   6.051   5.856
 9382SOL    HW229046   2.453   6.090   5.723
 9383SOL     OW29047   5.638   4.158   1.164
 9383SOL    HW129048   5.675   4.099   1.236
 9383SOL    HW229049   5.603   4.242   1.204
 9384SOL     OW29050   4.881   0.788   0.511
 9384SOL    HW129051   4.921   0.701   0.540
 9384SOL    HW229052   4.786   0.773   0.483
 9385SOL     OW29053   4.309   2.355   4.468
 9385SOL    HW129054   4.272   2.369   4.560
 9385SOL    HW229055   4.253   2.287   4.420
 9386SOL     OW29056   5.469   0.719   1.008
 9386SOL    HW129057   5.472   0.623   1.036
 9386SOL    HW229058   5.373   0.750   1.007
 9387SOL     OW29059   3.304   2.169   6.745
 9387SOL    HW129060   3.359   2.151   6.826
 9387SOL    HW229061   3.361   2.211   6.675
 9388SOL     OW29062   2.217   6.679   5.327
 9388SOL    HW129063   2.175   6.753   5.380
 9388SOL    HW229064   2.281   6.628   5.385
 9389SOL     OW29065   2.234   3.733   1.816
 9389SOL    HW129066   2.244   3.650   1.871
 9389SOL    HW229067   2.216   3.811   1.875
 9390SOL     OW29068   6.101   4.905   4.123
 9390SOL    HW129069   6.161   4.961   4.179
 9390SOL    HW229070   6.021   4.877   4.177
 9391SOL     OW29071   0.418   4.628   4.453
 9391SOL    HW129072   0.362   4.679   4.387
 9391SOL    HW229073   0.467   4.555   4.405
 9392SOL     OW29074   3.538   5.244   2.857
 9392SOL    HW129075   3.589   5.245   2.772
 9392SOL    HW229076   3.597   5.213   2.932
 9393SOL     OW29077   2.308   5.020   0.518
 9393SOL    HW129078   2.226   5.075   0.499
 9393SOL    HW229079   2.280   4.926   0.537
 9394SOL     OW29080   4.806   0.125   6.901
 9394SOL    HW129081   4.862   0.073   6.837
 9394SOL    HW229082   4.859   0.203   6.935
 9395SOL     OW29083   0.346   0.514   1.566
 9395SOL    HW129084   0.425   0.576   1.569
 9395SOL    HW229085   0.263   0.564   1.591
 9396SOL     OW29086   0.772   0.635   6.500
 9396SOL    HW129087   0.775   0.539   6.474
 9396SOL    HW229088   0.843   0.685   6.452
 9397SOL     OW29089   3.733   1.634   5.902
 9397SOL    HW129090   3.652   1.689   5.922
 9397SOL    HW229091   3.715   1.539   5.930
 9398SOL     OW29092   0.236   3.079   6.966
 9398SOL    HW129093   0.231   3.102   6.869
 9398SOL    HW229094   0.255   3.161   7.018
 9399SOL     OW29095   1.558   2.734   4.413
 9399SOL    HW129096   1.578   2.756   4.508
 9399SOL    HW229097   1.605   2.799   4.353
 9400SOL     OW29098   5.706   1.258   0.642
 9400SOL    HW129099   5.648   1.185   0.607
 9400SOL    HW229100   5.697   1.339   0.583
 9401SOL     OW29101   6.638   1.949   3.687
 9401SOL    HW129102   6.657   1.851   3.688
 9401SOL    HW229103   6.563   1.968   3.624
 9402SOL     OW29104   3.514   5.131   5.351
 9402SOL    HW129105   3.490   5.057   5.413
 9402SOL    HW229106   3.603   5.168   5.376
 9403SOL     OW29107   5.798   2.625   1.010
 9403SOL    HW129108   5.891   2.589   1.000
 9403SOL    HW229109   5.798   2.700   1.077
 9404SOL     OW29110   2.004   2.006   0.887
 9404SOL    HW129111   1.963   2.080   0.835
 9404SOL    HW229112   2.020   1.927   0.826
 9405SOL     OW29113   5.402   5.840   5.054
 9405SOL    HW129114   5.425   5.805   5.145
 9405SOL    HW229115   5.404   5.940   5.056
 9406SOL     OW29116   0.981   0.845   0.925
 9406SOL    HW129117   0.949   0.871   0.834
 9406SOL    HW229118   1.005   0.748   0.926
 9407SOL     OW29119   1.470   4.528   4.648
 9407SOL    HW129120   1.440   4.460   4.716
 9407SOL    HW229121   1.472   4.486   4.558
 9408SOL     OW29122   5.828   5.178   4.131
 9408SOL    HW129123   5.887   5.114   4.181
 9408SOL    HW229124   5.865   5.270   4.137
 9409SOL     OW29125   5.779   5.122   1.561
 9409SOL    HW129126   5.779   5.107   1.462
 9409SOL    HW229127   5.863   5.084   1.600
 9410SOL     OW29128   4.995   0.462   0.605
 9410SOL    HW129129   4.977   0.401   0.529
 9410SOL    HW229130   4.916   0.464   0.667
 9411SOL     OW29131   3.829   3.382   5.463
 9411SOL    HW129132   3.765   3.369   5.387
 9411SOL    HW229133   3.857   3.478   5.467
 9412SOL     OW29134   4.062   6.719   1.570
 9412SOL    HW129135   4.136   6.720   1.503
 9412SOL    HW229136   4.039   6.625   1.594
 9413SOL     OW29137   3.753   4.934   3.139
 9413SOL    HW129138   3.812   4.864   3.099
 9413SOL    HW229139   3.753   4.925   3.239
 9414SOL     OW29140   2.344   0.795   1.608
 9414SOL    HW129141   2.367   0.827   1.516
 9414SOL    HW229142   2.420   0.816   1.670
 9415SOL     OW29143   4.644   0.752   0.786
 9415SOL    HW129144   4.722   0.813   0.772
 9415SOL    HW229145   4.632   0.735   0.883
 9416SOL     OW29146   6.722   5.313   6.109
 9416SOL    HW129147   6.779   5.242   6.068
 9416SOL    HW229148   6.643   5.271   6.154
 9417SOL     OW29149   4.319   6.348   3.052
 9417SOL    HW129150   4.407   6.393   3.034
 9417SOL    HW229151   4.319   6.257   3.011
 9418SOL     OW29152   2.889   1.939   5.064
 9418SOL    HW129153   2.904   1.955   5.162
 9418SOL    HW229154   2.878   2.027   5.018
 9419SOL     OW29155   3.032   2.074   6.112
 9419SOL    HW129156   3.057   2.109   6.202
 9419SOL    HW229157   3.082   2.125   6.042
 9420SOL     OW29158   4.519   3.111   5.887
 9420SOL    HW129159   4.612   3.085   5.862
 9420SOL    HW229160   4.458   3.033   5.874
 9421SOL     OW29161   3.649   6.830   0.037
 9421SOL    HW129162   3.550   6.818   0.049
 9421SOL    HW229163   3.694   6.741   0.043
 9422SOL     OW29164   1.834   6.345   5.995
 9422SOL    HW129165   1.754   6.334   5.935
 9422SOL    HW229166   1.891   6.419   5.960
 9423SOL     OW29167   5.256   4.808   1.202
 9423SOL    HW129168   5.167   4.770   1.226
 9423SOL    HW229169   5.313   4.735   1.163
 9424SOL     OW29170   5.641   6.695   4.275
 9424SOL    HW129171   5.560   6.747   4.301
 9424SOL    HW229172   5.672   6.640   4.352
 9425SOL     OW29173   0.501   5.814   1.301
 9425SOL    HW129174   0.525   5.911   1.300
 9425SOL    HW229175   0.558   5.766   1.234
 9426SOL     OW29176   5.100   0.993   6.229
 9426SOL    HW129177   5.172   0.924   6.218
 9426SOL    HW229178   5.053   1.006   6.142
 9427SOL     OW29179   3.060   5.663   2.161
 9427SOL    HW129180   3.130   5.663   2.090
 9427SOL    HW229181   3.077   5.588   2.225
 9428SOL     OW29182   6.591   6.418   4.342
 9428SOL    HW129183   6.610   6.510   4.375
 9428SOL    HW229184   6.528   6.372   4.405
 9429SOL     OW29185   3.051   2.006   4.097
 9429SOL    HW129186   2.999   2.019   4.181
 9429SOL    HW229187   3.011   2.060   4.023
 9430SOL     OW29188   1.456   0.584   4.002
 9430SOL    HW129189   1.516   0.553   3.928
 9430SOL    HW229190   1.405   0.664   3.971
 9431SOL     OW29191   1.256   5.021   5.298
 9431SOL    HW129192   1.233   5.091   5.365
 9431SOL    HW229193   1.323   5.058   5.233
 9432SOL     OW29194   6.581   2.395   3.065
 9432SOL    HW129195   6.677   2.424   3.072
 9432SOL    HW229196   6.542   2.386   3.156
 9433SOL     OW29197   4.637   5.705   1.396
 9433SOL    HW129198   4.670   5.743   1.483
 9433SOL    HW229199   4.652   5.607   1.395
 9434SOL     OW29200   5.146   6.109   4.736
 9434SOL    HW129201   5.159   6.207   4.751
 9434SOL    HW229202   5.223   6.058   4.775
 9435SOL     OW29203   6.871   3.807   0.013
 9435SOL    HW129204   6.799   3.871   7.009
 9435SOL    HW229205   6.832   3.734   0.068
 9436SOL     OW29206   2.582   2.141   2.640
 9436SOL    HW129207   2.668   2.090   2.633
 9436SOL    HW229208   2.598   2.235   2.609
 9437SOL     OW29209   4.566   1.333   3.641
 9437SOL    HW129210   4.486   1.336   3.582
 9437SOL    HW229211   4.625   1.256   3.615
 9438SOL     OW29212   4.369   0.455   2.528
 9438SOL    HW129213   4.396   0.359   2.531
 9438SOL    HW229214   4.277   0.463   2.490
 9439SOL     OW29215   1.761   5.029   0.691
 9439SOL    HW129216   1.708   5.019   0.775
 9439SOL    HW229217   1.795   5.123   0.684
 9440SOL     OW29218   1.663   4.988   3.912
 9440SOL    HW129219   1.629   4.986   4.006
 9440SOL    HW229220   1.760   5.013   3.911
 9441SOL     OW29221   6.968   6.441   4.350
 9441SOL    HW129222   6.968   6.539   4.330
 9441SOL    HW229223   6.915   6.393   4.279
 9442SOL     OW29224   6.373   2.617   0.565
 9442SOL    HW129225   6.417   2.611   0.475
 9442SOL    HW229226   6.443   2.614   0.636
 9443SOL     OW29227   1.006   4.780   1.295
 9443SOL    HW129228   1.008   4.878   1.276
 9443SOL    HW229229   0.919   4.756   1.338
 9444SOL     OW29230   1.973   6.150   5.817
 9444SOL    HW129231   1.961   6.070   5.875
 9444SOL    HW229232   1.914   6.224   5.850
 9445SOL     OW29233   1.209   1.217   4.483
 9445SOL    HW129234   1.252   1.285   4.424
 9445SOL    HW229235   1.110   1.216   4.466
 9446SOL     OW29236   4.769   5.825   3.237
 9446SOL    HW129237   4.839   5.758   3.261
 9446SOL    HW229238   4.728   5.800   3.149
 9447SOL     OW29239   6.139   5.143   2.373
 9447SOL    HW129240   6.094   5.057   2.348
 9447SOL    HW229241   6.238   5.133   2.360
 9448SOL     OW29242   5.007   3.142   0.309
 9448SOL    HW129243   5.002   3.234   0.347
 9448SOL    HW229244   5.033   3.147   0.212
 9449SOL     OW29245   4.141   0.343   2.630
 9449SOL    HW129246   4.093   0.379   2.710
 9449SOL    HW229247   4.082   0.350   2.550
 9450SOL     OW29248   0.840   0.300   1.983
 9450SOL    HW129249   0.925   0.334   1.942
 9450SOL    HW229250   0.766   0.364   1.964
 9451SOL     OW29251   4.090   4.961   0.277
 9451SOL    HW129252   4.088   5.061   0.281
 9451SOL    HW229253   4.129   4.932   0.189
 9452SOL     OW29254   6.143   2.815   5.386
 9452SOL    HW129255   6.134   2.869   5.470
 9452SOL    HW229256   6.094   2.729   5.396
 9453SOL     OW29257   6.032   4.755   2.634
 9453SOL    HW129258   6.036   4.695   2.714
 9453SOL    HW229259   6.098   4.724   2.566
 9454SOL     OW29260   5.128   5.470   1.520
 9454SOL    HW129261   5.097   5.461   1.615
 9454SOL    HW229262   5.218   5.514   1.519
 9455SOL     OW29263   4.674   0.837   1.525
 9455SOL    HW129264   4.656   0.741   1.546
 9455SOL    HW229265   4.652   0.894   1.605
 9456SOL     OW29266   6.766   2.556   1.658
 9456SOL    HW129267   6.756   2.482   1.591
 9456SOL    HW229268   6.857   2.553   1.698
 9457SOL     OW29269   6.803   6.395   4.145
 9457SOL    HW129270   6.751   6.392   4.231
 9457SOL    HW229271   6.740   6.403   4.068
 9458SOL     OW29272   0.084   4.495   0.051
 9458SOL    HW129273   0.117   4.539   0.134
 9458SOL    HW229274   0.096   4.556   6.997
 9459SOL     OW29275   6.697   4.273   4.868
 9459SOL    HW129276   6.746   4.351   4.906
 9459SOL    HW229277   6.600   4.296   4.856
 9460SOL     OW29278   2.280   2.921   3.006
 9460SOL    HW129279   2.259   2.987   3.079
 9460SOL    HW229280   2.347   2.855   3.040
 9461SOL     OW29281   1.298   1.338   1.061
 9461SOL    HW129282   1.388   1.314   1.097
 9461SOL    HW229283   1.302   1.428   1.018
 9462SOL     OW29284   0.021   1.127   4.847
 9462SOL    HW129285   0.056   1.034   4.859
 9462SOL    HW229286   0.041   1.158   4.754
 9463SOL     OW29287   0.874   5.114   0.962
 9463SOL    HW129288   0.947   5.102   1.029
 9463SOL    HW229289   0.826   5.200   0.980
 9464SOL     OW29290   1.624   1.210   2.101
 9464SOL    HW129291   1.620   1.208   2.201
 9464SOL    HW229292   1.539   1.249   2.066
 9465SOL     OW29293   1.655   5.654   6.915
 9465SOL    HW129294   1.704   5.740   6.907
 9465SOL    HW229295   1.558   5.668   6.897
 9466SOL     OW29296   3.664   4.214   5.571
 9466SOL    HW129297   3.587   4.275   5.557
 9466SOL    HW229298   3.742   4.246   5.518
 9467SOL     OW29299   1.298   3.636   1.737
 9467SOL    HW129300   1.282   3.537   1.732
 9467SOL    HW229301   1.396   3.653   1.742
 9468SOL     OW29302   0.108   2.274   0.974
 9468SOL    HW129303   0.062   2.338   0.911
 9468SOL    HW229304   0.137   2.324   1.056
 9469SOL     OW29305   5.943   7.010   1.846
 9469SOL    HW129306   5.849   6.976   1.853
 9469SOL    HW229307   5.953   0.070   1.898
 9470SOL     OW29308   3.193   3.389   1.492
 9470SOL    HW129309   3.187   3.455   1.418
 9470SOL    HW229310   3.151   3.427   1.574
 9471SOL     OW29311   0.127   3.232   4.753
 9471SOL    HW129312   0.201   3.256   4.691
 9471SOL    HW229313   0.124   3.132   4.765
 9472SOL     OW29314   2.449   4.138   6.076
 9472SOL    HW129315   2.531   4.156   6.022
 9472SOL    HW229316   2.465   4.058   6.135
 9473SOL     OW29317   2.868   3.400   2.257
 9473SOL    HW129318   2.917   3.486   2.246
 9473SOL    HW229319   2.792   3.412   2.321
 9474SOL     OW29320   5.441   4.492   0.583
 9474SOL    HW129321   5.447   4.426   0.509
 9474SOL    HW229322   5.347   4.525   0.591
 9475SOL     OW29323   6.310   3.386   6.798
 9475SOL    HW129324   6.365   3.419   6.722
 9475SOL    HW229325   6.220   3.430   6.795
 9476SOL     OW29326   4.256   3.267   1.149
 9476SOL    HW129327   4.278   3.236   1.056
 9476SOL    HW229328   4.167   3.229   1.176
 9477SOL     OW29329   0.791   5.652   1.460
 9477SOL    HW129330   0.721   5.587   1.488
 9477SOL    HW229331   0.783   5.668   1.361
 9478SOL     OW29332   0.225   3.643   5.332
 9478SOL    HW129333   0.226   3.622   5.234
 9478SOL    HW229334   0.148   3.703   5.352
 9479SOL     OW29335   4.241   0.452   1.983
 9479SOL    HW129336   4.183   0.428   1.905
 9479SOL    HW229337   4.235   0.380   2.052
 9480SOL     OW29338   5.183   1.398   1.379
 9480SOL    HW129339   5.271   1.351   1.390
 9480SOL    HW229340   5.123   1.344   1.321
 9481SOL     OW29341   5.012   6.796   3.535
 9481SOL    HW129342   5.080   6.768   3.467
 9481SOL    HW229343   5.025   6.742   3.618
 9482SOL     OW29344   5.817   3.718   6.636
 9482SOL    HW129345   5.780   3.811   6.632
 9482SOL    HW229346   5.742   3.652   6.634
 9483SOL     OW29347   5.867   5.033   0.565
 9483SOL    HW129348   5.925   5.075   0.635
 9483SOL    HW229349   5.924   4.990   0.496
 9484SOL     OW29350   0.927   5.346   3.999
 9484SOL    HW129351   0.944   5.251   4.024
 9484SOL    HW229352   0.970   5.366   3.911
 9485SOL     OW29353   6.474   1.706   5.749
 9485SOL    HW129354   6.450   1.673   5.840
 9485SOL    HW229355   6.401   1.681   5.684
 9486SOL     OW29356   6.091   5.413   6.285
 9486SOL    HW129357   6.128   5.500   6.252
 9486SOL    HW229358   6.124   5.339   6.227
 9487SOL     OW29359   3.218   3.865   3.519
 9487SOL    HW129360   3.173   3.890   3.605
 9487SOL    HW229361   3.264   3.777   3.530
 9488SOL     OW29362   0.596   1.666   2.467
 9488SOL    HW129363   0.522   1.626   2.413
 9488SOL    HW229364   0.563   1.681   2.560
 9489SOL     OW29365   0.455   4.445   0.003
 9489SOL    HW129366   0.415   4.397   0.081
 9489SOL    HW229367   0.415   4.410   6.942
 9490SOL     OW29368   5.615   3.624   5.148
 9490SOL    HW129369   5.704   3.657   5.118
 9490SOL    HW229370   5.626   3.557   5.221
 9491SOL     OW29371   5.143   0.425   1.954
 9491SOL    HW129372   5.044   0.418   1.943
 9491SOL    HW229373   5.166   0.430   2.052
 9492SOL     OW29374   4.715   2.805   4.098
 9492SOL    HW129375   4.747   2.748   4.022
 9492SOL    HW229376   4.616   2.791   4.111
 9493SOL     OW29377   2.775   6.798   3.925
 9493SOL    HW129378   2.815   6.748   4.002
 9493SOL    HW229379   2.730   6.735   3.863
 9494SOL     OW29380   4.983   2.489   2.692
 9494SOL    HW129381   4.933   2.445   2.617
 9494SOL    HW229382   4.968   2.588   2.689
 9495SOL     OW29383   6.595   2.501   0.730
 9495SOL    HW129384   6.647   2.439   0.789
 9495SOL    HW229385   6.631   2.496   0.637
 9496SOL     OW29386   6.289   3.338   0.568
 9496SOL    HW129387   6.259   3.352   0.474
 9496SOL    HW229388   6.227   3.386   0.630
 9497SOL     OW29389   6.060   4.919   5.217
 9497SOL    HW129390   6.081   5.015   5.200
 9497SOL    HW229391   6.001   4.911   5.297
 9498SOL     OW29392   1.297   5.978   5.625
 9498SOL    HW129393   1.214   6.025   5.654
 9498SOL    HW229394   1.308   5.986   5.526
 9499SOL     OW29395   5.442   5.815   3.451
 9499SOL    HW129396   5.374   5.815   3.378
 9499SOL    HW229397   5.532   5.793   3.414
 9500SOL     OW29398   2.082   1.826   0.706
 9500SOL    HW129399   2.163   1.767   0.702
 9500SOL    HW229400   2.000   1.769   0.713
 9501SOL     OW29401   1.363   3.084   4.979
 9501SOL    HW129402   1.414   3.049   5.058
 9501SOL    HW229403   1.347   3.182   4.991
 9502SOL     OW29404   5.649   4.771   3.517
 9502SOL    HW129405   5.643   4.677   3.550
 9502SOL    HW229406   5.606   4.832   3.583
 9503SOL     OW29407   6.990   0.571   0.257
 9503SOL    HW129408   0.042   0.508   0.239
 9503SOL    HW229409   6.927   0.529   0.322
 9504SOL     OW29410   5.786   4.535   2.888
 9504SOL    HW129411   5.754   4.622   2.924
 9504SOL    HW229412   5.884   4.541   2.867
 9505SOL     OW29413   4.540   2.310   0.032
 9505SOL    HW129414   4.454   2.262   0.014
 9505SOL    HW229415   4.525   2.408   0.025
 9506SOL     OW29416   3.959   0.455   1.603
 9506SOL    HW129417   3.995   0.548   1.609
 9506SOL    HW229418   4.020   0.392   1.651
 9507SOL     OW29419   6.809   5.976   1.042
 9507SOL    HW129420   6.801   5.884   1.003
 9507SOL    HW229421   6.816   5.969   1.142
 9508SOL     OW29422   4.834   2.123   2.142
 9508SOL    HW129423   4.875   2.092   2.228
 9508SOL    HW229424   4.734   2.121   2.151
 9509SOL     OW29425   5.411   1.743   4.054
 9509SOL    HW129426   5.509   1.757   4.065
 9509SOL    HW229427   5.366   1.831   4.042
 9510SOL     OW29428   1.895   2.994   2.754
 9510SOL    HW129429   1.943   3.082   2.751
 9510SOL    HW229430   1.857   2.972   2.664
 9511SOL     OW29431   0.449   1.154   0.666
 9511SOL    HW129432   0.530   1.106   0.701
 9511SOL    HW229433   0.467   1.252   0.665
 9512SOL     OW29434   5.904   2.584   1.607
 9512SOL    HW129435   5.997   2.607   1.581
 9512SOL    HW229436   5.905   2.515   1.679
 9513SOL     OW29437   5.299   3.464   4.378
 9513SOL    HW129438   5.344   3.552   4.392
 9513SOL    HW229439   5.202   3.479   4.358
 9514SOL     OW29440   3.976   3.191   0.902
 9514SOL    HW129441   3.958   3.157   0.995
 9514SOL    HW229442   4.074   3.183   0.882
 9515SOL     OW29443   6.210   6.809   2.731
 9515SOL    HW129444   6.279   6.836   2.663
 9515SOL    HW229445   6.180   6.715   2.712
 9516SOL     OW29446   1.289   2.405   0.200
 9516SOL    HW129447   1.208   2.450   0.238
 9516SOL    HW229448   1.360   2.473   0.183
 9517SOL     OW29449   0.234   6.419   2.611
 9517SOL    HW129450   0.292   6.414   2.530
 9517SOL    HW229451   0.272   6.361   2.683
 9518SOL     OW29452   6.138   0.121   0.739
 9518SOL    HW129453   6.048   0.077   0.738
 9518SOL    HW229454   6.140   0.192   0.669
 9519SOL     OW29455   1.571   2.575   5.735
 9519SOL    HW129456   1.664   2.572   5.770
 9519SOL    HW229457   1.527   2.660   5.765
 9520SOL     OW29458   3.304   6.606   1.666
 9520SOL    HW129459   3.349   6.663   1.734
 9520SOL    HW229460   3.356   6.608   1.581
 9521SOL     OW29461   5.692   5.282   2.931
 9521SOL    HW129462   5.626   5.347   2.970
 9521SOL    HW229463   5.756   5.253   3.003
 9522SOL     OW29464   3.781   4.812   5.241
 9522SOL    HW129465   3.692   4.843   5.277
 9522SOL    HW229466   3.806   4.869   5.163
 9523SOL     OW29467   1.870   0.098   4.521
 9523SOL    HW129468   1.853   0.027   4.453
 9523SOL    HW229469   1.869   0.188   4.477
 9524SOL     OW29470   5.950   3.316   0.241
 9524SOL    HW129471   5.951   3.253   0.164
 9524SOL    HW229472   5.949   3.410   0.208
 9525SOL     OW29473   4.279   0.953   4.027
 9525SOL    HW129474   4.252   0.980   3.935
 9525SOL    HW229475   4.253   0.857   4.042
 9526SOL     OW29476   4.714   5.742   0.743
 9526SOL    HW129477   4.755   5.653   0.761
 9526SOL    HW229478   4.616   5.730   0.727
 9527SOL     OW29479   0.030   1.016   0.414
 9527SOL    HW129480   0.039   0.926   0.370
 9527SOL    HW229481   0.117   1.065   0.408
 9528SOL     OW29482   5.413   1.444   2.190
 9528SOL    HW129483   5.394   1.382   2.113
 9528SOL    HW229484   5.500   1.491   2.175
 9529SOL     OW29485   1.238   2.356   5.399
 9529SOL    HW129486   1.331   2.321   5.404
 9529SOL    HW229487   1.239   2.455   5.414
 9530SOL     OW29488   2.498   1.273   3.549
 9530SOL    HW129489   2.555   1.308   3.623
 9530SOL    HW229490   2.422   1.219   3.587
 9531SOL     OW29491   2.670   6.190   3.995
 9531SOL    HW129492   2.706   6.270   3.946
 9531SOL    HW229493   2.671   6.111   3.935
 9532SOL     OW29494   3.164   1.252   1.761
 9532SOL    HW129495   3.250   1.264   1.712
 9532SOL    HW229496   3.087   1.273   1.700
 9533SOL     OW29497   0.139   1.416   3.724
 9533SOL    HW129498   0.224   1.363   3.725
 9533SOL    HW229499   0.096   1.407   3.634
 9534SOL     OW29500   4.889   1.499   4.112
 9534SOL    HW129501   4.974   1.549   4.130
 9534SOL    HW229502   4.830   1.555   4.053
 9535SOL     OW29503   3.230   1.835   4.574
 9535SOL    HW129504   3.227   1.895   4.494
 9535SOL    HW229505   3.186   1.880   4.652
 9536SOL     OW29506   2.411   5.870   6.294
 9536SOL    HW129507   2.367   5.850   6.207
 9536SOL    HW229508   2.345   5.859   6.368
 9537SOL     OW29509   2.205   0.066   0.177
 9537SOL    HW129510   2.256   7.005   0.167
 9537SOL    HW229511   2.107   0.047   0.166
 9538SOL     OW29512   5.323   4.006   3.034
 9538SOL    HW129513   5.258   3.998   3.109
 9538SOL    HW229514   5.416   4.008   3.070
 9539SOL     OW29515   1.329   2.838   0.806
 9539SOL    HW129516   1.318   2.793   0.718
 9539SOL    HW229517   1.425   2.866   0.818
 9540SOL     OW29518   6.023   3.380   5.586
 9540SOL    HW129519   5.947   3.340   5.535
 9540SOL    HW229520   6.098   3.314   5.591
 9541SOL     OW29521   6.140   2.821   2.896
 9541SOL    HW129522   6.152   2.783   2.804
 9541SOL    HW229523   6.112   2.917   2.889
 9542SOL     OW29524   4.985   3.777   4.459
 9542SOL    HW129525   4.958   3.698   4.404
 9542SOL    HW229526   5.084   3.776   4.473
 9543SOL     OW29527   3.953   2.539   6.905
 9543SOL    HW129528   3.929   2.633   6.881
 9543SOL    HW229529   3.883   2.476   6.870
 9544SOL     OW29530   5.019   6.780   1.087
 9544SOL    HW129531   5.094   6.796   1.023
 9544SOL    HW229532   4.942   6.739   1.039
 9545SOL     OW29533   1.121   0.589   4.126
 9545SOL    HW129534   1.068   0.542   4.056
 9545SOL    HW229535   1.215   0.555   4.125
 9546SOL     OW29536   3.053   4.258   1.734
 9546SOL    HW129537   3.100   4.294   1.653
 9546SOL    HW229538   3.019   4.334   1.789
 9547SOL     OW29539   5.514   0.657   2.512
 9547SOL    HW129540   5.585   0.726   2.494
 9547SOL    HW229541   5.553   0.581   2.564
 9548SOL     OW29542   6.298   6.651   1.857
 9548SOL    HW129543   6.269   6.587   1.785
 9548SOL    HW229544   6.223   6.667   1.920
 9549SOL     OW29545   2.503   6.211   6.984
 9549SOL    HW129546   2.486   6.133   0.021
 9549SOL    HW229547   2.417   6.244   6.947
 9550SOL     OW29548   1.305   0.905   0.865
 9550SOL    HW129549   1.227   0.946   0.912
 9550SOL    HW229550   1.273   0.845   0.792
 9551SOL     OW29551   1.201   5.643   4.694
 9551SOL    HW129552   1.118   5.685   4.659
 9551SOL    HW229553   1.197   5.639   4.794
 9552SOL     OW29554   6.392   5.687   3.225
 9552SOL    HW129555   6.475   5.652   3.267
 9552SOL    HW229556   6.364   5.627   3.150
 9553SOL     OW29557   4.832   4.902   6.782
 9553SOL    HW129558   4.822   4.971   6.711
 9553SOL    HW229559   4.854   4.946   6.869
 9554SOL     OW29560   1.547   3.022   1.727
 9554SOL    HW129561   1.642   3.027   1.760
 9554SOL    HW229562   1.485   3.053   1.799
 9555SOL     OW29563   0.819   2.420   6.298
 9555SOL    HW129564   0.788   2.414   6.393
 9555SOL    HW229565   0.747   2.460   6.241
 9556SOL     OW29566   5.532   1.670   1.708
 9556SOL    HW129567   5.462   1.705   1.646
 9556SOL    HW229568   5.511   1.697   1.802
 9557SOL     OW29569   5.089   1.906   0.828
 9557SOL    HW129570   5.097   2.005   0.816
 9557SOL    HW229571   5.053   1.886   0.919
 9558SOL     OW29572   6.595   3.793   1.569
 9558SOL    HW129573   6.578   3.890   1.551
 9558SOL    HW229574   6.643   3.784   1.656
 9559SOL     OW29575   0.278   4.671   3.379
 9559SOL    HW129576   0.178   4.674   3.377
 9559SOL    HW229577   0.309   4.580   3.349
 9560SOL     OW29578   3.822   2.867   6.119
 9560SOL    HW129579   3.770   2.931   6.062
 9560SOL    HW229580   3.880   2.810   6.060
 9561SOL     OW29581   3.373   5.252   6.592
 9561SOL    HW129582   3.325   5.340   6.585
 9561SOL    HW229583   3.337   5.202   6.671
 9562SOL     OW29584   5.997   5.720   4.143
 9562SOL    HW129585   6.074   5.781   4.126
 9562SOL    HW229586   5.937   5.761   4.212
 9563SOL     OW29587   0.513   1.316   5.627
 9563SOL    HW129588   0.533   1.397   5.572
 9563SOL    HW229589   0.432   1.334   5.684
 9564SOL     OW29590   6.628   0.165   5.905
 9564SOL    HW129591   6.639   0.149   6.003
 9564SOL    HW229592   6.621   0.078   5.857
 9565SOL     OW29593   3.039   5.296   5.297
 9565SOL    HW129594   2.993   5.384   5.309
 9565SOL    HW229595   3.077   5.267   5.385
 9566SOL     OW29596   2.382   6.091   5.366
 9566SOL    HW129597   2.334   6.041   5.438
 9566SOL    HW229598   2.342   6.182   5.356
 9567SOL     OW29599   5.266   5.764   3.242
 9567SOL    HW129600   5.316   5.794   3.161
 9567SOL    HW229601   5.177   5.810   3.245
 9568SOL     OW29602   6.549   3.507   4.611
 9568SOL    HW129603   6.628   3.527   4.669
 9568SOL    HW229604   6.465   3.511   4.666
 9569SOL     OW29605   5.343   0.460   1.067
 9569SOL    HW129606   5.370   0.369   1.099
 9569SOL    HW229607   5.257   0.454   1.017
 9570SOL     OW29608   0.597   3.733   6.625
 9570SOL    HW129609   0.638   3.678   6.552
 9570SOL    HW229610   0.649   3.818   6.636
 9571SOL     OW29611   3.588   1.768   0.735
 9571SOL    HW129612   3.585   1.672   0.708
 9571SOL    HW229613   3.683   1.798   0.741
 9572SOL     OW29614   0.750   3.633   1.166
 9572SOL    HW129615   0.824   3.583   1.211
 9572SOL    HW229616   0.773   3.647   1.069
 9573SOL     OW29617   4.298   2.141   1.713
 9573SOL    HW129618   4.222   2.086   1.677
 9573SOL    HW229619   4.274   2.238   1.710
 9574SOL     OW29620   2.031   1.356   2.747
 9574SOL    HW129621   2.031   1.269   2.797
 9574SOL    HW229622   1.958   1.414   2.782
 9575SOL     OW29623   2.949   1.549   2.724
 9575SOL    HW129624   3.009   1.607   2.668
 9575SOL    HW229625   3.005   1.488   2.780
 9576SOL     OW29626   4.626   2.584   5.610
 9576SOL    HW129627   4.561   2.512   5.631
 9576SOL    HW229628   4.669   2.566   5.521
 9577SOL     OW29629   0.734   6.068   3.735
 9577SOL    HW129630   0.639   6.037   3.738
 9577SOL    HW229631   0.785   6.015   3.667
 9578SOL     OW29632   6.223   4.186   1.764
 9578SOL    HW129633   6.211   4.264   1.826
 9578SOL    HW229634   6.168   4.200   1.682
 9579SOL     OW29635   1.487   4.900   2.713
 9579SOL    HW129636   1.484   4.990   2.756
 9579SOL    HW229637   1.537   4.907   2.626
 9580SOL     OW29638   3.856   3.692   5.194
 9580SOL    HW129639   3.762   3.718   5.172
 9580SOL    HW229640   3.866   3.681   5.293
 9581SOL     OW29641   0.422   6.951   6.712
 9581SOL    HW129642   0.469   6.863   6.718
 9581SOL    HW229643   0.460   7.014   6.780
 9582SOL     OW29644   4.068   5.108   2.763
 9582SOL    HW129645   4.093   5.033   2.824
 9582SOL    HW229646   4.126   5.106   2.681
 9583SOL     OW29647   1.415   5.336   2.602
 9583SOL    HW129648   1.476   5.356   2.679
 9583SOL    HW229649   1.326   5.307   2.637
 9584SOL     OW29650   5.345   4.986   6.714
 9584SOL    HW129651   5.416   4.923   6.683
 9584SOL    HW229652   5.369   5.079   6.687
 9585SOL     OW29653   5.926   1.869   2.250
 9585SOL    HW129654   5.889   1.914   2.331
 9585SOL    HW229655   5.926   1.932   2.173
 9586SOL     OW29656   3.999   5.053   2.330
 9586SOL    HW129657   4.094   5.026   2.340
 9586SOL    HW229658   3.994   5.147   2.297
 9587SOL     OW29659   4.179   6.499   2.176
 9587SOL    HW129660   4.169   6.420   2.116
 9587SOL    HW229661   4.100   6.505   2.238
 9588SOL     OW29662   6.114   1.473   3.667
 9588SOL    HW129663   6.207   1.508   3.651
 9588SOL    HW229664   6.088   1.414   3.591
 9589SOL     OW29665   4.191   1.916   5.100
 9589SOL    HW129666   4.127   1.991   5.090
 9589SOL    HW229667   4.184   1.854   5.022
 9590SOL     OW29668   6.930   5.359   5.811
 9590SOL    HW129669   6.997   5.393   5.877
 9590SOL    HW229670   6.975   5.342   5.724
 9591SOL     OW29671   0.169   4.220   2.157
 9591SOL    HW129672   0.080   4.215   2.113
 9591SOL    HW229673   0.183   4.312   2.193
 9592SOL     OW29674   3.673   5.731   0.923
 9592SOL    HW129675   3.604   5.726   0.996
 9592SOL    HW229676   3.759   5.692   0.955
 9593SOL     OW29677   2.053   2.736   3.412
 9593SOL    HW129678   2.023   2.801   3.342
 9593SOL    HW229679   1.973   2.702   3.463
 9594SOL     OW29680   5.852   0.325   0.373
 9594SOL    HW129681   5.931   0.275   0.409
 9594SOL    HW229682   5.789   0.261   0.329
 9595SOL     OW29683   1.892   4.380   5.405
 9595SOL    HW129684   1.954   4.457   5.421
 9595SOL    HW229685   1.914   4.337   5.317
 9596SOL     OW29686   5.342   4.477   2.284
 9596SOL    HW129687   5.284   4.552   2.314
 9596SOL    HW229688   5.431   4.483   2.331
 9597SOL     OW29689   1.493   4.059   1.950
 9597SOL    HW129690   1.472   4.154   1.974
 9597SOL    HW229691   1.414   4.001   1.970
 9598SOL     OW29692   0.943   6.194   4.823
 9598SOL    HW129693   1.008   6.176   4.897
 9598SOL    HW229694   0.866   6.131   4.830
 9599SOL     OW29695   4.005   2.162   5.586
 9599SOL    HW129696   3.911   2.196   5.586
 9599SOL    HW229697   4.010   2.076   5.535
 9600SOL     OW29698   1.767   5.340   6.959
 9600SOL    HW129699   1.711   5.414   6.922
 9600SOL    HW229700   1.821   5.375   0.012
 9601SOL     OW29701   1.191   0.445   5.324
 9601SOL    HW129702   1.105   0.474   5.284
 9601SOL    HW229703   1.206   0.348   5.307
 9602SOL     OW29704   1.004   5.617   6.123
 9602SOL    HW129705   1.068   5.686   6.088
 9602SOL    HW229706   0.952   5.578   6.047
 9603SOL     OW29707   1.227   5.103   2.016
 9603SOL    HW129708   1.261   5.011   1.998
 9603SOL    HW229709   1.304   5.165   2.028
 9604SOL     OW29710   6.201   0.213   5.784
 9604SOL    HW129711   6.181   0.303   5.747
 9604SOL    HW229712   6.181   0.211   5.882
 9605SOL     OW29713   3.074   5.084   0.307
 9605SOL    HW129714   3.010   5.072   0.231
 9605SOL    HW229715   3.025   5.122   0.386
 9606SOL     OW29716   6.765   1.444   4.398
 9606SOL    HW129717   6.702   1.440   4.476
 9606SOL    HW229718   6.769   1.537   4.363
 9607SOL     OW29719   6.383   3.887   3.702
 9607SOL    HW129720   6.393   3.984   3.680
 9607SOL    HW229721   6.472   3.850   3.731
 9608SOL     OW29722   6.114   0.738   1.281
 9608SOL    HW129723   6.134   0.720   1.185
 9608SOL    HW229724   6.195   0.718   1.336
 9609SOL     OW29725   0.810   1.897   3.482
 9609SOL    HW129726   0.887   1.900   3.418
 9609SOL    HW229727   0.774   1.804   3.486
 9610SOL     OW29728   5.441   1.213   6.417
 9610SOL    HW129729   5.540   1.223   6.429
 9610SOL    HW229730   5.421   1.190   6.322
 9611SOL     OW29731   5.125   5.260   1.878
 9611SOL    HW129732   5.192   5.208   1.825
 9611SOL    HW229733   5.046   5.202   1.898
 9612SOL     OW29734   4.639   4.252   3.563
 9612SOL    HW129735   4.609   4.282   3.654
 9612SOL    HW229736   4.714   4.187   3.573
 9613SOL     OW29737   4.011   1.252   4.700
 9613SOL    HW129738   4.096   1.230   4.652
 9613SOL    HW229739   3.936   1.199   4.660
 9614SOL     OW29740   3.557   2.967   6.809
 9614SOL    HW129741   3.489   2.983   6.737
 9614SOL    HW229742   3.581   3.053   6.853
 9615SOL     OW29743   6.228   6.690   3.508
 9615SOL    HW129744   6.200   6.641   3.590
 9615SOL    HW229745   6.322   6.666   3.484
 9616SOL     OW29746   0.158   2.147   7.000
 9616SOL    HW129747   0.078   2.099   0.013
 9616SOL    HW229748   0.158   2.242   0.007
 9617SOL     OW29749   1.525   3.645   3.774
 9617SOL    HW129750   1.595   3.716   3.770
 9617SOL    HW229751   1.546   3.581   3.848
 9618SOL     OW29752   5.011   4.403   1.379
 9618SOL    HW129753   5.049   4.316   1.410
 9618SOL    HW229754   4.985   4.458   1.459
 9619SOL     OW29755   1.454   1.477   0.360
 9619SOL    HW129756   1.553   1.460   0.357
 9619SOL    HW229757   1.427   1.534   0.283
 9620SOL     OW29758   2.971   0.941   6.516
 9620SOL    HW129759   2.974   1.019   6.577
 9620SOL    HW229760   3.010   0.861   6.561
 9621SOL     OW29761   0.114   0.360   0.188
 9621SOL    HW129762   0.147   0.391   0.098
 9621SOL    HW229763   0.067   0.272   0.178
 9622SOL     OW29764   6.527   0.174   4.588
 9622SOL    HW129765   6.582   0.257   4.585
 9622SOL    HW229766   6.584   0.097   4.617
 9623SOL     OW29767   2.108   5.738   6.081
 9623SOL    HW129768   2.120   5.657   6.023
 9623SOL    HW229769   2.103   5.711   6.177
 9624SOL     OW29770   4.316   5.447   6.744
 9624SOL    HW129771   4.366   5.430   6.829
 9624SOL    HW229772   4.276   5.362   6.710
 9625SOL     OW29773   5.311   3.686   5.833
 9625SOL    HW129774   5.368   3.629   5.892
 9625SOL    HW229775   5.221   3.698   5.875
 9626SOL     OW29776   2.638   2.483   0.482
 9626SOL    HW129777   2.654   2.469   0.384
 9626SOL    HW229778   2.547   2.522   0.496
 9627SOL     OW29779   0.145   5.287   0.446
 9627SOL    HW129780   0.076   5.219   0.468
 9627SOL    HW229781   0.232   5.241   0.425
 9628SOL     OW29782   5.907   1.886   5.536
 9628SOL    HW129783   5.903   1.866   5.438
 9628SOL    HW229784   5.825   1.850   5.580
 9629SOL     OW29785   0.376   5.863   4.035
 9629SOL    HW129786   0.404   5.768   4.015
 9629SOL    HW229787   0.284   5.863   4.074
 9630SOL     OW29788   6.233   0.678   5.350
 9630SOL    HW129789   6.216   0.579   5.349
 9630SOL    HW229790   6.313   0.697   5.407
 9631SOL     OW29791   4.380   5.716   0.280
 9631SOL    HW129792   4.399   5.621   0.301
 9631SOL    HW229793   4.345   5.763   0.361
 9632SOL     OW29794   2.192   5.332   3.489
 9632SOL    HW129795   2.242   5.250   3.515
 9632SOL    HW229796   2.112   5.307   3.434
 9633SOL     OW29797   2.347   3.053   5.640
 9633SOL    HW129798   2.369   3.101   5.555
 9633SOL    HW229799   2.349   2.954   5.623
 9634SOL     OW29800   5.532   4.843   2.869
 9634SOL    HW129801   5.583   4.803   2.946
 9634SOL    HW229802   5.442   4.800   2.863
 9635SOL     OW29803   0.359   5.172   4.049
 9635SOL    HW129804   0.362   5.235   4.127
 9635SOL    HW229805   0.326   5.221   3.969
 9636SOL     OW29806   4.884   3.756   3.740
 9636SOL    HW129807   4.855   3.665   3.710
 9636SOL    HW229808   4.919   3.750   3.834
 9637SOL     OW29809   3.170   2.473   5.956
 9637SOL    HW129810   3.094   2.512   5.905
 9637SOL    HW229811   3.216   2.544   6.009
 9638SOL     OW29812   1.221   4.435   6.047
 9638SOL    HW129813   1.149   4.416   5.980
 9638SOL    HW229814   1.214   4.369   6.122
 9639SOL     OW29815   5.481   3.458   1.014
 9639SOL    HW129816   5.397   3.505   0.989
 9639SOL    HW229817   5.539   3.447   0.934
 9640SOL     OW29818   2.483   5.669   3.644
 9640SOL    HW129819   2.533   5.661   3.730
 9640SOL    HW229820   2.515   5.751   3.595
 9641SOL     OW29821   0.685   2.445   4.557
 9641SOL    HW129822   0.739   2.440   4.642
 9641SOL    HW229823   0.592   2.416   4.575
 9642SOL     OW29824   1.115   3.120   4.564
 9642SOL    HW129825   1.105   3.024   4.589
 9642SOL    HW229826   1.201   3.133   4.515
 9643SOL     OW29827   6.725   5.771   4.953
 9643SOL    HW129828   6.733   5.822   5.039
 9643SOL    HW229829   6.658   5.697   4.965
 9644SOL     OW29830   0.857   4.799   3.787
 9644SOL    HW129831   0.906   4.856   3.721
 9644SOL    HW229832   0.801   4.857   3.845
 9645SOL     OW29833   0.220   4.784   1.184
 9645SOL    HW129834   0.269   4.822   1.105
 9645SOL    HW229835   0.127   4.820   1.186
 9646SOL     OW29836   2.219   4.700   0.718
 9646SOL    HW129837   2.255   4.746   0.799
 9646SOL    HW229838   2.157   4.762   0.669
 9647SOL     OW29839   4.783   0.501   2.613
 9647SOL    HW129840   4.857   0.448   2.571
 9647SOL    HW229841   4.740   0.448   2.685
 9648SOL     OW29842   3.974   1.630   1.163
 9648SOL    HW129843   3.988   1.599   1.069
 9648SOL    HW229844   4.063   1.646   1.206
 9649SOL     OW29845   0.113   5.555   0.477
 9649SOL    HW129846   0.200   5.603   0.485
 9649SOL    HW229847   0.129   5.457   0.469
 9650SOL     OW29848   7.013   5.622   5.650
 9650SOL    HW129849   0.041   5.564   5.587
 9650SOL    HW229850   6.962   5.691   5.598
 9651SOL     OW29851   4.375   1.510   0.885
 9651SOL    HW129852   4.394   1.427   0.937
 9651SOL    HW229853   4.391   1.590   0.942
 9652SOL     OW29854   0.533   3.924   6.938
 9652SOL    HW129855   0.437   3.917   6.909
 9652SOL    HW229856   0.538   3.970   0.002
 9653SOL     OW29857   6.012   3.566   5.113
 9653SOL    HW129858   5.986   3.655   5.150
 9653SOL    HW229859   6.109   3.566   5.091
 9654SOL     OW29860   3.410   3.353   4.562
 9654SOL    HW129861   3.494   3.363   4.616
 9654SOL    HW229862   3.385   3.442   4.524
 9655SOL     OW29863   4.083   1.094   0.266
 9655SOL    HW129864   4.078   1.035   0.185
 9655SOL    HW229865   4.026   1.056   0.338
 9656SOL     OW29866   5.184   4.776   4.747
 9656SOL    HW129867   5.211   4.851   4.807
 9656SOL    HW229868   5.156   4.812   4.658
 9657SOL     OW29869   4.837   4.619   2.553
 9657SOL    HW129870   4.835   4.555   2.477
 9657SOL    HW229871   4.887   4.579   2.629
 9658SOL     OW29872   4.727   1.183   2.983
 9658SOL    HW129873   4.826   1.168   2.981
 9658SOL    HW229874   4.698   1.206   3.076
 9659SOL     OW29875   4.514   2.945   0.088
 9659SOL    HW129876   4.558   2.878   0.147
 9659SOL    HW229877   4.417   2.951   0.111
 9660SOL     OW29878   2.002   0.310   1.606
 9660SOL    HW129879   2.048   0.284   1.691
 9660SOL    HW229880   1.970   0.405   1.614
 9661SOL     OW29881   3.882   3.456   2.569
 9661SOL    HW129882   3.944   3.455   2.491
 9661SOL    HW229883   3.857   3.550   2.592
 9662SOL     OW29884   4.018   0.651   4.933
 9662SOL    HW129885   3.958   0.651   5.013
 9662SOL    HW229886   4.053   0.559   4.917
 9663SOL     OW29887   1.275   6.096   2.115
 9663SOL    HW129888   1.295   6.006   2.076
 9663SOL    HW229889   1.210   6.086   2.190
 9664SOL     OW29890   1.540   4.528   2.442
 9664SOL    HW129891   1.508   4.611   2.396
 9664SOL    HW229892   1.517   4.533   2.539
 9665SOL     OW29893   6.227   3.402   0.303
 9665SOL    HW129894   6.128   3.383   0.298
 9665SOL    HW229895   6.258   3.438   0.216
 9666SOL     OW29896   5.127   4.556   1.150
 9666SOL    HW129897   5.136   4.565   1.249
 9666SOL    HW229898   5.164   4.468   1.120
 9667SOL     OW29899   5.457   5.994   7.001
 9667SOL    HW129900   5.551   6.000   6.967
 9667SOL    HW229901   5.447   6.050   0.059
 9668SOL     OW29902   2.044   0.329   0.174
 9668SOL    HW129903   2.004   0.278   0.098
 9668SOL    HW229904   1.990   0.411   0.191
 9669SOL     OW29905   3.405   6.971   0.503
 9669SOL    HW129906   3.310   6.995   0.522
 9669SOL    HW229907   3.462   6.992   0.583
 9670SOL     OW29908   0.559   6.882   2.837
 9670SOL    HW129909   0.523   6.822   2.908
 9670SOL    HW229910   0.659   6.876   2.836
 9671SOL     OW29911   1.438   5.469   6.704
 9671SOL    HW129912   1.383   5.548   6.676
 9671SOL    HW229913   1.425   5.395   6.638
 9672SOL     OW29914   0.452   4.074   4.336
 9672SOL    HW129915   0.395   4.049   4.414
 9672SOL    HW229916   0.396   4.076   4.253
 9673SOL     OW29917   2.025   2.906   5.413
 9673SOL    HW129918   1.974   2.842   5.470
 9673SOL    HW229919   2.119   2.875   5.402
 9674SOL     OW29920   1.691   0.513   3.502
 9674SOL    HW129921   1.706   0.414   3.493
 9674SOL    HW229922   1.768   0.562   3.462
 9675SOL     OW29923   6.956   4.109   6.041
 9675SOL    HW129924   6.997   4.060   5.963
 9675SOL    HW229925   6.990   4.070   6.126
 9676SOL     OW29926   0.634   2.962   6.133
 9676SOL    HW129927   0.706   2.986   6.069
 9676SOL    HW229928   0.663   2.885   6.189
 9677SOL     OW29929   0.814   4.975   3.519
 9677SOL    HW129930   0.756   5.013   3.592
 9677SOL    HW229931   0.775   4.889   3.488
 9678SOL     OW29932   4.621   2.815   6.478
 9678SOL    HW129933   4.683   2.816   6.557
 9678SOL    HW229934   4.559   2.737   6.486
 9679SOL     OW29935   2.169   0.931   4.357
 9679SOL    HW129936   2.094   0.993   4.333
 9679SOL    HW229937   2.134   0.857   4.414
 9680SOL     OW29938   4.427   6.365   2.682
 9680SOL    HW129939   4.362   6.327   2.747
 9680SOL    HW229940   4.476   6.291   2.636
 9681SOL     OW29941   0.647   2.442   0.943
 9681SOL    HW129942   0.598   2.526   0.967
 9681SOL    HW229943   0.610   2.404   0.859
 9682SOL     OW29944   3.788   6.551   4.924
 9682SOL    HW129945   3.701   6.600   4.923
 9682SOL    HW229946   3.828   6.554   5.016
 9683SOL     OW29947   3.219   5.518   4.088
 9683SOL    HW129948   3.276   5.527   4.007
 9683SOL    HW229949   3.123   5.534   4.064
 9684SOL     OW29950   1.039   2.567   6.252
 9684SOL    HW129951   1.117   2.509   6.276
 9684SOL    HW229952   0.954   2.517   6.270
 9685SOL     OW29953   3.861   4.788   1.805
 9685SOL    HW129954   3.866   4.819   1.900
 9685SOL    HW229955   3.770   4.750   1.788
 9686SOL     OW29956   1.315   1.623   6.229
 9686SOL    HW129957   1.342   1.541   6.279
 9686SOL    HW229958   1.392   1.659   6.177
 9687SOL     OW29959   5.715   0.776   3.705
 9687SOL    HW129960   5.706   0.676   3.700
 9687SOL    HW229961   5.697   0.815   3.615
 9688SOL     OW29962   1.164   5.238   2.628
 9688SOL    HW129963   1.141   5.155   2.678
 9688SOL    HW229964   1.148   5.223   2.530
 9689SOL     OW29965   1.848   5.932   1.053
 9689SOL    HW129966   1.766   5.920   1.110
 9689SOL    HW229967   1.878   5.842   1.020
 9690SOL     OW29968   6.605   4.871   4.105
 9690SOL    HW129969   6.519   4.846   4.059
 9690SOL    HW229970   6.584   4.925   4.187
 9691SOL     OW29971   3.869   4.010   2.763
 9691SOL    HW129972   3.903   3.988   2.671
 9691SOL    HW229973   3.770   4.016   2.762
 9692SOL     OW29974   6.764   5.788   0.266
 9692SOL    HW129975   6.746   5.804   0.169
 9692SOL    HW229976   6.679   5.800   0.318
 9693SOL     OW29977   4.269   4.007   6.924
 9693SOL    HW129978   4.216   4.074   6.977
 9693SOL    HW229979   4.221   3.919   6.925
 9694SOL     OW29980   2.427   5.735   1.152
 9694SOL    HW129981   2.389   5.713   1.242
 9694SOL    HW229982   2.481   5.820   1.159
 9695SOL     OW29983   1.112   2.855   3.416
 9695SOL    HW129984   1.032   2.817   3.463
 9695SOL    HW229985   1.195   2.816   3.455
 9696SOL     OW29986   4.582   4.419   3.306
 9696SOL    HW129987   4.567   4.340   3.366
 9696SOL    HW229988   4.625   4.388   3.221
 9697SOL     OW29989   6.800   6.866   3.277
 9697SOL    HW129990   6.701   6.883   3.270
 9697SOL    HW229991   6.837   6.851   3.185
 9698SOL     OW29992   0.465   2.399   1.290
 9698SOL    HW129993   0.544   2.450   1.323
 9698SOL    HW229994   0.481   2.301   1.299
 9699SOL     OW29995   1.695   0.007   2.532
 9699SOL    HW129996   1.771   0.019   2.596
 9699SOL    HW229997   1.633   6.961   2.567
 9700SOL     OW29998   6.342   0.680   6.241
 9700SOL    HW129999   6.436   0.711   6.254
 9700SOL    HW230000   6.298   0.735   6.170
 9701SOL     OW30001   5.968   3.792   6.854
 9701SOL    HW130002   6.043   3.737   6.889
 9701SOL    HW230003   5.927   3.747   6.775
 9702SOL     OW30004   3.032   3.677   2.156
 9702SOL    HW130005   3.034   3.694   2.058
 9702SOL    HW230006   3.121   3.639   2.185
 9703SOL     OW30007   6.023   5.129   3.491
 9703SOL    HW130008   5.970   5.070   3.431
 9703SOL    HW230009   5.961   5.180   3.551
 9704SOL     OW30010   0.709   5.206   2.285
 9704SOL    HW130011   0.732   5.128   2.227
 9704SOL    HW230012   0.640   5.263   2.240
 9705SOL     OW30013   0.095   3.983   5.482
 9705SOL    HW130014   0.038   4.052   5.527
 9705SOL    HW230015   0.037   3.911   5.444
 9706SOL     OW30016   0.156   6.880   2.266
 9706SOL    HW130017   0.213   6.869   2.185
 9706SOL    HW230018   0.134   6.977   2.278
 9707SOL     OW30019   1.590   4.727   1.482
 9707SOL    HW130020   1.532   4.645   1.475
 9707SOL    HW230021   1.680   4.707   1.441
 9708SOL     OW30022   3.120   0.359   1.342
 9708SOL    HW130023   3.060   0.432   1.312
 9708SOL    HW230024   3.215   0.392   1.343
 9709SOL     OW30025   3.373   1.888   2.095
 9709SOL    HW130026   3.302   1.838   2.144
 9709SOL    HW230027   3.456   1.889   2.151
 9710SOL     OW30028   5.160   4.743   4.258
 9710SOL    HW130029   5.130   4.767   4.350
 9710SOL    HW230030   5.201   4.823   4.214
 9711SOL     OW30031   3.530   0.037   6.733
 9711SOL    HW130032   3.467   0.020   6.657
 9711SOL    HW230033   3.620   0.063   6.696
 9712SOL     OW30034   5.133   6.483   5.360
 9712SOL    HW130035   5.120   6.423   5.281
 9712SOL    HW230036   5.105   6.576   5.337
 9713SOL     OW30037   0.708   1.179   2.953
 9713SOL    HW130038   0.725   1.247   2.882
 9713SOL    HW230039   0.667   1.098   2.911
 9714SOL     OW30040   2.309   2.486   3.686
 9714SOL    HW130041   2.384   2.490   3.621
 9714SOL    HW230042   2.257   2.402   3.672
 9715SOL     OW30043   0.854   1.770   6.136
 9715SOL    HW130044   0.770   1.718   6.158
 9715SOL    HW230045   0.872   1.764   6.038
 9716SOL     OW30046   1.177   5.990   1.789
 9716SOL    HW130047   1.108   5.920   1.774
 9716SOL    HW230048   1.266   5.948   1.805
 9717SOL     OW30049   4.156   2.066   6.163
 9717SOL    HW130050   4.203   2.139   6.112
 9717SOL    HW230051   4.080   2.032   6.108
 9718SOL     OW30052   2.907   2.670   6.795
 9718SOL    HW130053   2.909   2.726   6.878
 9718SOL    HW230054   2.848   2.590   6.810
 9719SOL     OW30055   4.976   0.216   6.625
 9719SOL    HW130056   4.900   0.263   6.668
 9719SOL    HW230057   4.981   0.122   6.659
 9720SOL     OW30058   1.678   1.950   1.765
 9720SOL    HW130059   1.660   1.865   1.815
 9720SOL    HW230060   1.730   2.013   1.822
 9721SOL     OW30061   0.202   1.369   1.033
 9721SOL    HW130062   0.166   1.389   0.941
 9721SOL    HW230063   0.144   1.412   1.101
 9722SOL     OW30064   3.309   2.739   5.849
 9722SOL    HW130065   3.408   2.736   5.835
 9722SOL    HW230066   3.269   2.808   5.788
 9723SOL     OW30067   5.375   1.652   4.308
 9723SOL    HW130068   5.374   1.669   4.210
 9723SOL    HW230069   5.330   1.564   4.327
 9724SOL     OW30070   1.568   5.188   1.542
 9724SOL    HW130071   1.550   5.120   1.471
 9724SOL    HW230072   1.656   5.232   1.524
 9725SOL     OW30073   5.553   5.462   5.121
 9725SOL    HW130074   5.571   5.373   5.078
 9725SOL    HW230075   5.541   5.450   5.219
 9726SOL     OW30076   6.511   0.146   2.716
 9726SOL    HW130077   6.586   0.174   2.656
 9726SOL    HW230078   6.547   0.115   2.804
 9727SOL     OW30079   6.629   3.080   0.843
 9727SOL    HW130080   6.580   3.082   0.930
 9727SOL    HW230081   6.567   3.108   0.770
 9728SOL     OW30082   5.318   2.592   4.711
 9728SOL    HW130083   5.358   2.626   4.796
 9728SOL    HW230084   5.318   2.666   4.643
 9729SOL     OW30085   0.011   3.360   2.965
 9729SOL    HW130086   0.006   3.331   2.869
 9729SOL    HW230087   6.943   3.380   2.999
 9730SOL     OW30088   0.374   6.730   3.393
 9730SOL    HW130089   0.469   6.696   3.396
 9730SOL    HW230090   0.350   6.767   3.483
 9731SOL     OW30091   6.408   0.836   1.367
 9731SOL    HW130092   6.403   0.916   1.427
 9731SOL    HW230093   6.439   0.864   1.276
 9732SOL     OW30094   6.793   2.670   2.675
 9732SOL    HW130095   6.843   2.740   2.725
 9732SOL    HW230096   6.700   2.702   2.657
 9733SOL     OW30097   4.657   6.406   0.869
 9733SOL    HW130098   4.676   6.345   0.792
 9733SOL    HW230099   4.729   6.396   0.938
 9734SOL     OW30100   4.087   3.643   0.775
 9734SOL    HW130101   4.105   3.545   0.776
 9734SOL    HW230102   4.023   3.666   0.848
 9735SOL     OW30103   0.662   2.587   0.137
 9735SOL    HW130104   0.685   2.614   0.230
 9735SOL    HW230105   0.581   2.527   0.139
 9736SOL     OW30106   6.418   2.879   5.714
 9736SOL    HW130107   6.471   2.963   5.726
 9736SOL    HW230108   6.363   2.862   5.796
 9737SOL     OW30109   5.393   3.669   5.573
 9737SOL    HW130110   5.410   3.766   5.555
 9737SOL    HW230111   5.356   3.657   5.665
 9738SOL     OW30112   2.760   6.054   1.420
 9738SOL    HW130113   2.845   6.100   1.396
 9738SOL    HW230114   2.720   6.098   1.501
 9739SOL     OW30115   5.572   5.930   1.715
 9739SOL    HW130116   5.591   6.012   1.769
 9739SOL    HW230117   5.654   5.874   1.709
 9740SOL     OW30118   6.842   0.139   1.169
 9740SOL    HW130119   6.801   0.229   1.185
 9740SOL    HW230120   6.862   0.128   1.072
 9741SOL     OW30121   2.127   2.230   2.762
 9741SOL    HW130122   2.124   2.197   2.667
 9741SOL    HW230123   2.222   2.254   2.785
 9742SOL     OW30124   5.203   6.828   6.723
 9742SOL    HW130125   5.146   6.831   6.806
 9742SOL    HW230126   5.247   6.916   6.709
 9743SOL     OW30127   6.033   3.846   4.446
 9743SOL    HW130128   6.027   3.920   4.379
 9743SOL    HW230129   6.114   3.791   4.428
 9744SOL     OW30130   1.866   2.978   2.115
 9744SOL    HW130131   1.859   2.901   2.178
 9744SOL    HW230132   1.961   2.990   2.086
 9745SOL     OW30133   0.958   0.131   5.387
 9745SOL    HW130134   1.057   0.146   5.386
 9745SOL    HW230135   0.913   0.203   5.441
 9746SOL     OW30136   3.815   5.349   5.870
 9746SOL    HW130137   3.869   5.267   5.849
 9746SOL    HW230138   3.832   5.418   5.800
 9747SOL     OW30139   4.507   1.627   3.158
 9747SOL    HW130140   4.551   1.537   3.150
 9747SOL    HW230141   4.429   1.631   3.095
 9748SOL     OW30142   0.167   1.582   1.636
 9748SOL    HW130143   0.161   1.565   1.538
 9748SOL    HW230144   0.215   1.669   1.651
 9749SOL     OW30145   6.425   6.603   1.467
 9749SOL    HW130146   6.465   6.682   1.419
 9749SOL    HW230147   6.371   6.549   1.403
 9750SOL     OW30148   5.194   3.184   4.738
 9750SOL    HW130149   5.239   3.158   4.653
 9750SOL    HW230150   5.099   3.154   4.737
 9751SOL     OW30151   2.924   4.940   0.728
 9751SOL    HW130152   2.888   4.989   0.808
 9751SOL    HW230153   3.023   4.933   0.736
 9752SOL     OW30154   4.360   4.690   0.911
 9752SOL    HW130155   4.317   4.709   0.824
 9752SOL    HW230156   4.358   4.771   0.969
 9753SOL     OW30157   5.442   6.376   3.077
 9753SOL    HW130158   5.367   6.344   3.136
 9753SOL    HW230159   5.516   6.411   3.134
 9754SOL     OW30160   3.337   0.997   2.120
 9754SOL    HW130161   3.302   1.044   2.200
 9754SOL    HW230162   3.308   0.902   2.121
 9755SOL     OW30163   3.912   3.930   1.181
 9755SOL    HW130164   3.852   3.936   1.261
 9755SOL    HW230165   3.887   3.851   1.127
 9756SOL     OW30166   5.125   0.462   6.593
 9756SOL    HW130167   5.109   0.500   6.502
 9756SOL    HW230168   5.064   0.384   6.608
 9757SOL     OW30169   5.108   4.026   3.590
 9757SOL    HW130170   5.195   4.070   3.570
 9757SOL    HW230171   5.108   3.994   3.685
 9758SOL     OW30172   2.751   0.328   0.455
 9758SOL    HW130173   2.785   0.337   0.362
 9758SOL    HW230174   2.664   0.377   0.464
 9759SOL     OW30175   6.178   0.774   0.158
 9759SOL    HW130176   6.132   0.699   0.206
 9759SOL    HW230177   6.187   0.751   0.061
 9760SOL     OW30178   5.001   0.457   5.729
 9760SOL    HW130179   4.976   0.498   5.817
 9760SOL    HW230180   5.047   0.370   5.745
 9761SOL     OW30181   0.590   2.230   1.551
 9761SOL    HW130182   0.596   2.138   1.591
 9761SOL    HW230183   0.658   2.239   1.478
 9762SOL     OW30184   4.158   1.590   5.229
 9762SOL    HW130185   4.079   1.622   5.176
 9762SOL    HW230186   4.141   1.606   5.326
 9763SOL     OW30187   6.467   2.209   0.203
 9763SOL    HW130188   6.429   2.286   0.254
 9763SOL    HW230189   6.397   2.139   0.191
 9764SOL     OW30190   6.719   2.588   3.336
 9764SOL    HW130191   6.639   2.607   3.279
 9764SOL    HW230192   6.722   2.652   3.412
 9765SOL     OW30193   6.934   1.864   1.053
 9765SOL    HW130194   6.913   1.957   1.084
 9765SOL    HW230195   6.850   1.818   1.026
 9766SOL     OW30196   0.598   3.108   2.543
 9766SOL    HW130197   0.600   3.198   2.498
 9766SOL    HW230198   0.542   3.045   2.489
 9767SOL     OW30199   3.769   0.764   4.648
 9767SOL    HW130200   3.710   0.804   4.578
 9767SOL    HW230201   3.864   0.787   4.629
 9768SOL     OW30202   4.152   3.739   6.972
 9768SOL    HW130203   4.162   3.709   6.877
 9768SOL    HW230204   4.238   3.723   7.021
 9769SOL     OW30205   3.000   0.734   5.942
 9769SOL    HW130206   2.969   0.803   5.876
 9769SOL    HW230207   3.069   0.676   5.900
 9770SOL     OW30208   2.212   3.251   4.748
 9770SOL    HW130209   2.149   3.173   4.746
 9770SOL    HW230210   2.302   3.221   4.780
 9771SOL     OW30211   3.625   0.390   1.288
 9771SOL    HW130212   3.674   0.412   1.204
 9771SOL    HW230213   3.691   0.369   1.361
 9772SOL     OW30214   0.226   0.205   1.653
 9772SOL    HW130215   0.322   0.184   1.633
 9772SOL    HW230216   0.172   0.121   1.649
 9773SOL     OW30217   4.290   6.093   2.908
 9773SOL    HW130218   4.219   6.098   2.978
 9773SOL    HW230219   4.315   5.997   2.892
 9774SOL     OW30220   1.567   5.309   5.458
 9774SOL    HW130221   1.509   5.338   5.534
 9774SOL    HW230222   1.571   5.209   5.455
 9775SOL     OW30223   1.383   1.527   3.698
 9775SOL    HW130224   1.307   1.543   3.636
 9775SOL    HW230225   1.360   1.452   3.761
 9776SOL     OW30226   0.770   5.925   1.522
 9776SOL    HW130227   0.846   5.983   1.494
 9776SOL    HW230228   0.783   5.832   1.486
 9777SOL     OW30229   5.407   2.692   5.192
 9777SOL    HW130230   5.335   2.624   5.205
 9777SOL    HW230231   5.380   2.778   5.237
 9778SOL     OW30232   1.540   2.887   3.224
 9778SOL    HW130233   1.500   2.931   3.305
 9778SOL    HW230234   1.617   2.942   3.191
 9779SOL     OW30235   2.071   1.116   2.891
 9779SOL    HW130236   2.163   1.128   2.929
 9779SOL    HW230237   2.014   1.068   2.956
 9780SOL     OW30238   1.451   1.932   1.333
 9780SOL    HW130239   1.442   2.026   1.297
 9780SOL    HW230240   1.456   1.935   1.433
 9781SOL     OW30241   0.451   1.025   2.057
 9781SOL    HW130242   0.360   1.066   2.062
 9781SOL    HW230243   0.447   0.931   2.089
 9782SOL     OW30244   0.533   2.454   6.710
 9782SOL    HW130245   0.462   2.468   6.779
 9782SOL    HW230246   0.494   2.405   6.631
 9783SOL     OW30247   5.416   1.790   1.925
 9783SOL    HW130248   5.370   1.708   1.959
 9783SOL    HW230249   5.351   1.845   1.872
 9784SOL     OW30250   2.035   1.449   0.152
 9784SOL    HW130251   2.124   1.407   0.138
 9784SOL    HW230252   2.034   1.496   0.240
 9785SOL     OW30253   2.006   3.900   4.634
 9785SOL    HW130254   1.964   3.947   4.712
 9785SOL    HW230255   1.934   3.869   4.571
 9786SOL     OW30256   2.536   4.429   0.823
 9786SOL    HW130257   2.633   4.452   0.819
 9786SOL    HW230258   2.497   4.466   0.908
 9787SOL     OW30259   2.555   3.411   1.136
 9787SOL    HW130260   2.606   3.346   1.080
 9787SOL    HW230261   2.463   3.376   1.153
 9788SOL     OW30262   2.946   7.013   3.903
 9788SOL    HW130263   2.878   6.941   3.895
 9788SOL    HW230264   2.901   0.074   3.929
 9789SOL     OW30265   4.277   1.826   0.331
 9789SOL    HW130266   4.345   1.768   0.376
 9789SOL    HW230267   4.192   1.824   0.383
 9790SOL     OW30268   4.554   5.658   5.428
 9790SOL    HW130269   4.639   5.620   5.464
 9790SOL    HW230270   4.535   5.745   5.472
 9791SOL     OW30271   6.942   0.943   0.689
 9791SOL    HW130272   6.996   0.909   0.612
 9791SOL    HW230273   6.976   1.033   0.716
 9792SOL     OW30274   2.347   3.964   6.799
 9792SOL    HW130275   2.283   3.887   6.800
 9792SOL    HW230276   2.421   3.944   6.735
 9793SOL     OW30277   5.225   0.649   1.654
 9793SOL    HW130278   5.276   0.735   1.651
 9793SOL    HW230279   5.130   0.668   1.682
 9794SOL     OW30280   4.198   5.809   5.963
 9794SOL    HW130281   4.114   5.792   5.912
 9794SOL    HW230282   4.175   5.830   6.058
 9795SOL     OW30283   1.597   3.892   3.303
 9795SOL    HW130284   1.622   3.982   3.269
 9795SOL    HW230285   1.680   3.838   3.320
 9796SOL     OW30286   3.772   3.355   4.991
 9796SOL    HW130287   3.830   3.436   4.986
 9796SOL    HW230288   3.820   3.277   4.951
 9797SOL     OW30289   3.664   5.305   0.174
 9797SOL    HW130290   3.684   5.253   0.257
 9797SOL    HW230291   3.666   5.403   0.194
 9798SOL     OW30292   0.978   3.925   5.702
 9798SOL    HW130293   1.077   3.908   5.703
 9798SOL    HW230294   0.929   3.839   5.718
 9799SOL     OW30295   3.091   0.388   6.363
 9799SOL    HW130296   3.047   0.310   6.318
 9799SOL    HW230297   3.030   0.468   6.357
 9800SOL     OW30298   0.488   4.343   4.482
 9800SOL    HW130299   0.584   4.328   4.504
 9800SOL    HW230300   0.458   4.275   4.415
 9801SOL     OW30301   3.980   6.443   1.026
 9801SOL    HW130302   3.933   6.491   1.100
 9801SOL    HW230303   4.069   6.487   1.008
 9802SOL     OW30304   4.164   2.477   0.246
 9802SOL    HW130305   4.176   2.407   0.175
 9802SOL    HW230306   4.253   2.500   0.286
 9803SOL     OW30307   2.104   3.559   0.266
 9803SOL    HW130308   2.119   3.461   0.260
 9803SOL    HW230309   2.152   3.595   0.346
 9804SOL     OW30310   0.744   3.604   2.883
 9804SOL    HW130311   0.839   3.573   2.882
 9804SOL    HW230312   0.697   3.567   2.963
 9805SOL     OW30313   6.771   4.448   5.059
 9805SOL    HW130314   6.865   4.470   5.086
 9805SOL    HW230315   6.721   4.414   5.139
 9806SOL     OW30316   3.298   0.993   0.273
 9806SOL    HW130317   3.215   1.037   0.309
 9806SOL    HW230318   3.373   1.007   0.337
 9807SOL     OW30319   3.851   3.184   4.780
 9807SOL    HW130320   3.811   3.101   4.818
 9807SOL    HW230321   3.846   3.181   4.680
 9808SOL     OW30322   2.857   6.993   2.356
 9808SOL    HW130323   2.828   6.899   2.371
 9808SOL    HW230324   2.947   7.007   2.396
 9809SOL     OW30325   7.012   3.963   1.362
 9809SOL    HW130326   6.974   4.020   1.289
 9809SOL    HW230327   6.945   3.893   1.388
 9810SOL     OW30328   3.893   2.855   0.904
 9810SOL    HW130329   3.992   2.844   0.903
 9810SOL    HW230330   3.865   2.898   0.989
 9811SOL     OW30331   5.386   3.894   3.964
 9811SOL    HW130332   5.333   3.810   3.957
 9811SOL    HW230333   5.432   3.912   3.878
 9812SOL     OW30334   3.095   5.626   6.197
 9812SOL    HW130335   3.001   5.600   6.173
 9812SOL    HW230336   3.142   5.547   6.236
 9813SOL     OW30337   4.595   0.565   1.937
 9813SOL    HW130338   4.518   0.565   1.873
 9813SOL    HW230339   4.562   0.546   2.030
 9814SOL     OW30340   6.468   1.454   6.358
 9814SOL    HW130341   6.398   1.477   6.290
 9814SOL    HW230342   6.558   1.483   6.324
 9815SOL     OW30343   5.210   2.896   4.801
 9815SOL    HW130344   5.224   2.848   4.714
 9815SOL    HW230345   5.269   2.977   4.803
 9816SOL     OW30346   4.202   0.513   0.524
 9816SOL    HW130347   4.290   0.507   0.572
 9816SOL    HW230348   4.130   0.472   0.580
 9817SOL     OW30349   6.108   0.285   1.361
 9817SOL    HW130350   6.106   0.185   1.356
 9817SOL    HW230351   6.192   0.314   1.407
 9818SOL     OW30352   4.083   2.154   5.039
 9818SOL    HW130353   4.042   2.146   4.948
 9818SOL    HW230354   4.123   2.245   5.051
 9819SOL     OW30355   2.532   6.691   2.227
 9819SOL    HW130356   2.549   6.682   2.128
 9819SOL    HW230357   2.482   6.776   2.244
 9820SOL     OW30358   4.191   2.690   6.902
 9820SOL    HW130359   4.139   2.605   6.896
 9820SOL    HW230360   4.160   2.743   6.981
 9821SOL     OW30361   0.723   6.235   6.823
 9821SOL    HW130362   0.646   6.186   6.865
 9821SOL    HW230363   0.758   6.181   6.746
 9822SOL     OW30364   6.917   2.520   2.447
 9822SOL    HW130365   6.873   2.439   2.409
 9822SOL    HW230366   6.861   2.557   2.521
 9823SOL     OW30367   2.443   6.392   2.952
 9823SOL    HW130368   2.486   6.479   2.926
 9823SOL    HW230369   2.508   6.337   3.004
 9824SOL     OW30370   2.194   3.971   5.561
 9824SOL    HW130371   2.285   3.931   5.552
 9824SOL    HW230372   2.188   4.023   5.646
 9825SOL     OW30373   4.554   4.583   5.348
 9825SOL    HW130374   4.536   4.682   5.352
 9825SOL    HW230375   4.485   4.535   5.403
 9826SOL     OW30376   6.011   0.306   5.086
 9826SOL    HW130377   5.932   0.265   5.132
 9826SOL    HW230378   5.980   0.359   5.007
 9827SOL     OW30379   1.128   5.892   4.896
 9827SOL    HW130380   1.224   5.911   4.918
 9827SOL    HW230381   1.097   5.813   4.949
 9828SOL     OW30382   2.395   1.342   0.386
 9828SOL    HW130383   2.366   1.271   0.450
 9828SOL    HW230384   2.316   1.399   0.362
 9829SOL     OW30385   3.318   4.663   1.359
 9829SOL    HW130386   3.246   4.717   1.402
 9829SOL    HW230387   3.337   4.582   1.415
 9830SOL     OW30388   6.173   0.951   0.947
 9830SOL    HW130389   6.082   0.977   0.980
 9830SOL    HW230390   6.187   0.853   0.960
 9831SOL     OW30391   0.213   5.753   1.215
 9831SOL    HW130392   0.299   5.765   1.264
 9831SOL    HW230393   0.136   5.756   1.279
 9832SOL     OW30394   3.030   3.736   1.897
 9832SOL    HW130395   3.075   3.815   1.939
 9832SOL    HW230396   2.954   3.767   1.840
 9833SOL     OW30397   5.078   4.445   0.251
 9833SOL    HW130398   5.001   4.495   0.212
 9833SOL    HW230399   5.045   4.387   0.325
 9834SOL     OW30400   2.168   3.199   3.741
 9834SOL    HW130401   2.156   3.284   3.793
 9834SOL    HW230402   2.132   3.211   3.649
 9835SOL     OW30403   5.254   2.785   4.550
 9835SOL    HW130404   5.324   2.803   4.482
 9835SOL    HW230405   5.178   2.735   4.508
 9836SOL     OW30406   5.002   4.991   1.527
 9836SOL    HW130407   5.073   4.948   1.583
 9836SOL    HW230408   5.044   5.050   1.459
 9837SOL     OW30409   1.791   5.168   5.133
 9837SOL    HW130410   1.752   5.151   5.043
 9837SOL    HW230411   1.890   5.155   5.130
 9838SOL     OW30412   6.840   6.678   4.716
 9838SOL    HW130413   6.766   6.610   4.717
 9838SOL    HW230414   6.926   6.634   4.691
 9839SOL     OW30415   5.902   3.076   3.130
 9839SOL    HW130416   5.904   3.067   3.230
 9839SOL    HW230417   5.987   3.118   3.099
 9840SOL     OW30418   5.977   0.022   0.418
 9840SOL    HW130419   6.047   7.024   0.351
 9840SOL    HW230420   5.916   6.968   0.431
 9841SOL     OW30421   1.411   2.991   3.927
 9841SOL    HW130422   1.357   2.943   3.858
 9841SOL    HW230423   1.488   3.036   3.883
 9842SOL     OW30424   2.900   3.655   3.593
 9842SOL    HW130425   2.800   3.650   3.599
 9842SOL    HW230426   2.938   3.563   3.602
 9843SOL     OW30427   5.921   4.297   3.104
 9843SOL    HW130428   5.853   4.368   3.120
 9843SOL    HW230429   5.875   4.208   3.100
 9844SOL     OW30430   3.998   0.152   1.180
 9844SOL    HW130431   3.965   0.224   1.241
 9844SOL    HW230432   3.919   0.107   1.137
 9845SOL     OW30433   1.295   1.751   4.304
 9845SOL    HW130434   1.392   1.730   4.313
 9845SOL    HW230435   1.267   1.740   4.208
 9846SOL     OW30436   2.918   3.524   4.118
 9846SOL    HW130437   2.909   3.605   4.176
 9846SOL    HW230438   2.898   3.442   4.173
 9847SOL     OW30439   2.623   4.574   4.025
 9847SOL    HW130440   2.617   4.597   3.927
 9847SOL    HW230441   2.563   4.497   4.044
 9848SOL     OW30442   0.099   4.388   0.598
 9848SOL    HW130443   0.191   4.360   0.571
 9848SOL    HW230444   0.105   4.463   0.663
 9849SOL     OW30445   0.154   5.690   5.114
 9849SOL    HW130446   0.095   5.710   5.193
 9849SOL    HW230447   0.248   5.676   5.146
 9850SOL     OW30448   5.569   0.215   3.762
 9850SOL    HW130449   5.477   0.183   3.738
 9850SOL    HW230450   5.635   0.178   3.697
 9851SOL     OW30451   5.190   2.517   5.185
 9851SOL    HW130452   5.142   2.599   5.216
 9851SOL    HW230453   5.160   2.493   5.093
 9852SOL     OW30454   5.009   2.214   4.219
 9852SOL    HW130455   5.046   2.152   4.287
 9852SOL    HW230456   4.958   2.161   4.150
 9853SOL     OW30457   0.085   5.446   1.217
 9853SOL    HW130458   0.145   5.485   1.147
 9853SOL    HW230459   0.100   5.492   1.304
 9854SOL     OW30460   3.173   0.284   4.541
 9854SOL    HW130461   3.269   0.308   4.527
 9854SOL    HW230462   3.139   0.235   4.461
 9855SOL     OW30463   2.241   4.440   1.414
 9855SOL    HW130464   2.332   4.452   1.375
 9855SOL    HW230465   2.249   4.396   1.504
 9856SOL     OW30466   3.488   3.342   1.361
 9856SOL    HW130467   3.467   3.390   1.276
 9856SOL    HW230468   3.404   3.298   1.396
 9857SOL     OW30469   5.876   5.245   3.132
 9857SOL    HW130470   5.847   5.195   3.213
 9857SOL    HW230471   5.898   5.340   3.156
 9858SOL     OW30472   3.495   0.854   1.662
 9858SOL    HW130473   3.409   0.842   1.712
 9858SOL    HW230474   3.513   0.772   1.608
 9859SOL     OW30475   0.481   6.448   1.088
 9859SOL    HW130476   0.569   6.441   1.136
 9859SOL    HW230477   0.420   6.509   1.138
 9860SOL     OW30478   1.019   1.164   3.013
 9860SOL    HW130479   1.040   1.162   2.915
 9860SOL    HW230480   0.920   1.155   3.026
 9861SOL     OW30481   1.916   6.316   4.003
 9861SOL    HW130482   1.933   6.218   3.997
 9861SOL    HW230483   1.819   6.332   4.020
 9862SOL     OW30484   0.223   1.836   0.403
 9862SOL    HW130485   0.151   1.778   0.365
 9862SOL    HW230486   0.182   1.909   0.458
 9863SOL     OW30487   5.078   0.530   6.853
 9863SOL    HW130488   5.108   0.514   6.759
 9863SOL    HW230489   5.095   0.625   6.877
 9864SOL     OW30490   4.117   5.431   4.017
 9864SOL    HW130491   4.141   5.518   3.973
 9864SOL    HW230492   4.025   5.403   3.988
 9865SOL     OW30493   2.140   3.578   3.497
 9865SOL    HW130494   2.116   3.536   3.584
 9865SOL    HW230495   2.157   3.507   3.429
 9866SOL     OW30496   2.650   4.928   3.311
 9866SOL    HW130497   2.659   4.989   3.390
 9866SOL    HW230498   2.739   4.885   3.293
 9867SOL     OW30499   3.624   6.528   5.709
 9867SOL    HW130500   3.583   6.437   5.704
 9867SOL    HW230501   3.566   6.588   5.763
 9868SOL     OW30502   1.602   5.307   6.131
 9868SOL    HW130503   1.555   5.306   6.043
 9868SOL    HW230504   1.557   5.373   6.192
 9869SOL     OW30505   0.843   5.175   3.023
 9869SOL    HW130506   0.818   5.233   3.101
 9869SOL    HW230507   0.920   5.216   2.974
 9870SOL     OW30508   4.020   5.795   1.689
 9870SOL    HW130509   4.012   5.775   1.786
 9870SOL    HW230510   4.107   5.843   1.672
 9871SOL     OW30511   2.460   2.866   5.977
 9871SOL    HW130512   2.531   2.923   5.938
 9871SOL    HW230513   2.453   2.781   5.925
 9872SOL     OW30514   1.324   3.555   2.958
 9872SOL    HW130515   1.392   3.595   3.019
 9872SOL    HW230516   1.320   3.456   2.973
 9873SOL     OW30517   2.019   2.271   1.861
 9873SOL    HW130518   2.084   2.346   1.874
 9873SOL    HW230519   1.949   2.299   1.795
 9874SOL     OW30520   1.228   3.731   4.575
 9874SOL    HW130521   1.170   3.764   4.501
 9874SOL    HW230522   1.297   3.669   4.539
 9875SOL     OW30523   1.319   1.423   3.188
 9875SOL    HW130524   1.333   1.407   3.090
 9875SOL    HW230525   1.308   1.336   3.235
 9876SOL     OW30526   6.531   5.932   1.963
 9876SOL    HW130527   6.516   6.003   2.032
 9876SOL    HW230528   6.444   5.900   1.927
 9877SOL     OW30529   4.230   7.021   0.721
 9877SOL    HW130530   4.173   6.977   0.790
 9877SOL    HW230531   4.309   0.040   0.765
 9878SOL     OW30532   6.934   1.970   4.895
 9878SOL    HW130533   6.899   1.908   4.825
 9878SOL    HW230534   6.927   1.926   4.984
 9879SOL     OW30535   5.259   5.363   5.527
 9879SOL    HW130536   5.313   5.338   5.447
 9879SOL    HW230537   5.166   5.387   5.499
 9880SOL     OW30538   1.037   2.516   3.556
 9880SOL    HW130539   1.000   2.472   3.639
 9880SOL    HW230540   1.136   2.522   3.563
 9881SOL     OW30541   0.032   1.565   5.749
 9881SOL    HW130542   0.038   1.538   5.845
 9881SOL    HW230543   6.989   1.507   5.703
 9882SOL     OW30544   1.571   2.384   3.435
 9882SOL    HW130545   1.601   2.289   3.439
 9882SOL    HW230546   1.629   2.435   3.372
 9883SOL     OW30547   3.123   1.323   2.373
 9883SOL    HW130548   3.080   1.365   2.293
 9883SOL    HW230549   3.152   1.230   2.351
 9884SOL     OW30550   3.015   0.870   3.703
 9884SOL    HW130551   3.082   0.943   3.690
 9884SOL    HW230552   3.036   0.821   3.788
 9885SOL     OW30553   6.760   3.543   4.783
 9885SOL    HW130554   6.774   3.627   4.837
 9885SOL    HW230555   6.848   3.509   4.750
 9886SOL     OW30556   0.112   2.478   2.092
 9886SOL    HW130557   0.114   2.485   2.192
 9886SOL    HW230558   0.106   2.570   2.053
 9887SOL     OW30559   4.217   6.101   5.397
 9887SOL    HW130560   4.290   6.100   5.329
 9887SOL    HW230561   4.256   6.116   5.488
 9888SOL     OW30562   6.857   5.208   5.431
 9888SOL    HW130563   6.940   5.167   5.394
 9888SOL    HW230564   6.859   5.202   5.531
 9889SOL     OW30565   0.476   5.766   0.867
 9889SOL    HW130566   0.483   5.687   0.928
 9889SOL    HW230567   0.455   5.847   0.920
 9890SOL     OW30568   0.796   3.015   1.023
 9890SOL    HW130569   0.773   3.099   1.072
 9890SOL    HW230570   0.786   2.936   1.084
 9891SOL     OW30571   4.914   1.510   2.814
 9891SOL    HW130572   5.012   1.502   2.834
 9891SOL    HW230573   4.901   1.550   2.724
 9892SOL     OW30574   1.129   0.069   6.613
 9892SOL    HW130575   1.093   7.010   6.570
 9892SOL    HW230576   1.103   0.071   6.709
 9893SOL     OW30577   1.934   1.782   0.200
 9893SOL    HW130578   1.991   1.765   0.119
 9893SOL    HW230579   1.869   1.707   0.211
 9894SOL     OW30580   2.413   1.169   1.469
 9894SOL    HW130581   2.508   1.196   1.456
 9894SOL    HW230582   2.392   1.167   1.566
 9895SOL     OW30583   3.886   2.642   5.582
 9895SOL    HW130584   3.826   2.606   5.510
 9895SOL    HW230585   3.880   2.583   5.662
 9896SOL     OW30586   6.774   6.718   5.905
 9896SOL    HW130587   6.765   6.626   5.944
 9896SOL    HW230588   6.865   6.728   5.865
 9897SOL     OW30589   6.041   5.151   4.959
 9897SOL    HW130590   6.056   5.110   4.869
 9897SOL    HW230591   6.128   5.160   5.006
 9898SOL     OW30592   2.315   6.816   6.900
 9898SOL    HW130593   2.345   6.746   6.836
 9898SOL    HW230594   2.263   6.886   6.851
 9899SOL     OW30595   0.338   4.718   0.688
 9899SOL    HW130596   0.364   4.772   0.768
 9899SOL    HW230597   0.249   4.676   0.703
 9900SOL     OW30598   2.234   5.046   3.245
 9900SOL    HW130599   2.298   5.117   3.217
 9900SOL    HW230600   2.281   4.980   3.304
 9901SOL     OW30601   2.146   3.086   5.101
 9901SOL    HW130602   2.225   3.026   5.096
 9901SOL    HW230603   2.145   3.134   5.189
 9902SOL     OW30604   3.131   4.405   1.047
 9902SOL    HW130605   3.039   4.443   1.057
 9902SOL    HW230606   3.130   4.309   1.074
 9903SOL     OW30607   5.469   1.409   4.958
 9903SOL    HW130608   5.519   1.323   4.950
 9903SOL    HW230609   5.504   1.474   4.890
 9904SOL     OW30610   6.116   1.090   0.240
 9904SOL    HW130611   6.123   0.992   0.259
 9904SOL    HW230612   6.028   1.124   0.274
 9905SOL     OW30613   5.311   0.056   0.198
 9905SOL    HW130614   5.334   6.986   0.223
 9905SOL    HW230615   5.395   0.109   0.190
 9906SOL     OW30616   3.009   3.440   5.431
 9906SOL    HW130617   2.919   3.454   5.388
 9906SOL    HW230618   2.999   3.376   5.508
 9907SOL     OW30619   1.980   5.809   2.285
 9907SOL    HW130620   1.910   5.821   2.215
 9907SOL    HW230621   2.000   5.712   2.297
 9908SOL     OW30622   5.018   3.383   1.692
 9908SOL    HW130623   4.963   3.466   1.683
 9908SOL    HW230624   5.009   3.327   1.609
 9909SOL     OW30625   1.919   0.456   4.548
 9909SOL    HW130626   1.968   0.543   4.542
 9909SOL    HW230627   1.821   0.473   4.558
 9910SOL     OW30628   0.589   4.657   4.149
 9910SOL    HW130629   0.498   4.676   4.185
 9910SOL    HW230630   0.581   4.602   4.066
 9911SOL     OW30631   2.622   6.609   2.622
 9911SOL    HW130632   2.645   6.646   2.532
 9911SOL    HW230633   2.532   6.566   2.618
 9912SOL     OW30634   5.381   0.684   5.573
 9912SOL    HW130635   5.459   0.742   5.595
 9912SOL    HW230636   5.358   0.627   5.652
 9913SOL     OW30637   5.175   3.113   0.880
 9913SOL    HW130638   5.178   3.076   0.787
 9913SOL    HW230639   5.107   3.063   0.933
 9914SOL     OW30640   0.493   3.320   4.227
 9914SOL    HW130641   0.578   3.338   4.177
 9914SOL    HW230642   0.498   3.229   4.270
 9915SOL     OW30643   4.280   1.562   3.651
 9915SOL    HW130644   4.323   1.583   3.563
 9915SOL    HW230645   4.187   1.599   3.652
 9916SOL     OW30646   1.394   3.402   1.453
 9916SOL    HW130647   1.469   3.425   1.515
 9916SOL    HW230648   1.416   3.434   1.361
 9917SOL     OW30649   6.380   4.797   6.021
 9917SOL    HW130650   6.291   4.841   6.014
 9917SOL    HW230651   6.439   4.829   5.946
 9918SOL     OW30652   4.698   2.711   2.300
 9918SOL    HW130653   4.782   2.709   2.246
 9918SOL    HW230654   4.654   2.800   2.290
 9919SOL     OW30655   4.955   6.027   0.023
 9919SOL    HW130656   4.972   5.930   0.043
 9919SOL    HW230657   4.883   6.034   6.977
 9920SOL     OW30658   4.525   0.828   2.169
 9920SOL    HW130659   4.574   0.742   2.183
 9920SOL    HW230660   4.575   0.884   2.103
 9921SOL     OW30661   4.230   4.410   5.951
 9921SOL    HW130662   4.140   4.372   5.973
 9921SOL    HW230663   4.268   4.362   5.873
 9922SOL     OW30664   7.001   6.356   1.170
 9922SOL    HW130665   7.024   6.271   1.217
 9922SOL    HW230666   6.945   6.413   1.230
 9923SOL     OW30667   6.042   3.713   0.402
 9923SOL    HW130668   6.067   3.695   0.308
 9923SOL    HW230669   5.988   3.798   0.406
 9924SOL     OW30670   1.814   4.767   4.588
 9924SOL    HW130671   1.900   4.817   4.582
 9924SOL    HW230672   1.831   4.670   4.572
 9925SOL     OW30673   4.619   2.628   4.291
 9925SOL    HW130674   4.641   2.661   4.383
 9925SOL    HW230675   4.703   2.609   4.241
 9926SOL     OW30676   3.219   5.372   1.658
 9926SOL    HW130677   3.232   5.343   1.753
 9926SOL    HW230678   3.189   5.295   1.603
 9927SOL     OW30679   5.414   0.581   4.098
 9927SOL    HW130680   5.467   0.545   4.176
 9927SOL    HW230681   5.356   0.656   4.129
 9928SOL     OW30682   4.931   4.387   2.376
 9928SOL    HW130683   4.885   4.300   2.388
 9928SOL    HW230684   4.944   4.405   2.278
 9929SOL     OW30685   0.836   3.844   3.522
 9929SOL    HW130686   0.834   3.774   3.450
 9929SOL    HW230687   0.840   3.800   3.611
 9930SOL     OW30688   5.524   1.122   2.849
 9930SOL    HW130689   5.492   1.212   2.819
 9930SOL    HW230690   5.464   1.051   2.812
 9931SOL     OW30691   1.356   5.367   5.206
 9931SOL    HW130692   1.393   5.274   5.214
 9931SOL    HW230693   1.404   5.428   5.268
 9932SOL     OW30694   0.381   6.002   4.479
 9932SOL    HW130695   0.310   5.933   4.462
 9932SOL    HW230696   0.370   6.078   4.415
 9933SOL     OW30697   6.364   6.989   3.092
 9933SOL    HW130698   6.294   0.022   3.049
 9933SOL    HW230699   6.343   6.892   3.076
 9934SOL     OW30700   0.311   2.844   5.007
 9934SOL    HW130701   0.406   2.864   4.986
 9934SOL    HW230702   0.251   2.900   4.949
 9935SOL     OW30703   1.653   6.945   6.092
 9935SOL    HW130704   1.671   0.006   6.042
 9935SOL    HW230705   1.575   6.899   6.050
 9936SOL     OW30706   2.080   3.845   3.476
 9936SOL    HW130707   2.092   3.746   3.478
 9936SOL    HW230708   2.147   3.888   3.537
 9937SOL     OW30709   6.687   3.370   5.773
 9937SOL    HW130710   6.676   3.372   5.873
 9937SOL    HW230711   6.607   3.412   5.730
 9938SOL     OW30712   6.308   6.015   2.542
 9938SOL    HW130713   6.377   5.943   2.535
 9938SOL    HW230714   6.349   6.103   2.518
 9939SOL     OW30715   3.421   2.938   3.704
 9939SOL    HW130716   3.450   2.906   3.614
 9939SOL    HW230717   3.338   2.994   3.695
 9940SOL     OW30718   0.216   1.275   1.358
 9940SOL    HW130719   0.197   1.372   1.374
 9940SOL    HW230720   0.170   1.220   1.428
 9941SOL     OW30721   3.575   5.783   5.409
 9941SOL    HW130722   3.589   5.828   5.321
 9941SOL    HW230723   3.558   5.686   5.395
 9942SOL     OW30724   2.759   5.851   3.937
 9942SOL    HW130725   2.819   5.927   3.963
 9942SOL    HW230726   2.794   5.808   3.853
 9943SOL     OW30727   0.484   6.253   4.699
 9943SOL    HW130728   0.511   6.331   4.755
 9943SOL    HW230729   0.548   6.243   4.623
 9944SOL     OW30730   1.729   4.527   5.674
 9944SOL    HW130731   1.764   4.436   5.697
 9944SOL    HW230732   1.795   4.575   5.616
 9945SOL     OW30733   0.067   5.951   6.747
 9945SOL    HW130734   0.001   5.950   6.672
 9945SOL    HW230735   0.146   5.894   6.723
 9946SOL     OW30736   5.218   0.580   3.325
 9946SOL    HW130737   5.193   0.596   3.230
 9946SOL    HW230738   5.317   0.568   3.332
 9947SOL     OW30739   6.031   4.553   3.249
 9947SOL    HW130740   6.110   4.505   3.286
 9947SOL    HW230741   5.965   4.487   3.212
 9948SOL     OW30742   5.144   4.266   3.333
 9948SOL    HW130743   5.210   4.204   3.376
 9948SOL    HW230744   5.163   4.360   3.361
 9949SOL     OW30745   5.419   4.885   1.975
 9949SOL    HW130746   5.504   4.836   1.957
 9949SOL    HW230747   5.381   4.856   2.063
 9950SOL     OW30748   3.439   0.086   0.222
 9950SOL    HW130749   3.516   0.050   0.170
 9950SOL    HW230750   3.455   0.071   0.320
 9951SOL     OW30751   5.581   3.083   2.600
 9951SOL    HW130752   5.555   3.174   2.570
 9951SOL    HW230753   5.525   3.055   2.677
 9952SOL     OW30754   1.065   4.950   6.249
 9952SOL    HW130755   1.027   4.985   6.335
 9952SOL    HW230756   1.026   5.000   6.172
 9953SOL     OW30757   5.660   3.675   3.686
 9953SOL    HW130758   5.749   3.666   3.729
 9953SOL    HW230759   5.612   3.587   3.690
 9954SOL     OW30760   5.333   0.775   4.692
 9954SOL    HW130761   5.241   0.756   4.657
 9954SOL    HW230762   5.329   0.781   4.792
 9955SOL     OW30763   0.651   4.615   4.928
 9955SOL    HW130764   0.719   4.654   4.865
 9955SOL    HW230765   0.618   4.528   4.891
 9956SOL     OW30766   0.948   5.808   0.124
 9956SOL    HW130767   1.033   5.818   0.073
 9956SOL    HW230768   0.910   5.899   0.144
 9957SOL     OW30769   6.139   5.909   2.318
 9957SOL    HW130770   6.045   5.884   2.340
 9957SOL    HW230771   6.175   5.969   2.390
 9958SOL     OW30772   2.450   4.616   1.011
 9958SOL    HW130773   2.366   4.666   1.036
 9958SOL    HW230774   2.522   4.682   0.987
 9959SOL     OW30775   3.890   4.174   0.978
 9959SOL    HW130776   3.850   4.155   0.888
 9959SOL    HW230777   3.901   4.272   0.989
 9960SOL     OW30778   6.875   0.999   1.629
 9960SOL    HW130779   6.839   0.964   1.715
 9960SOL    HW230780   6.881   0.925   1.562
 9961SOL     OW30781   1.606   4.228   4.785
 9961SOL    HW130782   1.641   4.234   4.691
 9961SOL    HW230783   1.671   4.176   4.841
 9962SOL     OW30784   6.294   6.409   4.411
 9962SOL    HW130785   6.198   6.429   4.432
 9962SOL    HW230786   6.308   6.412   4.313
 9963SOL     OW30787   3.644   2.436   0.190
 9963SOL    HW130788   3.679   2.398   0.276
 9963SOL    HW230789   3.659   2.535   0.188
 9964SOL     OW30790   5.326   6.354   4.378
 9964SOL    HW130791   5.248   6.301   4.409
 9964SOL    HW230792   5.388   6.296   4.325
 9965SOL     OW30793   4.521   0.247   1.756
 9965SOL    HW130794   4.570   0.163   1.731
 9965SOL    HW230795   4.431   0.247   1.712
 9966SOL     OW30796   6.365   1.436   2.185
 9966SOL    HW130797   6.314   1.399   2.262
 9966SOL    HW230798   6.378   1.365   2.116
 9967SOL     OW30799   1.175   5.559   0.725
 9967SOL    HW130800   1.172   5.463   0.698
 9967SOL    HW230801   1.228   5.611   0.658
 9968SOL     OW30802   3.375   2.892   2.968
 9968SOL    HW130803   3.399   2.821   2.902
 9968SOL    HW230804   3.294   2.941   2.936
 9969SOL     OW30805   1.404   3.103   1.315
 9969SOL    HW130806   1.412   3.186   1.370
 9969SOL    HW230807   1.412   3.023   1.373
 9970SOL     OW30808   6.767   4.293   3.098
 9970SOL    HW130809   6.840   4.281   3.031
 9970SOL    HW230810   6.807   4.324   3.184
 9971SOL     OW30811   3.549   6.646   6.563
 9971SOL    HW130812   3.559   6.733   6.611
 9971SOL    HW230813   3.617   6.581   6.596
 9972SOL     OW30814   0.285   4.700   1.669
 9972SOL    HW130815   0.239   4.713   1.581
 9972SOL    HW230816   0.242   4.623   1.717
 9973SOL     OW30817   4.891   6.415   3.777
 9973SOL    HW130818   4.860   6.328   3.739
 9973SOL    HW230819   4.923   6.400   3.871
 9974SOL     OW30820   3.131   0.919   4.250
 9974SOL    HW130821   3.190   0.962   4.182
 9974SOL    HW230822   3.050   0.882   4.206
 9975SOL     OW30823   6.475   3.541   1.845
 9975SOL    HW130824   6.450   3.477   1.917
 9975SOL    HW230825   6.543   3.499   1.785
 9976SOL     OW30826   3.451   6.670   4.600
 9976SOL    HW130827   3.403   6.758   4.590
 9976SOL    HW230828   3.446   6.620   4.514
 9977SOL     OW30829   7.022   5.070   3.954
 9977SOL    HW130830   0.080   5.120   3.925
 9977SOL    HW230831   6.968   5.127   4.016
 9978SOL     OW30832   0.247   3.032   4.222
 9978SOL    HW130833   0.238   3.101   4.151
 9978SOL    HW230834   0.299   2.954   4.186
 9979SOL     OW30835   0.735   3.272   5.277
 9979SOL    HW130836   0.777   3.310   5.358
 9979SOL    HW230837   0.735   3.340   5.204
 9980SOL     OW30838   2.952   0.213   5.809
 9980SOL    HW130839   3.031   0.166   5.771
 9980SOL    HW230840   2.873   0.151   5.809
 9981SOL     OW30841   3.279   1.395   3.122
 9981SOL    HW130842   3.211   1.468   3.118
 9981SOL    HW230843   3.244   1.319   3.175
 9982SOL     OW30844   5.911   0.386   2.879
 9982SOL    HW130845   5.917   0.432   2.790
 9982SOL    HW230846   5.817   0.391   2.912
 9983SOL     OW30847   6.596   0.611   0.582
 9983SOL    HW130848   6.638   0.701   0.571
 9983SOL    HW230849   6.624   0.552   0.507
 9984SOL     OW30850   3.069   0.683   0.180
 9984SOL    HW130851   3.113   0.763   0.139
 9984SOL    HW230852   3.087   0.602   0.124
 9985SOL     OW30853   1.217   1.856   0.902
 9985SOL    HW130854   1.223   1.914   0.983
 9985SOL    HW230855   1.152   1.782   0.919
 9986SOL     OW30856   5.644   4.311   5.022
 9986SOL    HW130857   5.585   4.240   5.061
 9986SOL    HW230858   5.722   4.268   4.976
 9987SOL     OW30859   0.183   4.424   4.941
 9987SOL    HW130860   0.147   4.346   4.890
 9987SOL    HW230861   0.140   4.428   5.031
 9988SOL     OW30862   6.043   1.508   4.117
 9988SOL    HW130863   6.075   1.514   4.212
 9988SOL    HW230864   5.999   1.420   4.103
 9989SOL     OW30865   1.663   2.545   5.098
 9989SOL    HW130866   1.727   2.586   5.163
 9989SOL    HW230867   1.652   2.448   5.118
 9990SOL     OW30868   1.122   4.698   0.945
 9990SOL    HW130869   1.119   4.773   1.011
 9990SOL    HW230870   1.194   4.634   0.971
 9991SOL     OW30871   3.688   2.118   4.024
 9991SOL    HW130872   3.730   2.109   3.933
 9991SOL    HW230873   3.594   2.084   4.021
 9992SOL     OW30874   0.099   4.951   6.630
 9992SOL    HW130875   0.005   4.963   6.663
 9992SOL    HW230876   0.103   4.975   6.533
 9993SOL     OW30877   1.090   1.251   1.766
 9993SOL    HW130878   1.121   1.237   1.672
 9993SOL    HW230879   1.145   1.323   1.808
 9994SOL     OW30880   5.754   4.032   3.109
 9994SOL    HW130881   5.681   4.087   3.150
 9994SOL    HW230882   5.727   3.936   3.109
 9995SOL     OW30883   5.569   1.991   4.567
 9995SOL    HW130884   5.639   1.958   4.631
 9995SOL    HW230885   5.518   2.066   4.609
 9996SOL     OW30886   2.853   2.909   1.411
 9996SOL    HW130887   2.937   2.934   1.459
 9996SOL    HW230888   2.787   2.873   1.476
 9997SOL     OW30889   2.960   0.925   4.609
 9997SOL    HW130890   2.937   0.844   4.555
 9997SOL    HW230891   2.925   1.007   4.563
 9998SOL     OW30892   6.404   5.792   5.482
 9998SOL    HW130893   6.416   5.875   5.535
 9998SOL    HW230894   6.489   5.769   5.435
 9999SOL     OW30895   0.267   0.704   5.407
 9999SOL    HW130896   0.304   0.754   5.485
 9999SOL    HW230897   0.193   0.644   5.438
10000SOL     OW30898   6.762   4.796   0.853
10000SOL    HW130899   6.725   4.774   0.762
10000SOL    HW230900   6.772   4.711   0.906
10001SOL     OW30901   3.717   1.064   3.783
10001SOL    HW130902   3.649   1.043   3.854
10001SOL    HW230903   3.710   0.996   3.709
10002SOL     OW30904   0.921   1.893   2.132
10002SOL    HW130905   0.931   1.830   2.055
10002SOL    HW230906   1.006   1.945   2.143
10003SOL     OW30907   5.444   3.687   1.318
10003SOL    HW130908   5.480   3.604   1.361
10003SOL    HW230909   5.348   3.674   1.293
10004SOL     OW30910   6.206   3.424   4.330
10004SOL    HW130911   6.195   3.522   4.314
10004SOL    HW230912   6.303   3.401   4.331
10005SOL     OW30913   4.734   0.086   2.975
10005SOL    HW130914   4.666   0.140   2.925
10005SOL    HW230915   4.723   0.102   3.073
10006SOL     OW30916   5.165   2.969   3.986
10006SOL    HW130917   5.076   2.933   4.012
10006SOL    HW230918   5.195   2.928   3.900
10007SOL     OW30919   5.162   5.950   4.371
10007SOL    HW130920   5.224   5.903   4.309
10007SOL    HW230921   5.081   5.893   4.387
10008SOL     OW30922   2.754   6.404   4.207
10008SOL    HW130923   2.773   6.335   4.137
10008SOL    HW230924   2.812   6.484   4.192
10009SOL     OW30925   2.367   4.318   1.627
10009SOL    HW130926   2.386   4.276   1.715
10009SOL    HW230927   2.434   4.390   1.609
10010SOL     OW30928   5.777   0.657   4.824
10010SOL    HW130929   5.800   0.728   4.758
10010SOL    HW230930   5.718   0.695   4.895
10011SOL     OW30931   6.129   6.686   3.227
10011SOL    HW130932   6.158   6.697   3.322
10011SOL    HW230933   6.062   6.756   3.205
10012SOL     OW30934   4.620   1.909   5.286
10012SOL    HW130935   4.611   1.957   5.199
10012SOL    HW230936   4.548   1.840   5.294
10013SOL     OW30937   1.850   0.617   0.954
10013SOL    HW130938   1.780   0.555   0.991
10013SOL    HW230939   1.888   0.671   1.029
10014SOL     OW30940   1.355   5.081   5.961
10014SOL    HW130941   1.407   5.162   5.991
10014SOL    HW230942   1.370   5.067   5.863
10015SOL     OW30943   2.577   6.310   6.165
10015SOL    HW130944   2.564   6.379   6.237
10015SOL    HW230945   2.674   6.290   6.156
10016SOL     OW30946   3.080   1.497   5.384
10016SOL    HW130947   3.138   1.566   5.427
10016SOL    HW230948   3.136   1.435   5.329
10017SOL     OW30949   6.293   2.260   2.934
10017SOL    HW130950   6.273   2.168   2.967
10017SOL    HW230951   6.247   2.327   2.992
10018SOL     OW30952   4.465   7.009   5.439
10018SOL    HW130953   4.553   6.963   5.448
10018SOL    HW230954   4.402   6.951   5.387
10019SOL     OW30955   0.462   0.559   3.541
10019SOL    HW130956   0.554   0.563   3.502
10019SOL    HW230957   0.417   0.474   3.513
10020SOL     OW30958   0.846   3.674   0.504
10020SOL    HW130959   0.839   3.749   0.570
10020SOL    HW230960   0.932   3.683   0.453
10021SOL     OW30961   4.887   3.020   0.589
10021SOL    HW130962   4.984   3.037   0.572
10021SOL    HW230963   4.839   3.014   0.502
10022SOL     OW30964   2.348   1.502   5.920
10022SOL    HW130965   2.416   1.450   5.869
10022SOL    HW230966   2.256   1.468   5.898
10023SOL     OW30967   0.838   3.164   0.530
10023SOL    HW130968   0.811   3.225   0.456
10023SOL    HW230969   0.802   3.198   0.617
10024SOL     OW30970   0.661   3.940   2.591
10024SOL    HW130971   0.566   3.953   2.564
10024SOL    HW230972   0.717   4.015   2.555
10025SOL     OW30973   1.024   1.416   0.586
10025SOL    HW130974   1.048   1.505   0.626
10025SOL    HW230975   0.966   1.431   0.506
10026SOL     OW30976   6.203   0.553   4.117
10026SOL    HW130977   6.164   0.643   4.096
10026SOL    HW230978   6.192   0.533   4.214
10027SOL     OW30979   0.011   2.912   5.643
10027SOL    HW130980   0.035   2.916   5.546
10027SOL    HW230981   0.092   2.887   5.696
10028SOL     OW30982   1.337   1.444   0.605
10028SOL    HW130983   1.389   1.446   0.520
10028SOL    HW230984   1.239   1.434   0.585
10029SOL     OW30985   3.998   1.262   4.979
10029SOL    HW130986   4.019   1.262   4.882
10029SOL    HW230987   3.900   1.246   4.992
10030SOL     OW30988   0.732   0.954   1.761
10030SOL    HW130989   0.832   0.941   1.765
10030SOL    HW230990   0.708   1.037   1.810
10031SOL     OW30991   7.001   5.386   3.160
10031SOL    HW130992   7.022   5.322   3.086
10031SOL    HW230993   0.005   5.347   3.248
10032SOL     OW30994   3.843   2.244   5.275
10032SOL    HW130995   3.928   2.282   5.311
10032SOL    HW230996   3.861   2.194   5.191
10033SOL     OW30997   6.126   2.895   4.382
10033SOL    HW130998   6.211   2.948   4.378
10033SOL    HW230999   6.059   2.945   4.437
10034SOL     OW31000   4.316   6.795   5.670
10034SOL    HW131001   4.287   6.708   5.710
10034SOL    HW231002   4.294   6.794   5.572
10035SOL     OW31003   0.140   5.891   4.169
10035SOL    HW131004   0.146   5.857   4.262
10035SOL    HW231005   0.044   5.907   4.146
10036SOL     OW31006   6.469   6.938   0.170
10036SOL    HW131007   6.553   6.909   0.215
10036SOL    HW231008   6.451   6.879   0.091
10037SOL     OW31009   0.051   0.331   1.455
10037SOL    HW131010   0.076   0.344   1.551
10037SOL    HW231011   0.121   0.275   1.410
10038SOL     OW31012   5.191   6.585   1.524
10038SOL    HW131013   5.183   6.618   1.430
10038SOL    HW231014   5.160   6.490   1.529
10039SOL     OW31015   3.488   0.916   3.209
10039SOL    HW131016   3.395   0.926   3.172
10039SOL    HW231017   3.484   0.860   3.292
10040SOL     OW31018   0.369   2.001   0.608
10040SOL    HW131019   0.390   1.916   0.657
10040SOL    HW231020   0.416   2.000   0.520
10041SOL     OW31021   0.461   6.908   0.190
10041SOL    HW131022   0.517   6.910   0.273
10041SOL    HW231023   0.517   6.883   0.112
10042SOL     OW31024   6.412   1.525   3.676
10042SOL    HW131025   6.398   1.624   3.680
10042SOL    HW231026   6.449   1.500   3.586
10043SOL     OW31027   2.435   3.185   5.389
10043SOL    HW131028   2.465   3.276   5.359
10043SOL    HW231029   2.467   3.116   5.324
10044SOL     OW31030   4.008   0.550   6.070
10044SOL    HW131031   3.949   0.598   6.004
10044SOL    HW231032   4.028   0.458   6.036
10045SOL     OW31033   2.361   6.922   1.083
10045SOL    HW131034   2.392   7.015   1.065
10045SOL    HW231035   2.262   6.923   1.100
10046SOL     OW31036   0.739   6.616   0.310
10046SOL    HW131037   0.739   6.551   0.234
10046SOL    HW231038   0.645   6.627   0.344
10047SOL     OW31039   1.702   3.916   1.192
10047SOL    HW131040   1.719   3.844   1.124
10047SOL    HW231041   1.701   3.876   1.284
10048SOL     OW31042   6.437   3.049   1.042
10048SOL    HW131043   6.374   2.976   1.068
10048SOL    HW231044   6.387   3.122   0.995
10049SOL     OW31045   6.834   2.272   4.638
10049SOL    HW131046   6.865   2.190   4.589
10049SOL    HW231047   6.757   2.313   4.590
10050SOL     OW31048   0.615   1.976   5.783
10050SOL    HW131049   0.690   1.983   5.848
10050SOL    HW231050   0.591   2.067   5.749
10051SOL     OW31051   1.180   0.578   2.433
10051SOL    HW131052   1.174   0.507   2.363
10051SOL    HW231053   1.173   0.668   2.390
10052SOL     OW31054   0.395   0.327   4.386
10052SOL    HW131055   0.379   0.260   4.314
10052SOL    HW231056   0.476   0.381   4.365
10053SOL     OW31057   5.845   6.013   1.961
10053SOL    HW131058   5.909   6.089   1.979
10053SOL    HW231059   5.869   5.970   1.874
10054SOL     OW31060   4.895   4.655   3.290
10054SOL    HW131061   4.835   4.677   3.212
10054SOL    HW231062   4.879   4.561   3.319
10055SOL     OW31063   2.161   1.821   6.527
10055SOL    HW131064   2.069   1.852   6.506
10055SOL    HW231065   2.227   1.890   6.500
10056SOL     OW31066   5.499   3.487   4.847
10056SOL    HW131067   5.573   3.545   4.812
10056SOL    HW231068   5.538   3.402   4.883
10057SOL     OW31069   6.020   4.847   4.957
10057SOL    HW131070   6.035   4.891   5.046
10057SOL    HW231071   6.079   4.888   4.888
10058SOL     OW31072   5.561   3.949   4.203
10058SOL    HW131073   5.638   3.887   4.215
10058SOL    HW231074   5.506   3.919   4.126
10059SOL     OW31075   5.104   6.074   5.737
10059SOL    HW131076   5.141   6.035   5.653
10059SOL    HW231077   5.157   6.042   5.815
10060SOL     OW31078   2.902   1.109   1.592
10060SOL    HW131079   2.815   1.081   1.631
10060SOL    HW231080   2.906   1.209   1.588
10061SOL     OW31081   3.465   0.093   3.045
10061SOL    HW131082   3.505   0.094   3.137
10061SOL    HW231083   3.509   0.164   2.989
10062SOL     OW31084   5.944   6.591   4.007
10062SOL    HW131085   5.971   6.495   3.997
10062SOL    HW231086   6.014   6.640   4.058
10063SOL     OW31087   4.451   2.386   2.680
10063SOL    HW131088   4.519   2.431   2.623
10063SOL    HW231089   4.365   2.379   2.630
10064SOL     OW31090   1.491   6.381   2.875
10064SOL    HW131091   1.483   6.380   2.975
10064SOL    HW231092   1.540   6.300   2.844
10065SOL     OW31093   6.549   1.951   1.267
10065SOL    HW131094   6.473   1.907   1.220
10065SOL    HW231095   6.564   2.043   1.229
10066SOL     OW31096   5.601   4.107   3.543
10066SOL    HW131097   5.622   4.148   3.632
10066SOL    HW231098   5.669   4.137   3.476
10067SOL     OW31099   5.572   3.111   5.159
10067SOL    HW131100   5.512   3.036   5.132
10067SOL    HW231101   5.548   3.144   5.250
10068SOL     OW31102   2.384   4.394   2.795
10068SOL    HW131103   2.440   4.472   2.821
10068SOL    HW231104   2.324   4.420   2.719
10069SOL     OW31105   3.262   5.208   1.096
10069SOL    HW131106   3.262   5.111   1.120
10069SOL    HW231107   3.335   5.227   1.030
10070SOL     OW31108   5.635   0.499   6.454
10070SOL    HW131109   5.542   0.473   6.480
10070SOL    HW231110   5.662   0.582   6.503
10071SOL     OW31111   5.092   1.618   4.201
10071SOL    HW131112   5.121   1.596   4.294
10071SOL    HW231113   5.058   1.712   4.198
10072SOL     OW31114   6.068   2.954   1.447
10072SOL    HW131115   6.126   2.873   1.434
10072SOL    HW231116   6.104   3.008   1.523
10073SOL     OW31117   5.699   4.973   5.160
10073SOL    HW131118   5.615   4.976   5.213
10073SOL    HW231119   5.765   4.912   5.204
10074SOL     OW31120   2.232   4.703   1.664
10074SOL    HW131121   2.181   4.628   1.706
10074SOL    HW231122   2.168   4.770   1.625
10075SOL     OW31123   0.669   3.900   1.275
10075SOL    HW131124   0.692   3.808   1.244
10075SOL    HW231125   0.637   3.954   1.197
10076SOL     OW31126   5.993   4.574   4.014
10076SOL    HW131127   6.068   4.590   3.949
10076SOL    HW231128   5.910   4.618   3.981
10077SOL     OW31129   4.566   4.417   6.743
10077SOL    HW131130   4.594   4.414   6.647
10077SOL    HW231131   4.489   4.354   6.757
10078SOL     OW31132   6.015   6.352   3.901
10078SOL    HW131133   5.973   6.272   3.944
10078SOL    HW231134   6.034   6.332   3.805
10079SOL     OW31135   5.884   5.426   3.860
10079SOL    HW131136   5.946   5.399   3.934
10079SOL    HW231137   5.894   5.524   3.843
10080SOL     OW31138   4.814   3.075   4.014
10080SOL    HW131139   4.770   2.991   4.047
10080SOL    HW231140   4.833   3.066   3.916
10081SOL     OW31141   1.795   5.310   0.609
10081SOL    HW131142   1.759   5.322   0.517
10081SOL    HW231143   1.784   5.395   0.661
10082SOL     OW31144   6.790   4.008   1.784
10082SOL    HW131145   6.694   3.998   1.762
10082SOL    HW231146   6.819   3.934   1.845
10083SOL     OW31147   3.303   5.118   2.914
10083SOL    HW131148   3.384   5.168   2.885
10083SOL    HW231149   3.317   5.020   2.901
10084SOL     OW31150   2.136   4.019   4.406
10084SOL    HW131151   2.081   3.990   4.485
10084SOL    HW231152   2.192   4.098   4.432
10085SOL     OW31153   2.997   6.307   1.742
10085SOL    HW131154   3.015   6.213   1.771
10085SOL    HW231155   3.025   6.318   1.647
10086SOL     OW31156   2.719   0.936   2.768
10086SOL    HW131157   2.684   1.020   2.727
10086SOL    HW231158   2.808   0.914   2.729
10087SOL     OW31159   2.023   5.719   6.957
10087SOL    HW131160   1.948   5.785   6.966
10087SOL    HW231161   2.062   5.725   6.865
10088SOL     OW31162   5.218   2.030   1.178
10088SOL    HW131163   5.129   1.987   1.167
10088SOL    HW231164   5.245   2.073   1.091
10089SOL     OW31165   3.314   0.144   3.705
10089SOL    HW131166   3.316   0.147   3.805
10089SOL    HW231167   3.291   0.235   3.670
10090SOL     OW31168   3.185   5.889   3.713
10090SOL    HW131169   3.256   5.912   3.780
10090SOL    HW231170   3.228   5.850   3.631
10091SOL     OW31171   4.579   6.479   3.053
10091SOL    HW131172   4.634   6.401   3.084
10091SOL    HW231173   4.581   6.551   3.123
10092SOL     OW31174   6.158   0.777   2.031
10092SOL    HW131175   6.100   0.697   2.013
10092SOL    HW231176   6.174   0.785   2.130
10093SOL     OW31177   4.398   4.246   6.499
10093SOL    HW131178   4.432   4.320   6.441
10093SOL    HW231179   4.424   4.158   6.460
10094SOL     OW31180   4.274   3.311   0.157
10094SOL    HW131181   4.258   3.362   0.072
10094SOL    HW231182   4.229   3.357   0.233
10095SOL     OW31183   4.172   2.655   5.454
10095SOL    HW131184   4.167   2.662   5.355
10095SOL    HW231185   4.081   2.640   5.492
10096SOL     OW31186   6.227   4.731   1.492
10096SOL    HW131187   6.138   4.771   1.517
10096SOL    HW231188   6.220   4.631   1.496
10097SOL     OW31189   0.671   0.392   0.895
10097SOL    HW131190   0.736   0.355   0.961
10097SOL    HW231191   0.721   0.427   0.816
10098SOL     OW31192   3.798   4.760   0.858
10098SOL    HW131193   3.764   4.675   0.818
10098SOL    HW231194   3.884   4.742   0.906
10099SOL     OW31195   6.708   6.301   3.005
10099SOL    HW131196   6.698   6.384   3.059
10099SOL    HW231197   6.744   6.324   2.914
10100SOL     OW31198   5.821   5.822   4.334
10100SOL    HW131199   5.811   5.889   4.260
10100SOL    HW231200   5.785   5.860   4.419
10101SOL     OW31201   6.892   2.542   6.014
10101SOL    HW131202   6.822   2.479   5.982
10101SOL    HW231203   6.982   2.513   5.980
10102SOL     OW31204   0.210   5.031   4.257
10102SOL    HW131205   0.138   5.047   4.325
10102SOL    HW231206   0.249   5.119   4.229
10103SOL     OW31207   0.818   0.340   6.665
10103SOL    HW131208   0.818   0.303   6.758
10103SOL    HW231209   0.724   0.339   6.629
10104SOL     OW31210   2.988   1.710   4.607
10104SOL    HW131211   3.085   1.726   4.590
10104SOL    HW231212   2.978   1.623   4.656
10105SOL     OW31213   3.259   1.202   4.460
10105SOL    HW131214   3.238   1.261   4.539
10105SOL    HW231215   3.283   1.111   4.492
10106SOL     OW31216   0.036   3.098   1.834
10106SOL    HW131217   0.119   3.133   1.791
10106SOL    HW231218   7.002   3.055   1.764
10107SOL     OW31219   4.417   5.868   5.031
10107SOL    HW131220   4.431   5.792   5.094
10107SOL    HW231221   4.416   5.954   5.082
10108SOL     OW31222   3.043   2.195   4.598
10108SOL    HW131223   3.126   2.190   4.654
10108SOL    HW231224   2.963   2.180   4.657
10109SOL     OW31225   1.094   2.764   0.515
10109SOL    HW131226   1.191   2.741   0.519
10109SOL    HW231227   1.083   2.861   0.493
10110SOL     OW31228   6.262   6.203   1.751
10110SOL    HW131229   6.324   6.219   1.828
10110SOL    HW231230   6.238   6.290   1.709
10111SOL     OW31231   0.016   2.422   0.777
10111SOL    HW131232   0.001   2.391   0.682
10111SOL    HW231233   7.018   2.519   0.784
10112SOL     OW31234   0.372   3.119   2.811
10112SOL    HW131235   0.387   3.021   2.825
10112SOL    HW231236   0.458   3.161   2.782
10113SOL     OW31237   0.208   6.364   6.140
10113SOL    HW131238   0.250   6.295   6.081
10113SOL    HW231239   0.212   6.453   6.095
10114SOL     OW31240   5.502   4.041   1.728
10114SOL    HW131241   5.433   4.082   1.788
10114SOL    HW231242   5.548   3.966   1.775
10115SOL     OW31243   2.394   1.304   6.660
10115SOL    HW131244   2.466   1.370   6.639
10115SOL    HW231245   2.426   1.211   6.639
10116SOL     OW31246   1.461   7.009   6.303
10116SOL    HW131247   1.506   6.961   6.227
10116SOL    HW231248   1.387   6.952   6.339
10117SOL     OW31249   0.662   4.375   0.764
10117SOL    HW131250   0.673   4.364   0.665
10117SOL    HW231251   0.693   4.466   0.792
10118SOL     OW31252   4.255   5.762   3.503
10118SOL    HW131253   4.217   5.787   3.414
10118SOL    HW231254   4.262   5.663   3.511
10119SOL     OW31255   5.962   5.713   6.953
10119SOL    HW131256   6.005   5.795   6.917
10119SOL    HW231257   5.942   5.726   0.026
10120SOL     OW31258   2.339   1.982   2.446
10120SOL    HW131259   2.283   2.041   2.387
10120SOL    HW231260   2.408   2.037   2.492
10121SOL     OW31261   6.801   6.307   1.659
10121SOL    HW131262   6.733   6.237   1.680
10121SOL    HW231263   6.760   6.376   1.599
10122SOL     OW31264   1.820   0.052   3.733
10122SOL    HW131265   1.901   0.040   3.675
10122SOL    HW231266   1.738   0.056   3.675
10123SOL     OW31267   6.170   5.996   6.623
10123SOL    HW131268   6.209   5.955   6.541
10123SOL    HW231269   6.075   6.020   6.606
10124SOL     OW31270   0.400   4.834   3.547
10124SOL    HW131271   0.362   4.755   3.499
10124SOL    HW231272   0.416   4.811   3.643
10125SOL     OW31273   2.355   2.680   3.920
10125SOL    HW131274   2.364   2.617   3.843
10125SOL    HW231275   2.331   2.771   3.886
10126SOL     OW31276   6.931   6.123   4.158
10126SOL    HW131277   6.864   6.141   4.230
10126SOL    HW231278   7.016   6.173   4.177
10127SOL     OW31279   2.213   0.825   5.404
10127SOL    HW131280   2.304   0.785   5.415
10127SOL    HW231281   2.187   0.872   5.488
10128SOL     OW31282   2.931   0.235   0.629
10128SOL    HW131283   2.911   0.147   0.672
10128SOL    HW231284   2.867   0.250   0.553
10129SOL     OW31285   6.843   2.465   5.637
10129SOL    HW131286   6.777   2.414   5.693
10129SOL    HW231287   6.883   2.538   5.692
10130SOL     OW31288   0.263   2.669   3.336
10130SOL    HW131289   0.306   2.589   3.294
10130SOL    HW231290   0.327   2.712   3.400
10131SOL     OW31291   2.789   0.485   5.055
10131SOL    HW131292   2.873   0.509   5.104
10131SOL    HW231293   2.767   0.556   4.989
10132SOL     OW31294   5.944   0.979   1.308
10132SOL    HW131295   5.941   1.003   1.211
10132SOL    HW231296   6.010   0.906   1.323
10133SOL     OW31297   4.637   5.154   0.702
10133SOL    HW131298   4.719   5.154   0.760
10133SOL    HW231299   4.571   5.220   0.738
10134SOL     OW31300   5.925   1.418   3.027
10134SOL    HW131301   5.860   1.420   2.951
10134SOL    HW231302   5.875   1.410   3.113
10135SOL     OW31303   5.628   6.514   3.228
10135SOL    HW131304   5.632   6.613   3.216
10135SOL    HW231305   5.702   6.484   3.288
10136SOL     OW31306   4.945   6.884   3.170
10136SOL    HW131307   4.999   6.968   3.167
10136SOL    HW231308   4.872   6.889   3.101
10137SOL     OW31309   6.007   6.497   2.279
10137SOL    HW131310   5.962   6.492   2.190
10137SOL    HW231311   5.969   6.428   2.340
10138SOL     OW31312   0.264   1.142   1.795
10138SOL    HW131313   0.207   1.146   1.713
10138SOL    HW231314   0.232   1.067   1.854
10139SOL     OW31315   4.473   1.997   0.247
10139SOL    HW131316   4.513   1.953   0.167
10139SOL    HW231317   4.409   1.934   0.291
10140SOL     OW31318   6.188   6.380   3.326
10140SOL    HW131319   6.183   6.297   3.271
10140SOL    HW231320   6.174   6.460   3.267
10141SOL     OW31321   0.328   1.872   5.221
10141SOL    HW131322   0.323   1.828   5.310
10141SOL    HW231323   0.276   1.818   5.154
10142SOL     OW31324   4.304   5.554   1.100
10142SOL    HW131325   4.394   5.599   1.095
10142SOL    HW231326   4.311   5.462   1.063
10143SOL     OW31327   1.023   3.066   6.256
10143SOL    HW131328   1.044   2.979   6.213
10143SOL    HW231329   0.928   3.065   6.289
10144SOL     OW31330   4.645   0.162   2.537
10144SOL    HW131331   4.682   0.167   2.630
10144SOL    HW231332   4.545   0.168   2.541
10145SOL     OW31333   6.036   1.069   4.884
10145SOL    HW131334   6.001   1.150   4.836
10145SOL    HW231335   6.034   1.085   4.982
10146SOL     OW31336   2.107   1.008   5.631
10146SOL    HW131337   2.148   1.089   5.672
10146SOL    HW231338   2.022   1.032   5.585
10147SOL     OW31339   4.184   4.889   6.415
10147SOL    HW131340   4.127   4.916   6.493
10147SOL    HW231341   4.126   4.876   6.334
10148SOL     OW31342   6.602   5.724   6.382
10148SOL    HW131343   6.573   5.649   6.323
10148SOL    HW231344   6.661   5.689   6.454
10149SOL     OW31345   3.165   3.245   4.684
10149SOL    HW131346   3.103   3.324   4.686
10149SOL    HW231347   3.241   3.264   4.622
10150SOL     OW31348   6.532   4.210   0.002
10150SOL    HW131349   6.548   4.291   0.058
10150SOL    HW231350   6.448   4.164   0.032
10151SOL     OW31351   0.505   0.201   6.824
10151SOL    HW131352   0.532   0.235   6.734
10151SOL    HW231353   0.409   0.172   6.822
10152SOL     OW31354   3.267   6.767   3.839
10152SOL    HW131355   3.358   6.769   3.796
10152SOL    HW231356   3.199   6.736   3.772
10153SOL     OW31357   3.185   4.406   0.160
10153SOL    HW131358   3.251   4.337   0.131
10153SOL    HW231359   3.098   4.392   0.112
10154SOL     OW31360   4.461   4.824   6.172
10154SOL    HW131361   4.462   4.875   6.258
10154SOL    HW231362   4.385   4.759   6.174
10155SOL     OW31363   4.740   2.890   4.620
10155SOL    HW131364   4.734   2.809   4.678
10155SOL    HW231365   4.654   2.941   4.625
10156SOL     OW31366   3.079   2.022   6.673
10156SOL    HW131367   3.157   2.085   6.684
10156SOL    HW231368   3.072   1.964   6.754
10157SOL     OW31369   0.271   5.390   2.774
10157SOL    HW131370   0.215   5.309   2.789
10157SOL    HW231371   0.213   5.472   2.774
10158SOL     OW31372   0.471   5.271   6.019
10158SOL    HW131373   0.382   5.304   6.050
10158SOL    HW231374   0.477   5.281   5.919
10159SOL     OW31375   4.103   2.779   1.713
10159SOL    HW131376   4.073   2.856   1.770
10159SOL    HW231377   4.199   2.791   1.689
10160SOL     OW31378   6.820   4.509   2.790
10160SOL    HW131379   6.859   4.537   2.702
10160SOL    HW231380   6.891   4.463   2.844
10161SOL     OW31381   6.282   2.974   0.034
10161SOL    HW131382   6.229   2.897   0.001
10161SOL    HW231383   6.243   3.007   0.120
10162SOL     OW31384   1.731   1.833   2.480
10162SOL    HW131385   1.677   1.753   2.458
10162SOL    HW231386   1.800   1.847   2.409
10163SOL     OW31387   4.228   5.637   4.624
10163SOL    HW131388   4.143   5.586   4.641
10163SOL    HW231389   4.301   5.601   4.682
10164SOL     OW31390   0.470   1.308   4.024
10164SOL    HW131391   0.481   1.291   4.122
10164SOL    HW231392   0.374   1.298   3.999
10165SOL     OW31393   1.690   2.716   3.958
10165SOL    HW131394   1.619   2.662   3.913
10165SOL    HW231395   1.755   2.655   4.003
10166SOL     OW31396   3.753   6.327   3.728
10166SOL    HW131397   3.814   6.405   3.713
10166SOL    HW231398   3.698   6.343   3.810
10167SOL     OW31399   3.738   2.268   0.009
10167SOL    HW131400   3.836   2.270   0.028
10167SOL    HW231401   3.690   2.327   0.073
10168SOL     OW31402   0.396   0.650   6.025
10168SOL    HW131403   0.347   0.587   5.965
10168SOL    HW231404   0.488   0.615   6.042
10169SOL     OW31405   4.796   4.945   2.618
10169SOL    HW131406   4.840   4.895   2.693
10169SOL    HW231407   4.863   5.003   2.572
10170SOL     OW31408   4.571   0.024   6.841
10170SOL    HW131409   4.655   0.070   6.870
10170SOL    HW231410   4.584   6.949   6.847
10171SOL     OW31411   0.872   4.987   3.212
10171SOL    HW131412   0.873   5.046   3.131
10171SOL    HW231413   0.962   4.988   3.256
10172SOL     OW31414   0.762   0.301   3.592
10172SOL    HW131415   0.757   0.400   3.601
10172SOL    HW231416   0.809   0.262   3.671
10173SOL     OW31417   4.595   2.614   3.848
10173SOL    HW131418   4.524   2.678   3.878
10173SOL    HW231419   4.671   2.665   3.807
10174SOL     OW31420   4.121   5.809   0.885
10174SOL    HW131421   4.060   5.887   0.871
10174SOL    HW231422   4.209   5.840   0.920
10175SOL     OW31423   6.741   6.819   4.950
10175SOL    HW131424   6.755   6.821   4.851
10175SOL    HW231425   6.787   6.738   4.988
10176SOL     OW31426   7.015   1.460   4.790
10176SOL    HW131427   0.084   1.429   4.806
10176SOL    HW231428   6.965   1.461   4.877
10177SOL     OW31429   2.455   0.811   4.465
10177SOL    HW131430   2.550   0.783   4.482
10177SOL    HW231431   2.454   0.892   4.407
10178SOL     OW31432   5.605   1.097   1.244
10178SOL    HW131433   5.623   1.001   1.268
10178SOL    HW231434   5.544   1.101   1.165
10179SOL     OW31435   6.480   5.619   0.611
10179SOL    HW131436   6.499   5.521   0.602
10179SOL    HW231437   6.382   5.632   0.628
10180SOL     OW31438   2.130   0.738   6.159
10180SOL    HW131439   2.081   0.796   6.094
10180SOL    HW231440   2.220   0.714   6.122
10181SOL     OW31441   6.961   4.217   2.917
10181SOL    HW131442   0.029   4.179   2.929
10181SOL    HW231443   6.930   4.201   2.823
10182SOL     OW31444   3.026   6.794   6.724
10182SOL    HW131445   2.972   6.807   6.641
10182SOL    HW231446   3.099   6.728   6.706
10183SOL     OW31447   3.659   6.513   6.180
10183SOL    HW131448   3.745   6.480   6.220
10183SOL    HW231449   3.586   6.504   6.247
10184SOL     OW31450   5.012   2.796   4.147
10184SOL    HW131451   5.056   2.739   4.077
10184SOL    HW231452   4.913   2.792   4.135
10185SOL     OW31453   2.702   4.683   1.715
10185SOL    HW131454   2.750   4.645   1.794
10185SOL    HW231455   2.627   4.622   1.689
10186SOL     OW31456   3.500   3.178   2.351
10186SOL    HW131457   3.554   3.214   2.428
10186SOL    HW231458   3.419   3.235   2.337
10187SOL     OW31459   1.623   3.153   4.705
10187SOL    HW131460   1.638   3.098   4.622
10187SOL    HW231461   1.525   3.159   4.724
10188SOL     OW31462   2.561   6.068   0.212
10188SOL    HW131463   2.594   5.977   0.186
10188SOL    HW231464   2.615   6.137   0.164
10189SOL     OW31465   1.694   0.984   5.894
10189SOL    HW131466   1.768   1.049   5.875
10189SOL    HW231467   1.733   0.892   5.902
10190SOL     OW31468   2.894   4.142   1.267
10190SOL    HW131469   2.981   4.147   1.315
10190SOL    HW231470   2.911   4.126   1.170
10191SOL     OW31471   6.907   0.318   6.507
10191SOL    HW131472   6.903   0.219   6.515
10191SOL    HW231473   6.996   0.345   6.471
10192SOL     OW31474   2.999   1.248   3.431
10192SOL    HW131475   2.951   1.161   3.422
10192SOL    HW231476   3.054   1.247   3.514
10193SOL     OW31477   3.260   2.967   4.464
10193SOL    HW131478   3.224   2.885   4.420
10193SOL    HW231479   3.258   2.955   4.564
10194SOL     OW31480   3.314   5.830   3.487
10194SOL    HW131481   3.303   5.745   3.437
10194SOL    HW231482   3.262   5.902   3.442
10195SOL     OW31483   5.342   6.331   1.829
10195SOL    HW131484   5.393   6.400   1.779
10195SOL    HW231485   5.252   6.366   1.853
10196SOL     OW31486   5.015   4.364   4.770
10196SOL    HW131487   5.105   4.326   4.747
10196SOL    HW231488   5.006   4.456   4.731
10197SOL     OW31489   6.090   2.205   2.258
10197SOL    HW131490   6.024   2.280   2.249
10197SOL    HW231491   6.130   2.185   2.169
10198SOL     OW31492   3.176   1.723   2.216
10198SOL    HW131493   3.114   1.802   2.227
10198SOL    HW231494   3.126   1.648   2.174
10199SOL     OW31495   1.711   1.849   6.907
10199SOL    HW131496   1.768   1.799   6.842
10199SOL    HW231497   1.650   1.910   6.857
10200SOL     OW31498   4.198   6.631   3.379
10200SOL    HW131499   4.186   6.685   3.296
10200SOL    HW231500   4.124   6.565   3.387
10201SOL     OW31501   0.318   4.410   2.509
10201SOL    HW131502   0.387   4.483   2.516
10201SOL    HW231503   0.246   4.425   2.576
10202SOL     OW31504   2.035   2.768   3.801
10202SOL    HW131505   2.056   2.688   3.858
10202SOL    HW231506   2.119   2.818   3.782
10203SOL     OW31507   6.335   2.429   0.923
10203SOL    HW131508   6.251   2.375   0.926
10203SOL    HW231509   6.370   2.433   0.830
10204SOL     OW31510   0.704   5.790   4.325
10204SOL    HW131511   0.620   5.736   4.313
10204SOL    HW231512   0.778   5.748   4.273
10205SOL     OW31513   3.199   0.040   1.272
10205SOL    HW131514   3.172   0.124   1.318
10205SOL    HW231515   3.249   0.062   1.188
10206SOL     OW31516   6.085   5.683   6.626
10206SOL    HW131517   6.065   5.587   6.610
10206SOL    HW231518   6.115   5.696   6.721
10207SOL     OW31519   2.691   1.586   1.138
10207SOL    HW131520   2.610   1.634   1.170
10207SOL    HW231521   2.669   1.531   1.058
10208SOL     OW31522   1.183   2.435   5.932
10208SOL    HW131523   1.220   2.416   5.841
10208SOL    HW231524   1.257   2.442   5.998
10209SOL     OW31525   4.038   6.425   0.642
10209SOL    HW131526   4.098   6.391   0.569
10209SOL    HW231527   4.093   6.462   0.716
10210SOL     OW31528   4.325   6.006   6.759
10210SOL    HW131529   4.265   6.044   6.829
10210SOL    HW231530   4.415   6.049   6.765
10211SOL     OW31531   3.898   5.313   5.086
10211SOL    HW131532   3.925   5.402   5.048
10211SOL    HW231533   3.805   5.292   5.056
10212SOL     OW31534   6.632   5.647   5.714
10212SOL    HW131535   6.687   5.715   5.762
10212SOL    HW231536   6.603   5.576   5.778
10213SOL     OW31537   3.255   0.279   4.896
10213SOL    HW131538   3.168   0.234   4.878
10213SOL    HW231539   3.249   0.375   4.869
10214SOL     OW31540   6.981   0.124   0.157
10214SOL    HW131541   7.003   0.027   0.151
10214SOL    HW231542   6.882   0.137   0.147
10215SOL     OW31543   5.256   2.418   0.240
10215SOL    HW131544   5.310   2.503   0.240
10215SOL    HW231545   5.289   2.358   0.167
10216SOL     OW31546   5.033   0.323   2.822
10216SOL    HW131547   4.993   0.251   2.877
10216SOL    HW231548   5.023   0.411   2.868
10217SOL     OW31549   2.842   1.688   6.847
10217SOL    HW131550   2.864   1.651   6.757
10217SOL    HW231551   2.926   1.714   6.894
10218SOL     OW31552   4.105   0.877   5.762
10218SOL    HW131553   4.138   0.888   5.855
10218SOL    HW231554   4.141   0.951   5.705
10219SOL     OW31555   6.833   5.378   0.562
10219SOL    HW131556   6.871   5.470   0.554
10219SOL    HW231557   6.898   5.319   0.610
10220SOL     OW31558   4.092   2.232   6.369
10220SOL    HW131559   4.102   2.165   6.295
10220SOL    HW231560   3.995   2.251   6.384
10221SOL     OW31561   2.179   0.322   4.423
10221SOL    HW131562   2.093   0.372   4.431
10221SOL    HW231563   2.252   0.372   4.469
10222SOL     OW31564   2.712   5.119   5.397
10222SOL    HW131565   2.625   5.104   5.443
10222SOL    HW231566   2.704   5.194   5.332
10223SOL     OW31567   2.554   5.666   5.647
10223SOL    HW131568   2.527   5.602   5.575
10223SOL    HW231569   2.476   5.723   5.672
10224SOL     OW31570   4.151   5.838   5.468
10224SOL    HW131571   4.209   5.909   5.509
10224SOL    HW231572   4.094   5.878   5.397
10225SOL     OW31573   5.319   0.399   5.430
10225SOL    HW131574   5.294   0.308   5.464
10225SOL    HW231575   5.242   0.461   5.441
10226SOL     OW31576   6.629   2.317   6.370
10226SOL    HW131577   6.662   2.411   6.381
10226SOL    HW231578   6.680   2.273   6.296
10227SOL     OW31579   4.608   4.996   5.067
10227SOL    HW131580   4.588   4.934   5.143
10227SOL    HW231581   4.525   5.012   5.014
10228SOL     OW31582   0.931   2.470   0.955
10228SOL    HW131583   0.951   2.475   1.053
10228SOL    HW231584   0.833   2.461   0.941
10229SOL     OW31585   2.151   0.579   1.451
10229SOL    HW131586   2.197   0.639   1.517
10229SOL    HW231587   2.059   0.558   1.483
10230SOL     OW31588   5.442   0.567   3.499
10230SOL    HW131589   5.387   0.571   3.582
10230SOL    HW231590   5.480   0.475   3.488
10231SOL     OW31591   5.480   0.351   5.006
10231SOL    HW131592   5.563   0.369   5.059
10231SOL    HW231593   5.498   0.278   4.940
10232SOL     OW31594   3.650   1.994   2.536
10232SOL    HW131595   3.715   1.993   2.612
10232SOL    HW231596   3.693   2.034   2.455
10233SOL     OW31597   5.058   6.559   4.843
10233SOL    HW131598   5.123   6.489   4.813
10233SOL    HW231599   5.087   6.596   4.931
10234SOL     OW31600   3.398   4.171   1.172
10234SOL    HW131601   3.347   4.212   1.248
10234SOL    HW231602   3.496   4.177   1.190
10235SOL     OW31603   5.155   6.453   0.169
10235SOL    HW131604   5.095   6.443   0.090
10235SOL    HW231605   5.156   6.367   0.221
10236SOL     OW31606   1.297   4.985   1.017
10236SOL    HW131607   1.372   4.922   0.995
10236SOL    HW231608   1.293   5.000   1.115
10237SOL     OW31609   5.753   1.445   2.055
10237SOL    HW131610   5.702   1.369   2.016
10237SOL    HW231611   5.761   1.518   1.987
10238SOL     OW31612   5.285   4.712   6.357
10238SOL    HW131613   5.289   4.689   6.260
10238SOL    HW231614   5.333   4.799   6.372
10239SOL     OW31615   5.549   4.187   3.184
10239SOL    HW131616   5.456   4.205   3.150
10239SOL    HW231617   5.570   4.251   3.258
10240SOL     OW31618   5.485   3.500   1.937
10240SOL    HW131619   5.412   3.523   2.002
10240SOL    HW231620   5.548   3.578   1.929
10241SOL     OW31621   0.772   2.080   2.814
10241SOL    HW131622   0.704   2.007   2.826
10241SOL    HW231623   0.743   2.161   2.865
10242SOL     OW31624   1.289   5.715   6.612
10242SOL    HW131625   1.194   5.718   6.644
10242SOL    HW231626   1.292   5.731   6.514
10243SOL     OW31627   6.780   5.834   3.704
10243SOL    HW131628   6.767   5.899   3.629
10243SOL    HW231629   6.823   5.751   3.669
10244SOL     OW31630   2.389   6.174   0.691
10244SOL    HW131631   2.462   6.198   0.628
10244SOL    HW231632   2.354   6.257   0.735
10245SOL     OW31633   3.673   3.372   0.871
10245SOL    HW131634   3.621   3.331   0.796
10245SOL    HW231635   3.771   3.364   0.850
10246SOL     OW31636   3.386   3.359   5.016
10246SOL    HW131637   3.323   3.384   5.090
10246SOL    HW231638   3.341   3.375   4.927
10247SOL     OW31639   1.329   5.521   6.261
10247SOL    HW131640   1.406   5.530   6.324
10247SOL    HW231641   1.263   5.594   6.278
10248SOL     OW31642   5.864   0.348   4.069
10248SOL    HW131643   5.946   0.345   4.012
10248SOL    HW231644   5.790   0.392   4.018
10249SOL     OW31645   4.657   1.422   5.901
10249SOL    HW131646   4.660   1.322   5.893
10249SOL    HW231647   4.742   1.454   5.944
10250SOL     OW31648   4.462   5.043   0.976
10250SOL    HW131649   4.464   5.129   0.924
10250SOL    HW231650   4.551   5.029   1.020
10251SOL     OW31651   4.334   4.037   1.086
10251SOL    HW131652   4.377   4.045   1.176
10251SOL    HW231653   4.374   3.960   1.036
10252SOL     OW31654   6.910   3.474   1.165
10252SOL    HW131655   6.839   3.431   1.221
10252SOL    HW231656   6.974   3.404   1.132
10253SOL     OW31657   5.469   3.713   6.961
10253SOL    HW131658   5.548   3.656   6.982
10253SOL    HW231659   5.480   3.802   7.006
10254SOL     OW31660   3.543   2.182   5.881
10254SOL    HW131661   3.478   2.137   5.819
10254SOL    HW231662   3.518   2.278   5.891
10255SOL     OW31663   2.360   4.634   4.436
10255SOL    HW131664   2.308   4.718   4.419
10255SOL    HW231665   2.442   4.656   4.489
10256SOL     OW31666   5.972   4.731   7.013
10256SOL    HW131667   6.066   4.698   7.015
10256SOL    HW231668   5.970   4.828   0.011
10257SOL     OW31669   1.326   4.241   4.720
10257SOL    HW131670   1.416   4.216   4.755
10257SOL    HW231671   1.285   4.162   4.675
10258SOL     OW31672   3.539   1.326   2.190
10258SOL    HW131673   3.532   1.318   2.090
10258SOL    HW231674   3.515   1.419   2.218
10259SOL     OW31675   6.059   3.659   3.310
10259SOL    HW131676   6.020   3.717   3.381
10259SOL    HW231677   6.091   3.573   3.350
10260SOL     OW31678   0.132   6.157   3.049
10260SOL    HW131679   0.136   6.160   3.149
10260SOL    HW231680   0.206   6.100   3.014
10261SOL     OW31681   1.950   0.257   2.575
10261SOL    HW131682   1.924   0.314   2.498
10261SOL    HW231683   2.016   0.188   2.545
10262SOL     OW31684   6.140   7.000   2.926
10262SOL    HW131685   6.197   0.049   2.890
10262SOL    HW231686   6.134   6.926   2.859
10263SOL     OW31687   6.681   3.805   4.886
10263SOL    HW131688   6.672   3.759   4.975
10263SOL    HW231689   6.591   3.827   4.850
10264SOL     OW31690   0.537   0.028   1.344
10264SOL    HW131691   0.568   0.099   1.281
10264SOL    HW231692   0.502   6.974   1.291
10265SOL     OW31693   5.568   2.399   4.589
10265SOL    HW131694   5.567   2.486   4.638
10265SOL    HW231695   5.511   2.332   4.638
10266SOL     OW31696   2.650   3.682   0.015
10266SOL    HW131697   2.560   3.703   0.053
10266SOL    HW231698   2.682   3.594   0.051
10267SOL     OW31699   0.089   0.226   5.909
10267SOL    HW131700   0.021   0.251   5.977
10267SOL    HW231701   0.062   0.140   5.865
10268SOL     OW31702   6.945   4.739   0.569
10268SOL    HW131703   6.962   4.822   0.622
10268SOL    HW231704   6.899   4.764   0.484
10269SOL     OW31705   3.716   1.330   5.993
10269SOL    HW131706   3.662   1.268   5.936
10269SOL    HW231707   3.671   1.343   6.081
10270SOL     OW31708   4.198   6.208   4.262
10270SOL    HW131709   4.102   6.201   4.234
10270SOL    HW231710   4.246   6.124   4.239
10271SOL     OW31711   0.976   4.578   0.604
10271SOL    HW131712   0.931   4.590   0.692
10271SOL    HW231713   0.908   4.572   0.531
10272SOL     OW31714   1.497   3.018   3.456
10272SOL    HW131715   1.423   3.080   3.481
10272SOL    HW231716   1.581   3.048   3.501
10273SOL     OW31717   4.763   0.545   4.578
10273SOL    HW131718   4.811   0.595   4.506
10273SOL    HW231719   4.672   0.518   4.546
10274SOL     OW31720   1.565   4.328   6.986
10274SOL    HW131721   1.619   4.244   6.984
10274SOL    HW231722   1.510   4.335   6.902
10275SOL     OW31723   6.647   6.071   1.740
10275SOL    HW131724   6.582   6.054   1.814
10275SOL    HW231725   6.652   5.990   1.681
10276SOL     OW31726   2.840   6.252   0.274
10276SOL    HW131727   2.849   6.152   0.272
10276SOL    HW231728   2.929   6.293   0.296
10277SOL     OW31729   5.928   6.290   2.440
10277SOL    HW131730   5.924   6.227   2.517
10277SOL    HW231731   5.872   6.255   2.365
10278SOL     OW31732   6.077   1.209   5.161
10278SOL    HW131733   6.125   1.284   5.117
10278SOL    HW231734   6.138   1.162   5.224
10279SOL     OW31735   3.939   6.734   3.819
10279SOL    HW131736   3.994   6.770   3.895
10279SOL    HW231737   3.924   6.805   3.751
10280SOL     OW31738   3.102   2.315   6.957
10280SOL    HW131739   3.044   2.242   6.922
10280SOL    HW231740   3.197   2.300   6.928
10281SOL     OW31741   3.685   1.380   5.000
10281SOL    HW131742   3.632   1.349   4.922
10281SOL    HW231743   3.769   1.423   4.968
10282SOL     OW31744   1.135   3.129   3.963
10282SOL    HW131745   1.096   3.198   4.024
10282SOL    HW231746   1.179   3.058   4.017
10283SOL     OW31747   2.204   6.111   6.699
10283SOL    HW131748   2.179   6.195   6.650
10283SOL    HW231749   2.185   6.123   6.796
10284SOL     OW31750   5.544   2.260   0.970
10284SOL    HW131751   5.484   2.301   1.038
10284SOL    HW231752   5.556   2.323   0.893
10285SOL     OW31753   5.035   1.491   0.198
10285SOL    HW131754   5.110   1.458   0.141
10285SOL    HW231755   4.948   1.465   0.157
10286SOL     OW31756   2.439   6.726   3.181
10286SOL    HW131757   2.340   6.740   3.180
10286SOL    HW231758   2.463   6.653   3.117
10287SOL     OW31759   2.289   4.851   2.588
10287SOL    HW131760   2.377   4.806   2.571
10287SOL    HW231761   2.266   4.909   2.511
10288SOL     OW31762   4.676   6.870   4.348
10288SOL    HW131763   4.597   6.890   4.407
10288SOL    HW231764   4.651   6.884   4.253
10289SOL     OW31765   2.442   1.592   2.421
10289SOL    HW131766   2.406   1.614   2.511
10289SOL    HW231767   2.370   1.550   2.366
10290SOL     OW31768   3.580   4.164   3.082
10290SOL    HW131769   3.485   4.143   3.106
10290SOL    HW231770   3.591   4.157   2.983
10291SOL     OW31771   4.021   0.338   3.331
10291SOL    HW131772   3.960   0.300   3.401
10291SOL    HW231773   3.975   0.413   3.284
10292SOL     OW31774   0.249   3.323   4.345
10292SOL    HW131775   0.262   3.390   4.418
10292SOL    HW231776   0.334   3.314   4.292
10293SOL     OW31777   1.834   5.370   3.690
10293SOL    HW131778   1.801   5.463   3.706
10293SOL    HW231779   1.764   5.304   3.717
10294SOL     OW31780   5.832   1.681   2.954
10294SOL    HW131781   5.872   1.684   3.045
10294SOL    HW231782   5.746   1.629   2.957
10295SOL     OW31783   1.492   4.082   3.055
10295SOL    HW131784   1.572   4.095   3.113
10295SOL    HW231785   1.506   4.003   2.995
10296SOL     OW31786   0.155   3.556   1.482
10296SOL    HW131787   0.115   3.511   1.402
10296SOL    HW231788   0.166   3.654   1.463
10297SOL     OW31789   3.631   4.229   6.166
10297SOL    HW131790   3.708   4.229   6.102
10297SOL    HW231791   3.546   4.240   6.115
10298SOL     OW31792   5.894   3.456   2.895
10298SOL    HW131793   5.802   3.457   2.856
10298SOL    HW231794   5.960   3.487   2.827
10299SOL     OW31795   4.043   5.352   3.192
10299SOL    HW131796   3.980   5.335   3.116
10299SOL    HW231797   4.114   5.281   3.194
10300SOL     OW31798   0.086   5.953   2.453
10300SOL    HW131799   0.016   5.883   2.437
10300SOL    HW231800   0.041   6.041   2.471
10301SOL     OW31801   4.331   0.852   1.658
10301SOL    HW131802   4.381   0.771   1.688
10301SOL    HW231803   4.296   0.902   1.739
10302SOL     OW31804   6.873   4.387   3.364
10302SOL    HW131805   6.850   4.308   3.421
10302SOL    HW231806   6.845   4.471   3.412
10303SOL     OW31807   4.555   2.994   0.795
10303SOL    HW131808   4.545   3.007   0.697
10303SOL    HW231809   4.563   2.896   0.815
10304SOL     OW31810   6.138   6.390   4.975
10304SOL    HW131811   6.195   6.462   4.934
10304SOL    HW231812   6.197   6.321   5.017
10305SOL     OW31813   0.763   5.367   0.893
10305SOL    HW131814   0.835   5.435   0.887
10305SOL    HW231815   0.702   5.389   0.969
10306SOL     OW31816   4.555   3.484   6.618
10306SOL    HW131817   4.512   3.394   6.625
10306SOL    HW231818   4.537   3.522   6.528
10307SOL     OW31819   2.462   1.947   6.107
10307SOL    HW131820   2.464   1.915   6.202
10307SOL    HW231821   2.545   1.917   6.060
10308SOL     OW31822   3.286   4.936   4.012
10308SOL    HW131823   3.207   4.879   4.034
10308SOL    HW231824   3.281   5.022   4.063
10309SOL     OW31825   6.777   6.852   4.108
10309SOL    HW131826   6.716   6.838   4.030
10309SOL    HW231827   6.800   6.764   4.148
10310SOL     OW31828   4.134   3.597   4.589
10310SOL    HW131829   4.181   3.516   4.556
10310SOL    HW231830   4.125   3.664   4.515
10311SOL     OW31831   1.335   1.200   0.191
10311SOL    HW131832   1.392   1.228   0.114
10311SOL    HW231833   1.244   1.240   0.181
10312SOL     OW31834   2.930   4.343   0.436
10312SOL    HW131835   2.896   4.367   0.527
10312SOL    HW231836   2.874   4.386   0.366
10313SOL     OW31837   5.980   5.991   3.208
10313SOL    HW131838   6.018   5.916   3.262
10313SOL    HW231839   5.883   5.976   3.194
10314SOL     OW31840   0.387   5.379   4.921
10314SOL    HW131841   0.324   5.302   4.910
10314SOL    HW231842   0.471   5.347   4.964
10315SOL     OW31843   4.792   5.196   5.129
10315SOL    HW131844   4.886   5.169   5.106
10315SOL    HW231845   4.736   5.114   5.139
10316SOL     OW31846   0.108   2.406   3.313
10316SOL    HW131847   0.203   2.384   3.291
10316SOL    HW231848   0.105   2.463   3.395
10317SOL     OW31849   6.183   4.246   6.273
10317SOL    HW131850   6.274   4.253   6.231
10317SOL    HW231851   6.192   4.236   6.372
10318SOL     OW31852   5.012   4.693   2.142
10318SOL    HW131853   4.933   4.675   2.201
10318SOL    HW231854   4.996   4.776   2.090
10319SOL     OW31855   6.010   6.346   3.611
10319SOL    HW131856   6.042   6.431   3.654
10319SOL    HW231857   6.067   6.325   3.532
10320SOL     OW31858   2.812   6.498   1.841
10320SOL    HW131859   2.744   6.483   1.913
10320SOL    HW231860   2.877   6.422   1.841
10321SOL     OW31861   5.054   5.870   6.071
10321SOL    HW131862   5.078   5.776   6.095
10321SOL    HW231863   5.120   5.906   6.004
10322SOL     OW31864   0.093   1.923   6.195
10322SOL    HW131865   0.083   2.021   6.205
10322SOL    HW231866   0.031   1.889   6.125
10323SOL     OW31867   6.568   2.065   5.609
10323SOL    HW131868   6.601   1.987   5.662
10323SOL    HW231869   6.573   2.043   5.512
10324SOL     OW31870   2.764   3.726   5.271
10324SOL    HW131871   2.837   3.776   5.318
10324SOL    HW231872   2.677   3.773   5.284
10325SOL     OW31873   0.482   2.504   3.616
10325SOL    HW131874   0.496   2.593   3.572
10325SOL    HW231875   0.553   2.441   3.586
10326SOL     OW31876   5.035   0.992   0.969
10326SOL    HW131877   4.977   1.004   0.889
10326SOL    HW231878   4.979   0.965   1.048
10327SOL     OW31879   6.552   2.455   3.725
10327SOL    HW131880   6.473   2.507   3.758
10327SOL    HW231881   6.623   2.454   3.796
10328SOL     OW31882   0.467   3.275   1.763
10328SOL    HW131883   0.520   3.340   1.818
10328SOL    HW231884   0.520   3.250   1.682
10329SOL     OW31885   2.175   5.740   2.715
10329SOL    HW131886   2.193   5.815   2.651
10329SOL    HW231887   2.208   5.767   2.806
10330SOL     OW31888   4.151   3.242   0.475
10330SOL    HW131889   4.071   3.282   0.521
10330SOL    HW231890   4.234   3.285   0.510
10331SOL     OW31891   4.505   1.968   3.608
10331SOL    HW131892   4.598   1.979   3.573
10331SOL    HW231893   4.468   2.057   3.633
10332SOL     OW31894   2.432   2.926   6.449
10332SOL    HW131895   2.365   2.866   6.495
10332SOL    HW231896   2.462   2.997   6.513
10333SOL     OW31897   0.430   4.490   5.796
10333SOL    HW131898   0.500   4.468   5.863
10333SOL    HW231899   0.450   4.445   5.709
10334SOL     OW31900   0.161   4.963   5.715
10334SOL    HW131901   0.130   5.000   5.803
10334SOL    HW231902   0.250   4.920   5.727
10335SOL     OW31903   2.505   5.164   2.574
10335SOL    HW131904   2.420   5.148   2.625
10335SOL    HW231905   2.539   5.256   2.594
10336SOL     OW31906   4.001   0.069   2.558
10336SOL    HW131907   3.987   0.109   2.648
10336SOL    HW231908   3.950   7.008   2.551
10337SOL     OW31909   1.972   2.909   6.489
10337SOL    HW131910   1.952   2.819   6.451
10337SOL    HW231911   2.047   2.902   6.554
10338SOL     OW31912   2.214   4.037   2.973
10338SOL    HW131913   2.225   3.960   3.036
10338SOL    HW231914   2.257   4.118   3.013
10339SOL     OW31915   3.685   6.807   6.768
10339SOL    HW131916   3.661   6.893   6.721
10339SOL    HW231917   3.688   6.823   6.866
10340SOL     OW31918   2.063   6.088   1.104
10340SOL    HW131919   1.978   6.045   1.074
10340SOL    HW231920   2.141   6.036   1.070
10341SOL     OW31921   0.517   2.414   1.905
10341SOL    HW131922   0.446   2.370   1.849
10341SOL    HW231923   0.540   2.354   1.982
10342SOL     OW31924   3.551   4.916   4.249
10342SOL    HW131925   3.643   4.915   4.289
10342SOL    HW231926   3.518   4.822   4.238
10343SOL     OW31927   2.691   2.415   5.105
10343SOL    HW131928   2.657   2.362   5.027
10343SOL    HW231929   2.635   2.497   5.115
10344SOL     OW31930   4.833   4.895   1.250
10344SOL    HW131931   4.864   4.882   1.344
10344SOL    HW231932   4.865   4.820   1.193
10345SOL     OW31933   2.490   1.847   6.355
10345SOL    HW131934   2.458   1.770   6.299
10345SOL    HW231935   2.413   1.904   6.380
10346SOL     OW31936   6.599   5.154   6.515
10346SOL    HW131937   6.561   5.148   6.423
10346SOL    HW231938   6.699   5.165   6.509
10347SOL     OW31939   3.505   6.245   2.611
10347SOL    HW131940   3.591   6.202   2.584
10347SOL    HW231941   3.503   6.339   2.577
10348SOL     OW31942   0.566   2.513   4.180
10348SOL    HW131943   0.558   2.429   4.234
10348SOL    HW231944   0.519   2.500   4.092
10349SOL     OW31945   6.523   1.081   0.029
10349SOL    HW131946   6.538   1.138   6.972
10349SOL    HW231947   6.576   0.997   0.021
10350SOL     OW31948   1.989   5.331   4.495
10350SOL    HW131949   1.942   5.382   4.566
10350SOL    HW231950   2.006   5.391   4.417
10351SOL     OW31951   3.895   5.523   5.686
10351SOL    HW131952   3.991   5.545   5.706
10351SOL    HW231953   3.870   5.561   5.597
10352SOL     OW31954   7.013   1.903   2.289
10352SOL    HW131955   0.081   1.895   2.251
10352SOL    HW231956   6.962   1.972   2.237
10353SOL     OW31957   5.541   3.031   3.284
10353SOL    HW131958   5.613   3.063   3.346
10353SOL    HW231959   5.575   2.955   3.230
10354SOL     OW31960   6.594   2.342   2.064
10354SOL    HW131961   6.676   2.372   2.112
10354SOL    HW231962   6.534   2.293   2.127
10355SOL     OW31963   0.155   1.373   0.531
10355SOL    HW131964   0.056   1.361   0.528
10355SOL    HW231965   0.181   1.408   0.620
10356SOL     OW31966   6.146   3.183   5.957
10356SOL    HW131967   6.126   3.086   5.951
10356SOL    HW231968   6.102   3.222   6.038
10357SOL     OW31969   0.887   6.552   6.712
10357SOL    HW131970   0.799   6.595   6.692
10357SOL    HW231971   0.902   6.476   6.649
10358SOL     OW31972   0.845   3.677   4.028
10358SOL    HW131973   0.911   3.750   4.017
10358SOL    HW231974   0.811   3.676   4.122
10359SOL     OW31975   0.406   2.744   1.950
10359SOL    HW131976   0.438   2.652   1.972
10359SOL    HW231977   0.465   2.812   1.993
10360SOL     OW31978   5.442   5.238   1.318
10360SOL    HW131979   5.526   5.190   1.293
10360SOL    HW231980   5.363   5.188   1.281
10361SOL     OW31981   5.618   2.230   4.128
10361SOL    HW131982   5.543   2.273   4.179
10361SOL    HW231983   5.635   2.139   4.165
10362SOL     OW31984   6.695   5.842   2.269
10362SOL    HW131985   6.661   5.780   2.199
10362SOL    HW231986   6.625   5.855   2.339
10363SOL     OW31987   4.893   5.055   7.000
10363SOL    HW131988   4.825   5.126   7.022
10363SOL    HW231989   4.985   5.090   7.019
10364SOL     OW31990   6.615   5.194   1.738
10364SOL    HW131991   6.713   5.177   1.752
10364SOL    HW231992   6.568   5.106   1.729
10365SOL     OW31993   6.306   5.803   6.401
10365SOL    HW131994   6.406   5.805   6.409
10365SOL    HW231995   6.271   5.720   6.444
10366SOL     OW31996   2.212   0.665   3.025
10366SOL    HW131997   2.261   0.700   2.946
10366SOL    HW231998   2.136   0.607   2.995
10367SOL     OW31999   3.866   6.069   2.859
10367SOL    HW132000   3.938   6.062   2.928
10367SOL    HW232001   3.826   6.160   2.862
10368SOL     OW32002   1.551   6.240   2.191
10368SOL    HW132003   1.645   6.260   2.162
10368SOL    HW232004   1.546   6.144   2.219
10369SOL     OW32005   3.276   1.641   4.956
10369SOL    HW132006   3.204   1.588   5.000
10369SOL    HW232007   3.268   1.737   4.983
10370SOL     OW32008   2.258   1.673   0.034
10370SOL    HW132009   2.250   1.675   6.959
10370SOL    HW232010   2.176   1.631   0.074
10371SOL     OW32011   3.331   5.636   2.563
10371SOL    HW132012   3.249   5.667   2.612
10371SOL    HW232013   3.406   5.699   2.582
10372SOL     OW32014   1.264   6.018   1.193
10372SOL    HW132015   1.329   5.965   1.138
10372SOL    HW232016   1.313   6.065   1.266
10373SOL     OW32017   6.967   0.942   5.150
10373SOL    HW132018   6.883   0.970   5.103
10373SOL    HW232019   0.007   0.906   5.082
10374SOL     OW32020   2.310   5.436   1.899
10374SOL    HW132021   2.237   5.462   1.961
10374SOL    HW232022   2.336   5.340   1.916
10375SOL     OW32023   2.042   5.045   6.678
10375SOL    HW132024   2.071   5.135   6.644
10375SOL    HW232025   2.107   5.011   6.746
10376SOL     OW32026   1.567   6.009   3.739
10376SOL    HW132027   1.641   5.952   3.703
10376SOL    HW232028   1.586   6.029   3.835
10377SOL     OW32029   3.127   1.281   3.672
10377SOL    HW132030   3.104   1.251   3.764
10377SOL    HW232031   3.224   1.268   3.656
10378SOL     OW32032   6.844   6.598   5.065
10378SOL    HW132033   6.820   6.506   5.096
10378SOL    HW232034   6.907   6.640   5.132
10379SOL     OW32035   0.652   5.096   3.709
10379SOL    HW132036   0.670   5.111   3.806
10379SOL    HW232037   0.556   5.116   3.689
10380SOL     OW32038   2.931   1.541   3.329
10380SOL    HW132039   2.943   1.459   3.385
10380SOL    HW232040   2.963   1.621   3.380
10381SOL     OW32041   2.260   6.896   4.329
10381SOL    HW132042   2.325   6.884   4.404
10381SOL    HW232043   2.240   6.807   4.288
10382SOL     OW32044   3.578   5.505   3.208
10382SOL    HW132045   3.628   5.486   3.124
10382SOL    HW232046   3.541   5.419   3.245
10383SOL     OW32047   0.629   7.016   0.394
10383SOL    HW132048   0.714   6.967   0.412
10383SOL    HW232049   0.622   0.070   0.456
10384SOL     OW32050   5.077   5.247   0.882
10384SOL    HW132051   5.092   5.314   0.809
10384SOL    HW232052   5.160   5.192   0.894
10385SOL     OW32053   3.688   4.208   6.775
10385SOL    HW132054   3.741   4.266   6.713
10385SOL    HW232055   3.745   4.181   6.853
10386SOL     OW32056   0.004   7.019   1.304
10386SOL    HW132057   6.992   0.060   1.238
10386SOL    HW232058   0.097   0.022   1.330
10387SOL     OW32059   5.314   1.278   2.007
10387SOL    HW132060   5.239   1.214   2.024
10387SOL    HW232061   5.282   1.351   1.946
10388SOL     OW32062   0.911   6.474   4.855
10388SOL    HW132063   0.946   6.386   4.824
10388SOL    HW232064   0.944   6.493   4.948
10389SOL     OW32065   0.295   3.849   1.123
10389SOL    HW132066   0.338   3.916   1.063
10389SOL    HW232067   0.325   3.757   1.097
10390SOL     OW32068   1.134   2.046   2.182
10390SOL    HW132069   1.219   2.054   2.130
10390SOL    HW232070   1.134   2.111   2.257
10391SOL     OW32071   6.021   0.735   3.277
10391SOL    HW132072   6.088   0.708   3.208
10391SOL    HW232073   6.068   0.756   3.363
10392SOL     OW32074   5.465   3.334   4.200
10392SOL    HW132075   5.415   3.393   4.263
10392SOL    HW232076   5.547   3.299   4.245
10393SOL     OW32077   1.416   2.525   1.210
10393SOL    HW132078   1.360   2.558   1.286
10393SOL    HW232079   1.375   2.555   1.123
10394SOL     OW32080   2.751   5.671   4.191
10394SOL    HW132081   2.692   5.592   4.175
10394SOL    HW232082   2.707   5.753   4.156
10395SOL     OW32083   0.766   1.066   1.486
10395SOL    HW132084   0.862   1.058   1.460
10395SOL    HW232085   0.752   1.028   1.577
10396SOL     OW32086   3.432   2.148   5.083
10396SOL    HW132087   3.470   2.168   5.173
10396SOL    HW232088   3.349   2.202   5.068
10397SOL     OW32089   4.762   1.318   3.963
10397SOL    HW132090   4.803   1.385   4.024
10397SOL    HW232091   4.832   1.284   3.899
10398SOL     OW32092   4.695   2.819   3.221
10398SOL    HW132093   4.659   2.772   3.140
10398SOL    HW232094   4.714   2.752   3.293
10399SOL     OW32095   1.038   2.184   1.935
10399SOL    HW132096   1.038   2.112   1.865
10399SOL    HW232097   1.060   2.145   2.024
10400SOL     OW32098   1.614   7.002   0.117
10400SOL    HW132099   1.567   6.943   0.183
10400SOL    HW232100   1.672   6.946   0.058
10401SOL     OW32101   6.450   1.039   5.488
10401SOL    HW132102   6.371   1.093   5.462
10401SOL    HW232103   6.529   1.066   5.434
10402SOL     OW32104   6.600   4.131   6.340
10402SOL    HW132105   6.685   4.182   6.341
10402SOL    HW232106   6.527   4.187   6.300
10403SOL     OW32107   3.619   0.152   1.622
10403SOL    HW132108   3.541   0.204   1.586
10403SOL    HW232109   3.681   0.128   1.548
10404SOL     OW32110   0.337   5.422   5.492
10404SOL    HW132111   0.424   5.389   5.526
10404SOL    HW232112   0.328   5.520   5.511
10405SOL     OW32113   0.200   1.319   6.929
10405SOL    HW132114   0.212   1.302   0.003
10405SOL    HW232115   0.103   1.329   6.909
10406SOL     OW32116   1.840   4.815   1.708
10406SOL    HW132117   1.923   4.866   1.731
10406SOL    HW232118   1.843   4.786   1.612
10407SOL     OW32119   2.072   6.367   1.018
10407SOL    HW132120   2.075   6.278   1.063
10407SOL    HW232121   2.031   6.434   1.079
10408SOL     OW32122   4.772   0.523   6.440
10408SOL    HW132123   4.697   0.586   6.417
10408SOL    HW232124   4.836   0.517   6.364
10409SOL     OW32125   6.256   3.866   0.813
10409SOL    HW132126   6.278   3.818   0.728
10409SOL    HW232127   6.187   3.814   0.863
10410SOL     OW32128   3.864   0.278   0.865
10410SOL    HW132129   3.873   0.202   0.930
10410SOL    HW232130   3.811   0.351   0.907
10411SOL     OW32131   1.726   4.482   3.656
10411SOL    HW132132   1.645   4.540   3.646
10411SOL    HW232133   1.756   4.484   3.751
10412SOL     OW32134   4.661   0.988   2.003
10412SOL    HW132135   4.662   1.082   1.971
10412SOL    HW232136   4.702   0.928   1.934
10413SOL     OW32137   6.386   3.935   2.723
10413SOL    HW132138   6.322   3.982   2.784
10413SOL    HW232139   6.439   4.002   2.672
10414SOL     OW32140   4.837   4.053   3.677
10414SOL    HW132141   4.924   4.061   3.629
10414SOL    HW232142   4.811   3.957   3.684
10415SOL     OW32143   0.364   1.159   6.479
10415SOL    HW132144   0.353   1.105   6.562
10415SOL    HW232145   0.330   1.108   6.401
10416SOL     OW32146   5.094   2.234   2.769
10416SOL    HW132147   5.093   2.331   2.747
10416SOL    HW232148   5.053   2.182   2.694
10417SOL     OW32149   2.029   4.200   2.333
10417SOL    HW132150   2.127   4.219   2.330
10417SOL    HW232151   1.986   4.258   2.403
10418SOL     OW32152   1.647   5.676   6.114
10418SOL    HW132153   1.725   5.653   6.174
10418SOL    HW232154   1.571   5.614   6.134
10419SOL     OW32155   1.235   1.035   6.094
10419SOL    HW132156   1.142   1.072   6.084
10419SOL    HW232157   1.302   1.108   6.079
10420SOL     OW32158   0.646   2.898   2.020
10420SOL    HW132159   0.691   2.836   2.085
10420SOL    HW232160   0.675   2.876   1.927
10421SOL     OW32161   0.531   2.063   2.558
10421SOL    HW132162   0.473   2.141   2.536
10421SOL    HW232163   0.573   2.077   2.648
10422SOL     OW32164   5.690   1.854   0.036
10422SOL    HW132165   5.671   1.895   6.972
10422SOL    HW232166   5.618   1.787   0.058
10423SOL     OW32167   4.258   5.402   2.804
10423SOL    HW132168   4.259   5.380   2.706
10423SOL    HW232169   4.163   5.417   2.833
10424SOL     OW32170   4.799   1.251   6.129
10424SOL    HW132171   4.788   1.191   6.050
10424SOL    HW232172   4.833   1.340   6.099
10425SOL     OW32173   1.675   6.803   1.983
10425SOL    HW132174   1.694   6.706   2.001
10425SOL    HW232175   1.733   6.860   2.042
10426SOL     OW32176   6.375   4.449   6.512
10426SOL    HW132177   6.410   4.416   6.600
10426SOL    HW232178   6.280   4.422   6.501
10427SOL     OW32179   5.189   0.860   0.635
10427SOL    HW132180   5.214   0.943   0.685
10427SOL    HW232181   5.139   0.885   0.552
10428SOL     OW32182   4.066   2.214   3.766
10428SOL    HW132183   4.119   2.139   3.804
10428SOL    HW232184   4.113   2.251   3.686
10429SOL     OW32185   6.081   5.417   2.283
10429SOL    HW132186   6.143   5.345   2.317
10429SOL    HW232187   6.045   5.469   2.360
10430SOL     OW32188   3.189   6.183   3.039
10430SOL    HW132189   3.262   6.222   2.981
10430SOL    HW232190   3.182   6.236   3.123
10431SOL     OW32191   3.187   1.617   5.770
10431SOL    HW132192   3.140   1.606   5.857
10431SOL    HW232193   3.244   1.537   5.752
10432SOL     OW32194   4.303   0.645   4.432
10432SOL    HW132195   4.237   0.658   4.357
10432SOL    HW232196   4.255   0.651   4.519
10433SOL     OW32197   1.720   6.140   1.338
10433SOL    HW132198   1.806   6.116   1.382
10433SOL    HW232199   1.696   6.234   1.361
10434SOL     OW32200   3.693   2.469   5.408
10434SOL    HW132201   3.776   2.430   5.366
10434SOL    HW232202   3.613   2.440   5.355
10435SOL     OW32203   6.035   4.862   6.604
10435SOL    HW132204   6.026   4.889   6.509
10435SOL    HW232205   5.950   4.819   6.635
10436SOL     OW32206   7.001   2.144   2.925
10436SOL    HW132207   6.983   2.047   2.906
10436SOL    HW232208   6.969   2.166   3.017
10437SOL     OW32209   1.155   3.141   0.717
10437SOL    HW132210   1.086   3.075   0.748
10437SOL    HW232211   1.222   3.156   0.789
10438SOL     OW32212   2.382   0.386   5.603
10438SOL    HW132213   2.320   0.364   5.678
10438SOL    HW232214   2.330   0.420   5.525
10439SOL     OW32215   3.519   0.437   5.745
10439SOL    HW132216   3.478   0.515   5.793
10439SOL    HW232217   3.618   0.438   5.760
10440SOL     OW32218   1.054   5.638   0.333
10440SOL    HW132219   1.040   5.691   0.249
10440SOL    HW232220   1.067   5.541   0.310
10441SOL     OW32221   4.442   6.522   0.707
10441SOL    HW132222   4.524   6.531   0.764
10441SOL    HW232223   4.469   6.490   0.616
10442SOL     OW32224   3.268   6.224   6.476
10442SOL    HW132225   3.217   6.174   6.406
10442SOL    HW232226   3.281   6.166   6.556
10443SOL     OW32227   0.514   3.067   4.357
10443SOL    HW132228   0.515   3.080   4.456
10443SOL    HW232229   0.421   3.053   4.325
10444SOL     OW32230   3.881   4.596   5.340
10444SOL    HW132231   3.849   4.682   5.300
10444SOL    HW232232   3.942   4.615   5.417
10445SOL     OW32233   6.387   6.060   1.479
10445SOL    HW132234   6.432   5.973   1.500
10445SOL    HW232235   6.397   6.122   1.557
10446SOL     OW32236   1.401   6.999   5.710
10446SOL    HW132237   1.492   0.012   5.692
10446SOL    HW232238   1.335   0.050   5.717
10447SOL     OW32239   5.556   2.729   6.538
10447SOL    HW132240   5.489   2.662   6.568
10447SOL    HW232241   5.512   2.798   6.481
10448SOL     OW32242   3.986   3.099   2.180
10448SOL    HW132243   4.033   3.185   2.158
10448SOL    HW232244   4.004   3.075   2.275
10449SOL     OW32245   0.945   5.096   5.071
10449SOL    HW132246   0.928   5.118   5.168
10449SOL    HW232247   0.892   5.015   5.045
10450SOL     OW32248   0.439   3.179   0.378
10450SOL    HW132249   0.357   3.237   0.369
10450SOL    HW232250   0.517   3.226   0.337
10451SOL     OW32251   1.634   4.265   2.462
10451SOL    HW132252   1.635   4.358   2.423
10451SOL    HW232253   1.685   4.265   2.548
10452SOL     OW32254   2.474   3.035   6.192
10452SOL    HW132255   2.464   3.013   6.289
10452SOL    HW232256   2.487   2.950   6.140
10453SOL     OW32257   5.169   0.467   2.214
10453SOL    HW132258   5.078   0.491   2.250
10453SOL    HW232259   5.239   0.499   2.278
10454SOL     OW32260   3.939   5.306   2.927
10454SOL    HW132261   3.980   5.254   2.851
10454SOL    HW232262   3.877   5.246   2.978
10455SOL     OW32263   1.512   4.637   3.416
10455SOL    HW132264   1.441   4.567   3.411
10455SOL    HW232265   1.483   4.710   3.478
10456SOL     OW32266   3.638   6.485   1.052
10456SOL    HW132267   3.543   6.487   1.023
10456SOL    HW232268   3.684   6.406   1.012
10457SOL     OW32269   3.631   2.979   3.891
10457SOL    HW132270   3.563   2.964   3.819
10457SOL    HW232271   3.585   3.013   3.973
10458SOL     OW32272   6.600   6.102   2.806
10458SOL    HW132273   6.610   6.179   2.743
10458SOL    HW232274   6.631   6.129   2.897
10459SOL     OW32275   6.932   5.764   2.415
10459SOL    HW132276   6.939   5.728   2.508
10459SOL    HW232277   6.845   5.736   2.375
10460SOL     OW32278   1.456   4.381   1.237
10460SOL    HW132279   1.445   4.461   1.297
10460SOL    HW232280   1.544   4.386   1.190
10461SOL     OW32281   3.804   0.440   6.218
10461SOL    HW132282   3.771   0.357   6.172
10461SOL    HW232283   3.893   0.466   6.179
10462SOL     OW32284   5.641   6.762   1.129
10462SOL    HW132285   5.732   6.722   1.116
10462SOL    HW232286   5.610   6.746   1.223
10463SOL     OW32287   4.298   3.010   0.223
10463SOL    HW132288   4.262   3.103   0.222
10463SOL    HW232289   4.223   2.945   0.212
10464SOL     OW32290   5.452   6.533   1.690
10464SOL    HW132291   5.528   6.506   1.631
10464SOL    HW232292   5.385   6.584   1.635
10465SOL     OW32293   0.434   4.883   6.040
10465SOL    HW132294   0.430   4.870   5.941
10465SOL    HW232295   0.344   4.913   6.073
10466SOL     OW32296   4.607   5.364   5.391
10466SOL    HW132297   4.512   5.376   5.421
10466SOL    HW232298   4.662   5.439   5.427
10467SOL     OW32299   4.038   1.511   4.429
10467SOL    HW132300   4.037   1.581   4.501
10467SOL    HW232301   4.094   1.543   4.353
10468SOL     OW32302   2.688   5.478   3.319
10468SOL    HW132303   2.733   5.414   3.256
10468SOL    HW232304   2.632   5.427   3.384
10469SOL     OW32305   0.621   5.064   6.104
10469SOL    HW132306   0.582   5.149   6.067
10469SOL    HW232307   0.558   4.988   6.086
10470SOL     OW32308   2.473   2.383   3.987
10470SOL    HW132309   2.557   2.415   3.943
10470SOL    HW232310   2.452   2.291   3.954
10471SOL     OW32311   5.013   3.595   6.875
10471SOL    HW132312   4.994   3.589   6.973
10471SOL    HW232313   4.932   3.564   6.824
10472SOL     OW32314   4.331   1.654   3.384
10472SOL    HW132315   4.246   1.602   3.371
10472SOL    HW232316   4.399   1.624   3.318
10473SOL     OW32317   4.471   4.311   1.006
10473SOL    HW132318   4.466   4.357   0.918
10473SOL    HW232319   4.419   4.225   1.002
10474SOL     OW32320   5.175   1.359   4.060
10474SOL    HW132321   5.165   1.391   4.155
10474SOL    HW232322   5.214   1.433   4.004
10475SOL     OW32323   3.952   6.228   0.810
10475SOL    HW132324   3.973   6.281   0.728
10475SOL    HW232325   3.959   6.287   0.891
10476SOL     OW32326   0.671   5.122   6.708
10476SOL    HW132327   0.639   5.043   6.759
10476SOL    HW232328   0.624   5.204   6.739
10477SOL     OW32329   5.241   4.410   4.346
10477SOL    HW132330   5.258   4.314   4.320
10477SOL    HW232331   5.146   4.419   4.378
10478SOL     OW32332   0.497   0.223   2.863
10478SOL    HW132333   0.502   0.312   2.818
10478SOL    HW232334   0.443   0.160   2.807
10479SOL     OW32335   1.170   3.733   2.858
10479SOL    HW132336   1.164   3.813   2.917
10479SOL    HW232337   1.235   3.668   2.896
10480SOL     OW32338   4.988   1.231   6.322
10480SOL    HW132339   5.023   1.141   6.295
10480SOL    HW232340   4.914   1.258   6.261
10481SOL     OW32341   3.624   1.622   3.187
10481SOL    HW132342   3.642   1.607   3.284
10481SOL    HW232343   3.615   1.533   3.141
10482SOL     OW32344   0.726   6.479   5.893
10482SOL    HW132345   0.661   6.512   5.825
10482SOL    HW232346   0.810   6.532   5.888
10483SOL     OW32347   0.839   6.186   0.668
10483SOL    HW132348   0.889   6.145   0.592
10483SOL    HW232349   0.760   6.130   0.690
10484SOL     OW32350   6.469   1.501   1.855
10484SOL    HW132351   6.501   1.406   1.852
10484SOL    HW232352   6.466   1.539   1.763
10485SOL     OW32353   3.589   3.718   5.130
10485SOL    HW132354   3.580   3.693   5.034
10485SOL    HW232355   3.558   3.812   5.143
10486SOL     OW32356   6.282   4.791   6.274
10486SOL    HW132357   6.315   4.776   6.181
10486SOL    HW232358   6.338   4.739   6.339
10487SOL     OW32359   5.039   4.002   2.505
10487SOL    HW132360   5.081   3.953   2.429
10487SOL    HW232361   5.104   4.067   2.544
10488SOL     OW32362   1.146   1.984   5.377
10488SOL    HW132363   1.116   2.054   5.442
10488SOL    HW232364   1.242   1.961   5.395
10489SOL     OW32365   5.836   4.953   2.663
10489SOL    HW132366   5.886   4.871   2.633
10489SOL    HW232367   5.741   4.947   2.633
10490SOL     OW32368   5.423   6.388   6.288
10490SOL    HW132369   5.415   6.465   6.225
10490SOL    HW232370   5.342   6.382   6.345
10491SOL     OW32371   2.001   1.705   5.375
10491SOL    HW132372   1.921   1.650   5.354
10491SOL    HW232373   2.065   1.652   5.430
10492SOL     OW32374   3.174   6.883   6.949
10492SOL    HW132375   3.101   6.845   6.892
10492SOL    HW232376   3.191   6.978   6.923
10493SOL     OW32377   4.498   0.048   0.234
10493SOL    HW132378   4.563   0.124   0.229
10493SOL    HW232379   4.410   0.082   0.269
10494SOL     OW32380   6.539   5.697   3.580
10494SOL    HW132381   6.603   5.667   3.651
10494SOL    HW232382   6.490   5.777   3.612
10495SOL     OW32383   6.176   6.351   0.425
10495SOL    HW132384   6.228   6.339   0.510
10495SOL    HW232385   6.184   6.268   0.370
10496SOL     OW32386   1.839   3.978   6.197
10496SOL    HW132387   1.866   3.953   6.290
10496SOL    HW232388   1.910   3.947   6.133
10497SOL     OW32389   4.059   0.297   0.109
10497SOL    HW132390   4.105   0.361   0.169
10497SOL    HW232391   4.126   0.238   0.064
10498SOL     OW32392   3.426   4.111   0.468
10498SOL    HW132393   3.436   4.043   0.396
10498SOL    HW232394   3.344   4.166   0.451
10499SOL     OW32395   4.200   4.865   3.949
10499SOL    HW132396   4.225   4.771   3.925
10499SOL    HW232397   4.123   4.864   4.012
10500SOL     OW32398   1.984   2.755   4.620
10500SOL    HW132399   1.995   2.854   4.612
10500SOL    HW232400   2.046   2.719   4.690
10501SOL     OW32401   3.941   4.798   2.958
10501SOL    HW132402   3.970   4.840   3.044
10501SOL    HW232403   4.021   4.760   2.911
10502SOL     OW32404   3.663   3.083   3.341
10502SOL    HW132405   3.751   3.129   3.348
10502SOL    HW232406   3.648   3.054   3.246
10503SOL     OW32407   0.059   5.940   0.917
10503SOL    HW132408   0.098   5.956   1.008
10503SOL    HW232409   6.989   5.973   0.916
10504SOL     OW32410   1.880   2.638   5.284
10504SOL    HW132411   1.929   2.580   5.349
10504SOL    HW232412   1.941   2.710   5.250
10505SOL     OW32413   4.624   6.720   0.723
10505SOL    HW132414   4.611   6.819   0.727
10505SOL    HW232415   4.555   6.679   0.663
10506SOL     OW32416   0.656   5.426   6.119
10506SOL    HW132417   0.595   5.354   6.084
10506SOL    HW232418   0.741   5.426   6.067
10507SOL     OW32419   2.316   6.327   5.788
10507SOL    HW132420   2.275   6.373   5.709
10507SOL    HW232421   2.384   6.387   5.830
10508SOL     OW32422   1.811   6.634   1.468
10508SOL    HW132423   1.905   6.662   1.448
10508SOL    HW232424   1.810   6.582   1.554
10509SOL     OW32425   4.694   3.497   1.634
10509SOL    HW132426   4.690   3.406   1.593
10509SOL    HW232427   4.625   3.556   1.593
10510SOL     OW32428   5.100   6.471   1.848
10510SOL    HW132429   5.079   6.536   1.921
10510SOL    HW232430   5.069   6.508   1.760
10511SOL     OW32431   3.853   1.851   1.071
10511SOL    HW132432   3.876   1.765   1.117
10511SOL    HW232433   3.887   1.927   1.125
10512SOL     OW32434   4.194   0.101   4.634
10512SOL    HW132435   4.194   0.122   4.537
10512SOL    HW232436   4.153   0.011   4.649
10513SOL     OW32437   4.475   3.824   0.960
10513SOL    HW132438   4.485   3.741   1.013
10513SOL    HW232439   4.445   3.802   0.867
10514SOL     OW32440   1.192   4.838   1.581
10514SOL    HW132441   1.104   4.863   1.622
10514SOL    HW232442   1.192   4.740   1.561
10515SOL     OW32443   2.040   3.358   4.523
10515SOL    HW132444   2.029   3.272   4.574
10515SOL    HW232445   2.056   3.433   4.587
10516SOL     OW32446   4.989   1.877   1.082
10516SOL    HW132447   4.896   1.899   1.112
10516SOL    HW232448   5.018   1.791   1.124
10517SOL     OW32449   6.080   1.319   1.785
10517SOL    HW132450   6.028   1.240   1.818
10517SOL    HW232451   6.099   1.380   1.861
10518SOL     OW32452   6.756   5.727   3.348
10518SOL    HW132453   6.735   5.756   3.255
10518SOL    HW232454   6.743   5.803   3.412
10519SOL     OW32455   1.640   7.011   0.766
10519SOL    HW132456   1.725   6.960   0.777
10519SOL    HW232457   1.654   0.065   0.706
10520SOL     OW32458   3.496   2.435   5.966
10520SOL    HW132459   3.431   2.444   5.890
10520SOL    HW232460   3.460   2.483   6.046
10521SOL     OW32461   5.694   1.810   1.261
10521SOL    HW132462   5.692   1.891   1.319
10521SOL    HW232463   5.643   1.828   1.177
10522SOL     OW32464   4.924   1.484   2.469
10522SOL    HW132465   4.974   1.568   2.448
10522SOL    HW232466   4.828   1.507   2.488
10523SOL     OW32467   6.977   4.087   1.621
10523SOL    HW132468   6.967   4.042   1.532
10523SOL    HW232469   6.919   4.040   1.688
10524SOL     OW32470   6.415   6.602   4.673
10524SOL    HW132471   6.340   6.579   4.735
10524SOL    HW232472   6.377   6.635   4.586
10525SOL     OW32473   5.007   2.230   4.544
10525SOL    HW132474   5.081   2.281   4.501
10525SOL    HW232475   4.930   2.290   4.562
10526SOL     OW32476   1.610   6.590   6.452
10526SOL    HW132477   1.535   6.575   6.387
10526SOL    HW232478   1.696   6.561   6.411
10527SOL     OW32479   1.192   6.440   5.191
10527SOL    HW132480   1.275   6.472   5.145
10527SOL    HW232481   1.147   6.371   5.135
10528SOL     OW32482   2.776   5.766   5.222
10528SOL    HW132483   2.767   5.718   5.135
10528SOL    HW232484   2.685   5.775   5.264
10529SOL     OW32485   0.096   5.594   6.561
10529SOL    HW132486   0.077   5.646   6.477
10529SOL    HW232487   0.020   5.607   6.625
10530SOL     OW32488   5.787   0.505   1.543
10530SOL    HW132489   5.839   0.422   1.562
10530SOL    HW232490   5.690   0.483   1.533
10531SOL     OW32491   3.450   0.945   6.937
10531SOL    HW132492   3.538   0.978   6.969
10531SOL    HW232493   3.401   0.900   7.012
10532SOL     OW32494   3.892   5.797   5.837
10532SOL    HW132495   3.801   5.836   5.821
10532SOL    HW232496   3.932   5.768   5.751
10533SOL     OW32497   4.236   6.584   4.196
10533SOL    HW132498   4.261   6.520   4.123
10533SOL    HW232499   4.222   6.533   4.281
10534SOL     OW32500   0.480   6.061   4.906
10534SOL    HW132501   0.476   6.129   4.833
10534SOL    HW232502   0.414   6.084   4.978
10535SOL     OW32503   3.432   1.578   2.242
10535SOL    HW132504   3.339   1.613   2.231
10535SOL    HW232505   3.493   1.625   2.178
10536SOL     OW32506   5.711   3.177   4.565
10536SOL    HW132507   5.614   3.156   4.574
10536SOL    HW232508   5.725   3.237   4.486
10537SOL     OW32509   2.524   1.242   2.273
10537SOL    HW132510   2.600   1.282   2.222
10537SOL    HW232511   2.438   1.286   2.247
10538SOL     OW32512   6.527   3.015   3.685
10538SOL    HW132513   6.466   3.077   3.635
10538SOL    HW232514   6.572   3.064   3.759
10539SOL     OW32515   6.522   0.311   1.530
10539SOL    HW132516   6.498   0.297   1.626
10539SOL    HW232517   6.621   0.301   1.519
10540SOL     OW32518   1.820   2.659   5.894
10540SOL    HW132519   1.777   2.725   5.833
10540SOL    HW232520   1.899   2.701   5.938
10541SOL     OW32521   3.717   2.688   0.078
10541SOL    HW132522   3.618   2.701   0.076
10541SOL    HW232523   3.752   2.687   7.008
10542SOL     OW32524   2.963   5.713   3.085
10542SOL    HW132525   3.027   5.788   3.099
10542SOL    HW232526   3.007   5.626   3.109
10543SOL     OW32527   0.494   2.718   3.476
10543SOL    HW132528   0.536   2.759   3.395
10543SOL    HW232529   0.449   2.790   3.530
10544SOL     OW32530   2.771   2.232   2.279
10544SOL    HW132531   2.728   2.151   2.239
10544SOL    HW232532   2.817   2.284   2.207
10545SOL     OW32533   0.850   3.231   1.692
10545SOL    HW132534   0.894   3.320   1.706
10545SOL    HW232535   0.914   3.169   1.645
10546SOL     OW32536   2.007   0.335   4.794
10546SOL    HW132537   1.923   0.283   4.809
10546SOL    HW232538   2.010   0.366   4.699
10547SOL     OW32539   2.683   5.806   6.255
10547SOL    HW132540   2.707   5.829   6.160
10547SOL    HW232541   2.586   5.822   6.269
10548SOL     OW32542   1.382   5.000   3.342
10548SOL    HW132543   1.441   5.078   3.365
10548SOL    HW232544   1.433   4.936   3.285
10549SOL     OW32545   6.513   1.985   2.425
10549SOL    HW132546   6.501   2.067   2.369
10549SOL    HW232547   6.567   1.918   2.375
10550SOL     OW32548   0.111   4.477   2.946
10550SOL    HW132549   0.098   4.439   2.855
10550SOL    HW232550   0.209   4.486   2.965
10551SOL     OW32551   4.815   1.122   4.730
10551SOL    HW132552   4.907   1.086   4.743
10551SOL    HW232553   4.765   1.117   4.817
10552SOL     OW32554   2.235   0.303   4.002
10552SOL    HW132555   2.184   0.223   3.971
10552SOL    HW232556   2.280   0.283   4.089
10553SOL     OW32557   5.717   5.363   1.755
10553SOL    HW132558   5.758   5.453   1.743
10553SOL    HW232559   5.708   5.319   1.665
10554SOL     OW32560   5.444   5.619   1.827
10554SOL    HW132561   5.446   5.660   1.918
10554SOL    HW232562   5.421   5.689   1.759
10555SOL     OW32563   3.141   3.071   2.949
10555SOL    HW132564   3.145   3.137   3.024
10555SOL    HW232565   3.083   3.108   2.876
10556SOL     OW32566   1.844   1.816   2.014
10556SOL    HW132567   1.938   1.783   2.017
10556SOL    HW232568   1.790   1.769   2.083
10557SOL     OW32569   1.113   4.995   3.325
10557SOL    HW132570   1.092   4.919   3.386
10557SOL    HW232571   1.211   5.015   3.329
10558SOL     OW32572   5.361   5.678   4.818
10558SOL    HW132573   5.398   5.585   4.816
10558SOL    HW232574   5.375   5.718   4.908
10559SOL     OW32575   3.696   6.095   1.762
10559SOL    HW132576   3.692   6.039   1.845
10559SOL    HW232577   3.637   6.054   1.692
10560SOL     OW32578   5.763   6.923   4.154
10560SOL    HW132579   5.861   6.938   4.141
10560SOL    HW232580   5.748   6.835   4.200
10561SOL     OW32581   1.102   5.554   5.606
10561SOL    HW132582   1.010   5.515   5.598
10561SOL    HW232583   1.099   5.635   5.665
10562SOL     OW32584   2.614   0.726   2.934
10562SOL    HW132585   2.612   0.780   3.018
10562SOL    HW232586   2.616   0.787   2.855
10563SOL     OW32587   1.829   5.279   2.363
10563SOL    HW132588   1.871   5.210   2.304
10563SOL    HW232589   1.729   5.273   2.357
10564SOL     OW32590   4.649   6.478   3.890
10564SOL    HW132591   4.703   6.451   3.810
10564SOL    HW232592   4.709   6.508   3.963
10565SOL     OW32593   0.515   1.180   4.790
10565SOL    HW132594   0.462   1.153   4.871
10565SOL    HW232595   0.476   1.139   4.708
10566SOL     OW32596   3.569   1.426   1.501
10566SOL    HW132597   3.635   1.466   1.437
10566SOL    HW232598   3.618   1.379   1.575
10567SOL     OW32599   3.307   1.359   5.862
10567SOL    HW132600   3.269   1.303   5.936
10567SOL    HW232601   3.348   1.441   5.901
10568SOL     OW32602   5.777   0.970   0.494
10568SOL    HW132603   5.847   0.948   0.561
10568SOL    HW232604   5.793   0.919   0.410
10569SOL     OW32605   4.204   0.589   1.041
10569SOL    HW132606   4.272   0.571   1.111
10569SOL    HW232607   4.207   0.685   1.015
10570SOL     OW32608   1.486   3.845   2.933
10570SOL    HW132609   1.527   3.841   2.842
10570SOL    HW232610   1.538   3.787   2.996
10571SOL     OW32611   1.334   4.457   4.908
10571SOL    HW132612   1.244   4.471   4.949
10571SOL    HW232613   1.326   4.390   4.834
10572SOL     OW32614   0.096   5.313   0.729
10572SOL    HW132615   0.085   5.247   0.654
10572SOL    HW232616   0.093   5.264   0.817
10573SOL     OW32617   5.770   2.157   3.003
10573SOL    HW132618   5.672   2.168   3.017
10573SOL    HW232619   5.789   2.141   2.906
10574SOL     OW32620   5.431   3.304   3.023
10574SOL    HW132621   5.372   3.280   3.100
10574SOL    HW232622   5.526   3.310   3.053
10575SOL     OW32623   4.887   6.604   3.047
10575SOL    HW132624   4.830   6.596   2.965
10575SOL    HW232625   4.837   6.656   3.117
10576SOL     OW32626   0.999   3.178   4.964
10576SOL    HW132627   0.949   3.121   5.029
10576SOL    HW232628   1.002   3.272   4.997
10577SOL     OW32629   4.221   5.252   6.554
10577SOL    HW132630   4.303   5.203   6.583
10577SOL    HW232631   4.182   5.208   6.473
10578SOL     OW32632   1.234   2.822   1.880
10578SOL    HW132633   1.322   2.819   1.927
10578SOL    HW232634   1.167   2.868   1.938
10579SOL     OW32635   0.145   3.309   0.697
10579SOL    HW132636   0.082   3.330   0.622
10579SOL    HW232637   0.094   3.266   0.772
10580SOL     OW32638   4.495   6.282   6.252
10580SOL    HW132639   4.500   6.279   6.352
10580SOL    HW232640   4.498   6.377   6.221
10581SOL     OW32641   3.222   0.223   3.023
10581SOL    HW132642   3.288   0.148   3.023
10581SOL    HW232643   3.162   0.214   3.103
10582SOL     OW32644   0.459   3.576   0.164
10582SOL    HW132645   0.418   3.579   0.255
10582SOL    HW232646   0.407   3.635   0.102
10583SOL     OW32647   3.771   2.259   6.029
10583SOL    HW132648   3.751   2.328   6.100
10583SOL    HW232649   3.686   2.232   5.984
10584SOL     OW32650   6.317   0.276   3.825
10584SOL    HW132651   6.380   0.338   3.873
10584SOL    HW232652   6.228   0.277   3.870
10585SOL     OW32653   2.334   0.853   4.038
10585SOL    HW132654   2.247   0.817   4.072
10585SOL    HW232655   2.343   0.832   3.940
10586SOL     OW32656   4.472   3.353   6.250
10586SOL    HW132657   4.512   3.275   6.299
10586SOL    HW232658   4.378   3.331   6.225
10587SOL     OW32659   1.701   5.165   6.490
10587SOL    HW132660   1.738   5.137   6.401
10587SOL    HW232661   1.727   5.098   6.559
10588SOL     OW32662   1.553   4.768   4.641
10588SOL    HW132663   1.647   4.768   4.606
10588SOL    HW232664   1.522   4.673   4.652
10589SOL     OW32665   6.423   0.754   3.489
10589SOL    HW132666   6.418   0.661   3.526
10589SOL    HW232667   6.449   0.750   3.392
10590SOL     OW32668   6.132   6.540   2.662
10590SOL    HW132669   6.104   6.458   2.712
10590SOL    HW232670   6.183   6.512   2.580
10591SOL     OW32671   6.568   4.477   2.461
10591SOL    HW132672   6.640   4.453   2.396
10591SOL    HW232673   6.557   4.403   2.527
10592SOL     OW32674   6.172   3.495   5.385
10592SOL    HW132675   6.223   3.410   5.371
10592SOL    HW232676   6.097   3.478   5.450
10593SOL     OW32677   3.304   5.603   3.303
10593SOL    HW132678   3.379   5.579   3.241
10593SOL    HW232679   3.220   5.560   3.271
10594SOL     OW32680   3.922   6.255   3.193
10594SOL    HW132681   3.894   6.340   3.149
10594SOL    HW232682   3.843   6.213   3.238
10595SOL     OW32683   5.913   5.825   1.298
10595SOL    HW132684   5.998   5.847   1.347
10595SOL    HW232685   5.935   5.783   1.211
10596SOL     OW32686   6.320   2.788   1.424
10596SOL    HW132687   6.402   2.732   1.428
10596SOL    HW232688   6.338   2.869   1.369
10597SOL     OW32689   1.566   6.447   4.847
10597SOL    HW132690   1.525   6.400   4.769
10597SOL    HW232691   1.562   6.546   4.831
10598SOL     OW32692   3.037   1.414   0.597
10598SOL    HW132693   3.084   1.493   0.559
10598SOL    HW232694   3.051   1.411   0.696
10599SOL     OW32695   0.822   1.631   1.237
10599SOL    HW132696   0.818   1.621   1.137
10599SOL    HW232697   0.778   1.716   1.264
10600SOL     OW32698   4.333   1.340   1.783
10600SOL    HW132699   4.249   1.293   1.756
10600SOL    HW232700   4.312   1.412   1.849
10601SOL     OW32701   1.818   1.976   5.305
10601SOL    HW132702   1.792   2.013   5.216
10601SOL    HW232703   1.772   1.889   5.320
10602SOL     OW32704   6.498   6.289   0.306
10602SOL    HW132705   6.496   6.358   0.379
10602SOL    HW232706   6.589   6.250   0.300
10603SOL     OW32707   5.410   0.098   3.291
10603SOL    HW132708   5.369   0.035   3.356
10603SOL    HW232709   5.456   0.046   3.218
10604SOL     OW32710   5.773   2.354   4.413
10604SOL    HW132711   5.712   2.370   4.491
10604SOL    HW232712   5.744   2.272   4.364
10605SOL     OW32713   4.522   1.502   1.607
10605SOL    HW132714   4.467   1.431   1.649
10605SOL    HW232715   4.463   1.579   1.580
10606SOL     OW32716   5.699   1.898   0.853
10606SOL    HW132717   5.605   1.929   0.867
10606SOL    HW232718   5.698   1.809   0.807
10607SOL     OW32719   1.870   4.636   1.482
10607SOL    HW132720   1.961   4.667   1.452
10607SOL    HW232721   1.866   4.536   1.478
10608SOL     OW32722   5.723   3.482   2.269
10608SOL    HW132723   5.736   3.539   2.350
10608SOL    HW232724   5.625   3.471   2.252
10609SOL     OW32725   5.399   5.963   6.716
10609SOL    HW132726   5.390   5.918   6.805
10609SOL    HW232727   5.443   6.052   6.728
10610SOL     OW32728   0.149   2.608   3.735
10610SOL    HW132729   0.144   2.706   3.756
10610SOL    HW232730   0.116   2.556   3.813
10611SOL     OW32731   4.064   5.575   6.736
10611SOL    HW132732   4.159   5.545   6.736
10611SOL    HW232733   4.005   5.499   6.709
10612SOL     OW32734   6.092   2.595   4.352
10612SOL    HW132735   5.997   2.597   4.322
10612SOL    HW232736   6.111   2.676   4.408
10613SOL     OW32737   4.606   5.199   6.121
10613SOL    HW132738   4.542   5.156   6.185
10613SOL    HW232739   4.574   5.185   6.027
10614SOL     OW32740   4.484   1.806   0.559
10614SOL    HW132741   4.448   1.899   0.552
10614SOL    HW232742   4.555   1.793   0.490
10615SOL     OW32743   4.238   3.260   5.827
10615SOL    HW132744   4.258   3.199   5.750
10615SOL    HW232745   4.321   3.307   5.855
10616SOL     OW32746   1.933   4.834   0.351
10616SOL    HW132747   1.861   4.767   0.370
10616SOL    HW232748   1.994   4.799   0.281
10617SOL     OW32749   2.201   3.693   0.494
10617SOL    HW132750   2.147   3.768   0.534
10617SOL    HW232751   2.298   3.711   0.508
10618SOL     OW32752   0.039   5.065   5.316
10618SOL    HW132753   0.071   5.022   5.232
10618SOL    HW232754   0.102   5.044   5.391
10619SOL     OW32755   1.508   1.730   1.170
10619SOL    HW132756   1.511   1.818   1.216
10619SOL    HW232757   1.479   1.659   1.236
10620SOL     OW32758   4.027   1.357   5.698
10620SOL    HW132759   4.112   1.406   5.720
10620SOL    HW232760   3.956   1.423   5.673
10621SOL     OW32761   0.708   5.663   4.644
10621SOL    HW132762   0.798   5.706   4.651
10621SOL    HW232763   0.652   5.712   4.578
10622SOL     OW32764   3.709   2.076   6.266
10622SOL    HW132765   3.789   2.017   6.260
10622SOL    HW232766   3.627   2.024   6.240
10623SOL     OW32767   5.547   4.907   4.605
10623SOL    HW132768   5.638   4.948   4.598
10623SOL    HW232769   5.550   4.813   4.573
10624SOL     OW32770   0.226   1.328   5.437
10624SOL    HW132771   0.243   1.298   5.343
10624SOL    HW232772   0.281   1.408   5.457
10625SOL     OW32773   6.490   5.364   6.677
10625SOL    HW132774   6.533   5.286   6.631
10625SOL    HW232775   6.429   5.331   6.749
10626SOL     OW32776   4.978   3.674   1.582
10626SOL    HW132777   4.924   3.713   1.657
10626SOL    HW232778   4.997   3.746   1.515
10627SOL     OW32779   4.659   5.554   5.115
10627SOL    HW132780   4.573   5.597   5.139
10627SOL    HW232781   4.658   5.458   5.143
10628SOL     OW32782   2.503   6.419   2.275
10628SOL    HW132783   2.489   6.518   2.264
10628SOL    HW232784   2.579   6.390   2.217
10629SOL     OW32785   4.623   5.793   4.101
10629SOL    HW132786   4.593   5.868   4.042
10629SOL    HW232787   4.562   5.715   4.090
10630SOL     OW32788   4.267   0.833   1.383
10630SOL    HW132789   4.274   0.863   1.478
10630SOL    HW232790   4.260   0.914   1.323
10631SOL     OW32791   3.478   6.150   2.302
10631SOL    HW132792   3.405   6.087   2.276
10631SOL    HW232793   3.550   6.100   2.348
10632SOL     OW32794   5.929   0.822   5.058
10632SOL    HW132795   5.941   0.838   4.960
10632SOL    HW232796   5.831   0.814   5.079
10633SOL     OW32797   2.768   3.772   0.278
10633SOL    HW132798   2.761   3.869   0.300
10633SOL    HW232799   2.748   3.759   0.180
10634SOL     OW32800   0.860   4.151   0.920
10634SOL    HW132801   0.763   4.169   0.934
10634SOL    HW232802   0.904   4.232   0.881
10635SOL     OW32803   3.148   5.122   0.762
10635SOL    HW132804   3.166   5.088   0.669
10635SOL    HW232805   3.226   5.176   0.793
10636SOL     OW32806   0.479   3.033   0.640
10636SOL    HW132807   0.561   2.976   0.631
10636SOL    HW232808   0.466   3.085   0.556
10637SOL     OW32809   1.566   6.848   5.503
10637SOL    HW132810   1.583   6.759   5.546
10637SOL    HW232811   1.594   6.921   5.565
10638SOL     OW32812   5.325   4.258   6.902
10638SOL    HW132813   5.335   4.256   6.803
10638SOL    HW232814   5.278   4.343   6.929
10639SOL     OW32815   0.354   5.528   6.583
10639SOL    HW132816   0.255   5.523   6.593
10639SOL    HW232817   0.379   5.513   6.487
10640SOL     OW32818   4.439   5.671   5.205
10640SOL    HW132819   4.493   5.678   5.290
10640SOL    HW232820   4.352   5.627   5.226
10641SOL     OW32821   1.205   0.975   3.438
10641SOL    HW132822   1.169   0.940   3.352
10641SOL    HW232823   1.144   1.046   3.474
10642SOL     OW32824   6.341   2.556   6.173
10642SOL    HW132825   6.441   2.552   6.166
10642SOL    HW232826   6.305   2.464   6.186
10643SOL     OW32827   3.637   5.797   5.135
10643SOL    HW132828   3.654   5.782   5.037
10643SOL    HW232829   3.551   5.847   5.147
10644SOL     OW32830   2.374   4.397   3.683
10644SOL    HW132831   2.429   4.431   3.759
10644SOL    HW232832   2.412   4.432   3.597
10645SOL     OW32833   1.748   3.077   3.189
10645SOL    HW132834   1.780   3.150   3.250
10645SOL    HW232835   1.755   3.108   3.095
10646SOL     OW32836   5.254   1.870   3.760
10646SOL    HW132837   5.167   1.836   3.793
10646SOL    HW232838   5.305   1.795   3.716
10647SOL     OW32839   4.936   5.940   4.713
10647SOL    HW132840   4.876   6.017   4.735
10647SOL    HW232841   5.031   5.970   4.717
10648SOL     OW32842   4.617   2.864   5.764
10648SOL    HW132843   4.556   2.792   5.797
10648SOL    HW232844   4.708   2.827   5.749
10649SOL     OW32845   6.418   3.718   3.495
10649SOL    HW132846   6.377   3.736   3.406
10649SOL    HW232847   6.377   3.778   3.564
10650SOL     OW32848   0.148   0.520   2.008
10650SOL    HW132849   0.193   0.434   2.031
10650SOL    HW232850   0.083   0.505   1.933
10651SOL     OW32851   2.746   5.612   4.982
10651SOL    HW132852   2.843   5.633   4.968
10651SOL    HW232853   2.726   5.521   4.948
10652SOL     OW32854   4.034   0.480   6.872
10652SOL    HW132855   3.960   0.462   6.808
10652SOL    HW232856   4.019   0.426   6.956
10653SOL     OW32857   5.724   5.872   4.883
10653SOL    HW132858   5.744   5.921   4.969
10653SOL    HW232859   5.720   5.774   4.901
10654SOL     OW32860   6.670   2.196   3.823
10654SOL    HW132861   6.696   2.263   3.753
10654SOL    HW232862   6.673   2.104   3.785
10655SOL     OW32863   6.202   4.868   0.869
10655SOL    HW132864   6.152   4.955   0.868
10655SOL    HW232865   6.140   4.793   0.844
10656SOL     OW32866   5.615   0.587   5.830
10656SOL    HW132867   5.699   0.545   5.865
10656SOL    HW232868   5.584   0.536   5.750
10657SOL     OW32869   5.063   0.500   5.459
10657SOL    HW132870   5.046   0.513   5.557
10657SOL    HW232871   4.978   0.474   5.414
10658SOL     OW32872   1.165   1.136   4.942
10658SOL    HW132873   1.189   1.197   5.017
10658SOL    HW232874   1.183   1.041   4.969
10659SOL     OW32875   0.314   5.797   6.730
10659SOL    HW132876   0.297   5.702   6.702
10659SOL    HW232877   0.413   5.813   6.732
10660SOL     OW32878   6.541   3.092   5.888
10660SOL    HW132879   6.519   3.171   5.946
10660SOL    HW232880   6.626   3.110   5.838
10661SOL     OW32881   3.716   6.016   6.065
10661SOL    HW132882   3.810   6.009   6.030
10661SOL    HW232883   3.717   6.064   6.153
10662SOL     OW32884   3.250   1.729   1.515
10662SOL    HW132885   3.164   1.679   1.520
10662SOL    HW232886   3.240   1.807   1.454
10663SOL     OW32887   6.757   3.476   3.983
10663SOL    HW132888   6.853   3.504   3.988
10663SOL    HW232889   6.715   3.511   3.899
10664SOL     OW32890   0.510   6.425   4.068
10664SOL    HW132891   0.588   6.456   4.124
10664SOL    HW232892   0.427   6.470   4.100
10665SOL     OW32893   4.573   3.242   0.903
10665SOL    HW132894   4.603   3.148   0.888
10665SOL    HW232895   4.598   3.271   0.995
10666SOL     OW32896   5.300   4.170   1.884
10666SOL    HW132897   5.251   4.166   1.971
10666SOL    HW232898   5.332   4.263   1.867
10667SOL     OW32899   5.504   2.826   4.394
10667SOL    HW132900   5.592   2.850   4.433
10667SOL    HW232901   5.496   2.727   4.386
10668SOL     OW32902   2.868   3.401   5.872
10668SOL    HW132903   2.921   3.473   5.916
10668SOL    HW232904   2.779   3.393   5.917
10669SOL     OW32905   0.085   2.228   1.724
10669SOL    HW132906   0.024   2.159   1.763
10669SOL    HW232907   0.038   2.275   1.649
10670SOL     OW32908   5.015   4.529   4.120
10670SOL    HW132909   5.070   4.605   4.154
10670SOL    HW232910   5.034   4.447   4.175
10671SOL     OW32911   1.650   3.157   4.014
10671SOL    HW132912   1.712   3.083   3.987
10671SOL    HW232913   1.675   3.190   4.105
10672SOL     OW32914   6.043   4.989   1.426
10672SOL    HW132915   6.107   4.935   1.371
10672SOL    HW232916   6.075   4.993   1.520
10673SOL     OW32917   3.268   0.739   1.768
10673SOL    HW132918   3.200   0.673   1.737
10673SOL    HW232919   3.229   0.797   1.840
10674SOL     OW32920   3.791   3.383   3.946
10674SOL    HW132921   3.800   3.476   3.910
10674SOL    HW232922   3.707   3.342   3.910
10675SOL     OW32923   3.850   6.429   5.320
10675SOL    HW132924   3.897   6.387   5.398
10675SOL    HW232925   3.760   6.462   5.349
10676SOL     OW32926   1.461   1.313   4.843
10676SOL    HW132927   1.409   1.301   4.927
10676SOL    HW232928   1.481   1.411   4.830
10677SOL     OW32929   0.304   1.450   6.369
10677SOL    HW132930   0.358   1.385   6.422
10677SOL    HW232931   0.340   1.543   6.382
10678SOL     OW32932   3.359   4.872   2.873
10678SOL    HW132933   3.390   4.861   2.967
10678SOL    HW232934   3.439   4.883   2.813
10679SOL     OW32935   5.571   4.026   6.869
10679SOL    HW132936   5.582   4.083   6.788
10679SOL    HW232937   5.482   3.981   6.868
10680SOL     OW32938   3.852   1.717   4.911
10680SOL    HW132939   3.761   1.745   4.880
10680SOL    HW232940   3.880   1.634   4.862
10681SOL     OW32941   2.250   3.349   5.856
10681SOL    HW132942   2.254   3.273   5.922
10681SOL    HW232943   2.197   3.424   5.895
10682SOL     OW32944   5.193   3.154   6.232
10682SOL    HW132945   5.166   3.058   6.237
10682SOL    HW232946   5.162   3.202   6.314
10683SOL     OW32947   1.594   6.393   3.485
10683SOL    HW132948   1.501   6.411   3.455
10683SOL    HW232949   1.622   6.301   3.457
10684SOL     OW32950   5.099   3.555   1.183
10684SOL    HW132951   5.128   3.470   1.140
10684SOL    HW232952   5.029   3.535   1.252
10685SOL     OW32953   0.136   0.630   2.403
10685SOL    HW132954   0.087   0.657   2.320
10685SOL    HW232955   0.213   0.693   2.418
10686SOL     OW32956   2.472   2.402   6.787
10686SOL    HW132957   2.485   2.330   6.718
10686SOL    HW232958   2.451   2.361   6.875
10687SOL     OW32959   0.802   3.373   3.460
10687SOL    HW132960   0.755   3.409   3.540
10687SOL    HW232961   0.765   3.283   3.437
10688SOL     OW32962   4.944   1.415   3.330
10688SOL    HW132963   4.890   1.335   3.306
10688SOL    HW232964   5.018   1.427   3.264
10689SOL     OW32965   1.365   1.083   2.845
10689SOL    HW132966   1.379   1.147   2.769
10689SOL    HW232967   1.350   1.134   2.930
10690SOL     OW32968   1.521   5.908   4.888
10690SOL    HW132969   1.592   5.976   4.868
10690SOL    HW232970   1.483   5.872   4.803
10691SOL     OW32971   4.054   6.906   1.218
10691SOL    HW132972   3.995   6.876   1.293
10691SOL    HW232973   4.068   7.004   1.223
10692SOL     OW32974   2.904   2.064   3.773
10692SOL    HW132975   2.940   2.121   3.700
10692SOL    HW232976   2.804   2.061   3.766
10693SOL     OW32977   1.326   3.931   0.079
10693SOL    HW132978   1.409   3.927   0.135
10693SOL    HW232979   1.246   3.932   0.138
10694SOL     OW32980   4.595   2.220   5.532
10694SOL    HW132981   4.633   2.141   5.579
10694SOL    HW232982   4.497   2.227   5.552
10695SOL     OW32983   4.218   4.714   1.413
10695SOL    HW132984   4.300   4.724   1.357
10695SOL    HW232985   4.240   4.735   1.508
10696SOL     OW32986   6.902   5.331   4.536
10696SOL    HW132987   6.961   5.251   4.523
10696SOL    HW232988   6.934   5.406   4.478
10697SOL     OW32989   2.632   5.071   4.777
10697SOL    HW132990   2.637   5.038   4.872
10697SOL    HW232991   2.631   5.171   4.777
10698SOL     OW32992   4.179   4.532   6.724
10698SOL    HW132993   4.117   4.536   6.802
10698SOL    HW232994   4.244   4.456   6.737
10699SOL     OW32995   4.737   3.661   1.192
10699SOL    HW132996   4.790   3.620   1.266
10699SOL    HW232997   4.745   3.603   1.110
10700SOL     OW32998   5.053   0.238   1.419
10700SOL    HW132999   5.055   0.332   1.386
10700SOL    HW233000   4.962   0.200   1.404
10701SOL     OW33001   3.432   0.096   6.229
10701SOL    HW133002   3.384   0.177   6.194
10701SOL    HW233003   3.478   0.050   6.154
10702SOL     OW33004   5.936   2.837   2.281
10702SOL    HW133005   5.969   2.922   2.240
10702SOL    HW233006   5.886   2.784   2.212
10703SOL     OW33007   0.744   2.002   5.148
10703SOL    HW133008   0.834   1.985   5.188
10703SOL    HW233009   0.679   1.935   5.184
10704SOL     OW33010   5.326   0.088   2.171
10704SOL    HW133011   5.318   7.023   2.127
10704SOL    HW233012   5.284   0.084   2.262
10705SOL     OW33013   5.127   3.280   1.116
10705SOL    HW133014   5.111   3.224   1.034
10705SOL    HW233015   5.221   3.267   1.147
10706SOL     OW33016   2.673   1.069   1.735
10706SOL    HW133017   2.662   1.107   1.827
10706SOL    HW233018   2.673   0.970   1.739
10707SOL     OW33019   3.595   6.853   3.535
10707SOL    HW133020   3.693   6.851   3.556
10707SOL    HW233021   3.571   6.942   3.497
10708SOL     OW33022   3.833   1.141   1.250
10708SOL    HW133023   3.783   1.194   1.182
10708SOL    HW233024   3.894   1.201   1.302
10709SOL     OW33025   5.618   4.314   2.924
10709SOL    HW133026   5.584   4.279   3.011
10709SOL    HW233027   5.680   4.390   2.940
10710SOL     OW33028   4.293   1.624   2.985
10710SOL    HW133029   4.208   1.594   2.940
10710SOL    HW233030   4.356   1.659   2.916
10711SOL     OW33031   2.591   6.616   2.914
10711SOL    HW133032   2.684   6.586   2.891
10711SOL    HW233033   2.571   6.702   2.868
10712SOL     OW33034   5.315   1.425   3.629
10712SOL    HW133035   5.267   1.470   3.704
10712SOL    HW233036   5.251   1.370   3.576
10713SOL     OW33037   1.016   4.423   1.184
10713SOL    HW133038   0.935   4.373   1.213
10713SOL    HW233039   1.054   4.382   1.102
10714SOL     OW33040   3.190   4.146   4.993
10714SOL    HW133041   3.156   4.228   4.948
10714SOL    HW233042   3.217   4.168   5.087
10715SOL     OW33043   6.891   0.123   1.806
10715SOL    HW133044   6.907   0.077   1.719
10715SOL    HW233045   6.876   0.055   1.878
10716SOL     OW33046   4.631   0.521   2.880
10716SOL    HW133047   4.705   0.517   2.947
10716SOL    HW233048   4.636   0.609   2.831
10717SOL     OW33049   3.478   3.086   0.269
10717SOL    HW133050   3.554   3.049   0.216
10717SOL    HW233051   3.454   3.022   0.342
10718SOL     OW33052   1.488   4.614   6.425
10718SOL    HW133053   1.530   4.672   6.496
10718SOL    HW233054   1.393   4.640   6.413
10719SOL     OW33055   0.195   4.610   5.522
10719SOL    HW133056   0.108   4.657   5.509
10719SOL    HW233057   0.180   4.526   5.575
10720SOL     OW33058   6.266   5.553   3.004
10720SOL    HW133059   6.312   5.490   2.942
10720SOL    HW233060   6.222   5.501   3.077
10721SOL     OW33061   4.819   2.645   6.648
10721SOL    HW133062   4.749   2.607   6.709
10721SOL    HW233063   4.804   2.612   6.555
10722SOL     OW33064   0.407   4.113   5.955
10722SOL    HW133065   0.472   4.089   5.882
10722SOL    HW233066   0.422   4.052   6.033
10723SOL     OW33067   5.848   5.901   1.658
10723SOL    HW133068   5.943   5.882   1.683
10723SOL    HW233069   5.844   5.987   1.609
10724SOL     OW33070   0.398   6.210   6.014
10724SOL    HW133071   0.454   6.160   5.949
10724SOL    HW233072   0.450   6.289   6.049
10725SOL     OW33073   2.681   0.232   6.294
10725SOL    HW133074   2.764   0.176   6.293
10725SOL    HW233075   2.613   0.191   6.355
10726SOL     OW33076   3.870   0.701   4.309
10726SOL    HW133077   3.916   0.790   4.311
10726SOL    HW233078   3.845   0.680   4.215
10727SOL     OW33079   2.163   6.529   6.877
10727SOL    HW133080   2.233   6.583   6.831
10727SOL    HW233081   2.206   6.451   6.923
10728SOL     OW33082   5.412   6.455   2.124
10728SOL    HW133083   5.373   6.543   2.152
10728SOL    HW233084   5.484   6.470   2.056
10729SOL     OW33085   6.439   1.515   0.266
10729SOL    HW133086   6.483   1.563   0.342
10729SOL    HW233087   6.394   1.433   0.301
10730SOL     OW33088   5.006   0.585   2.922
10730SOL    HW133089   5.098   0.573   2.959
10730SOL    HW233090   4.939   0.541   2.983
10731SOL     OW33091   2.865   6.709   0.424
10731SOL    HW133092   2.819   6.623   0.402
10731SOL    HW233093   2.834   6.781   0.362
10732SOL     OW33094   0.568   3.432   5.925
10732SOL    HW133095   0.564   3.530   5.946
10732SOL    HW233096   0.493   3.409   5.863
10733SOL     OW33097   6.687   0.162   0.137
10733SOL    HW133098   6.649   0.254   0.148
10733SOL    HW233099   6.616   0.099   0.107
10734SOL     OW33100   5.858   2.793   1.784
10734SOL    HW133101   5.825   2.878   1.743
10734SOL    HW233102   5.894   2.734   1.712
10735SOL     OW33103   6.811   5.466   2.510
10735SOL    HW133104   6.821   5.491   2.414
10735SOL    HW233105   6.825   5.547   2.568
10736SOL     OW33106   2.385   1.569   5.338
10736SOL    HW133107   2.294   1.558   5.297
10736SOL    HW233108   2.427   1.653   5.306
10737SOL     OW33109   0.457   1.664   5.912
10737SOL    HW133110   0.401   1.746   5.916
10737SOL    HW233111   0.437   1.605   5.990
10738SOL     OW33112   4.048   6.814   4.376
10738SOL    HW133113   4.126   6.869   4.347
10738SOL    HW233114   3.963   6.856   4.345
10739SOL     OW33115   1.276   1.013   2.027
10739SOL    HW133116   1.192   0.971   1.992
10739SOL    HW233117   1.255   1.101   2.068
10740SOL     OW33118   4.293   6.388   4.027
10740SOL    HW133119   4.228   6.318   3.996
10740SOL    HW233120   4.370   6.344   4.073
10741SOL     OW33121   2.050   0.828   2.703
10741SOL    HW133122   1.999   0.822   2.790
10741SOL    HW233123   2.086   0.921   2.693
10742SOL     OW33124   6.124   5.516   6.967
10742SOL    HW133125   6.203   5.575   6.951
10742SOL    HW233126   6.042   5.572   6.973
10743SOL     OW33127   3.527   0.920   4.883
10743SOL    HW133128   3.481   0.905   4.795
10743SOL    HW233129   3.578   0.838   4.908
10744SOL     OW33130   5.492   1.066   0.444
10744SOL    HW133131   5.568   1.014   0.484
10744SOL    HW233132   5.523   1.111   0.360
10745SOL     OW33133   6.435   6.121   6.087
10745SOL    HW133134   6.517   6.176   6.099
10745SOL    HW233135   6.456   6.042   6.029
10746SOL     OW33136   1.765   4.138   5.454
10746SOL    HW133137   1.785   4.089   5.369
10746SOL    HW233138   1.762   4.237   5.435
10747SOL     OW33139   2.822   2.258   5.314
10747SOL    HW133140   2.781   2.321   5.247
10747SOL    HW233141   2.917   2.283   5.329
10748SOL     OW33142   5.459   1.454   2.672
10748SOL    HW133143   5.439   1.510   2.592
10748SOL    HW233144   5.455   1.358   2.647
10749SOL     OW33145   4.011   0.767   0.203
10749SOL    HW133146   4.031   0.704   0.277
10749SOL    HW233147   3.939   0.831   0.230
10750SOL     OW33148   4.787   6.021   6.816
10750SOL    HW133149   4.711   6.085   6.817
10750SOL    HW233150   4.825   6.015   6.724
10751SOL     OW33151   2.669   5.881   2.561
10751SOL    HW133152   2.684   5.874   2.462
10751SOL    HW233153   2.612   5.804   2.592
10752SOL     OW33154   4.898   5.745   4.157
10752SOL    HW133155   4.805   5.766   4.127
10752SOL    HW233156   4.911   5.781   4.250
10753SOL     OW33157   5.680   4.181   4.657
10753SOL    HW133158   5.759   4.239   4.674
10753SOL    HW233159   5.602   4.215   4.709
10754SOL     OW33160   0.954   6.833   2.316
10754SOL    HW133161   0.994   6.744   2.295
10754SOL    HW233162   0.981   6.899   2.246
10755SOL     OW33163   6.138   5.970   1.772
10755SOL    HW133164   6.154   5.930   1.681
10755SOL    HW233165   6.181   6.060   1.777
10756SOL     OW33166   6.749   0.047   4.706
10756SOL    HW133167   6.744   0.066   4.804
10756SOL    HW233168   6.817   0.107   4.664
10757SOL     OW33169   2.519   2.726   1.749
10757SOL    HW133170   2.561   2.637   1.730
10757SOL    HW233171   2.497   2.731   1.846
10758SOL     OW33172   6.682   5.466   4.094
10758SOL    HW133173   6.643   5.374   4.094
10758SOL    HW233174   6.769   5.465   4.143
10759SOL     OW33175   6.922   0.733   6.255
10759SOL    HW133176   6.985   0.699   6.186
10759SOL    HW233177   6.870   0.810   6.217
10760SOL     OW33178   5.741   2.070   4.334
10760SOL    HW133179   5.810   1.998   4.333
10760SOL    HW233180   5.695   2.072   4.423
10761SOL     OW33181   3.560   5.504   5.467
10761SOL    HW133182   3.577   5.526   5.563
10761SOL    HW233183   3.636   5.451   5.431
10762SOL     OW33184   3.310   0.981   6.311
10762SOL    HW133185   3.286   0.897   6.360
10762SOL    HW233186   3.311   1.057   6.375
10763SOL     OW33187   4.864   5.141   4.133
10763SOL    HW133188   4.875   5.044   4.112
10763SOL    HW233189   4.795   5.151   4.204
10764SOL     OW33190   5.350   0.301   4.616
10764SOL    HW133191   5.274   0.363   4.637
10764SOL    HW233192   5.436   0.352   4.621
10765SOL     OW33193   0.096   3.957   0.074
10765SOL    HW133194   0.018   3.898   0.055
10765SOL    HW233195   0.065   4.052   0.084
10766SOL     OW33196   2.958   3.788   2.383
10766SOL    HW133197   2.967   3.708   2.442
10766SOL    HW233198   2.972   3.762   2.288
10767SOL     OW33199   4.567   2.143   2.169
10767SOL    HW133200   4.497   2.135   2.098
10767SOL    HW233201   4.536   2.207   2.240
10768SOL     OW33202   6.021   4.463   6.339
10768SOL    HW133203   6.070   4.376   6.334
10768SOL    HW233204   5.992   4.491   6.248
10769SOL     OW33205   2.120   3.376   4.232
10769SOL    HW133206   2.092   3.377   4.328
10769SOL    HW233207   2.196   3.439   4.219
10770SOL     OW33208   4.421   6.046   3.949
10770SOL    HW133209   4.476   6.130   3.946
10770SOL    HW233210   4.463   5.978   3.890
10771SOL     OW33211   2.833   2.324   3.604
10771SOL    HW133212   2.879   2.369   3.527
10771SOL    HW233213   2.741   2.296   3.577
10772SOL     OW33214   5.077   6.010   3.546
10772SOL    HW133215   5.052   5.992   3.451
10772SOL    HW233216   5.128   6.096   3.552
10773SOL     OW33217   6.074   5.350   2.790
10773SOL    HW133218   6.151   5.406   2.761
10773SOL    HW233219   6.044   5.291   2.714
10774SOL     OW33220   0.340   0.019   3.528
10774SOL    HW133221   0.432   0.053   3.507
10774SOL    HW233222   0.272   0.078   3.483
10775SOL     OW33223   0.201   2.439   1.199
10775SOL    HW133224   0.297   2.446   1.226
10775SOL    HW233225   0.156   2.527   1.212
10776SOL     OW33226   2.229   0.471   5.343
10776SOL    HW133227   2.169   0.412   5.398
10776SOL    HW233228   2.233   0.562   5.384
10777SOL     OW33229   3.591   5.415   1.694
10777SOL    HW133230   3.681   5.398   1.655
10777SOL    HW233231   3.533   5.335   1.681
10778SOL     OW33232   5.426   5.760   1.565
10778SOL    HW133233   5.454   5.828   1.632
10778SOL    HW233234   5.505   5.733   1.510
10779SOL     OW33235   5.176   3.077   3.510
10779SOL    HW133236   5.208   3.169   3.487
10779SOL    HW233237   5.219   3.047   3.595
10780SOL     OW33238   6.855   0.193   2.245
10780SOL    HW133239   6.864   0.291   2.259
10780SOL    HW233240   6.794   0.175   2.168
10781SOL     OW33241   3.005   0.381   4.155
10781SOL    HW133242   3.043   0.403   4.066
10781SOL    HW233243   2.915   0.423   4.164
10782SOL     OW33244   0.086   5.926   3.335
10782SOL    HW133245   0.023   6.004   3.330
10782SOL    HW233246   0.167   5.946   3.280
10783SOL     OW33247   6.456   2.887   2.680
10783SOL    HW133248   6.464   2.923   2.772
10783SOL    HW233249   6.365   2.847   2.667
10784SOL     OW33250   1.824   1.583   4.935
10784SOL    HW133251   1.873   1.637   5.003
10784SOL    HW233252   1.751   1.532   4.980
10785SOL     OW33253   1.914   3.589   6.163
10785SOL    HW133254   1.827   3.589   6.113
10785SOL    HW233255   1.898   3.618   6.258
10786SOL     OW33256   7.021   5.078   4.451
10786SOL    HW133257   0.046   5.022   4.518
10786SOL    HW233258   6.954   5.022   4.403
10787SOL     OW33259   1.485   1.969   5.942
10787SOL    HW133260   1.582   1.990   5.929
10787SOL    HW233261   1.439   2.048   5.983
10788SOL     OW33262   5.508   4.068   6.259
10788SOL    HW133263   5.418   4.086   6.220
10788SOL    HW233264   5.502   3.987   6.319
10789SOL     OW33265   4.530   0.658   6.389
10789SOL    HW133266   4.464   0.721   6.430
10789SOL    HW233267   4.498   0.631   6.298
10790SOL     OW33268   5.238   0.050   2.435
10790SOL    HW133269   5.235   7.006   2.509
10790SOL    HW233270   5.308   0.118   2.456
10791SOL     OW33271   0.681   5.709   2.840
10791SOL    HW133272   0.660   5.618   2.806
10791SOL    HW233273   0.662   5.777   2.768
10792SOL     OW33274   4.449   4.889   6.452
10792SOL    HW133275   4.351   4.900   6.436
10792SOL    HW233276   4.463   4.839   6.537
10793SOL     OW33277   5.343   4.538   4.583
10793SOL    HW133278   5.285   4.604   4.630
10793SOL    HW233279   5.312   4.527   4.489
10794SOL     OW33280   3.400   3.164   4.359
10794SOL    HW133281   3.418   3.233   4.428
10794SOL    HW233282   3.344   3.091   4.398
10795SOL     OW33283   6.925   4.593   2.567
10795SOL    HW133284   6.996   4.662   2.582
10795SOL    HW233285   6.840   4.638   2.538
10796SOL     OW33286   1.103   6.567   5.414
10796SOL    HW133287   1.152   6.512   5.347
10796SOL    HW233288   1.118   6.664   5.395
10797SOL     OW33289   3.450   2.672   0.346
10797SOL    HW133290   3.459   2.669   0.246
10797SOL    HW233291   3.392   2.749   0.372
10798SOL     OW33292   5.755   1.666   0.724
10798SOL    HW133293   5.817   1.600   0.767
10798SOL    HW233294   5.661   1.632   0.731
10799SOL     OW33295   5.100   1.640   1.170
10799SOL    HW133296   5.096   1.555   1.223
10799SOL    HW233297   5.193   1.653   1.136
10800SOL     OW33298   6.158   6.730   1.554
10800SOL    HW133299   6.167   6.818   1.601
10800SOL    HW233300   6.248   6.697   1.526
10801SOL     OW33301   2.215   0.540   1.194
10801SOL    HW133302   2.183   0.551   1.288
10801SOL    HW233303   2.315   0.539   1.193
10802SOL     OW33304   5.219   1.565   3.882
10802SOL    HW133305   5.135   1.618   3.869
10802SOL    HW233306   5.289   1.623   3.923
10803SOL     OW33307   2.272   5.155   4.531
10803SOL    HW133308   2.300   5.109   4.615
10803SOL    HW233309   2.176   5.183   4.539
10804SOL     OW33310   5.868   3.124   4.150
10804SOL    HW133311   5.959   3.162   4.137
10804SOL    HW233312   5.868   3.028   4.121
10805SOL     OW33313   6.747   6.597   6.480
10805SOL    HW133314   6.725   6.564   6.389
10805SOL    HW233315   6.819   6.666   6.474
10806SOL     OW33316   2.014   5.117   1.322
10806SOL    HW133317   2.084   5.184   1.298
10806SOL    HW233318   1.966   5.087   1.239
10807SOL     OW33319   3.258   5.101   4.969
10807SOL    HW133320   3.300   5.186   5.001
10807SOL    HW233321   3.166   5.092   5.007
10808SOL     OW33322   1.804   3.094   0.549
10808SOL    HW133323   1.813   3.139   0.461
10808SOL    HW233324   1.840   3.154   0.621
10809SOL     OW33325   1.682   1.275   4.706
10809SOL    HW133326   1.709   1.322   4.622
10809SOL    HW233327   1.595   1.313   4.739
10810SOL     OW33328   6.926   0.260   3.359
10810SOL    HW133329   6.870   0.331   3.402
10810SOL    HW233330   6.905   0.171   3.400
10811SOL     OW33331   4.510   5.467   4.729
10811SOL    HW133332   4.445   5.510   4.791
10811SOL    HW233333   4.474   5.379   4.698
10812SOL     OW33334   0.511   2.690   0.936
10812SOL    HW133335   0.496   2.773   0.989
10812SOL    HW233336   0.424   2.650   0.910
10813SOL     OW33337   1.330   3.585   6.532
10813SOL    HW133338   1.405   3.648   6.512
10813SOL    HW233339   1.367   3.493   6.548
10814SOL     OW33340   3.122   1.663   2.546
10814SOL    HW133341   3.190   1.630   2.480
10814SOL    HW233342   3.072   1.740   2.507
10815SOL     OW33343   5.221   1.412   4.356
10815SOL    HW133344   5.259   1.332   4.309
10815SOL    HW233345   5.185   1.383   4.445
10816SOL     OW33346   2.861   2.389   5.807
10816SOL    HW133347   2.775   2.395   5.858
10816SOL    HW233348   2.906   2.479   5.808
10817SOL     OW33349   2.162   6.425   4.900
10817SOL    HW133350   2.168   6.333   4.938
10817SOL    HW233351   2.076   6.468   4.929
10818SOL     OW33352   5.028   4.202   0.837
10818SOL    HW133353   5.038   4.154   0.750
10818SOL    HW233354   4.944   4.256   0.836
10819SOL     OW33355   6.642   5.648   5.411
10819SOL    HW133356   6.608   5.638   5.504
10819SOL    HW233357   6.701   5.571   5.389
10820SOL     OW33358   1.386   4.960   6.201
10820SOL    HW133359   1.371   5.015   6.120
10820SOL    HW233360   1.365   4.864   6.181
10821SOL     OW33361   4.397   5.644   4.108
10821SOL    HW133362   4.338   5.623   4.030
10821SOL    HW233363   4.343   5.690   4.179
10822SOL     OW33364   5.329   0.282   3.074
10822SOL    HW133365   5.342   0.242   3.165
10822SOL    HW233366   5.327   0.210   3.005
10823SOL     OW33367   5.651   6.423   2.737
10823SOL    HW133368   5.698   6.377   2.812
10823SOL    HW233369   5.598   6.500   2.772
10824SOL     OW33370   2.002   2.082   3.975
10824SOL    HW133371   2.011   2.180   3.960
10824SOL    HW233372   1.950   2.066   4.059
10825SOL     OW33373   6.935   1.310   6.904
10825SOL    HW133374   6.889   1.241   6.960
10825SOL    HW233375   6.915   1.294   6.807
10826SOL     OW33376   6.723   3.696   2.949
10826SOL    HW133377   6.628   3.666   2.947
10826SOL    HW233378   6.734   3.775   2.888
10827SOL     OW33379   0.587   2.932   3.339
10827SOL    HW133380   0.515   2.978   3.289
10827SOL    HW233381   0.657   2.998   3.366
10828SOL     OW33382   6.980   4.183   5.134
10828SOL    HW133383   0.039   4.135   5.162
10828SOL    HW233384   6.978   4.190   5.034
10829SOL     OW33385   3.688   2.944   5.552
10829SOL    HW133386   3.618   3.003   5.513
10829SOL    HW233387   3.668   2.849   5.528
10830SOL     OW33388   5.020   2.207   3.887
10830SOL    HW133389   5.067   2.125   3.854
10830SOL    HW233390   5.088   2.272   3.921
10831SOL     OW33391   4.262   0.172   3.059
10831SOL    HW133392   4.296   0.255   3.103
10831SOL    HW233393   4.335   0.104   3.057
10832SOL     OW33394   7.001   4.023   6.353
10832SOL    HW133395   6.930   4.092   6.366
10832SOL    HW233396   0.058   4.048   6.405
10833SOL     OW33397   0.951   0.848   6.407
10833SOL    HW133398   1.027   0.855   6.342
10833SOL    HW233399   0.892   0.928   6.398
10834SOL     OW33400   6.687   6.086   2.522
10834SOL    HW133401   6.619   6.015   2.503
10834SOL    HW233402   6.747   6.056   2.596
10835SOL     OW33403   0.064   2.623   5.493
10835SOL    HW133404   0.107   2.606   5.581
10835SOL    HW233405   6.989   2.617   5.503
10836SOL     OW33406   6.606   2.175   3.378
10836SOL    HW133407   6.539   2.232   3.331
10836SOL    HW233408   6.677   2.234   3.418
10837SOL     OW33409   0.574   3.104   3.629
10837SOL    HW133410   0.663   3.098   3.584
10837SOL    HW233411   0.529   3.014   3.627
10838SOL     OW33412   6.962   6.730   2.398
10838SOL    HW133413   6.992   6.704   2.490
10838SOL    HW233414   0.005   6.791   2.357
10839SOL     OW33415   4.145   2.296   6.630
10839SOL    HW133416   4.133   2.395   6.627
10839SOL    HW233417   4.134   2.258   6.538
10840SOL     OW33418   3.071   0.545   2.023
10840SOL    HW133419   2.975   0.552   2.050
10840SOL    HW233420   3.124   0.616   2.070
10841SOL     OW33421   2.571   5.891   4.179
10841SOL    HW133422   2.618   5.958   4.236
10841SOL    HW233423   2.530   5.821   4.237
10842SOL     OW33424   6.688   4.722   2.014
10842SOL    HW133425   6.724   4.781   1.943
10842SOL    HW233426   6.647   4.777   2.087
10843SOL     OW33427   2.416   1.340   1.041
10843SOL    HW133428   2.383   1.247   1.029
10843SOL    HW233429   2.341   1.404   1.022
10844SOL     OW33430   1.703   5.510   4.333
10844SOL    HW133431   1.776   5.515   4.264
10844SOL    HW233432   1.621   5.470   4.292
10845SOL     OW33433   4.107   0.585   4.258
10845SOL    HW133434   4.015   0.623   4.270
10845SOL    HW233435   4.143   0.613   4.169
10846SOL     OW33436   5.367   6.870   5.979
10846SOL    HW133437   5.302   6.802   6.014
10846SOL    HW233438   5.394   6.931   6.054
10847SOL     OW33439   3.290   0.097   6.871
10847SOL    HW133440   3.385   0.083   6.842
10847SOL    HW233441   3.283   0.184   6.921
10848SOL     OW33442   1.771   2.795   2.517
10848SOL    HW133443   1.675   2.797   2.544
10848SOL    HW233444   1.805   2.701   2.523
10849SOL     OW33445   1.116   6.593   3.469
10849SOL    HW133446   1.022   6.563   3.452
10849SOL    HW233447   1.116   6.663   3.540
10850SOL     OW33448   4.955   4.084   0.042
10850SOL    HW133449   5.017   4.161   0.027
10850SOL    HW233450   4.923   4.049   6.979
10851SOL     OW33451   1.039   4.366   0.875
10851SOL    HW133452   1.062   4.463   0.863
10851SOL    HW233453   1.106   4.323   0.935
10852SOL     OW33454   2.614   0.556   1.505
10852SOL    HW133455   2.675   0.494   1.456
10852SOL    HW233456   2.647   0.650   1.493
10853SOL     OW33457   3.294   0.722   6.472
10853SOL    HW133458   3.229   0.650   6.451
10853SOL    HW233459   3.294   0.739   6.571
10854SOL     OW33460   2.893   6.617   5.887
10854SOL    HW133461   2.828   6.560   5.836
10854SOL    HW233462   2.905   6.578   5.979
10855SOL     OW33463   4.574   0.903   6.591
10855SOL    HW133464   4.499   0.963   6.562
10855SOL    HW233465   4.541   0.808   6.595
10856SOL     OW33466   0.427   0.621   0.816
10856SOL    HW133467   0.405   0.533   0.859
10856SOL    HW233468   0.524   0.641   0.831
10857SOL     OW33469   5.763   1.349   1.425
10857SOL    HW133470   5.769   1.253   1.397
10857SOL    HW233471   5.786   1.357   1.522
10858SOL     OW33472   2.227   6.381   2.166
10858SOL    HW133473   2.325   6.362   2.158
10858SOL    HW233474   2.196   6.358   2.258
10859SOL     OW33475   2.073   4.652   3.674
10859SOL    HW133476   2.027   4.570   3.641
10859SOL    HW233477   2.135   4.686   3.603
10860SOL     OW33478   0.997   3.544   2.900
10860SOL    HW133479   1.019   3.526   2.995
10860SOL    HW233480   1.060   3.614   2.864
10861SOL     OW33481   4.463   3.297   5.496
10861SOL    HW133482   4.448   3.238   5.575
10861SOL    HW233483   4.538   3.262   5.441
10862SOL     OW33484   1.115   0.391   5.683
10862SOL    HW133485   1.115   0.468   5.747
10862SOL    HW233486   1.200   0.393   5.630
10863SOL     OW33487   1.833   6.936   4.330
10863SOL    HW133488   1.742   6.945   4.289
10863SOL    HW233489   1.850   6.840   4.352
10864SOL     OW33490   3.108   6.856   4.082
10864SOL    HW133491   3.080   6.931   4.023
10864SOL    HW233492   3.184   6.807   4.040
10865SOL     OW33493   6.774   0.620   5.950
10865SOL    HW133494   6.782   0.670   6.037
10865SOL    HW233495   6.677   0.604   5.930
10866SOL     OW33496   6.706   5.239   6.909
10866SOL    HW133497   6.677   5.158   6.858
10866SOL    HW233498   6.780   5.285   6.860
10867SOL     OW33499   2.999   1.392   0.214
10867SOL    HW133500   3.010   1.337   0.297
10867SOL    HW233501   3.076   1.456   0.206
10868SOL     OW33502   1.948   2.323   3.858
10868SOL    HW133503   1.924   2.320   3.761
10868SOL    HW233504   2.002   2.405   3.877
10869NA      NA33505   6.687   2.457   5.225
10870NA      NA33506   4.508   4.564   5.121
10871NA      NA33507   2.052   3.432   1.843
10872NA      NA33508   4.935   3.447   4.845
10873NA      NA33509   4.395   2.424   5.161
10874NA      NA33510   3.668   4.905   2.184
10875NA      NA33511   6.697   6.231   4.901
10876NA      NA33512   3.583   3.240   5.094
10877NA      NA33513   4.622   6.072   6.227
10878NA      NA33514   2.775   6.679   4.809
10879NA      NA33515   0.431   4.904   3.287
10880NA      NA33516   1.932   0.602   2.021
10881NA      NA33517   4.100   4.043   1.097
10882NA      NA33518   3.846   3.399   3.235
   7.02426   7.02426   7.02426
