Generated by trjconv : CNT in water t= 602.00000
33518
    1C        C    1   2.845   2.769   4.748
    1C        C    2   2.901   2.722   4.869
    1C        C    3   2.845   2.770   4.988
    1C        C    4   2.849   2.776   4.261
    1C        C    5   2.901   2.727   4.383
    1C        C    6   2.841   2.767   4.505
    1C        C    7   3.007   2.634   4.624
    1C        C    8   2.892   2.715   4.626
    1C        C    9   3.073   2.601   4.745
    1C        C   10   3.012   2.635   4.867
    1C        C   11   3.181   2.491   4.975
    1C        C   12   3.062   2.565   4.978
    1C        C   13   2.854   2.770   3.773
    1C        C   14   2.900   2.719   3.897
    1C        C   15   2.848   2.770   4.018
    1C        C   16   3.015   2.641   4.139
    1C        C   17   2.901   2.725   4.140
    1C        C   18   3.079   2.613   4.261
    1C        C   19   3.018   2.649   4.384
    1C        C   20   3.206   2.552   4.503
    1C        C   21   3.073   2.599   4.504
    1C        C   22   3.277   2.538   4.624
    1C        C   23   3.205   2.549   4.745
    1C        C   24   3.411   2.484   4.864
    1C        C   25   3.269   2.498   4.862
    1C        C   26   3.490   2.480   4.980
    1C        C   27   2.851   2.765   3.282
    1C        C   28   2.908   2.726   3.406
    1C        C   29   2.857   2.774   3.528
    1C        C   30   3.018   2.637   3.651
    1C        C   31   2.904   2.722   3.650
    1C        C   32   3.079   2.602   3.773
    1C        C   33   3.016   2.638   3.894
    1C        C   34   3.205   2.544   4.017
    1C        C   35   3.077   2.605   4.017
    1C        C   36   3.274   2.528   4.138
    1C        C   37   3.208   2.555   4.260
    1C        C   38   3.415   2.509   4.381
    1C        C   39   3.275   2.531   4.382
    1C        C   40   3.483   2.495   4.504
    1C        C   41   3.414   2.502   4.627
    1C        C   42   3.631   2.481   4.745
    1C        C   43   3.489   2.486   4.745
    1C        C   44   3.707   2.481   4.864
    1C        C   45   3.629   2.484   4.980
    1C        C   46   2.836   2.751   2.794
    1C        C   47   2.896   2.713   2.916
    1C        C   48   2.849   2.767   3.038
    1C        C   49   3.018   2.638   3.162
    1C        C   50   2.901   2.717   3.159
    1C        C   51   3.079   2.603   3.284
    1C        C   52   3.019   2.639   3.407
    1C        C   53   3.209   2.544   3.529
    1C        C   54   3.079   2.599   3.529
    1C        C   55   3.275   2.521   3.652
    1C        C   56   3.209   2.546   3.774
    1C        C   57   3.415   2.500   3.893
    1C        C   58   3.275   2.519   3.897
    1C        C   59   3.484   2.494   4.016
    1C        C   60   3.413   2.502   4.137
    1C        C   61   3.627   2.505   4.260
    1C        C   62   3.485   2.503   4.259
    1C        C   63   3.698   2.511   4.382
    1C        C   64   3.624   2.502   4.503
    1C        C   65   3.834   2.545   4.620
    1C        C   66   3.698   2.507   4.623
    1C        C   67   3.901   2.571   4.742
    1C        C   68   3.840   2.528   4.861
    1C        C   69   4.051   2.589   4.979
    1C        C   70   3.923   2.532   4.974
    1C        C   71   2.822   2.733   2.309
    1C        C   72   2.883   2.692   2.430
    1C        C   73   2.827   2.743   2.549
    1C        C   74   3.004   2.625   2.674
    1C        C   75   2.885   2.702   2.671
    1C        C   76   3.071   2.595   2.795
    1C        C   77   3.013   2.634   2.918
    1C        C   78   3.208   2.545   3.038
    1C        C   79   3.079   2.603   3.039
    1C        C   80   3.274   2.523   3.161
    1C        C   81   3.206   2.543   3.284
    1C        C   82   3.412   2.491   3.404
    1C        C   83   3.274   2.522   3.406
    1C        C   84   3.483   2.485   3.526
    1C        C   85   3.414   2.497   3.649
    1C        C   86   3.627   2.499   3.769
    1C        C   87   3.486   2.496   3.771
    1C        C   88   3.694   2.511   3.893
    1C        C   89   3.625   2.501   4.015
    1C        C   90   3.831   2.553   4.136
    1C        C   91   3.696   2.513   4.137
    1C        C   92   3.897   2.580   4.258
    1C        C   93   3.833   2.552   4.381
    1C        C   94   4.030   2.638   4.499
    1C        C   95   3.902   2.577   4.501
    1C        C   96   4.090   2.677   4.620
    1C        C   97   4.029   2.634   4.740
    1C        C   98   4.194   2.762   4.863
    1C        C   99   4.098   2.656   4.862
    1C        C  100   4.210   2.846   4.974
    1C        C  101   2.825   2.733   2.069
    1C        C  102   2.991   2.595   2.193
    1C        C  103   2.876   2.680   2.189
    1C        C  104   3.065   2.576   2.313
    1C        C  105   3.004   2.618   2.433
    1C        C  106   3.199   2.532   2.552
    1C        C  107   3.070   2.590   2.555
    1C        C  108   3.270   2.521   2.674
    1C        C  109   3.201   2.540   2.796
    1C        C  110   3.412   2.496   2.915
    1C        C  111   3.273   2.519   2.916
    1C        C  112   3.483   2.491   3.037
    1C        C  113   3.413   2.501   3.159
    1C        C  114   3.624   2.501   3.280
    1C        C  115   3.484   2.489   3.282
    1C        C  116   3.693   2.510   3.403
    1C        C  117   3.623   2.498   3.525
    1C        C  118   3.831   2.549   3.647
    1C        C  119   3.695   2.510   3.646
    1C        C  120   3.894   2.577   3.770
    1C        C  121   3.830   2.551   3.893
    1C        C  122   4.021   2.647   4.013
    1C        C  123   3.898   2.578   4.014
    1C        C  124   4.084   2.681   4.135
    1C        C  125   4.021   2.649   4.257
    1C        C  126   4.195   2.771   4.375
    1C        C  127   4.086   2.682   4.377
    1C        C  128   4.242   2.823   4.498
    1C        C  129   4.191   2.776   4.621
    1C        C  130   4.332   2.933   4.742
    1C        C  131   4.246   2.819   4.744
    1C        C  132   4.364   3.002   4.861
    1C        C  133   4.297   2.954   4.974
    1C        C  134   3.171   2.475   2.083
    1C        C  135   3.036   2.508   2.088
    1C        C  136   3.261   2.486   2.190
    1C        C  137   3.196   2.522   2.310
    1C        C  138   3.405   2.484   2.427
    1C        C  139   3.265   2.503   2.431
    1C        C  140   3.479   2.481   2.548
    1C        C  141   3.409   2.494   2.669
    1C        C  142   3.621   2.500   2.792
    1C        C  143   3.480   2.490   2.791
    1C        C  144   3.693   2.514   2.913
    1C        C  145   3.624   2.498   3.036
    1C        C  146   3.832   2.540   3.156
    1C        C  147   3.695   2.505   3.158
    1C        C  148   3.895   2.569   3.279
    1C        C  149   3.831   2.543   3.402
    1C        C  150   4.022   2.636   3.524
    1C        C  151   3.898   2.569   3.524
    1C        C  152   4.081   2.676   3.646
    1C        C  153   4.021   2.640   3.768
    1C        C  154   4.197   2.762   3.887
    1C        C  155   4.081   2.681   3.889
    1C        C  156   4.244   2.815   4.009
    1C        C  157   4.198   2.765   4.132
    1C        C  158   4.342   2.923   4.253
    1C        C  159   4.252   2.814   4.253
    1C        C  160   4.379   2.984   4.375
    1C        C  161   4.331   2.933   4.497
    1C        C  162   4.439   3.115   4.616
    1C        C  163   4.373   2.990   4.619
    1C        C  164   4.472   3.182   4.735
    1C        C  165   4.440   3.121   4.858
    1C        C  166   4.519   3.320   4.972
    1C        C  167   4.484   3.185   4.974
    1C        C  168   3.479   2.432   2.075
    1C        C  169   3.400   2.459   2.188
    1C        C  170   3.618   2.470   2.308
    1C        C  171   3.476   2.468   2.306
    1C        C  172   3.692   2.492   2.427
    1C        C  173   3.620   2.492   2.549
    1C        C  174   3.829   2.538   2.666
    1C        C  175   3.691   2.507   2.670
    1C        C  176   3.894   2.565   2.789
    1C        C  177   3.829   2.549   2.913
    1C        C  178   4.023   2.635   3.034
    1C        C  179   3.899   2.568   3.035
    1C        C  180   4.082   2.669   3.158
    1C        C  181   4.022   2.631   3.280
    1C        C  182   4.193   2.760   3.398
    1C        C  183   4.082   2.673   3.401
    1C        C  184   4.246   2.806   3.520
    1C        C  185   4.195   2.760   3.644
    1C        C  186   4.337   2.920   3.765
    1C        C  187   4.250   2.809   3.765
    1C        C  188   4.377   2.980   3.887
    1C        C  189   4.338   2.921   4.009
    1C        C  190   4.452   3.103   4.127
    1C        C  191   4.381   2.981   4.130
    1C        C  192   4.477   3.172   4.248
    1C        C  193   4.451   3.106   4.370
    1C        C  194   4.505   3.312   4.493
    1C        C  195   4.469   3.176   4.492
    1C        C  196   4.524   3.386   4.612
    1C        C  197   4.515   3.318   4.735
    1C        C  198   4.555   3.535   4.853
    1C        C  199   4.536   3.393   4.854
    1C        C  200   4.582   3.620   4.965
    1C        C  201   3.618   2.414   2.077
    1C        C  202   3.827   2.514   2.184
    1C        C  203   3.693   2.463   2.188
    1C        C  204   3.899   2.544   2.303
    1C        C  205   3.828   2.528   2.424
    1C        C  206   4.023   2.620   2.543
    1C        C  207   3.898   2.556   2.544
    1C        C  208   4.080   2.664   2.665
    1C        C  209   4.020   2.629   2.787
    1C        C  210   4.196   2.749   2.910
    1C        C  211   4.083   2.664   2.909
    1C        C  212   4.246   2.803   3.031
    1C        C  213   4.193   2.756   3.154
    1C        C  214   4.335   2.916   3.275
    1C        C  215   4.246   2.807   3.275
    1C        C  216   4.370   2.976   3.398
    1C        C  217   4.337   2.914   3.521
    1C        C  218   4.443   3.100   3.639
    1C        C  219   4.379   2.974   3.642
    1C        C  220   4.477   3.165   3.760
    1C        C  221   4.445   3.104   3.883
    1C        C  222   4.514   3.305   4.004
    1C        C  223   4.479   3.168   4.005
    1C        C  224   4.524   3.378   4.125
    1C        C  225   4.512   3.309   4.247
    1C        C  226   4.525   3.520   4.367
    1C        C  227   4.518   3.379   4.369
    1C        C  228   4.525   3.594   4.487
    1C        C  229   4.532   3.527   4.611
    1C        C  230   4.509   3.741   4.727
    1C        C  231   4.543   3.604   4.729
    1C        C  232   4.496   3.818   4.845
    1C        C  233   4.548   3.756   4.959
    1C        C  234   4.013   2.617   2.069
    1C        C  235   3.894   2.546   2.065
    1C        C  236   4.084   2.654   2.184
    1C        C  237   4.025   2.610   2.304
    1C        C  238   4.202   2.738   2.423
    1C        C  239   4.090   2.651   2.422
    1C        C  240   4.250   2.789   2.545
    1C        C  241   4.194   2.748   2.668
    1C        C  242   4.340   2.905   2.787
    1C        C  243   4.251   2.795   2.788
    1C        C  244   4.382   2.964   2.908
    1C        C  245   4.336   2.911   3.030
    1C        C  246   4.443   3.096   3.150
    1C        C  247   4.377   2.971   3.152
    1C        C  248   4.466   3.162   3.273
    1C        C  249   4.436   3.101   3.396
    1C        C  250   4.509   3.302   3.514
    1C        C  251   4.465   3.168   3.517
    1C        C  252   4.522   3.372   3.636
    1C        C  253   4.514   3.301   3.758
    1C        C  254   4.530   3.512   3.880
    1C        C  255   4.527   3.371   3.880
    1C        C  256   4.522   3.587   4.000
    1C        C  257   4.528   3.519   4.124
    1C        C  258   4.492   3.730   4.241
    1C        C  259   4.519   3.592   4.245
    1C        C  260   4.468   3.798   4.363
    1C        C  261   4.487   3.730   4.486
    1C        C  262   4.425   3.937   4.604
    1C        C  263   4.476   3.805   4.605
    1C        C  264   4.399   4.007   4.724
    1C        C  265   4.438   3.947   4.846
    1C        C  266   4.318   4.129   4.957
    1C        C  267   4.390   4.010   4.961
    1C        C  268   4.267   2.775   2.064
    1C        C  269   4.197   2.738   2.180
    1C        C  270   4.350   2.890   2.300
    1C        C  271   4.256   2.783   2.300
    1C        C  272   4.382   2.956   2.420
    1C        C  273   4.342   2.897   2.542
    1C        C  274   4.451   3.081   2.663
    1C        C  275   4.381   2.959   2.663
    1C        C  276   4.478   3.151   2.782
    1C        C  277   4.452   3.087   2.905
    1C        C  278   4.510   3.293   3.027
    1C        C  279   4.477   3.156   3.026
    1C        C  280   4.518   3.366   3.147
    1C        C  281   4.510   3.296   3.270
    1C        C  282   4.522   3.511   3.390
    1C        C  283   4.520   3.370   3.390
    1C        C  284   4.515   3.582   3.512
    1C        C  285   4.520   3.513   3.635
    1C        C  286   4.496   3.722   3.754
    1C        C  287   4.523   3.583   3.758
    1C        C  288   4.476   3.792   3.875
    1C        C  289   4.494   3.725   3.998
    1C        C  290   4.425   3.929   4.118
    1C        C  291   4.475   3.797   4.118
    1C        C  292   4.392   3.995   4.239
    1C        C  293   4.422   3.931   4.362
    1C        C  294   4.320   4.121   4.477
    1C        C  295   4.391   3.999   4.481
    1C        C  296   4.276   4.179   4.598
    1C        C  297   4.325   4.128   4.720
    1C        C  298   4.201   4.312   4.840
    1C        C  299   4.285   4.196   4.839
    1C        C  300   4.170   4.401   4.948
    1C        C  301   4.353   2.884   2.062
    1C        C  302   4.472   3.069   2.177
    1C        C  303   4.401   2.944   2.179
    1C        C  304   4.483   3.143   2.298
    1C        C  305   4.448   3.081   2.420
    1C        C  306   4.513   3.284   2.538
    1C        C  307   4.481   3.147   2.541
    1C        C  308   4.525   3.355   2.659
    1C        C  309   4.509   3.289   2.783
    1C        C  310   4.536   3.501   2.902
    1C        C  311   4.529   3.360   2.904
    1C        C  312   4.521   3.575   3.022
    1C        C  313   4.521   3.507   3.146
    1C        C  314   4.489   3.718   3.266
    1C        C  315   4.516   3.580   3.267
    1C        C  316   4.475   3.790   3.387
    1C        C  317   4.490   3.721   3.510
    1C        C  318   4.421   3.921   3.631
    1C        C  319   4.471   3.789   3.632
    1C        C  320   4.387   3.984   3.752
    1C        C  321   4.419   3.921   3.875
    1C        C  322   4.310   4.106   3.993
    1C        C  323   4.387   3.987   3.995
    1C        C  324   4.276   4.170   4.114
    1C        C  325   4.318   4.115   4.237
    1C        C  326   4.185   4.286   4.355
    1C        C  327   4.280   4.182   4.356
    1C        C  328   4.131   4.334   4.476
    1C        C  329   4.185   4.288   4.598
    1C        C  330   4.025   4.433   4.716
    1C        C  331   4.142   4.352   4.717
    1C        C  332   3.970   4.493   4.832
    1C        C  333   4.053   4.477   4.944
    1C        C  334   4.557   3.268   2.063
    1C        C  335   4.539   3.130   2.066
    1C        C  336   4.543   3.350   2.176
    1C        C  337   4.523   3.279   2.296
    1C        C  338   4.531   3.495   2.412
    1C        C  339   4.530   3.354   2.416
    1C        C  340   4.525   3.567   2.534
    1C        C  341   4.530   3.496   2.656
    1C        C  342   4.498   3.707   2.775
    1C        C  343   4.526   3.568   2.778
    1C        C  344   4.476   3.779   2.895
    1C        C  345   4.491   3.713   3.019
    1C        C  346   4.419   3.912   3.138
    1C        C  347   4.471   3.781   3.141
    1C        C  348   4.385   3.976   3.259
    1C        C  349   4.422   3.921   3.384
    1C        C  350   4.312   4.099   3.504
    1C        C  351   4.390   3.982   3.507
    1C        C  352   4.271   4.161   3.624
    1C        C  353   4.311   4.104   3.746
    1C        C  354   4.175   4.265   3.867
    1C        C  355   4.267   4.157   3.869
    1C        C  356   4.123   4.317   3.988
    1C        C  357   4.176   4.270   4.110
    1C        C  358   4.013   4.407   4.232
    1C        C  359   4.128   4.325   4.231
    1C        C  360   3.954   4.450   4.352
    1C        C  361   4.017   4.418   4.474
    1C        C  362   3.829   4.517   4.594
    1C        C  363   3.959   4.462   4.595
    1C        C  364   3.763   4.547   4.715
    1C        C  365   3.838   4.543   4.834
    1C        C  366   3.629   4.597   4.950
    1C        C  367   3.765   4.573   4.950
    1C        C  368   4.512   3.564   2.053
    1C        C  369   4.526   3.490   2.171
    1C        C  370   4.502   3.705   2.289
    1C        C  371   4.518   3.565   2.290
    1C        C  372   4.480   3.775   2.410
    1C        C  373   4.497   3.705   2.532
    1C        C  374   4.421   3.905   2.653
    1C        C  375   4.474   3.774   2.653
    1C        C  376   4.391   3.975   2.772
    1C        C  377   4.423   3.910   2.893
    1C        C  378   4.317   4.095   3.013
    1C        C  379   4.394   3.976   3.014
    1C        C  380   4.268   4.149   3.134
    1C        C  381   4.312   4.097   3.258
    1C        C  382   4.177   4.260   3.377
    1C        C  383   4.270   4.153   3.380
    1C        C  384   4.122   4.310   3.498
    1C        C  385   4.172   4.262   3.621
    1C        C  386   4.005   4.389   3.744
    1C        C  387   4.120   4.307   3.744
    1C        C  388   3.947   4.433   3.864
    1C        C  389   4.007   4.398   3.987
    1C        C  390   3.823   4.501   4.109
    1C        C  391   3.950   4.440   4.109
    1C        C  392   3.753   4.519   4.231
    1C        C  393   3.824   4.507   4.352
    1C        C  394   3.618   4.554   4.476
    1C        C  395   3.758   4.538   4.473
    1C        C  396   3.547   4.561   4.598
    1C        C  397   3.622   4.562   4.718
    1C        C  398   3.409   4.550   4.839
    1C        C  399   3.548   4.574   4.838
    1C        C  400   3.342   4.509   4.955
    1C        C  401   4.511   3.703   2.051
    1C        C  402   4.450   3.911   2.169
    1C        C  403   4.496   3.778   2.169
    1C        C  404   4.411   3.977   2.288
    1C        C  405   4.433   3.908   2.409
    1C        C  406   4.324   4.091   2.526
    1C        C  407   4.396   3.970   2.530
    1C        C  408   4.277   4.149   2.646
    1C        C  409   4.310   4.091   2.770
    1C        C  410   4.170   4.250   2.889
    1C        C  411   4.266   4.147   2.892
    1C        C  412   4.119   4.301   3.011
    1C        C  413   4.173   4.253   3.133
    1C        C  414   4.003   4.380   3.255
    1C        C  415   4.119   4.299   3.255
    1C        C  416   3.944   4.422   3.376
    1C        C  417   4.007   4.391   3.500
    1C        C  418   3.817   4.487   3.620
    1C        C  419   3.944   4.426   3.622
    1C        C  420   3.752   4.515   3.742
    1C        C  421   3.816   4.488   3.865
    1C        C  422   3.615   4.548   3.989
    1C        C  423   3.754   4.521   3.987
    1C        C  424   3.542   4.549   4.110
    1C        C  425   3.614   4.544   4.232
    1C        C  426   3.404   4.545   4.359
    1C        C  427   3.545   4.550   4.355
    1C        C  428   3.331   4.549   4.480
    1C        C  429   3.406   4.559   4.600
    1C        C  430   3.194   4.524   4.724
    1C        C  431   3.333   4.553   4.720
    1C        C  432   3.125   4.498   4.846
    1C        C  433   3.205   4.489   4.960
    1C        C  434   4.388   4.119   2.054
    1C        C  435   4.450   3.993   2.055
    1C        C  436   4.302   4.157   2.162
    1C        C  437   4.335   4.097   2.286
    1C        C  438   4.182   4.252   2.401
    1C        C  439   4.279   4.150   2.405
    1C        C  440   4.125   4.297   2.523
    1C        C  441   4.176   4.248   2.645
    1C        C  442   4.008   4.382   2.767
    1C        C  443   4.120   4.296   2.766
    1C        C  444   3.945   4.418   2.888
    1C        C  445   4.001   4.379   3.011
    1C        C  446   3.814   4.479   3.133
    1C        C  447   3.942   4.418   3.133
    1C        C  448   3.747   4.500   3.256
    1C        C  449   3.815   4.479   3.378
    1C        C  450   3.609   4.533   3.499
    1C        C  451   3.748   4.508   3.499
    1C        C  452   3.542   4.546   3.622
    1C        C  453   3.613   4.542   3.745
    1C        C  454   3.402   4.546   3.867
    1C        C  455   3.543   4.551   3.867
    1C        C  456   3.333   4.532   3.989
    1C        C  457   3.401   4.542   4.113
    1C        C  458   3.197   4.502   4.239
    1C        C  459   3.335   4.532   4.237
    1C        C  460   3.129   4.486   4.362
    1C        C  461   3.195   4.512   4.484
    1C        C  462   2.997   4.434   4.605
    1C        C  463   3.124   4.497   4.605
    1C        C  464   2.930   4.403   4.725
    1C        C  465   2.991   4.447   4.846
    1C        C  466   2.813   4.329   4.964
    1C        C  467   2.910   4.430   4.963
    1C        C  468   4.120   4.282   2.044
    1C        C  469   4.187   4.242   2.160
    1C        C  470   4.012   4.375   2.280
    1C        C  471   4.132   4.300   2.278
    1C        C  472   3.951   4.417   2.400
    1C        C  473   4.010   4.379   2.523
    1C        C  474   3.816   4.468   2.644
    1C        C  475   3.948   4.418   2.644
    1C        C  476   3.747   4.495   2.765
    1C        C  477   3.815   4.475   2.887
    1C        C  478   3.610   4.529   3.010
    1C        C  479   3.748   4.497   3.010
    1C        C  480   3.538   4.534   3.131
    1C        C  481   3.608   4.525   3.254
    1C        C  482   3.397   4.545   3.378
    1C        C  483   3.538   4.538   3.376
    1C        C  484   3.328   4.533   3.500
    1C        C  485   3.401   4.542   3.621
    1C        C  486   3.195   4.501   3.748
    1C        C  487   3.332   4.536   3.744
    1C        C  488   3.131   4.473   3.871
    1C        C  489   3.196   4.497   3.994
    1C        C  490   3.004   4.414   4.118
    1C        C  491   3.129   4.480   4.117
    1C        C  492   2.944   4.379   4.241
    1C        C  493   3.002   4.423   4.362
    1C        C  494   2.836   4.294   4.484
    1C        C  495   2.939   4.390   4.484
    1C        C  496   2.775   4.254   4.605
    1C        C  497   2.818   4.315   4.725
    1C        C  498   2.665   4.168   4.848
    1C        C  499   2.763   4.270   4.847
    1C        C  500   2.594   4.120   4.958
    1C        C  501   3.999   4.351   2.044
    1C        C  502   3.815   4.466   2.158
    1C        C  503   3.943   4.406   2.160
    1C        C  504   3.746   4.482   2.279
    1C        C  505   3.817   4.461   2.400
    1C        C  506   3.611   4.514   2.521
    1C        C  507   3.748   4.481   2.521
    1C        C  508   3.538   4.526   2.642
    1C        C  509   3.608   4.520   2.764
    1C        C  510   3.399   4.530   2.887
    1C        C  511   3.540   4.532   2.887
    1C        C  512   3.325   4.525   3.008
    1C        C  513   3.397   4.533   3.130
    1C        C  514   3.195   4.489   3.256
    1C        C  515   3.330   4.532   3.254
    1C        C  516   3.130   4.462   3.379
    1C        C  517   3.193   4.493   3.501
    1C        C  518   3.005   4.407   3.625
    1C        C  519   3.130   4.474   3.626
    1C        C  520   2.946   4.371   3.748
    1C        C  521   3.007   4.405   3.871
    1C        C  522   2.838   4.284   3.999
    1C        C  523   2.947   4.374   3.995
    1C        C  524   2.789   4.235   4.122
    1C        C  525   2.839   4.285   4.244
    1C        C  526   2.690   4.133   4.366
    1C        C  527   2.782   4.240   4.365
    1C        C  528   2.653   4.074   4.489
    1C        C  529   2.692   4.140   4.608
    1C        C  530   2.583   3.964   4.732
    1C        C  531   2.637   4.095   4.730
    1C        C  532   2.543   3.903   4.854
    1C        C  533   2.527   3.997   4.961
    1C        C  534   3.622   4.554   2.043
    1C        C  535   3.755   4.511   2.039
    1C        C  536   3.537   4.536   2.156
    1C        C  537   3.607   4.514   2.278
    1C        C  538   3.396   4.528   2.402
    1C        C  539   3.538   4.521   2.401
    1C        C  540   3.323   4.519   2.523
    1C        C  541   3.397   4.525   2.643
    1C        C  542   3.191   4.483   2.767
    1C        C  543   3.327   4.519   2.766
    1C        C  544   3.124   4.460   2.890
    1C        C  545   3.190   4.483   3.012
    1C        C  546   3.001   4.394   3.137
    1C        C  547   3.126   4.461   3.136
    1C        C  548   2.945   4.359   3.261
    1C        C  549   3.003   4.399   3.383
    1C        C  550   2.830   4.280   3.508
    1C        C  551   2.940   4.369   3.506
    1C        C  552   2.780   4.231   3.631
    1C        C  553   2.834   4.284   3.751
    1C        C  554   2.698   4.126   3.877
    1C        C  555   2.790   4.234   3.875
    1C        C  556   2.655   4.070   3.999
    1C        C  557   2.696   4.129   4.121
    1C        C  558   2.596   3.943   4.247
    1C        C  559   2.655   4.071   4.243
    1C        C  560   2.565   3.881   4.370
    1C        C  561   2.594   3.946   4.492
    1C        C  562   2.530   3.748   4.618
    1C        C  563   2.565   3.885   4.616
    1C        C  564   2.521   3.682   4.742
    1C        C  565   2.528   3.760   4.861
    1C        C  566   2.535   3.547   4.978
    1C        C  567   2.530   3.686   4.980
    1C        C  568   3.329   4.471   2.044
    1C        C  569   3.398   4.508   2.160
    1C        C  570   3.188   4.470   2.283
    1C        C  571   3.325   4.510   2.282
    1C        C  572   3.120   4.450   2.405
    1C        C  573   3.188   4.479   2.526
    1C        C  574   2.994   4.392   2.648
    1C        C  575   3.121   4.454   2.648
    1C        C  576   2.931   4.360   2.771
    1C        C  577   2.998   4.396   2.890
    1C        C  578   2.828   4.274   3.018
    1C        C  579   2.943   4.357   3.014
    1C        C  580   2.780   4.222   3.140
    1C        C  581   2.832   4.273   3.261
    1C        C  582   2.696   4.118   3.386
    1C        C  583   2.781   4.231   3.385
    1C        C  584   2.659   4.060   3.509
    1C        C  585   2.694   4.120   3.632
    1C        C  586   2.594   3.938   3.759
    1C        C  587   2.658   4.064   3.757
    1C        C  588   2.567   3.874   3.882
    1C        C  589   2.596   3.942   4.002
    1C        C  590   2.528   3.742   4.128
    1C        C  591   2.568   3.878   4.125
    1C        C  592   2.515   3.674   4.251
    1C        C  593   2.527   3.744   4.373
    1C        C  594   2.506   3.537   4.501
    1C        C  595   2.515   3.678   4.497
    1C        C  596   2.516   3.466   4.623
    1C        C  597   2.520   3.540   4.743
    1C        C  598   2.538   3.326   4.864
    1C        C  599   2.526   3.467   4.864
    1C        C  600   2.539   3.248   4.980
    1C        C  601   3.193   4.448   2.043
    1C        C  602   2.984   4.395   2.164
    1C        C  603   3.120   4.439   2.162
    1C        C  604   2.924   4.358   2.288
    1C        C  605   2.991   4.392   2.407
    1C        C  606   2.818   4.268   2.531
    1C        C  607   2.930   4.354   2.528
    1C        C  608   2.765   4.222   2.654
    1C        C  609   2.819   4.274   2.774
    1C        C  610   2.688   4.110   2.896
    1C        C  611   2.774   4.222   2.898
    1C        C  612   2.654   4.050   3.019
    1C        C  613   2.695   4.109   3.140
    1C        C  614   2.591   3.930   3.269
    1C        C  615   2.656   4.056   3.265
    1C        C  616   2.571   3.865   3.393
    1C        C  617   2.599   3.932   3.514
    1C        C  618   2.531   3.734   3.641
    1C        C  619   2.570   3.870   3.638
    1C        C  620   2.518   3.664   3.763
    1C        C  621   2.532   3.737   3.883
    1C        C  622   2.515   3.528   4.010
    1C        C  623   2.520   3.670   4.007
    1C        C  624   2.517   3.460   4.133
    1C        C  625   2.512   3.532   4.255
    1C        C  626   2.544   3.327   4.382
    1C        C  627   2.516   3.466   4.379
    1C        C  628   2.559   3.255   4.503
    1C        C  629   2.543   3.327   4.623
    1C        C  630   2.598   3.119   4.742
    1C        C  631   2.553   3.254   4.743
    1C        C  632   2.616   3.046   4.863
    1C        C  633   2.558   3.109   4.978
    1C        C  634   2.786   4.303   2.056
    1C        C  635   2.893   4.393   2.054
    1C        C  636   2.747   4.230   2.169
    1C        C  637   2.808   4.275   2.288
    1C        C  638   2.677   4.109   2.410
    1C        C  639   2.759   4.224   2.410
    1C        C  640   2.640   4.050   2.532
    1C        C  641   2.678   4.111   2.654
    1C        C  642   2.582   3.923   2.778
    1C        C  643   2.643   4.050   2.777
    1C        C  644   2.561   3.859   2.902
    1C        C  645   2.587   3.925   3.024
    1C        C  646   2.520   3.729   3.152
    1C        C  647   2.558   3.865   3.148
    1C        C  648   2.513   3.659   3.275
    1C        C  649   2.529   3.730   3.396
    1C        C  650   2.511   3.523   3.520
    1C        C  651   2.516   3.664   3.519
    1C        C  652   2.513   3.452   3.643
    1C        C  653   2.511   3.523   3.765
    1C        C  654   2.539   3.316   3.891
    1C        C  655   2.514   3.455   3.889
    1C        C  656   2.558   3.251   4.015
    1C        C  657   2.538   3.320   4.137
    1C        C  658   2.608   3.124   4.257
    1C        C  659   2.556   3.256   4.261
    1C        C  660   2.638   3.060   4.380
    1C        C  661   2.603   3.121   4.502
    1C        C  662   2.710   2.934   4.624
    1C        C  663   2.636   3.055   4.623
    1C        C  664   2.754   2.879   4.746
    1C        C  665   2.704   2.934   4.867
    1C        C  666   2.748   2.870   4.984
    1C        C  667   2.676   4.027   2.050
    1C        C  668   2.686   4.103   2.167
    1C        C  669   2.590   3.912   2.293
    1C        C  670   2.650   4.041   2.289
    1C        C  671   2.556   3.850   2.415
    1C        C  672   2.581   3.922   2.534
    1C        C  673   2.515   3.720   2.663
    1C        C  674   2.557   3.855   2.657
    1C        C  675   2.507   3.649   2.785
    1C        C  676   2.524   3.722   2.905
    1C        C  677   2.505   3.517   3.031
    1C        C  678   2.510   3.658   3.030
    1C        C  679   2.507   3.449   3.156
    1C        C  680   2.507   3.518   3.279
    1C        C  681   2.534   3.308   3.400
    1C        C  682   2.512   3.447   3.401
    1C        C  683   2.557   3.244   3.524
    1C        C  684   2.536   3.313   3.646
    1C        C  685   2.609   3.115   3.771
    1C        C  686   2.555   3.246   3.769
    1C        C  687   2.640   3.052   3.894
    1C        C  688   2.607   3.119   4.014
    1C        C  689   2.715   2.938   4.138
    1C        C  690   2.637   3.056   4.137
    1C        C  691   2.754   2.881   4.261
    1C        C  692   2.708   2.937   4.382
    1C        C  693   2.755   2.879   4.502
    1C        C  694   2.632   3.894   2.059
    1C        C  695   2.527   3.704   2.175
    1C        C  696   2.575   3.837   2.174
    1C        C  697   2.507   3.640   2.299
    1C        C  698   2.522   3.713   2.419
    1C        C  699   2.495   3.506   2.545
    1C        C  700   2.506   3.647   2.542
    1C        C  701   2.502   3.437   2.668
    1C        C  702   2.500   3.508   2.789
    1C        C  703   2.532   3.301   2.912
    1C        C  704   2.508   3.440   2.913
    1C        C  705   2.550   3.238   3.037
    1C        C  706   2.534   3.310   3.157
    1C        C  707   2.603   3.107   3.281
    1C        C  708   2.550   3.238   3.278
    1C        C  709   2.638   3.046   3.404
    1C        C  710   2.608   3.113   3.525
    1C        C  711   2.717   2.935   3.651
    1C        C  712   2.639   3.052   3.649
    1C        C  713   2.766   2.880   3.772
    1C        C  714   2.721   2.936   3.894
    1C        C  715   2.757   2.878   4.017
    1C        C  716   2.444   3.498   2.064
    1C        C  717   2.494   3.629   2.061
    1C        C  718   2.470   3.423   2.183
    1C        C  719   2.484   3.500   2.302
    1C        C  720   2.514   3.292   2.426
    1C        C  721   2.489   3.431   2.425
    1C        C  722   2.538   3.224   2.548
    1C        C  723   2.523   3.297   2.668
    1C        C  724   2.596   3.098   2.790
    1C        C  725   2.543   3.230   2.790
    1C        C  726   2.631   3.044   2.915
    1C        C  727   2.602   3.107   3.038
    1C        C  728   2.708   2.922   3.160
    1C        C  729   2.634   3.042   3.160
    1C        C  730   2.756   2.870   3.282
    1C        C  731   2.717   2.928   3.405
    1C        C  732   2.760   2.877   3.529
    1C        C  733   2.487   3.197   2.075
    1C        C  734   2.486   3.281   2.187
    1C        C  735   2.586   3.088   2.305
    1C        C  736   2.524   3.216   2.307
    1C        C  737   2.613   3.022   2.427
    1C        C  738   2.590   3.093   2.547
    1C        C  739   2.697   2.910   2.671
    1C        C  740   2.625   3.031   2.669
    1C        C  741   2.744   2.858   2.794
    1C        C  742   2.707   2.924   2.914
    1C        C  743   2.754   2.871   3.036
    1C        C  744   2.544   3.071   2.075
    1C        C  745   2.684   2.895   2.185
    1C        C  746   2.610   3.016   2.186
    1C        C  747   2.726   2.837   2.307
    1C        C  748   2.686   2.901   2.426
    1C        C  749   2.739   2.854   2.548
    1C        C  750   2.739   2.842   2.068
    1C        C  751   3.655   2.293   1.999
    1C        O  752   3.699   2.193   2.062
    1C        O  753   3.712   2.306   1.872
    1C        C  754   4.620   3.042   1.978
    1C        O  755   4.611   3.048   1.853
    1C        O  756   4.743   2.999   2.030
    1C        C  757   4.442   4.214   1.954
    1C        O  758   4.540   4.287   1.984
    1C        O  759   4.437   4.180   1.818
    1C        C  760   3.589   4.658   1.942
    1C        O  761   3.622   4.777   1.965
    1C        O  762   3.574   4.615   1.810
    1C        C  763   2.872   4.515   1.972
    1C        O  764   2.888   4.504   1.847
    1C        O  765   2.771   4.612   1.979
    1C        C  766   2.311   3.484   2.001
    1C        O  767   2.287   3.455   1.881
    1C        O  768   2.198   3.462   2.081
    1C        C  769   4.676   3.586   5.074
    1C        O  770   4.636   3.553   5.189
    1C        O  771   4.811   3.553   5.056
    1C        C  772   4.277   4.475   5.020
    1C        O  773   4.325   4.433   5.129
    1C        O  774   4.374   4.553   4.956
    1C        C  775   4.146   2.504   5.055
    1C        O  776   4.170   2.384   5.024
    1C        O  777   4.232   2.551   5.155
    1C        C  778   2.871   4.547   5.045
    1C        O  779   2.856   4.663   4.999
    1C        O  780   2.919   4.553   5.177
    1C        C  781   2.459   3.038   5.063
    1C        O  782   2.342   3.018   5.021
    1C        O  783   2.493   2.960   5.173
    1C        C  784   2.434   3.990   5.075
    1C        O  785   2.315   3.949   5.061
    1C        O  786   2.485   3.976   5.205
    1C        C  787   2.952   2.402   2.027
    1C        O  788   2.907   2.431   1.913
    1C        O  789   2.855   2.331   2.096
    1C        C  790   3.186   2.377   5.070
    1C        O  791   3.178   2.258   5.029
    1C        O  792   3.214   2.401   5.205
    1C        H  793   4.262   3.033   5.037
    1C        H  794   4.168   2.817   5.068
    1C        H  795   4.529   3.129   5.053
    1C        H  796   4.501   3.376   5.061
    1C        H  797   4.571   3.815   5.045
    1C        H  798   4.436   3.982   5.054
    1C        H  799   4.331   4.196   5.039
    1C        H  800   4.013   4.498   5.041
    1C        H  801   3.822   4.604   5.035
    1C        H  802   3.586   4.659   5.027
    1C        H  803   3.394   4.482   5.045
    1C        H  804   3.163   4.484   5.059
    1C        H  805   3.905   2.453   5.044
    1C        H  806   3.671   2.524   5.070
    1C        H  807   2.997   2.552   5.061
    1C        H  808   3.439   2.480   5.074
    1C        H  809   2.863   2.710   5.075
    1C        H  810   2.703   2.899   5.076
    1C        H  811   2.505   3.292   5.071
    1C        H  812   2.565   3.506   5.073
    1C        H  813   2.534   3.735   5.075
    1C        H  814   2.582   4.190   5.038
    1C        H  815   2.793   4.286   5.060
    1C        H  816   2.691   2.863   1.974
    1C        H  817   2.846   2.685   1.976
    1C        H  818   3.206   2.444   1.986
    1C        H  819   3.445   2.484   1.988
    1C        H  820   3.876   2.487   1.977
    1C        H  821   4.052   2.647   1.973
    1C        H  822   4.295   2.693   2.002
    1C        H  823   4.415   2.895   1.975
    1C        H  824   4.538   3.310   1.966
    1C        H  825   4.500   3.512   1.961
    1C        H  826   4.571   3.746   1.974
    1C        H  827   3.799   4.491   1.943
    1C        H  828   3.932   4.310   1.972
    1C        H  829   4.176   4.293   1.954
    1C        H  830   4.519   3.977   1.975
    1C        H  831   2.648   3.831   1.974
    1C        H  832   2.741   4.052   1.969
    1C        H  833   2.724   4.317   1.970
    1C        H  834   3.384   4.470   1.952
    1C        H  835   3.145   4.445   1.947
    1C        H  836   2.512   3.006   1.996
    1C        H  837   2.446   3.226   1.980
    1C        H  838   2.497   3.680   1.967
    2V3OU   H29  839   2.798   3.551   6.606
    2V3OU   C27  840   2.777   3.510   6.708
    2V3OU   H27  841   2.721   3.569   6.784
    2V3OU   H28  842   2.733   3.408   6.692
    2V3OU   O11  843   2.905   3.475   6.761
    2V3OU   C15  844   2.923   3.399   6.875
    2V3OU   C13  845   3.054   3.379   6.924
    2V3OU   C14  846   3.074   3.274   7.014
    2V3OU   C16  847   2.972   3.188   0.029
    2V3OU    H6  848   2.997   3.088   0.069
    2V3OU   C12  849   3.214   3.239   0.020
    2V3OU    O2  850   3.241   3.125   0.062
    2V3OU   C10  851   3.324   3.314   6.983
    2V3OU    C8  852   3.456   3.271   6.994
    2V3OU   O10  853   3.497   3.154   0.024
    2V3OU   H26  854   3.412   3.114   0.048
    2V3OU    C6  855   3.563   3.348   6.938
    2V3OU    C5  856   3.536   3.469   6.875
    2V3OU    C4  857   3.702   3.297   6.945
    2V3OU    H4  858   3.721   3.229   0.008
    2V3OU    H5  859   3.713   3.232   6.853
    2V3OU    C2  860   3.815   3.400   6.943
    2V3OU    O6  861   3.807   3.473   0.040
    2V3OU   H21  862   3.759   3.555   0.017
    2V3OU    C3  863   3.784   3.497   6.829
    2V3OU    H2  864   3.872   3.567   6.825
    2V3OU    H3  865   3.781   3.438   6.733
    2V3OU   C25  866   3.951   3.335   6.919
    2V3OU    O7  867   4.007   3.307   6.813
    2V3OU   C26  868   4.027   3.298   0.020
    2V3OU   H22  869   4.071   3.385   0.074
    2V3OU   H23  870   4.116   3.234   7.019
    2V3OU    O8  871   3.964   3.213   0.112
    2V3OU   H24  872   3.926   3.268   0.183
    2V3OU    C1  873   3.648   3.563   6.841
    2V3OU    H1  874   3.626   3.617   6.744
    2V3OU    O3  875   3.659   3.654   6.951
    2V3OU   C19  876   3.622   3.792   6.949
    2V3OU    H9  877   3.521   3.804   6.900
    2V3OU    O4  878   3.716   3.850   6.861
    2V3OU   C20  879   3.845   3.874   6.917
    2V3OU   H10  880   3.895   3.773   6.919
    2V3OU   C24  881   3.612   3.857   0.061
    2V3OU   H16  882   3.544   3.797   0.127
    2V3OU   H17  883   3.564   3.955   0.037
    2V3OU   C23  884   3.751   3.873   0.125
    2V3OU   H15  885   3.795   3.769   0.143
    2V3OU    N1  886   3.738   3.951   0.246
    2V3OU   H19  887   3.817   3.934   0.305
    2V3OU   H20  888   3.648   3.930   0.286
    2V3OU   C21  889   3.847   3.947   0.027
    2V3OU   H11  890   3.952   3.933   0.064
    2V3OU    O5  891   3.830   4.088   0.023
    2V3OU   H18  892   3.780   4.102   0.106
    2V3OU   C22  893   3.914   3.948   6.804
    2V3OU   H12  894   3.861   4.043   6.779
    2V3OU   H13  895   3.911   3.885   6.711
    2V3OU   H14  896   4.023   3.960   6.825
    2V3OU   C11  897   3.157   3.475   6.883
    2V3OU    O1  898   3.142   3.589   6.835
    2V3OU    C9  899   3.297   3.428   6.903
    2V3OU    C7  900   3.400   3.508   6.855
    2V3OU    O9  901   3.388   3.622   6.777
    2V3OU   H25  902   3.295   3.628   6.750
    2V3OU   C17  903   2.818   3.320   6.926
    2V3OU    H7  904   2.716   3.347   6.896
    2V3OU   C18  905   2.843   3.212   7.010
    2V3OU    H8  906   2.758   3.149   0.015
    3SOL     OW  907   2.602   3.441   5.337
    3SOL    HW1  908   2.666   3.512   5.367
    3SOL    HW2  909   2.512   3.482   5.322
    4SOL     OW  910   1.045   0.460   0.878
    4SOL    HW1  911   1.122   0.445   0.816
    4SOL    HW2  912   0.962   0.474   0.826
    5SOL     OW  913   3.399   1.458   0.242
    5SOL    HW1  914   3.311   1.506   0.244
    5SOL    HW2  915   3.473   1.525   0.252
    6SOL     OW  916   2.782   2.043   2.073
    6SOL    HW1  917   2.823   2.127   2.039
    6SOL    HW2  918   2.838   2.006   2.147
    7SOL     OW  919   1.911   3.049   4.932
    7SOL    HW1  920   1.848   3.069   4.856
    7SOL    HW2  921   1.998   3.017   4.895
    8SOL     OW  922   1.220   1.432   5.918
    8SOL    HW1  923   1.130   1.476   5.919
    8SOL    HW2  924   1.260   1.436   6.010
    9SOL     OW  925   1.931   2.682   5.528
    9SOL    HW1  926   1.946   2.780   5.543
    9SOL    HW2  927   2.019   2.634   5.532
   10SOL     OW  928   6.024   5.114   0.759
   10SOL    HW1  929   5.994   5.082   0.670
   10SOL    HW2  930   6.124   5.111   0.764
   11SOL     OW  931   3.666   0.527   0.767
   11SOL    HW1  932   3.573   0.550   0.738
   11SOL    HW2  933   3.699   0.595   0.832
   12SOL     OW  934   5.992   5.145   1.313
   12SOL    HW1  935   5.947   5.076   1.257
   12SOL    HW2  936   5.928   5.217   1.336
   13SOL     OW  937   4.698   6.258   1.925
   13SOL    HW1  938   4.645   6.335   1.962
   13SOL    HW2  939   4.694   6.261   1.825
   14SOL     OW  940   4.754   5.577   1.462
   14SOL    HW1  941   4.784   5.590   1.557
   14SOL    HW2  942   4.816   5.513   1.416
   15SOL     OW  943   0.585   0.324   6.872
   15SOL    HW1  944   0.544   0.240   6.906
   15SOL    HW2  945   0.515   0.396   6.868
   16SOL     OW  946   1.934   4.676   5.140
   16SOL    HW1  947   2.000   4.671   5.215
   16SOL    HW2  948   1.979   4.651   5.055
   17SOL     OW  949   0.435   2.379   4.292
   17SOL    HW1  950   0.498   2.305   4.267
   17SOL    HW2  951   0.350   2.340   4.327
   18SOL     OW  952   2.896   6.943   4.962
   18SOL    HW1  953   2.870   6.893   5.045
   18SOL    HW2  954   2.971   7.004   4.983
   19SOL     OW  955   4.623   5.903   3.555
   19SOL    HW1  956   4.529   5.871   3.549
   19SOL    HW2  957   4.629   5.981   3.618
   20SOL     OW  958   0.300   2.032   4.582
   20SOL    HW1  959   0.388   2.027   4.629
   20SOL    HW2  960   0.233   1.976   4.631
   21SOL     OW  961   2.221   3.217   1.838
   21SOL    HW1  962   2.251   3.309   1.863
   21SOL    HW2  963   2.187   3.170   1.919
   22SOL     OW  964   0.068   0.669   0.271
   22SOL    HW1  965   0.127   0.628   0.202
   22SOL    HW2  966   7.003   0.626   0.267
   23SOL     OW  967   0.535   5.378   0.778
   23SOL    HW1  968   0.490   5.455   0.822
   23SOL    HW2  969   0.615   5.351   0.831
   24SOL     OW  970   4.870   0.664   5.847
   24SOL    HW1  971   4.906   0.596   5.911
   24SOL    HW2  972   4.771   0.665   5.851
   25SOL     OW  973   2.173   0.451   5.672
   25SOL    HW1  974   2.172   0.364   5.622
   25SOL    HW2  975   2.110   0.515   5.627
   26SOL     OW  976   2.452   6.418   5.960
   26SOL    HW1  977   2.415   6.434   6.052
   26SOL    HW2  978   2.543   6.459   5.953
   27SOL     OW  979   0.274   0.023   2.147
   27SOL    HW1  980   0.345   6.983   2.174
   27SOL    HW2  981   0.257   0.015   2.049
   28SOL     OW  982   2.035   0.299   5.204
   28SOL    HW1  983   2.031   0.366   5.279
   28SOL    HW2  984   2.049   0.208   5.242
   29SOL     OW  985   4.974   1.142   1.959
   29SOL    HW1  986   4.948   1.133   2.055
   29SOL    HW2  987   4.986   1.051   1.919
   30SOL     OW  988   4.282   6.564   4.598
   30SOL    HW1  989   4.270   6.478   4.550
   30SOL    HW2  990   4.315   6.547   4.691
   31SOL     OW  991   6.096   3.885   3.879
   31SOL    HW1  992   6.157   3.912   3.954
   31SOL    HW2  993   6.138   3.911   3.792
   32SOL     OW  994   3.959   0.780   1.541
   32SOL    HW1  995   4.020   0.828   1.479
   32SOL    HW2  996   3.871   0.766   1.497
   33SOL     OW  997   1.702   4.737   5.242
   33SOL    HW1  998   1.623   4.686   5.208
   33SOL    HW2  999   1.781   4.720   5.183
   34SOL     OW 1000   2.496   6.979   5.203
   34SOL    HW1 1001   2.438   6.901   5.225
   34SOL    HW2 1002   2.560   6.996   5.277
   35SOL     OW 1003   0.888   3.661   5.125
   35SOL    HW1 1004   0.926   3.753   5.120
   35SOL    HW2 1005   0.954   3.595   5.088
   36SOL     OW 1006   6.025   1.328   4.370
   36SOL    HW1 1007   5.985   1.238   4.354
   36SOL    HW2 1008   5.975   1.397   4.319
   37SOL     OW 1009   1.277   5.832   3.903
   37SOL    HW1 1010   1.337   5.752   3.913
   37SOL    HW2 1011   1.187   5.802   3.869
   38SOL     OW 1012   0.841   3.432   1.860
   38SOL    HW1 1013   0.910   3.367   1.893
   38SOL    HW2 1014   0.847   3.439   1.761
   39SOL     OW 1015   6.260   5.728   1.405
   39SOL    HW1 1016   6.332   5.682   1.457
   39SOL    HW2 1017   6.187   5.663   1.383
   40SOL     OW 1018   4.478   0.131   5.550
   40SOL    HW1 1019   4.557   0.088   5.505
   40SOL    HW2 1020   4.474   0.228   5.524
   41SOL     OW 1021   0.277   3.357   1.033
   41SOL    HW1 1022   0.223   3.304   1.098
   41SOL    HW2 1023   0.278   3.310   0.944
   42SOL     OW 1024   2.369   3.883   0.579
   42SOL    HW1 1025   2.445   3.941   0.609
   42SOL    HW2 1026   2.356   3.894   0.481
   43SOL     OW 1027   5.030   1.075   2.783
   43SOL    HW1 1028   5.044   1.045   2.877
   43SOL    HW2 1029   5.054   1.000   2.721
   44SOL     OW 1030   6.882   0.693   6.316
   44SOL    HW1 1031   6.886   0.792   6.326
   44SOL    HW2 1032   6.862   0.670   6.220
   45SOL     OW 1033   2.175   3.551   4.833
   45SOL    HW1 1034   2.275   3.550   4.827
   45SOL    HW2 1035   2.143   3.462   4.866
   46SOL     OW 1036   0.694   6.067   4.761
   46SOL    HW1 1037   0.750   6.017   4.695
   46SOL    HW2 1038   0.598   6.065   4.730
   47SOL     OW 1039   0.505   4.174   6.700
   47SOL    HW1 1040   0.550   4.180   6.612
   47SOL    HW2 1041   0.459   4.261   6.720
   48SOL     OW 1042   1.030   3.886   0.450
   48SOL    HW1 1043   1.078   3.969   0.476
   48SOL    HW2 1044   1.094   3.822   0.408
   49SOL     OW 1045   4.037   6.871   6.598
   49SOL    HW1 1046   3.948   6.870   6.645
   49SOL    HW2 1047   4.096   6.939   6.641
   50SOL     OW 1048   4.940   1.899   6.221
   50SOL    HW1 1049   4.899   1.976   6.270
   50SOL    HW2 1050   4.964   1.827   6.286
   51SOL     OW 1051   1.356   6.861   1.230
   51SOL    HW1 1052   1.433   6.804   1.257
   51SOL    HW2 1053   1.285   6.857   1.301
   52SOL     OW 1054   4.813   3.065   2.628
   52SOL    HW1 1055   4.782   3.121   2.705
   52SOL    HW2 1056   4.847   3.124   2.555
   53SOL     OW 1057   4.342   6.790   1.385
   53SOL    HW1 1058   4.394   6.729   1.325
   53SOL    HW2 1059   4.310   6.869   1.333
   54SOL     OW 1060   0.511   1.422   5.982
   54SOL    HW1 1061   0.463   1.335   5.973
   54SOL    HW2 1062   0.467   1.476   6.054
   55SOL     OW 1063   2.869   3.713   6.430
   55SOL    HW1 1064   2.780   3.673   6.405
   55SOL    HW2 1065   2.927   3.719   6.349
   56SOL     OW 1066   1.455   1.791   0.334
   56SOL    HW1 1067   1.381   1.727   0.315
   56SOL    HW2 1068   1.418   1.879   0.362
   57SOL     OW 1069   3.987   6.562   1.637
   57SOL    HW1 1070   4.032   6.573   1.725
   57SOL    HW2 1071   4.012   6.473   1.597
   58SOL     OW 1072   0.833   0.586   0.499
   58SOL    HW1 1073   0.784   0.613   0.416
   58SOL    HW2 1074   0.932   0.592   0.483
   59SOL     OW 1075   4.557   4.216   6.627
   59SOL    HW1 1076   4.551   4.266   6.541
   59SOL    HW2 1077   4.475   4.234   6.682
   60SOL     OW 1078   6.358   2.808   2.293
   60SOL    HW1 1079   6.339   2.857   2.378
   60SOL    HW2 1080   6.321   2.715   2.299
   61SOL     OW 1081   0.755   4.444   2.693
   61SOL    HW1 1082   0.744   4.404   2.784
   61SOL    HW2 1083   0.785   4.539   2.702
   62SOL     OW 1084   5.058   4.215   3.362
   62SOL    HW1 1085   5.092   4.267   3.441
   62SOL    HW2 1086   4.990   4.149   3.393
   63SOL     OW 1087   5.017   0.201   5.796
   63SOL    HW1 1088   5.086   0.128   5.794
   63SOL    HW2 1089   5.055   0.281   5.842
   64SOL     OW 1090   2.222   1.846   6.546
   64SOL    HW1 1091   2.242   1.749   6.536
   64SOL    HW2 1092   2.132   1.866   6.507
   65SOL     OW 1093   0.871   5.127   5.076
   65SOL    HW1 1094   0.967   5.148   5.093
   65SOL    HW2 1095   0.816   5.209   5.087
   66SOL     OW 1096   4.456   1.830   1.543
   66SOL    HW1 1097   4.412   1.810   1.631
   66SOL    HW2 1098   4.554   1.817   1.552
   67SOL     OW 1099   0.199   2.869   3.155
   67SOL    HW1 1100   0.170   2.786   3.201
   67SOL    HW2 1101   0.135   2.890   3.081
   68SOL     OW 1102   7.017   1.047   5.538
   68SOL    HW1 1103   6.954   1.047   5.461
   68SOL    HW2 1104   0.069   0.987   5.518
   69SOL     OW 1105   1.912   1.187   6.024
   69SOL    HW1 1106   1.984   1.160   6.087
   69SOL    HW2 1107   1.941   1.170   5.930
   70SOL     OW 1108   5.266   5.412   2.638
   70SOL    HW1 1109   5.176   5.455   2.636
   70SOL    HW2 1110   5.330   5.467   2.584
   71SOL     OW 1111   5.572   1.330   5.482
   71SOL    HW1 1112   5.569   1.240   5.525
   71SOL    HW2 1113   5.542   1.322   5.387
   72SOL     OW 1114   6.738   2.420   2.617
   72SOL    HW1 1115   6.649   2.379   2.636
   72SOL    HW2 1116   6.808   2.374   2.671
   73SOL     OW 1117   2.116   1.626   0.269
   73SOL    HW1 1118   2.074   1.583   0.350
   73SOL    HW2 1119   2.215   1.615   0.273
   74SOL     OW 1120   2.611   0.643   0.575
   74SOL    HW1 1121   2.632   0.741   0.571
   74SOL    HW2 1122   2.615   0.604   0.483
   75SOL     OW 1123   3.043   3.147   1.159
   75SOL    HW1 1124   2.968   3.084   1.140
   75SOL    HW2 1125   3.020   3.201   1.240
   76SOL     OW 1126   2.991   5.058   6.122
   76SOL    HW1 1127   2.931   5.111   6.061
   76SOL    HW2 1128   2.994   5.102   6.212
   77SOL     OW 1129   0.272   4.850   5.341
   77SOL    HW1 1130   0.181   4.832   5.305
   77SOL    HW2 1131   0.287   4.796   5.424
   78SOL     OW 1132   4.729   1.772   0.717
   78SOL    HW1 1133   4.694   1.802   0.628
   78SOL    HW2 1134   4.767   1.849   0.766
   79SOL     OW 1135   2.600   4.971   4.142
   79SOL    HW1 1136   2.658   4.902   4.185
   79SOL    HW2 1137   2.504   4.950   4.159
   80SOL     OW 1138   4.275   2.207   5.265
   80SOL    HW1 1139   4.237   2.115   5.252
   80SOL    HW2 1140   4.207   2.266   5.306
   81SOL     OW 1141   1.740   5.100   2.724
   81SOL    HW1 1142   1.823   5.153   2.705
   81SOL    HW2 1143   1.724   5.035   2.650
   82SOL     OW 1144   2.553   7.019   1.345
   82SOL    HW1 1145   2.601   0.064   1.293
   82SOL    HW2 1146   2.458   7.013   1.313
   83SOL     OW 1147   6.092   2.580   3.816
   83SOL    HW1 1148   6.169   2.561   3.755
   83SOL    HW2 1149   6.006   2.559   3.769
   84SOL     OW 1150   5.203   2.172   2.900
   84SOL    HW1 1151   5.237   2.253   2.947
   84SOL    HW2 1152   5.231   2.090   2.949
   85SOL     OW 1153   2.325   5.198   2.949
   85SOL    HW1 1154   2.264   5.129   2.909
   85SOL    HW2 1155   2.404   5.153   2.989
   86SOL     OW 1156   4.818   0.864   5.678
   86SOL    HW1 1157   4.837   0.780   5.730
   86SOL    HW2 1158   4.778   0.840   5.590
   87SOL     OW 1159   2.840   1.553   6.726
   87SOL    HW1 1160   2.758   1.611   6.720
   87SOL    HW2 1161   2.832   1.478   6.660
   88SOL     OW 1162   0.994   1.965   0.269
   88SOL    HW1 1163   0.940   1.896   0.318
   88SOL    HW2 1164   0.988   1.947   0.171
   89SOL     OW 1165   4.673   3.950   6.021
   89SOL    HW1 1166   4.666   4.035   6.074
   89SOL    HW2 1167   4.582   3.920   5.994
   90SOL     OW 1168   0.051   3.850   1.967
   90SOL    HW1 1169   0.013   3.760   1.985
   90SOL    HW2 1170   0.150   3.848   1.980
   91SOL     OW 1171   5.183   4.552   0.699
   91SOL    HW1 1172   5.238   4.635   0.709
   91SOL    HW2 1173   5.118   4.545   0.774
   92SOL     OW 1174   0.323   6.237   0.009
   92SOL    HW1 1175   0.275   6.315   6.995
   92SOL    HW2 1176   0.384   6.268   0.081
   93SOL     OW 1177   3.075   3.618   2.551
   93SOL    HW1 1178   3.168   3.584   2.565
   93SOL    HW2 1179   3.010   3.557   2.596
   94SOL     OW 1180   4.114   1.022   4.237
   94SOL    HW1 1181   4.119   1.120   4.218
   94SOL    HW2 1182   4.204   0.988   4.262
   95SOL     OW 1183   0.631   6.757   3.765
   95SOL    HW1 1184   0.663   6.665   3.788
   95SOL    HW2 1185   0.532   6.762   3.776
   96SOL     OW 1186   0.734   0.227   0.589
   96SOL    HW1 1187   0.765   0.218   0.495
   96SOL    HW2 1188   0.638   0.258   0.590
   97SOL     OW 1189   3.947   5.111   5.244
   97SOL    HW1 1190   4.035   5.092   5.199
   97SOL    HW2 1191   3.910   5.197   5.209
   98SOL     OW 1192   6.329   1.783   5.516
   98SOL    HW1 1193   6.380   1.866   5.494
   98SOL    HW2 1194   6.249   1.806   5.570
   99SOL     OW 1195   5.492   4.932   4.854
   99SOL    HW1 1196   5.565   4.991   4.890
   99SOL    HW2 1197   5.430   4.986   4.797
  100SOL     OW 1198   1.657   1.711   5.880
  100SOL    HW1 1199   1.755   1.726   5.872
  100SOL    HW2 1200   1.610   1.751   5.802
  101SOL     OW 1201   5.330   2.692   2.430
  101SOL    HW1 1202   5.404   2.703   2.363
  101SOL    HW2 1203   5.339   2.604   2.476
  102SOL     OW 1204   5.240   6.351   0.856
  102SOL    HW1 1205   5.168   6.378   0.792
  102SOL    HW2 1206   5.302   6.429   0.871
  103SOL     OW 1207   2.033   2.541   0.901
  103SOL    HW1 1208   2.092   2.495   0.835
  103SOL    HW2 1209   2.087   2.570   0.979
  104SOL     OW 1210   1.141   3.858   1.481
  104SOL    HW1 1211   1.105   3.931   1.539
  104SOL    HW2 1212   1.064   3.804   1.445
  105SOL     OW 1213   0.740   1.632   4.253
  105SOL    HW1 1214   0.657   1.685   4.235
  105SOL    HW2 1215   0.722   1.564   4.325
  106SOL     OW 1216   5.540   3.265   1.832
  106SOL    HW1 1217   5.446   3.289   1.856
  106SOL    HW2 1218   5.540   3.201   1.755
  107SOL     OW 1219   4.802   0.444   2.085
  107SOL    HW1 1220   4.764   0.358   2.051
  107SOL    HW2 1221   4.793   0.448   2.184
  108SOL     OW 1222   4.406   0.875   5.037
  108SOL    HW1 1223   4.463   0.795   5.018
  108SOL    HW2 1224   4.312   0.845   5.056
  109SOL     OW 1225   2.453   1.621   3.871
  109SOL    HW1 1226   2.455   1.541   3.811
  109SOL    HW2 1227   2.367   1.623   3.921
  110SOL     OW 1228   4.609   4.903   5.383
  110SOL    HW1 1229   4.560   4.973   5.435
  110SOL    HW2 1230   4.661   4.845   5.446
  111SOL     OW 1231   6.615   3.544   0.223
  111SOL    HW1 1232   6.585   3.453   0.194
  111SOL    HW2 1233   6.593   3.556   0.320
  112SOL     OW 1234   3.794   6.247   5.365
  112SOL    HW1 1235   3.718   6.183   5.368
  112SOL    HW2 1236   3.803   6.285   5.273
  113SOL     OW 1237   1.251   4.814   2.363
  113SOL    HW1 1238   1.215   4.725   2.335
  113SOL    HW2 1239   1.234   4.827   2.461
  114SOL     OW 1240   6.474   1.841   1.794
  114SOL    HW1 1241   6.562   1.888   1.783
  114SOL    HW2 1242   6.480   1.779   1.872
  115SOL     OW 1243   4.597   0.300   3.338
  115SOL    HW1 1244   4.624   0.374   3.400
  115SOL    HW2 1245   4.536   0.237   3.387
  116SOL     OW 1246   6.055   5.832   6.675
  116SOL    HW1 1247   6.023   5.787   6.759
  116SOL    HW2 1248   6.147   5.867   6.689
  117SOL     OW 1249   1.200   1.609   0.246
  117SOL    HW1 1250   1.123   1.606   0.310
  117SOL    HW2 1251   1.167   1.601   0.152
  118SOL     OW 1252   1.004   3.015   1.804
  118SOL    HW1 1253   1.072   2.943   1.816
  118SOL    HW2 1254   0.971   3.014   1.710
  119SOL     OW 1255   5.028   5.376   4.286
  119SOL    HW1 1256   4.952   5.331   4.241
  119SOL    HW2 1257   5.074   5.438   4.222
  120SOL     OW 1258   5.051   1.256   3.965
  120SOL    HW1 1259   5.075   1.339   4.015
  120SOL    HW2 1260   5.131   1.197   3.957
  121SOL     OW 1261   0.046   5.343   5.805
  121SOL    HW1 1262   0.137   5.310   5.832
  121SOL    HW2 1263   0.030   5.321   5.709
  122SOL     OW 1264   0.694   5.677   5.472
  122SOL    HW1 1265   0.702   5.745   5.400
  122SOL    HW2 1266   0.598   5.665   5.497
  123SOL     OW 1267   0.989   2.060   1.247
  123SOL    HW1 1268   0.923   2.019   1.184
  123SOL    HW2 1269   0.965   2.156   1.263
  124SOL     OW 1270   1.872   3.737   0.181
  124SOL    HW1 1271   1.918   3.711   0.266
  124SOL    HW2 1272   1.828   3.656   0.141
  125SOL     OW 1273   3.745   3.348   2.009
  125SOL    HW1 1274   3.776   3.255   2.027
  125SOL    HW2 1275   3.760   3.370   1.912
  126SOL     OW 1276   3.548   3.374   5.393
  126SOL    HW1 1277   3.573   3.383   5.490
  126SOL    HW2 1278   3.544   3.464   5.351
  127SOL     OW 1279   0.660   4.820   6.386
  127SOL    HW1 1280   0.659   4.779   6.477
  127SOL    HW2 1281   0.600   4.900   6.385
  128SOL     OW 1282   4.684   4.172   6.217
  128SOL    HW1 1283   4.743   4.150   6.294
  128SOL    HW2 1284   4.588   4.159   6.243
  129SOL     OW 1285   1.241   5.239   3.214
  129SOL    HW1 1286   1.200   5.158   3.171
  129SOL    HW2 1287   1.318   5.210   3.271
  130SOL     OW 1288   6.532   4.361   5.385
  130SOL    HW1 1289   6.547   4.399   5.476
  130SOL    HW2 1290   6.461   4.291   5.390
  131SOL     OW 1291   0.321   2.688   1.529
  131SOL    HW1 1292   0.350   2.631   1.453
  131SOL    HW2 1293   0.369   2.659   1.612
  132SOL     OW 1294   3.328   3.936   1.797
  132SOL    HW1 1295   3.297   3.983   1.879
  132SOL    HW2 1296   3.265   3.862   1.774
  133SOL     OW 1297   4.755   4.408   6.089
  133SOL    HW1 1298   4.734   4.310   6.096
  133SOL    HW2 1299   4.812   4.436   6.166
  134SOL     OW 1300   0.507   1.677   6.579
  134SOL    HW1 1301   0.536   1.773   6.585
  134SOL    HW2 1302   0.423   1.665   6.630
  135SOL     OW 1303   4.429   4.914   3.494
  135SOL    HW1 1304   4.505   4.937   3.433
  135SOL    HW2 1305   4.464   4.863   3.572
  136SOL     OW 1306   3.297   6.665   0.054
  136SOL    HW1 1307   3.385   6.654   0.101
  136SOL    HW2 1308   3.225   6.619   0.106
  137SOL     OW 1309   1.469   4.206   0.430
  137SOL    HW1 1310   1.526   4.287   0.413
  137SOL    HW2 1311   1.410   4.224   0.510
  138SOL     OW 1312   0.009   6.931   1.732
  138SOL    HW1 1313   7.017   6.897   1.825
  138SOL    HW2 1314   0.024   6.854   1.671
  139SOL     OW 1315   1.215   0.433   0.645
  139SOL    HW1 1316   1.225   0.522   0.601
  139SOL    HW2 1317   1.231   0.361   0.578
  140SOL     OW 1318   2.067   0.226   3.584
  140SOL    HW1 1319   2.121   0.305   3.556
  140SOL    HW2 1320   2.067   0.158   3.511
  141SOL     OW 1321   2.339   2.318   1.194
  141SOL    HW1 1322   2.372   2.229   1.162
  141SOL    HW2 1323   2.348   2.323   1.293
  142SOL     OW 1324   0.954   4.765   6.054
  142SOL    HW1 1325   0.948   4.802   5.962
  142SOL    HW2 1326   1.040   4.715   6.065
  143SOL     OW 1327   4.412   6.030   2.144
  143SOL    HW1 1328   4.370   5.973   2.073
  143SOL    HW2 1329   4.402   6.126   2.120
  144SOL     OW 1330   2.447   4.665   2.873
  144SOL    HW1 1331   2.455   4.762   2.851
  144SOL    HW2 1332   2.354   4.634   2.852
  145SOL     OW 1333   6.126   6.696   2.213
  145SOL    HW1 1334   6.088   6.775   2.262
  145SOL    HW2 1335   6.051   6.646   2.168
  146SOL     OW 1336   6.280   1.294   5.043
  146SOL    HW1 1337   6.242   1.290   5.136
  146SOL    HW2 1338   6.380   1.303   5.049
  147SOL     OW 1339   6.094   6.418   5.547
  147SOL    HW1 1340   6.090   6.319   5.561
  147SOL    HW2 1341   6.040   6.442   5.466
  148SOL     OW 1342   2.474   0.133   3.558
  148SOL    HW1 1343   2.527   0.218   3.565
  148SOL    HW2 1344   2.537   0.056   3.547
  149SOL     OW 1345   2.167   1.817   5.211
  149SOL    HW1 1346   2.119   1.730   5.213
  149SOL    HW2 1347   2.108   1.889   5.248
  150SOL     OW 1348   5.122   3.519   4.047
  150SOL    HW1 1349   5.140   3.438   3.991
  150SOL    HW2 1350   5.029   3.513   4.083
  151SOL     OW 1351   6.340   2.612   1.942
  151SOL    HW1 1352   6.342   2.583   1.847
  151SOL    HW2 1353   6.427   2.587   1.986
  152SOL     OW 1354   6.157   1.561   0.083
  152SOL    HW1 1355   6.076   1.509   0.054
  152SOL    HW2 1356   6.207   1.509   0.152
  153SOL     OW 1357   1.812   1.657   3.621
  153SOL    HW1 1358   1.772   1.674   3.711
  153SOL    HW2 1359   1.781   1.568   3.587
  154SOL     OW 1360   0.122   1.628   3.497
  154SOL    HW1 1361   0.182   1.706   3.508
  154SOL    HW2 1362   0.037   1.643   3.548
  155SOL     OW 1363   5.755   5.508   3.578
  155SOL    HW1 1364   5.720   5.484   3.488
  155SOL    HW2 1365   5.798   5.428   3.620
  156SOL     OW 1366   4.103   6.980   0.650
  156SOL    HW1 1367   4.173   6.924   0.605
  156SOL    HW2 1368   4.055   6.925   0.718
  157SOL     OW 1369   6.054   1.662   0.393
  157SOL    HW1 1370   6.063   1.564   0.412
  157SOL    HW2 1371   5.979   1.700   0.446
  158SOL     OW 1372   0.868   2.798   5.443
  158SOL    HW1 1373   0.821   2.886   5.440
  158SOL    HW2 1374   0.944   2.802   5.508
  159SOL     OW 1375   0.415   4.877   6.980
  159SOL    HW1 1376   0.445   4.823   0.033
  159SOL    HW2 1377   0.315   4.885   6.981
  160SOL     OW 1378   4.160   0.166   1.599
  160SOL    HW1 1379   4.200   0.107   1.669
  160SOL    HW2 1380   4.075   0.206   1.633
  161SOL     OW 1381   5.486   6.397   1.196
  161SOL    HW1 1382   5.525   6.487   1.213
  161SOL    HW2 1383   5.474   6.349   1.283
  162SOL     OW 1384   4.239   0.102   5.320
  162SOL    HW1 1385   4.220   0.098   5.418
  162SOL    HW2 1386   4.174   0.164   5.276
  163SOL     OW 1387   1.715   4.281   3.217
  163SOL    HW1 1388   1.670   4.346   3.277
  163SOL    HW2 1389   1.691   4.188   3.244
  164SOL     OW 1390   2.219   3.037   2.377
  164SOL    HW1 1391   2.178   2.954   2.341
  164SOL    HW2 1392   2.306   3.016   2.422
  165SOL     OW 1393   6.899   6.003   4.680
  165SOL    HW1 1394   6.875   5.960   4.767
  165SOL    HW2 1395   6.994   6.035   4.684
  166SOL     OW 1396   0.650   5.507   4.501
  166SOL    HW1 1397   0.725   5.463   4.451
  166SOL    HW2 1398   0.686   5.580   4.558
  167SOL     OW 1399   0.283   1.307   3.238
  167SOL    HW1 1400   0.276   1.366   3.158
  167SOL    HW2 1401   0.376   1.309   3.274
  168SOL     OW 1402   3.384   4.025   4.698
  168SOL    HW1 1403   3.323   4.058   4.626
  168SOL    HW2 1404   3.333   3.969   4.763
  169SOL     OW 1405   4.538   2.785   6.219
  169SOL    HW1 1406   4.556   2.829   6.306
  169SOL    HW2 1407   4.548   2.686   6.228
  170SOL     OW 1408   6.004   5.299   2.967
  170SOL    HW1 1409   5.914   5.324   2.931
  170SOL    HW2 1410   6.075   5.349   2.918
  171SOL     OW 1411   3.329   3.225   1.252
  171SOL    HW1 1412   3.410   3.166   1.244
  171SOL    HW2 1413   3.313   3.270   1.164
  172SOL     OW 1414   1.666   0.562   0.249
  172SOL    HW1 1415   1.727   0.515   0.313
  172SOL    HW2 1416   1.585   0.596   0.297
  173SOL     OW 1417   5.606   1.246   4.725
  173SOL    HW1 1418   5.599   1.235   4.626
  173SOL    HW2 1419   5.583   1.159   4.769
  174SOL     OW 1420   6.487   5.292   3.676
  174SOL    HW1 1421   6.438   5.252   3.753
  174SOL    HW2 1422   6.479   5.391   3.679
  175SOL     OW 1423   0.526   5.622   1.854
  175SOL    HW1 1424   0.475   5.665   1.929
  175SOL    HW2 1425   0.555   5.691   1.788
  176SOL     OW 1426   5.218   3.513   0.813
  176SOL    HW1 1427   5.307   3.556   0.799
  176SOL    HW2 1428   5.173   3.552   0.893
  177SOL     OW 1429   5.366   2.583   3.997
  177SOL    HW1 1430   5.418   2.653   4.046
  177SOL    HW2 1431   5.343   2.509   4.061
  178SOL     OW 1432   0.951   4.741   4.461
  178SOL    HW1 1433   0.977   4.811   4.395
  178SOL    HW2 1434   0.974   4.650   4.424
  179SOL     OW 1435   2.947   4.058   1.662
  179SOL    HW1 1436   2.865   4.046   1.718
  179SOL    HW2 1437   2.982   4.151   1.673
  180SOL     OW 1438   5.895   0.449   5.442
  180SOL    HW1 1439   5.809   0.467   5.491
  180SOL    HW2 1440   5.902   0.351   5.422
  181SOL     OW 1441   2.701   5.675   5.384
  181SOL    HW1 1442   2.613   5.681   5.338
  181SOL    HW2 1443   2.690   5.695   5.481
  182SOL     OW 1444   3.247   2.683   5.350
  182SOL    HW1 1445   3.324   2.675   5.413
  182SOL    HW2 1446   3.239   2.599   5.296
  183SOL     OW 1447   1.617   0.464   2.789
  183SOL    HW1 1448   1.606   0.517   2.873
  183SOL    HW2 1449   1.587   0.519   2.710
  184SOL     OW 1450   5.309   6.424   4.039
  184SOL    HW1 1451   5.290   6.506   4.093
  184SOL    HW2 1452   5.255   6.348   4.074
  185SOL     OW 1453   0.331   6.145   4.953
  185SOL    HW1 1454   0.305   6.240   4.968
  185SOL    HW2 1455   0.250   6.086   4.964
  186SOL     OW 1456   3.232   4.990   0.032
  186SOL    HW1 1457   3.202   4.963   0.124
  186SOL    HW2 1458   3.309   5.054   0.039
  187SOL     OW 1459   3.732   5.475   6.860
  187SOL    HW1 1460   3.802   5.408   6.888
  187SOL    HW2 1461   3.650   5.463   6.916
  188SOL     OW 1462   1.346   4.329   3.140
  188SOL    HW1 1463   1.310   4.235   3.138
  188SOL    HW2 1464   1.415   4.339   3.068
  189SOL     OW 1465   6.273   3.358   5.645
  189SOL    HW1 1466   6.204   3.325   5.580
  189SOL    HW2 1467   6.360   3.312   5.627
  190SOL     OW 1468   6.295   6.363   6.872
  190SOL    HW1 1469   6.315   6.310   6.954
  190SOL    HW2 1470   6.227   6.433   6.893
  191SOL     OW 1471   1.879   3.838   6.544
  191SOL    HW1 1472   1.969   3.799   6.564
  191SOL    HW2 1473   1.846   3.887   6.625
  192SOL     OW 1474   1.026   6.336   0.630
  192SOL    HW1 1475   1.039   6.418   0.686
  192SOL    HW2 1476   0.973   6.359   0.549
  193SOL     OW 1477   3.122   0.066   1.885
  193SOL    HW1 1478   3.028   0.051   1.854
  193SOL    HW2 1479   3.138   0.016   1.969
  194SOL     OW 1480   4.901   6.979   3.269
  194SOL    HW1 1481   4.938   6.902   3.321
  194SOL    HW2 1482   4.910   6.961   3.171
  195SOL     OW 1483   3.277   0.765   1.485
  195SOL    HW1 1484   3.194   0.807   1.448
  195SOL    HW2 1485   3.265   0.749   1.583
  196SOL     OW 1486   3.398   2.702   1.480
  196SOL    HW1 1487   3.404   2.720   1.578
  196SOL    HW2 1488   3.343   2.620   1.464
  197SOL     OW 1489   0.652   6.503   1.008
  197SOL    HW1 1490   0.712   6.558   1.066
  197SOL    HW2 1491   0.698   6.417   0.985
  198SOL     OW 1492   6.882   0.984   5.270
  198SOL    HW1 1493   6.784   0.993   5.251
  198SOL    HW2 1494   6.932   1.053   5.216
  199SOL     OW 1495   0.963   6.708   3.316
  199SOL    HW1 1496   0.958   6.765   3.398
  199SOL    HW2 1497   0.964   6.766   3.235
  200SOL     OW 1498   2.192   3.260   3.100
  200SOL    HW1 1499   2.242   3.256   3.014
  200SOL    HW2 1500   2.150   3.350   3.110
  201SOL     OW 1501   5.303   0.448   0.275
  201SOL    HW1 1502   5.325   0.490   0.187
  201SOL    HW2 1503   5.342   0.503   0.349
  202SOL     OW 1504   3.681   0.934   2.408
  202SOL    HW1 1505   3.664   1.029   2.433
  202SOL    HW2 1506   3.695   0.880   2.491
  203SOL     OW 1507   5.551   2.301   1.759
  203SOL    HW1 1508   5.510   2.218   1.721
  203SOL    HW2 1509   5.595   2.279   1.847
  204SOL     OW 1510   2.656   6.183   0.899
  204SOL    HW1 1511   2.619   6.140   0.817
  204SOL    HW2 1512   2.598   6.162   0.978
  205SOL     OW 1513   5.154   0.661   6.612
  205SOL    HW1 1514   5.126   0.639   6.705
  205SOL    HW2 1515   5.098   0.737   6.578
  206SOL     OW 1516   0.310   5.361   2.130
  206SOL    HW1 1517   0.372   5.439   2.137
  206SOL    HW2 1518   0.215   5.394   2.125
  207SOL     OW 1519   6.542   2.696   5.808
  207SOL    HW1 1520   6.475   2.748   5.861
  207SOL    HW2 1521   6.523   2.598   5.817
  208SOL     OW 1522   4.761   4.119   0.971
  208SOL    HW1 1523   4.775   4.028   0.931
  208SOL    HW2 1524   4.729   4.109   1.065
  209SOL     OW 1525   6.333   1.142   4.066
  209SOL    HW1 1526   6.397   1.198   4.013
  209SOL    HW2 1527   6.384   1.079   4.124
  210SOL     OW 1528   5.238   3.351   0.357
  210SOL    HW1 1529   5.275   3.262   0.382
  210SOL    HW2 1530   5.138   3.346   0.352
  211SOL     OW 1531   0.451   4.951   2.147
  211SOL    HW1 1532   0.422   5.033   2.194
  211SOL    HW2 1533   0.496   4.889   2.212
  212SOL     OW 1534   0.627   5.030   5.428
  212SOL    HW1 1535   0.707   5.032   5.488
  212SOL    HW2 1536   0.644   4.969   5.351
  213SOL     OW 1537   5.075   2.372   1.665
  213SOL    HW1 1538   5.166   2.357   1.702
  213SOL    HW2 1539   5.067   2.467   1.635
  214SOL     OW 1540   6.934   5.686   3.725
  214SOL    HW1 1541   6.913   5.688   3.627
  214SOL    HW2 1542   6.891   5.606   3.766
  215SOL     OW 1543   3.553   2.851   3.432
  215SOL    HW1 1544   3.536   2.837   3.334
  215SOL    HW2 1545   3.637   2.804   3.458
  216SOL     OW 1546   4.652   7.006   4.350
  216SOL    HW1 1547   4.696   0.022   4.430
  216SOL    HW2 1548   4.576   0.038   4.321
  217SOL     OW 1549   6.326   1.780   4.747
  217SOL    HW1 1550   6.380   1.852   4.790
  217SOL    HW2 1551   6.229   1.791   4.771
  218SOL     OW 1552   2.619   4.681   5.578
  218SOL    HW1 1553   2.675   4.763   5.595
  218SOL    HW2 1554   2.669   4.619   5.519
  219SOL     OW 1555   3.576   6.772   0.102
  219SOL    HW1 1556   3.552   6.866   0.127
  219SOL    HW2 1557   3.633   6.732   0.174
  220SOL     OW 1558   1.279   4.287   0.652
  220SOL    HW1 1559   1.303   4.375   0.611
  220SOL    HW2 1560   1.282   4.295   0.752
  221SOL     OW 1561   6.144   4.119   4.166
  221SOL    HW1 1562   6.071   4.058   4.134
  221SOL    HW2 1563   6.110   4.177   4.240
  222SOL     OW 1564   0.645   0.572   4.732
  222SOL    HW1 1565   0.636   0.671   4.745
  222SOL    HW2 1566   0.688   0.532   4.812
  223SOL     OW 1567   5.419   5.985   1.957
  223SOL    HW1 1568   5.443   5.895   1.993
  223SOL    HW2 1569   5.490   6.050   1.982
  224SOL     OW 1570   5.349   4.635   2.200
  224SOL    HW1 1571   5.275   4.587   2.152
  224SOL    HW2 1572   5.328   4.637   2.298
  225SOL     OW 1573   4.472   6.023   0.461
  225SOL    HW1 1574   4.571   6.011   0.466
  225SOL    HW2 1575   4.433   6.022   0.553
  226SOL     OW 1576   1.343   5.648   3.256
  226SOL    HW1 1577   1.325   5.733   3.305
  226SOL    HW2 1578   1.335   5.664   3.157
  227SOL     OW 1579   1.639   3.650   2.897
  227SOL    HW1 1580   1.660   3.681   2.990
  227SOL    HW2 1581   1.669   3.556   2.886
  228SOL     OW 1582   3.801   5.769   3.317
  228SOL    HW1 1583   3.866   5.833   3.357
  228SOL    HW2 1584   3.786   5.693   3.381
  229SOL     OW 1585   5.613   0.001   2.132
  229SOL    HW1 1586   5.659   0.086   2.108
  229SOL    HW2 1587   5.516   0.019   2.150
  230SOL     OW 1588   1.061   4.933   4.631
  230SOL    HW1 1589   1.148   4.936   4.583
  230SOL    HW2 1590   0.998   4.871   4.583
  231SOL     OW 1591   6.796   2.623   6.810
  231SOL    HW1 1592   6.853   2.665   6.739
  231SOL    HW2 1593   6.816   2.665   6.899
  232SOL     OW 1594   2.172   3.264   0.466
  232SOL    HW1 1595   2.251   3.214   0.501
  232SOL    HW2 1596   2.192   3.362   0.464
  233SOL     OW 1597   3.539   0.282   0.493
  233SOL    HW1 1598   3.469   0.284   0.564
  233SOL    HW2 1599   3.549   0.189   0.459
  234SOL     OW 1600   2.008   5.608   0.577
  234SOL    HW1 1601   1.951   5.559   0.510
  234SOL    HW2 1602   2.010   5.705   0.555
  235SOL     OW 1603   4.347   2.649   5.473
  235SOL    HW1 1604   4.417   2.700   5.522
  235SOL    HW2 1605   4.261   2.654   5.524
  236SOL     OW 1606   0.081   6.648   6.863
  236SOL    HW1 1607   0.157   6.661   6.926
  236SOL    HW2 1608   0.073   6.551   6.840
  237SOL     OW 1609   5.735   0.495   2.792
  237SOL    HW1 1610   5.680   0.444   2.725
  237SOL    HW2 1611   5.692   0.487   2.882
  238SOL     OW 1612   0.471   1.914   3.271
  238SOL    HW1 1613   0.473   1.966   3.356
  238SOL    HW2 1614   0.439   1.821   3.290
  239SOL     OW 1615   6.398   4.771   5.959
  239SOL    HW1 1616   6.471   4.779   6.027
  239SOL    HW2 1617   6.358   4.861   5.942
  240SOL     OW 1618   6.868   3.114   4.217
  240SOL    HW1 1619   6.886   3.183   4.146
  240SOL    HW2 1620   6.859   3.025   4.173
  241SOL     OW 1621   5.896   2.354   3.990
  241SOL    HW1 1622   5.874   2.413   4.067
  241SOL    HW2 1623   5.909   2.409   3.908
  242SOL     OW 1624   2.164   1.926   2.680
  242SOL    HW1 1625   2.217   1.946   2.598
  242SOL    HW2 1626   2.161   2.007   2.739
  243SOL     OW 1627   5.369   1.242   6.845
  243SOL    HW1 1628   5.335   1.156   6.806
  243SOL    HW2 1629   5.432   1.222   6.920
  244SOL     OW 1630   1.753   0.645   5.883
  244SOL    HW1 1631   1.837   0.670   5.836
  244SOL    HW2 1632   1.674   0.680   5.832
  245SOL     OW 1633   4.352   2.175   4.976
  245SOL    HW1 1634   4.402   2.136   4.899
  245SOL    HW2 1635   4.293   2.105   5.016
  246SOL     OW 1636   5.347   4.059   4.774
  246SOL    HW1 1637   5.429   4.062   4.717
  246SOL    HW2 1638   5.336   3.967   4.812
  247SOL     OW 1639   1.047   0.214   2.677
  247SOL    HW1 1640   1.009   0.226   2.585
  247SOL    HW2 1641   1.011   0.284   2.738
  248SOL     OW 1642   0.084   3.266   3.605
  248SOL    HW1 1643   0.170   3.229   3.642
  248SOL    HW2 1644   0.034   3.312   3.678
  249SOL     OW 1645   1.779   6.557   4.674
  249SOL    HW1 1646   1.856   6.613   4.644
  249SOL    HW2 1647   1.786   6.466   4.632
  250SOL     OW 1648   5.877   2.528   0.655
  250SOL    HW1 1649   5.837   2.486   0.574
  250SOL    HW2 1650   5.976   2.527   0.647
  251SOL     OW 1651   2.179   6.889   2.803
  251SOL    HW1 1652   2.271   6.876   2.840
  251SOL    HW2 1653   2.131   6.958   2.858
  252SOL     OW 1654   6.500   3.308   6.617
  252SOL    HW1 1655   6.537   3.401   6.618
  252SOL    HW2 1656   6.500   3.271   6.710
  253SOL     OW 1657   1.738   4.624   5.542
  253SOL    HW1 1658   1.775   4.664   5.458
  253SOL    HW2 1659   1.742   4.524   5.536
  254SOL     OW 1660   5.516   3.912   6.875
  254SOL    HW1 1661   5.600   3.893   6.826
  254SOL    HW2 1662   5.511   4.010   6.896
  255SOL     OW 1663   4.479   2.415   2.108
  255SOL    HW1 1664   4.488   2.345   2.179
  255SOL    HW2 1665   4.396   2.399   2.055
  256SOL     OW 1666   0.363   6.543   0.943
  256SOL    HW1 1667   0.327   6.604   1.014
  256SOL    HW2 1668   0.451   6.506   0.972
  257SOL     OW 1669   2.657   6.162   6.339
  257SOL    HW1 1670   2.585   6.215   6.384
  257SOL    HW2 1671   2.636   6.065   6.346
  258SOL     OW 1672   5.184   5.230   3.733
  258SOL    HW1 1673   5.232   5.314   3.708
  258SOL    HW2 1674   5.188   5.217   3.832
  259SOL     OW 1675   6.284   1.405   2.062
  259SOL    HW1 1676   6.338   1.339   2.113
  259SOL    HW2 1677   6.263   1.484   2.120
  260SOL     OW 1678   6.404   6.787   5.913
  260SOL    HW1 1679   6.344   6.715   5.946
  260SOL    HW2 1680   6.402   6.789   5.813
  261SOL     OW 1681   6.523   0.839   3.319
  261SOL    HW1 1682   6.482   0.892   3.246
  261SOL    HW2 1683   6.561   0.900   3.389
  262SOL     OW 1684   1.213   5.736   0.833
  262SOL    HW1 1685   1.227   5.686   0.748
  262SOL    HW2 1686   1.257   5.687   0.908
  263SOL     OW 1687   0.844   4.355   5.346
  263SOL    HW1 1688   0.868   4.345   5.443
  263SOL    HW2 1689   0.789   4.437   5.334
  264SOL     OW 1690   4.381   4.718   0.753
  264SOL    HW1 1691   4.303   4.663   0.725
  264SOL    HW2 1692   4.428   4.753   0.671
  265SOL     OW 1693   4.184   5.166   4.661
  265SOL    HW1 1694   4.235   5.130   4.583
  265SOL    HW2 1695   4.097   5.205   4.630
  266SOL     OW 1696   5.035   3.252   6.509
  266SOL    HW1 1697   4.973   3.179   6.537
  266SOL    HW2 1698   4.985   3.316   6.450
  267SOL     OW 1699   3.227   1.436   6.573
  267SOL    HW1 1700   3.180   1.509   6.524
  267SOL    HW2 1701   3.277   1.474   6.651
  268SOL     OW 1702   1.980   4.208   3.220
  268SOL    HW1 1703   2.052   4.276   3.233
  268SOL    HW2 1704   1.891   4.254   3.216
  269SOL     OW 1705   3.730   1.369   5.526
  269SOL    HW1 1706   3.781   1.353   5.441
  269SOL    HW2 1707   3.793   1.402   5.596
  270SOL     OW 1708   4.929   5.746   4.783
  270SOL    HW1 1709   4.945   5.819   4.849
  270SOL    HW2 1710   4.831   5.739   4.763
  271SOL     OW 1711   2.381   0.761   0.462
  271SOL    HW1 1712   2.422   0.718   0.543
  271SOL    HW2 1713   2.321   0.696   0.416
  272SOL     OW 1714   5.751   3.970   6.750
  272SOL    HW1 1715   5.805   3.955   6.668
  272SOL    HW2 1716   5.745   4.068   6.769
  273SOL     OW 1717   0.498   5.670   4.180
  273SOL    HW1 1718   0.568   5.659   4.110
  273SOL    HW2 1719   0.538   5.711   4.262
  274SOL     OW 1720   5.059   2.830   2.400
  274SOL    HW1 1721   5.046   2.879   2.486
  274SOL    HW2 1722   5.124   2.755   2.413
  275SOL     OW 1723   5.641   5.212   5.950
  275SOL    HW1 1724   5.587   5.246   6.028
  275SOL    HW2 1725   5.733   5.250   5.954
  276SOL     OW 1726   0.324   0.088   4.792
  276SOL    HW1 1727   0.291   0.093   4.698
  276SOL    HW2 1728   0.255   0.126   4.853
  277SOL     OW 1729   4.360   3.605   6.190
  277SOL    HW1 1730   4.272   3.638   6.224
  277SOL    HW2 1731   4.402   3.676   6.133
  278SOL     OW 1732   5.971   5.259   1.978
  278SOL    HW1 1733   6.056   5.233   2.024
  278SOL    HW2 1734   5.893   5.215   2.024
  279SOL     OW 1735   6.547   3.344   4.144
  279SOL    HW1 1736   6.541   3.435   4.103
  279SOL    HW2 1737   6.613   3.346   4.219
  280SOL     OW 1738   4.023   1.171   2.267
  280SOL    HW1 1739   4.121   1.160   2.251
  280SOL    HW2 1740   3.974   1.097   2.221
  281SOL     OW 1741   4.971   5.375   6.267
  281SOL    HW1 1742   5.017   5.432   6.335
  281SOL    HW2 1743   4.938   5.291   6.310
  282SOL     OW 1744   0.552   1.345   6.479
  282SOL    HW1 1745   0.579   1.437   6.507
  282SOL    HW2 1746   0.459   1.348   6.442
  283SOL     OW 1747   6.565   3.976   2.945
  283SOL    HW1 1748   6.602   3.887   2.967
  283SOL    HW2 1749   6.631   4.047   2.970
  284SOL     OW 1750   5.804   0.096   2.746
  284SOL    HW1 1751   5.711   0.077   2.778
  284SOL    HW2 1752   5.858   0.135   2.820
  285SOL     OW 1753   5.642   5.966   6.501
  285SOL    HW1 1754   5.658   6.035   6.430
  285SOL    HW2 1755   5.546   5.968   6.528
  286SOL     OW 1756   3.246   6.224   5.548
  286SOL    HW1 1757   3.246   6.287   5.626
  286SOL    HW2 1758   3.261   6.131   5.580
  287SOL     OW 1759   4.979   6.817   0.473
  287SOL    HW1 1760   5.061   6.843   0.421
  287SOL    HW2 1761   4.922   6.757   0.418
  288SOL     OW 1762   3.545   0.434   6.903
  288SOL    HW1 1763   3.622   0.405   6.960
  288SOL    HW2 1764   3.460   0.428   6.955
  289SOL     OW 1765   6.218   5.177   4.357
  289SOL    HW1 1766   6.262   5.144   4.441
  289SOL    HW2 1767   6.240   5.274   4.344
  290SOL     OW 1768   3.031   1.390   5.058
  290SOL    HW1 1769   2.983   1.316   5.104
  290SOL    HW2 1770   2.966   1.459   5.028
  291SOL     OW 1771   6.087   1.424   4.644
  291SOL    HW1 1772   6.154   1.495   4.621
  291SOL    HW2 1773   6.064   1.372   4.562
  292SOL     OW 1774   2.578   0.481   4.939
  292SOL    HW1 1775   2.502   0.459   5.001
  292SOL    HW2 1776   2.555   0.562   4.885
  293SOL     OW 1777   5.617   1.003   2.939
  293SOL    HW1 1778   5.527   0.990   2.898
  293SOL    HW2 1779   5.681   1.035   2.869
  294SOL     OW 1780   6.607   0.733   6.102
  294SOL    HW1 1781   6.606   0.819   6.051
  294SOL    HW2 1782   6.681   0.675   6.068
  295SOL     OW 1783   0.392   0.629   5.314
  295SOL    HW1 1784   0.458   0.599   5.246
  295SOL    HW2 1785   0.436   0.691   5.380
  296SOL     OW 1786   0.017   1.660   6.151
  296SOL    HW1 1787   6.979   1.730   6.183
  296SOL    HW2 1788   7.002   1.569   6.166
  297SOL     OW 1789   5.042   4.332   3.103
  297SOL    HW1 1790   5.034   4.276   3.186
  297SOL    HW2 1791   5.117   4.398   3.115
  298SOL     OW 1792   4.227   6.222   5.405
  298SOL    HW1 1793   4.157   6.248   5.472
  298SOL    HW2 1794   4.191   6.233   5.313
  299SOL     OW 1795   6.675   1.791   6.246
  299SOL    HW1 1796   6.599   1.856   6.246
  299SOL    HW2 1797   6.661   1.724   6.318
  300SOL     OW 1798   4.481   6.688   4.430
  300SOL    HW1 1799   4.490   6.780   4.390
  300SOL    HW2 1800   4.393   6.680   4.476
  301SOL     OW 1801   0.203   6.444   5.735
  301SOL    HW1 1802   0.203   6.538   5.700
  301SOL    HW2 1803   0.237   6.382   5.665
  302SOL     OW 1804   0.683   5.789   2.759
  302SOL    HW1 1805   0.670   5.863   2.692
  302SOL    HW2 1806   0.660   5.701   2.716
  303SOL     OW 1807   4.298   5.313   2.408
  303SOL    HW1 1808   4.386   5.270   2.429
  303SOL    HW2 1809   4.312   5.385   2.340
  304SOL     OW 1810   1.417   1.107   5.177
  304SOL    HW1 1811   1.436   1.198   5.141
  304SOL    HW2 1812   1.332   1.109   5.230
  305SOL     OW 1813   3.512   1.021   1.032
  305SOL    HW1 1814   3.607   0.993   1.023
  305SOL    HW2 1815   3.454   0.939   1.036
  306SOL     OW 1816   6.852   6.482   2.247
  306SOL    HW1 1817   6.753   6.479   2.254
  306SOL    HW2 1818   6.879   6.472   2.152
  307SOL     OW 1819   3.591   2.921   4.318
  307SOL    HW1 1820   3.521   2.890   4.253
  307SOL    HW2 1821   3.673   2.865   4.309
  308SOL     OW 1822   6.232   3.172   0.420
  308SOL    HW1 1823   6.223   3.132   0.329
  308SOL    HW2 1824   6.318   3.222   0.427
  309SOL     OW 1825   1.899   5.379   0.413
  309SOL    HW1 1826   1.973   5.359   0.350
  309SOL    HW2 1827   1.844   5.296   0.429
  310SOL     OW 1828   4.326   6.564   5.436
  310SOL    HW1 1829   4.412   6.519   5.411
  310SOL    HW2 1830   4.290   6.522   5.519
  311SOL     OW 1831   1.573   5.846   2.050
  311SOL    HW1 1832   1.544   5.751   2.054
  311SOL    HW2 1833   1.669   5.851   2.022
  312SOL     OW 1834   3.257   0.095   4.840
  312SOL    HW1 1835   3.200   0.093   4.922
  312SOL    HW2 1836   3.200   0.079   4.759
  313SOL     OW 1837   3.167   4.068   3.268
  313SOL    HW1 1838   3.245   4.112   3.313
  313SOL    HW2 1839   3.115   4.015   3.334
  314SOL     OW 1840   1.758   4.388   6.064
  314SOL    HW1 1841   1.743   4.290   6.076
  314SOL    HW2 1842   1.678   4.429   6.019
  315SOL     OW 1843   6.417   0.856   3.897
  315SOL    HW1 1844   6.477   0.791   3.943
  315SOL    HW2 1845   6.467   0.940   3.876
  316SOL     OW 1846   4.127   0.814   5.038
  316SOL    HW1 1847   4.086   0.905   5.045
  316SOL    HW2 1848   4.125   0.784   4.942
  317SOL     OW 1849   0.045   1.289   2.022
  317SOL    HW1 1850   0.136   1.327   2.037
  317SOL    HW2 1851   7.004   1.363   2.009
  318SOL     OW 1852   1.172   1.710   3.467
  318SOL    HW1 1853   1.171   1.617   3.430
  318SOL    HW2 1854   1.253   1.721   3.526
  319SOL     OW 1855   6.879   1.493   1.975
  319SOL    HW1 1856   6.875   1.592   1.989
  319SOL    HW2 1857   6.787   1.458   1.959
  320SOL     OW 1858   5.137   0.403   6.440
  320SOL    HW1 1859   5.127   0.493   6.483
  320SOL    HW2 1860   5.109   0.332   6.504
  321SOL     OW 1861   4.324   3.979   0.784
  321SOL    HW1 1862   4.347   3.898   0.838
  321SOL    HW2 1863   4.389   4.052   0.803
  322SOL     OW 1864   2.749   1.065   0.299
  322SOL    HW1 1865   2.798   1.005   0.235
  322SOL    HW2 1866   2.687   1.124   0.247
  323SOL     OW 1867   0.344   4.287   2.483
  323SOL    HW1 1868   0.307   4.357   2.423
  323SOL    HW2 1869   0.286   4.205   2.479
  324SOL     OW 1870   6.703   0.959   3.779
  324SOL    HW1 1871   6.622   1.010   3.748
  324SOL    HW2 1872   6.685   0.861   3.769
  325SOL     OW 1873   0.060   2.490   6.880
  325SOL    HW1 1874   7.001   2.444   6.908
  325SOL    HW2 1875   0.118   2.505   6.961
  326SOL     OW 1876   6.607   5.539   5.749
  326SOL    HW1 1877   6.508   5.529   5.757
  326SOL    HW2 1878   6.652   5.455   5.778
  327SOL     OW 1879   3.972   6.297   6.255
  327SOL    HW1 1880   3.989   6.360   6.179
  327SOL    HW2 1881   3.939   6.348   6.334
  328SOL     OW 1882   2.505   5.449   3.392
  328SOL    HW1 1883   2.486   5.522   3.458
  328SOL    HW2 1884   2.470   5.362   3.427
  329SOL     OW 1885   2.986   3.696   2.879
  329SOL    HW1 1886   3.071   3.676   2.831
  329SOL    HW2 1887   2.913   3.637   2.844
  330SOL     OW 1888   2.373   3.536   6.847
  330SOL    HW1 1889   2.437   3.596   6.895
  330SOL    HW2 1890   2.313   3.492   6.914
  331SOL     OW 1891   4.617   5.847   4.946
  331SOL    HW1 1892   4.620   5.755   4.985
  331SOL    HW2 1893   4.596   5.842   4.848
  332SOL     OW 1894   6.148   2.525   2.728
  332SOL    HW1 1895   6.108   2.437   2.705
  332SOL    HW2 1896   6.153   2.534   2.828
  333SOL     OW 1897   3.297   6.251   4.028
  333SOL    HW1 1898   3.261   6.261   4.120
  333SOL    HW2 1899   3.305   6.154   4.006
  334SOL     OW 1900   3.451   3.607   4.200
  334SOL    HW1 1901   3.373   3.665   4.223
  334SOL    HW2 1902   3.466   3.541   4.273
  335SOL     OW 1903   4.859   1.076   6.679
  335SOL    HW1 1904   4.845   1.128   6.595
  335SOL    HW2 1905   4.770   1.053   6.719
  336SOL     OW 1906   3.531   1.252   4.601
  336SOL    HW1 1907   3.534   1.348   4.576
  336SOL    HW2 1908   3.509   1.197   4.520
  337SOL     OW 1909   0.869   1.517   5.361
  337SOL    HW1 1910   0.896   1.610   5.384
  337SOL    HW2 1911   0.769   1.512   5.353
  338SOL     OW 1912   4.417   2.127   1.238
  338SOL    HW1 1913   4.369   2.100   1.322
  338SOL    HW2 1914   4.422   2.227   1.234
  339SOL     OW 1915   3.906   4.190   5.917
  339SOL    HW1 1916   3.893   4.161   5.822
  339SOL    HW2 1917   3.818   4.208   5.959
  340SOL     OW 1918   5.893   4.610   4.371
  340SOL    HW1 1919   5.941   4.688   4.411
  340SOL    HW2 1920   5.923   4.598   4.276
  341SOL     OW 1921   6.199   0.665   1.757
  341SOL    HW1 1922   6.205   0.758   1.719
  341SOL    HW2 1923   6.217   0.599   1.684
  342SOL     OW 1924   4.646   0.316   1.404
  342SOL    HW1 1925   4.617   0.238   1.349
  342SOL    HW2 1926   4.709   0.373   1.351
  343SOL     OW 1927   5.831   0.696   2.198
  343SOL    HW1 1928   5.744   0.647   2.207
  343SOL    HW2 1929   5.845   0.722   2.103
  344SOL     OW 1930   6.618   3.178   1.489
  344SOL    HW1 1931   6.545   3.246   1.497
  344SOL    HW2 1932   6.682   3.206   1.418
  345SOL     OW 1933   0.129   3.507   3.428
  345SOL    HW1 1934   0.094   3.424   3.472
  345SOL    HW2 1935   0.128   3.582   3.493
  346SOL     OW 1936   0.527   0.633   3.346
  346SOL    HW1 1937   0.581   0.715   3.326
  346SOL    HW2 1938   0.456   0.623   3.276
  347SOL     OW 1939   1.369   4.362   1.397
  347SOL    HW1 1940   1.275   4.374   1.427
  347SOL    HW2 1941   1.375   4.285   1.333
  348SOL     OW 1942   6.434   4.657   1.215
  348SOL    HW1 1943   6.346   4.688   1.179
  348SOL    HW2 1944   6.420   4.610   1.302
  349SOL     OW 1945   5.673   5.223   6.996
  349SOL    HW1 1946   5.583   5.255   6.965
  349SOL    HW2 1947   5.744   5.279   6.954
  350SOL     OW 1948   2.159   0.899   0.558
  350SOL    HW1 1949   2.096   0.952   0.502
  350SOL    HW2 1950   2.226   0.853   0.499
  351SOL     OW 1951   4.083   4.613   1.135
  351SOL    HW1 1952   4.181   4.625   1.120
  351SOL    HW2 1953   4.050   4.683   1.198
  352SOL     OW 1954   3.772   1.012   2.702
  352SOL    HW1 1955   3.672   1.018   2.702
  352SOL    HW2 1956   3.799   0.916   2.690
  353SOL     OW 1957   2.277   6.214   0.822
  353SOL    HW1 1958   2.245   6.154   0.749
  353SOL    HW2 1959   2.235   6.304   0.813
  354SOL     OW 1960   3.127   2.438   1.077
  354SOL    HW1 1961   3.216   2.452   1.034
  354SOL    HW2 1962   3.055   2.449   1.009
  355SOL     OW 1963   6.935   2.317   2.829
  355SOL    HW1 1964   6.992   2.252   2.879
  355SOL    HW2 1965   6.945   2.408   2.870
  356SOL     OW 1966   2.875   6.940   5.916
  356SOL    HW1 1967   2.947   7.009   5.923
  356SOL    HW2 1968   2.796   6.980   5.869
  357SOL     OW 1969   6.203   5.622   4.325
  357SOL    HW1 1970   6.290   5.641   4.370
  357SOL    HW2 1971   6.171   5.705   4.279
  358SOL     OW 1972   3.359   6.327   7.016
  358SOL    HW1 1973   3.305   6.300   0.071
  358SOL    HW2 1974   3.325   6.280   6.935
  359SOL     OW 1975   1.663   2.073   1.275
  359SOL    HW1 1976   1.605   2.025   1.209
  359SOL    HW2 1977   1.665   2.022   1.361
  360SOL     OW 1978   1.687   4.918   2.517
  360SOL    HW1 1979   1.688   4.831   2.566
  360SOL    HW2 1980   1.613   4.917   2.450
  361SOL     OW 1981   5.723   3.077   2.972
  361SOL    HW1 1982   5.639   3.116   2.934
  361SOL    HW2 1983   5.745   3.122   3.059
  362SOL     OW 1984   3.550   2.856   3.168
  362SOL    HW1 1985   3.553   2.760   3.140
  362SOL    HW2 1986   3.538   2.913   3.087
  363SOL     OW 1987   4.749   5.679   1.980
  363SOL    HW1 1988   4.726   5.772   1.954
  363SOL    HW2 1989   4.814   5.680   2.056
  364SOL     OW 1990   1.248   1.130   0.009
  364SOL    HW1 1991   1.244   1.133   0.109
  364SOL    HW2 1992   1.306   1.205   7.001
  365SOL     OW 1993   5.089   6.961   3.620
  365SOL    HW1 1994   5.039   6.913   3.548
  365SOL    HW2 1995   5.156   6.899   3.661
  366SOL     OW 1996   5.676   0.440   0.751
  366SOL    HW1 1997   5.616   0.508   0.794
  366SOL    HW2 1998   5.739   0.487   0.688
  367SOL     OW 1999   6.486   6.142   6.816
  367SOL    HW1 2000   6.508   6.104   6.906
  367SOL    HW2 2001   6.409   6.205   6.825
  368SOL     OW 2002   2.759   0.702   4.784
  368SOL    HW1 2003   2.768   0.797   4.814
  368SOL    HW2 2004   2.830   0.647   4.827
  369SOL     OW 2005   5.117   3.496   6.195
  369SOL    HW1 2006   5.032   3.487   6.248
  369SOL    HW2 2007   5.098   3.473   6.099
  370SOL     OW 2008   1.651   1.698   3.825
  370SOL    HW1 2009   1.556   1.723   3.805
  370SOL    HW2 2010   1.696   1.774   3.872
  371SOL     OW 2011   2.732   5.194   0.778
  371SOL    HW1 2012   2.824   5.161   0.754
  371SOL    HW2 2013   2.740   5.277   0.834
  372SOL     OW 2014   2.181   5.781   5.607
  372SOL    HW1 2015   2.189   5.881   5.606
  372SOL    HW2 2016   2.106   5.755   5.668
  373SOL     OW 2017   6.056   4.663   2.079
  373SOL    HW1 2018   5.975   4.623   2.123
  373SOL    HW2 2019   6.073   4.753   2.118
  374SOL     OW 2020   2.342   2.493   2.532
  374SOL    HW1 2021   2.330   2.415   2.471
  374SOL    HW2 2022   2.423   2.479   2.589
  375SOL     OW 2023   0.698   5.097   4.418
  375SOL    HW1 2024   0.741   5.054   4.497
  375SOL    HW2 2025   0.604   5.124   4.442
  376SOL     OW 2026   5.704   6.453   3.609
  376SOL    HW1 2027   5.675   6.413   3.523
  376SOL    HW2 2028   5.646   6.420   3.683
  377SOL     OW 2029   2.590   3.628   6.441
  377SOL    HW1 2030   2.574   3.541   6.395
  377SOL    HW2 2031   2.504   3.662   6.480
  378SOL     OW 2032   4.692   1.223   1.020
  378SOL    HW1 2033   4.786   1.194   0.999
  378SOL    HW2 2034   4.649   1.154   1.079
  379SOL     OW 2035   2.899   3.711   0.752
  379SOL    HW1 2036   2.972   3.743   0.813
  379SOL    HW2 2037   2.895   3.612   0.754
  380SOL     OW 2038   5.859   1.791   0.535
  380SOL    HW1 2039   5.779   1.850   0.529
  380SOL    HW2 2040   5.906   1.807   0.622
  381SOL     OW 2041   0.273   3.411   2.273
  381SOL    HW1 2042   0.297   3.434   2.179
  381SOL    HW2 2043   0.184   3.367   2.275
  382SOL     OW 2044   5.990   0.355   0.735
  382SOL    HW1 2045   5.917   0.294   0.704
  382SOL    HW2 2046   5.954   0.448   0.746
  383SOL     OW 2047   5.184   3.049   1.493
  383SOL    HW1 2048   5.142   3.016   1.409
  383SOL    HW2 2049   5.284   3.042   1.485
  384SOL     OW 2050   1.505   2.794   4.505
  384SOL    HW1 2051   1.478   2.734   4.580
  384SOL    HW2 2052   1.531   2.738   4.426
  385SOL     OW 2053   4.558   3.575   6.876
  385SOL    HW1 2054   4.604   3.650   6.924
  385SOL    HW2 2055   4.608   3.490   6.893
  386SOL     OW 2056   2.772   6.367   5.660
  386SOL    HW1 2057   2.848   6.304   5.677
  386SOL    HW2 2058   2.784   6.411   5.571
  387SOL     OW 2059   1.762   6.585   3.508
  387SOL    HW1 2060   1.773   6.590   3.607
  387SOL    HW2 2061   1.733   6.675   3.473
  388SOL     OW 2062   1.862   5.692   5.512
  388SOL    HW1 2063   1.884   5.631   5.436
  388SOL    HW2 2064   1.775   5.738   5.494
  389SOL     OW 2065   4.272   1.331   6.961
  389SOL    HW1 2066   4.212   1.409   6.949
  389SOL    HW2 2067   4.218   1.250   6.984
  390SOL     OW 2068   3.857   1.096   3.622
  390SOL    HW1 2069   3.825   1.180   3.665
  390SOL    HW2 2070   3.957   1.099   3.615
  391SOL     OW 2071   0.517   1.141   0.287
  391SOL    HW1 2072   0.607   1.132   0.328
  391SOL    HW2 2073   0.450   1.165   0.358
  392SOL     OW 2074   4.128   5.357   4.229
  392SOL    HW1 2075   4.039   5.392   4.199
  392SOL    HW2 2076   4.162   5.413   4.304
  393SOL     OW 2077   5.324   2.274   5.557
  393SOL    HW1 2078   5.301   2.299   5.463
  393SOL    HW2 2079   5.340   2.176   5.563
  394SOL     OW 2080   2.500   1.414   6.858
  394SOL    HW1 2081   2.584   1.440   6.905
  394SOL    HW2 2082   2.510   1.428   6.760
  395SOL     OW 2083   0.136   2.685   0.777
  395SOL    HW1 2084   0.179   2.751   0.716
  395SOL    HW2 2085   0.069   2.732   0.834
  396SOL     OW 2086   4.115   2.160   5.726
  396SOL    HW1 2087   4.061   2.086   5.686
  396SOL    HW2 2088   4.105   2.157   5.826
  397SOL     OW 2089   5.188   6.637   6.943
  397SOL    HW1 2090   5.125   6.708   6.909
  397SOL    HW2 2091   5.149   6.596   0.001
  398SOL     OW 2092   5.481   4.331   2.211
  398SOL    HW1 2093   5.496   4.395   2.135
  398SOL    HW2 2094   5.562   4.329   2.269
  399SOL     OW 2095   1.905   5.287   1.379
  399SOL    HW1 2096   1.935   5.220   1.312
  399SOL    HW2 2097   1.979   5.352   1.398
  400SOL     OW 2098   2.111   4.614   6.113
  400SOL    HW1 2099   2.047   4.656   6.177
  400SOL    HW2 2100   2.060   4.566   6.041
  401SOL     OW 2101   6.673   1.445   1.310
  401SOL    HW1 2102   6.599   1.379   1.319
  401SOL    HW2 2103   6.641   1.536   1.337
  402SOL     OW 2104   0.796   5.671   0.891
  402SOL    HW1 2105   0.755   5.660   0.800
  402SOL    HW2 2106   0.801   5.768   0.913
  403SOL     OW 2107   5.190   4.369   0.057
  403SOL    HW1 2108   5.288   4.355   0.043
  403SOL    HW2 2109   5.147   4.283   0.085
  404SOL     OW 2110   6.748   6.057   4.446
  404SOL    HW1 2111   6.682   5.981   4.444
  404SOL    HW2 2112   6.809   6.046   4.524
  405SOL     OW 2113   1.250   1.717   1.586
  405SOL    HW1 2114   1.173   1.668   1.546
  405SOL    HW2 2115   1.218   1.778   1.659
  406SOL     OW 2116   0.249   2.659   3.979
  406SOL    HW1 2117   0.287   2.734   4.034
  406SOL    HW2 2118   0.160   2.632   4.016
  407SOL     OW 2119   3.093   1.859   3.623
  407SOL    HW1 2120   3.133   1.883   3.711
  407SOL    HW2 2121   3.139   1.778   3.586
  408SOL     OW 2122   2.800   0.213   3.805
  408SOL    HW1 2123   2.888   0.258   3.789
  408SOL    HW2 2124   2.772   0.164   3.723
  409SOL     OW 2125   0.385   4.961   4.711
  409SOL    HW1 2126   0.427   4.970   4.620
  409SOL    HW2 2127   0.351   4.868   4.723
  410SOL     OW 2128   2.712   0.072   6.670
  410SOL    HW1 2129   2.625   0.070   6.619
  410SOL    HW2 2130   2.742   0.166   6.681
  411SOL     OW 2131   0.621   4.422   6.066
  411SOL    HW1 2132   0.678   4.498   6.095
  411SOL    HW2 2133   0.533   4.457   6.033
  412SOL     OW 2134   3.837   5.838   2.973
  412SOL    HW1 2135   3.809   5.812   3.065
  412SOL    HW2 2136   3.809   5.933   2.956
  413SOL     OW 2137   1.829   0.943   1.584
  413SOL    HW1 2138   1.857   1.008   1.654
  413SOL    HW2 2139   1.795   0.993   1.504
  414SOL     OW 2140   4.302   5.014   0.697
  414SOL    HW1 2141   4.367   5.047   0.628
  414SOL    HW2 2142   4.352   4.976   0.774
  415SOL     OW 2143   3.845   6.338   3.028
  415SOL    HW1 2144   3.853   6.342   3.127
  415SOL    HW2 2145   3.936   6.329   2.987
  416SOL     OW 2146   3.881   5.847   6.762
  416SOL    HW1 2147   3.929   5.804   6.686
  416SOL    HW2 2148   3.906   5.944   6.768
  417SOL     OW 2149   5.894   5.416   1.443
  417SOL    HW1 2150   5.973   5.461   1.403
  417SOL    HW2 2151   5.856   5.473   1.516
  418SOL     OW 2152   0.267   5.120   6.293
  418SOL    HW1 2153   0.365   5.118   6.315
  418SOL    HW2 2154   0.214   5.129   6.377
  419SOL     OW 2155   5.374   5.441   6.476
  419SOL    HW1 2156   5.348   5.531   6.511
  419SOL    HW2 2157   5.292   5.389   6.456
  420SOL     OW 2158   5.632   3.494   0.226
  420SOL    HW1 2159   5.692   3.451   0.157
  420SOL    HW2 2160   5.678   3.574   0.265
  421SOL     OW 2161   1.654   6.270   5.627
  421SOL    HW1 2162   1.679   6.343   5.690
  421SOL    HW2 2163   1.560   6.242   5.643
  422SOL     OW 2164   6.105   3.731   0.411
  422SOL    HW1 2165   6.096   3.757   0.507
  422SOL    HW2 2166   6.187   3.676   0.398
  423SOL     OW 2167   1.720   2.873   6.458
  423SOL    HW1 2168   1.754   2.789   6.415
  423SOL    HW2 2169   1.654   2.917   6.398
  424SOL     OW 2170   2.249   4.194   5.748
  424SOL    HW1 2171   2.287   4.246   5.672
  424SOL    HW2 2172   2.314   4.197   5.825
  425SOL     OW 2173   2.425   0.218   0.027
  425SOL    HW1 2174   2.425   0.303   0.079
  425SOL    HW2 2175   2.361   0.153   0.069
  426SOL     OW 2176   1.411   2.963   0.110
  426SOL    HW1 2177   1.393   2.888   0.045
  426SOL    HW2 2178   1.419   3.049   0.060
  427SOL     OW 2179   3.732   2.772   0.515
  427SOL    HW1 2180   3.832   2.782   0.518
  427SOL    HW2 2181   3.689   2.854   0.552
  428SOL     OW 2182   3.503   0.599   4.365
  428SOL    HW1 2183   3.410   0.619   4.336
  428SOL    HW2 2184   3.554   0.560   4.288
  429SOL     OW 2185   4.025   5.697   6.578
  429SOL    HW1 2186   3.964   5.623   6.548
  429SOL    HW2 2187   4.116   5.682   6.541
  430SOL     OW 2188   2.974   1.093   4.296
  430SOL    HW1 2189   3.036   1.039   4.239
  430SOL    HW2 2190   2.916   1.033   4.350
  431SOL     OW 2191   3.412   1.003   6.044
  431SOL    HW1 2192   3.323   0.999   5.999
  431SOL    HW2 2193   3.402   0.978   6.141
  432SOL     OW 2194   6.590   0.794   1.137
  432SOL    HW1 2195   6.560   0.824   1.227
  432SOL    HW2 2196   6.685   0.822   1.121
  433SOL     OW 2197   4.145   6.304   4.815
  433SOL    HW1 2198   4.061   6.350   4.843
  433SOL    HW2 2199   4.123   6.226   4.756
  434SOL     OW 2200   6.622   3.478   1.127
  434SOL    HW1 2201   6.689   3.530   1.074
  434SOL    HW2 2202   6.602   3.527   1.212
  435SOL     OW 2203   3.384   3.739   1.214
  435SOL    HW1 2204   3.447   3.787   1.153
  435SOL    HW2 2205   3.413   3.750   1.308
  436SOL     OW 2206   2.544   1.199   0.929
  436SOL    HW1 2207   2.444   1.193   0.925
  436SOL    HW2 2208   2.581   1.201   0.836
  437SOL     OW 2209   6.124   6.393   6.410
  437SOL    HW1 2210   6.196   6.456   6.381
  437SOL    HW2 2211   6.053   6.443   6.459
  438SOL     OW 2212   1.235   3.501   0.991
  438SOL    HW1 2213   1.136   3.512   0.989
  438SOL    HW2 2214   1.260   3.417   0.943
  439SOL     OW 2215   6.135   5.475   1.661
  439SOL    HW1 2216   6.197   5.548   1.632
  439SOL    HW2 2217   6.049   5.516   1.693
  440SOL     OW 2218   1.227   2.832   2.638
  440SOL    HW1 2219   1.206   2.849   2.541
  440SOL    HW2 2220   1.235   2.918   2.687
  441SOL     OW 2221   6.866   1.959   3.095
  441SOL    HW1 2222   6.807   2.029   3.056
  441SOL    HW2 2223   6.933   2.002   3.156
  442SOL     OW 2224   1.082   5.080   6.584
  442SOL    HW1 2225   1.157   5.143   6.564
  442SOL    HW2 2226   1.100   4.992   6.541
  443SOL     OW 2227   7.010   6.162   5.571
  443SOL    HW1 2228   6.953   6.228   5.521
  443SOL    HW2 2229   7.010   6.186   5.668
  444SOL     OW 2230   5.403   2.840   6.474
  444SOL    HW1 2231   5.359   2.780   6.541
  444SOL    HW2 2232   5.343   2.916   6.452
  445SOL     OW 2233   1.676   3.830   2.504
  445SOL    HW1 2234   1.592   3.880   2.483
  445SOL    HW2 2235   1.710   3.857   2.594
  446SOL     OW 2236   1.394   5.397   4.683
  446SOL    HW1 2237   1.437   5.330   4.744
  446SOL    HW2 2238   1.340   5.462   4.737
  447SOL     OW 2239   1.116   5.743   0.489
  447SOL    HW1 2240   1.204   5.778   0.521
  447SOL    HW2 2241   1.118   5.736   0.389
  448SOL     OW 2242   4.951   0.645   5.482
  448SOL    HW1 2243   4.963   0.549   5.504
  448SOL    HW2 2244   5.036   0.681   5.442
  449SOL     OW 2245   6.434   0.955   4.253
  449SOL    HW1 2246   6.416   0.857   4.238
  449SOL    HW2 2247   6.525   0.978   4.218
  450SOL     OW 2248   0.034   6.047   2.689
  450SOL    HW1 2249   6.972   6.000   2.699
  450SOL    HW2 2250   0.044   6.082   2.596
  451SOL     OW 2251   6.006   3.637   3.936
  451SOL    HW1 2252   5.912   3.604   3.938
  451SOL    HW2 2253   6.009   3.729   3.897
  452SOL     OW 2254   5.963   5.069   5.820
  452SOL    HW1 2255   5.998   5.161   5.808
  452SOL    HW2 2256   5.880   5.057   5.766
  453SOL     OW 2257   4.258   1.909   5.848
  453SOL    HW1 2258   4.350   1.934   5.879
  453SOL    HW2 2259   4.265   1.846   5.771
  454SOL     OW 2260   0.413   5.462   0.320
  454SOL    HW1 2261   0.479   5.538   0.324
  454SOL    HW2 2262   0.430   5.400   0.396
  455SOL     OW 2263   5.383   2.249   4.934
  455SOL    HW1 2264   5.435   2.322   4.978
  455SOL    HW2 2265   5.302   2.288   4.890
  456SOL     OW 2266   4.325   6.047   0.699
  456SOL    HW1 2267   4.382   6.023   0.777
  456SOL    HW2 2268   4.246   6.099   0.730
  457SOL     OW 2269   0.509   3.676   1.760
  457SOL    HW1 2270   0.584   3.738   1.783
  457SOL    HW2 2271   0.540   3.582   1.769
  458SOL     OW 2272   0.741   0.438   4.943
  458SOL    HW1 2273   0.840   0.434   4.957
  458SOL    HW2 2274   0.708   0.347   4.915
  459SOL     OW 2275   1.545   0.529   3.081
  459SOL    HW1 2276   1.470   0.465   3.099
  459SOL    HW2 2277   1.621   0.510   3.143
  460SOL     OW 2278   6.561   2.786   2.844
  460SOL    HW1 2279   6.591   2.700   2.886
  460SOL    HW2 2280   6.519   2.766   2.756
  461SOL     OW 2281   5.781   4.391   5.702
  461SOL    HW1 2282   5.840   4.424   5.629
  461SOL    HW2 2283   5.711   4.330   5.664
  462SOL     OW 2284   3.139   2.367   0.121
  462SOL    HW1 2285   3.162   2.276   0.088
  462SOL    HW2 2286   3.152   2.372   0.220
  463SOL     OW 2287   5.974   6.731   1.434
  463SOL    HW1 2288   5.945   6.635   1.425
  463SOL    HW2 2289   5.895   6.791   1.420
  464SOL     OW 2290   1.538   1.553   6.300
  464SOL    HW1 2291   1.542   1.521   6.395
  464SOL    HW2 2292   1.631   1.555   6.263
  465SOL     OW 2293   1.005   3.623   5.850
  465SOL    HW1 2294   1.023   3.580   5.938
  465SOL    HW2 2295   0.931   3.690   5.860
  466SOL     OW 2296   1.838   0.265   3.380
  466SOL    HW1 2297   1.934   0.244   3.362
  466SOL    HW2 2298   1.781   0.234   3.304
  467SOL     OW 2299   1.989   1.339   4.707
  467SOL    HW1 2300   1.964   1.425   4.663
  467SOL    HW2 2301   2.012   1.356   4.803
  468SOL     OW 2302   3.960   3.987   3.772
  468SOL    HW1 2303   3.915   4.049   3.836
  468SOL    HW2 2304   4.047   4.027   3.743
  469SOL     OW 2305   3.239   6.825   6.619
  469SOL    HW1 2306   3.261   6.742   6.669
  469SOL    HW2 2307   3.150   6.815   6.574
  470SOL     OW 2308   4.751   0.099   3.029
  470SOL    HW1 2309   4.806   0.108   3.112
  470SOL    HW2 2310   4.654   0.089   3.054
  471SOL     OW 2311   1.801   2.164   3.788
  471SOL    HW1 2312   1.824   2.261   3.784
  471SOL    HW2 2313   1.863   2.112   3.729
  472SOL     OW 2314   3.479   4.329   5.215
  472SOL    HW1 2315   3.514   4.422   5.229
  472SOL    HW2 2316   3.526   4.266   5.276
  473SOL     OW 2317   0.918   4.782   4.025
  473SOL    HW1 2318   0.934   4.687   3.999
  473SOL    HW2 2319   0.827   4.789   4.068
  474SOL     OW 2320   5.283   5.258   5.291
  474SOL    HW1 2321   5.288   5.228   5.196
  474SOL    HW2 2322   5.316   5.185   5.350
  475SOL     OW 2323   3.009   0.020   6.974
  475SOL    HW1 2324   2.942   0.074   0.001
  475SOL    HW2 2325   2.963   6.967   6.933
  476SOL     OW 2326   6.827   5.484   2.849
  476SOL    HW1 2327   6.825   5.402   2.906
  476SOL    HW2 2328   6.770   5.470   2.768
  477SOL     OW 2329   1.725   4.967   3.402
  477SOL    HW1 2330   1.771   4.962   3.490
  477SOL    HW2 2331   1.679   5.055   3.393
  478SOL     OW 2332   2.042   4.234   3.951
  478SOL    HW1 2333   2.141   4.236   3.963
  478SOL    HW2 2334   2.006   4.147   3.986
  479SOL     OW 2335   4.421   2.071   2.021
  479SOL    HW1 2336   4.472   2.118   1.949
  479SOL    HW2 2337   4.331   2.114   2.031
  480SOL     OW 2338   2.071   6.592   4.431
  480SOL    HW1 2339   2.155   6.568   4.383
  480SOL    HW2 2340   1.994   6.542   4.392
  481SOL     OW 2341   2.089   0.384   0.525
  481SOL    HW1 2342   2.146   0.307   0.498
  481SOL    HW2 2343   2.067   0.377   0.622
  482SOL     OW 2344   5.469   5.781   1.439
  482SOL    HW1 2345   5.458   5.692   1.396
  482SOL    HW2 2346   5.453   5.854   1.372
  483SOL     OW 2347   4.535   1.575   3.344
  483SOL    HW1 2348   4.510   1.532   3.258
  483SOL    HW2 2349   4.501   1.520   3.420
  484SOL     OW 2350   6.261   2.099   3.273
  484SOL    HW1 2351   6.194   2.052   3.330
  484SOL    HW2 2352   6.341   2.040   3.261
  485SOL     OW 2353   2.389   5.818   0.371
  485SOL    HW1 2354   2.355   5.807   0.277
  485SOL    HW2 2355   2.353   5.903   0.409
  486SOL     OW 2356   6.229   0.416   5.649
  486SOL    HW1 2357   6.311   0.439   5.701
  486SOL    HW2 2358   6.223   0.476   5.569
  487SOL     OW 2359   6.622   2.235   6.559
  487SOL    HW1 2360   6.582   2.309   6.505
  487SOL    HW2 2361   6.677   2.274   6.633
  488SOL     OW 2362   1.215   4.779   3.706
  488SOL    HW1 2363   1.129   4.733   3.682
  488SOL    HW2 2364   1.245   4.750   3.796
  489SOL     OW 2365   3.385   4.827   6.195
  489SOL    HW1 2366   3.467   4.874   6.160
  489SOL    HW2 2367   3.314   4.828   6.125
  490SOL     OW 2368   5.234   1.150   4.186
  490SOL    HW1 2369   5.239   1.067   4.242
  490SOL    HW2 2370   5.276   1.132   4.097
  491SOL     OW 2371   0.245   2.792   3.611
  491SOL    HW1 2372   0.195   2.768   3.694
  491SOL    HW2 2373   0.182   2.796   3.534
  492SOL     OW 2374   1.191   1.758   4.656
  492SOL    HW1 2375   1.204   1.839   4.714
  492SOL    HW2 2376   1.227   1.677   4.703
  493SOL     OW 2377   5.532   3.738   5.338
  493SOL    HW1 2378   5.557   3.758   5.433
  493SOL    HW2 2379   5.550   3.641   5.319
  494SOL     OW 2380   5.916   0.877   6.492
  494SOL    HW1 2381   5.835   0.904   6.544
  494SOL    HW2 2382   5.893   0.801   6.431
  495SOL     OW 2383   5.853   4.626   7.005
  495SOL    HW1 2384   5.902   4.658   6.924
  495SOL    HW2 2385   5.896   4.664   0.062
  496SOL     OW 2386   5.724   3.620   2.942
  496SOL    HW1 2387   5.739   3.668   2.856
  496SOL    HW2 2388   5.754   3.525   2.932
  497SOL     OW 2389   4.466   0.046   3.771
  497SOL    HW1 2390   4.412   0.127   3.793
  497SOL    HW2 2391   4.564   0.068   3.775
  498SOL     OW 2392   1.945   3.679   1.146
  498SOL    HW1 2393   1.998   3.747   1.197
  498SOL    HW2 2394   1.899   3.618   1.210
  499SOL     OW 2395   3.974   1.691   5.860
  499SOL    HW1 2396   3.876   1.672   5.864
  499SOL    HW2 2397   3.989   1.781   5.819
  500SOL     OW 2398   1.552   4.717   3.345
  500SOL    HW1 2399   1.619   4.744   3.277
  500SOL    HW2 2400   1.499   4.639   3.312
  501SOL     OW 2401   1.008   5.438   5.715
  501SOL    HW1 2402   0.960   5.526   5.716
  501SOL    HW2 2403   0.989   5.389   5.799
  502SOL     OW 2404   2.497   4.987   6.087
  502SOL    HW1 2405   2.426   4.978   6.156
  502SOL    HW2 2406   2.455   4.989   5.996
  503SOL     OW 2407   0.012   5.376   4.140
  503SOL    HW1 2408   0.054   5.443   4.201
  503SOL    HW2 2409   6.970   5.422   4.082
  504SOL     OW 2410   1.499   5.188   4.001
  504SOL    HW1 2411   1.551   5.143   3.929
  504SOL    HW2 2412   1.410   5.143   4.011
  505SOL     OW 2413   3.731   6.347   4.849
  505SOL    HW1 2414   3.733   6.250   4.824
  505SOL    HW2 2415   3.647   6.366   4.901
  506SOL     OW 2416   2.130   3.219   0.846
  506SOL    HW1 2417   2.081   3.195   0.930
  506SOL    HW2 2418   2.084   3.175   0.768
  507SOL     OW 2419   3.728   1.751   4.407
  507SOL    HW1 2420   3.777   1.665   4.411
  507SOL    HW2 2421   3.724   1.783   4.312
  508SOL     OW 2422   5.635   5.563   4.478
  508SOL    HW1 2423   5.578   5.551   4.559
  508SOL    HW2 2424   5.704   5.633   4.496
  509SOL     OW 2425   4.294   3.431   1.771
  509SOL    HW1 2426   4.301   3.510   1.709
  509SOL    HW2 2427   4.212   3.440   1.827
  510SOL     OW 2428   1.472   3.707   4.349
  510SOL    HW1 2429   1.398   3.773   4.358
  510SOL    HW2 2430   1.522   3.724   4.264
  511SOL     OW 2431   0.149   6.273   1.608
  511SOL    HW1 2432   0.197   6.285   1.522
  511SOL    HW2 2433   0.215   6.267   1.683
  512SOL     OW 2434   1.997   4.450   5.936
  512SOL    HW1 2435   1.921   4.429   5.998
  512SOL    HW2 2436   1.990   4.392   5.855
  513SOL     OW 2437   0.939   5.458   4.855
  513SOL    HW1 2438   0.891   5.510   4.925
  513SOL    HW2 2439   0.873   5.405   4.802
  514SOL     OW 2440   5.449   2.207   3.503
  514SOL    HW1 2441   5.451   2.108   3.518
  514SOL    HW2 2442   5.538   2.246   3.526
  515SOL     OW 2443   3.127   6.103   0.052
  515SOL    HW1 2444   3.041   6.144   0.081
  515SOL    HW2 2445   3.182   6.080   0.132
  516SOL     OW 2446   1.926   4.703   3.577
  516SOL    HW1 2447   1.872   4.621   3.561
  516SOL    HW2 2448   1.891   4.751   3.658
  517SOL     OW 2449   5.252   0.024   5.811
  517SOL    HW1 2450   5.215   0.000   5.901
  517SOL    HW2 2451   5.334   6.994   5.793
  518SOL     OW 2452   2.355   2.025   6.788
  518SOL    HW1 2453   2.276   2.042   6.729
  518SOL    HW2 2454   2.402   1.942   6.758
  519SOL     OW 2455   0.799   6.551   0.633
  519SOL    HW1 2456   0.771   6.626   0.573
  519SOL    HW2 2457   0.722   6.489   0.647
  520SOL     OW 2458   6.601   4.114   5.498
  520SOL    HW1 2459   6.592   4.056   5.417
  520SOL    HW2 2460   6.677   4.179   5.484
  521SOL     OW 2461   6.387   0.937   0.386
  521SOL    HW1 2462   6.459   0.968   0.324
  521SOL    HW2 2463   6.426   0.870   0.450
  522SOL     OW 2464   3.258   4.299   5.478
  522SOL    HW1 2465   3.207   4.318   5.395
  522SOL    HW2 2466   3.237   4.206   5.510
  523SOL     OW 2467   6.239   6.921   3.056
  523SOL    HW1 2468   6.183   6.887   3.131
  523SOL    HW2 2469   6.196   6.899   2.969
  524SOL     OW 2470   4.442   0.896   3.919
  524SOL    HW1 2471   4.519   0.832   3.925
  524SOL    HW2 2472   4.463   0.978   3.973
  525SOL     OW 2473   3.230   3.076   6.732
  525SOL    HW1 2474   3.255   3.144   6.663
  525SOL    HW2 2475   3.136   3.044   6.715
  526SOL     OW 2476   4.888   0.581   4.297
  526SOL    HW1 2477   4.953   0.566   4.222
  526SOL    HW2 2478   4.892   0.504   4.360
  527SOL     OW 2479   0.980   1.131   6.953
  527SOL    HW1 2480   1.074   1.122   6.987
  527SOL    HW2 2481   0.938   1.040   6.947
  528SOL     OW 2482   1.229   2.317   6.075
  528SOL    HW1 2483   1.249   2.220   6.083
  528SOL    HW2 2484   1.313   2.368   6.059
  529SOL     OW 2485   0.365   4.661   4.729
  529SOL    HW1 2486   0.369   4.594   4.803
  529SOL    HW2 2487   0.415   4.625   4.650
  530SOL     OW 2488   6.772   3.362   5.281
  530SOL    HW1 2489   6.831   3.325   5.209
  530SOL    HW2 2490   6.829   3.401   5.353
  531SOL     OW 2491   6.923   6.891   0.437
  531SOL    HW1 2492   7.003   6.946   0.416
  531SOL    HW2 2493   6.937   6.798   0.403
  532SOL     OW 2494   1.616   1.439   5.782
  532SOL    HW1 2495   1.574   1.375   5.847
  532SOL    HW2 2496   1.621   1.530   5.823
  533SOL     OW 2497   4.982   0.360   5.569
  533SOL    HW1 2498   4.908   0.334   5.506
  533SOL    HW2 2499   4.987   0.292   5.643
  534SOL     OW 2500   2.288   5.116   4.040
  534SOL    HW1 2501   2.260   5.022   4.060
  534SOL    HW2 2502   2.207   5.173   4.030
  535SOL     OW 2503   6.953   3.850   2.538
  535SOL    HW1 2504   0.022   3.825   2.558
  535SOL    HW2 2505   6.918   3.794   2.463
  536SOL     OW 2506   2.100   5.692   1.701
  536SOL    HW1 2507   2.051   5.777   1.718
  536SOL    HW2 2508   2.048   5.615   1.738
  537SOL     OW 2509   2.309   0.054   3.360
  537SOL    HW1 2510   2.349   0.104   3.437
  537SOL    HW2 2511   2.371   0.059   3.282
  538SOL     OW 2512   1.935   5.482   3.910
  538SOL    HW1 2513   1.837   5.502   3.907
  538SOL    HW2 2514   1.985   5.553   3.860
  539SOL     OW 2515   1.771   5.445   0.778
  539SOL    HW1 2516   1.729   5.453   0.688
  539SOL    HW2 2517   1.756   5.528   0.830
  540SOL     OW 2518   2.192   2.465   0.688
  540SOL    HW1 2519   2.244   2.541   0.648
  540SOL    HW2 2520   2.152   2.409   0.615
  541SOL     OW 2521   5.474   6.054   5.093
  541SOL    HW1 2522   5.426   5.996   5.028
  541SOL    HW2 2523   5.571   6.032   5.093
  542SOL     OW 2524   6.081   6.883   5.751
  542SOL    HW1 2525   6.053   6.929   5.835
  542SOL    HW2 2526   6.089   6.785   5.768
  543SOL     OW 2527   6.266   0.718   2.382
  543SOL    HW1 2528   6.188   0.697   2.441
  543SOL    HW2 2529   6.329   0.640   2.380
  544SOL     OW 2530   0.702   5.080   0.582
  544SOL    HW1 2531   0.689   4.987   0.547
  544SOL    HW2 2532   0.747   5.075   0.672
  545SOL     OW 2533   2.880   1.990   3.928
  545SOL    HW1 2534   2.879   1.958   4.023
  545SOL    HW2 2535   2.858   1.914   3.868
  546SOL     OW 2536   1.093   2.261   0.037
  546SOL    HW1 2537   1.183   2.306   0.042
  546SOL    HW2 2538   1.063   2.236   0.129
  547SOL     OW 2539   3.271   1.809   0.318
  547SOL    HW1 2540   3.257   1.897   0.273
  547SOL    HW2 2541   3.271   1.822   0.417
  548SOL     OW 2542   3.232   3.671   5.913
  548SOL    HW1 2543   3.258   3.644   6.005
  548SOL    HW2 2544   3.312   3.704   5.863
  549SOL     OW 2545   6.541   4.272   1.399
  549SOL    HW1 2546   6.632   4.312   1.397
  549SOL    HW2 2547   6.476   4.335   1.355
  550SOL     OW 2548   6.760   4.127   1.196
  550SOL    HW1 2549   6.750   4.027   1.193
  550SOL    HW2 2550   6.710   4.167   1.119
  551SOL     OW 2551   0.374   0.329   0.159
  551SOL    HW1 2552   0.302   0.316   0.228
  551SOL    HW2 2553   0.380   0.247   0.102
  552SOL     OW 2554   4.411   5.262   0.026
  552SOL    HW1 2555   4.380   5.311   0.108
  552SOL    HW2 2556   4.499   5.219   0.043
  553SOL     OW 2557   0.877   2.698   1.382
  553SOL    HW1 2558   0.960   2.700   1.326
  553SOL    HW2 2559   0.903   2.696   1.479
  554SOL     OW 2560   5.035   4.882   5.426
  554SOL    HW1 2561   4.961   4.823   5.462
  554SOL    HW2 2562   5.089   4.830   5.359
  555SOL     OW 2563   1.675   4.355   5.675
  555SOL    HW1 2564   1.770   4.324   5.675
  555SOL    HW2 2565   1.615   4.278   5.697
  556SOL     OW 2566   6.529   4.147   3.227
  556SOL    HW1 2567   6.614   4.158   3.174
  556SOL    HW2 2568   6.530   4.058   3.274
  557SOL     OW 2569   6.348   5.409   5.196
  557SOL    HW1 2570   6.271   5.472   5.184
  557SOL    HW2 2571   6.425   5.458   5.236
  558SOL     OW 2572   3.619   3.746   5.938
  558SOL    HW1 2573   3.630   3.657   5.894
  558SOL    HW2 2574   3.616   3.734   6.037
  559SOL     OW 2575   5.068   4.595   6.054
  559SOL    HW1 2576   5.112   4.529   5.993
  559SOL    HW2 2577   4.974   4.565   6.074
  560SOL     OW 2578   4.768   6.524   0.448
  560SOL    HW1 2579   4.689   6.468   0.424
  560SOL    HW2 2580   4.800   6.498   0.539
  561SOL     OW 2581   4.329   6.659   2.495
  561SOL    HW1 2582   4.281   6.658   2.583
  561SOL    HW2 2583   4.343   6.753   2.466
  562SOL     OW 2584   5.380   0.126   1.312
  562SOL    HW1 2585   5.318   0.184   1.365
  562SOL    HW2 2586   5.337   0.038   1.296
  563SOL     OW 2587   2.933   0.754   5.107
  563SOL    HW1 2588   2.935   0.822   5.180
  563SOL    HW2 2589   2.999   0.780   5.036
  564SOL     OW 2590   0.590   1.505   5.355
  564SOL    HW1 2591   0.532   1.557   5.292
  564SOL    HW2 2592   0.562   1.524   5.449
  565SOL     OW 2593   4.637   3.658   5.669
  565SOL    HW1 2594   4.724   3.695   5.636
  565SOL    HW2 2595   4.646   3.559   5.683
  566SOL     OW 2596   6.848   4.205   2.093
  566SOL    HW1 2597   6.792   4.235   2.170
  566SOL    HW2 2598   6.800   4.224   2.007
  567SOL     OW 2599   3.932   3.467   6.195
  567SOL    HW1 2600   3.915   3.441   6.100
  567SOL    HW2 2601   3.845   3.477   6.243
  568SOL     OW 2602   2.783   1.413   6.353
  568SOL    HW1 2603   2.843   1.400   6.274
  568SOL    HW2 2604   2.752   1.508   6.355
  569SOL     OW 2605   2.094   4.667   6.726
  569SOL    HW1 2606   2.049   4.674   6.816
  569SOL    HW2 2607   2.193   4.669   6.738
  570SOL     OW 2608   0.678   5.369   6.431
  570SOL    HW1 2609   0.585   5.334   6.434
  570SOL    HW2 2610   0.688   5.445   6.496
  571SOL     OW 2611   4.949   5.848   2.171
  571SOL    HW1 2612   4.897   5.931   2.150
  571SOL    HW2 2613   4.908   5.802   2.250
  572SOL     OW 2614   1.850   4.422   4.038
  572SOL    HW1 2615   1.901   4.336   4.033
  572SOL    HW2 2616   1.765   4.413   3.986
  573SOL     OW 2617   4.169   2.060   6.943
  573SOL    HW1 2618   4.209   2.119   6.872
  573SOL    HW2 2619   4.218   1.973   6.945
  574SOL     OW 2620   2.585   2.033   3.219
  574SOL    HW1 2621   2.663   1.991   3.173
  574SOL    HW2 2622   2.594   2.019   3.318
  575SOL     OW 2623   4.095   2.109   5.997
  575SOL    HW1 2624   4.049   2.147   6.078
  575SOL    HW2 2625   4.148   2.029   6.024
  576SOL     OW 2626   0.396   3.409   3.501
  576SOL    HW1 2627   0.317   3.470   3.510
  576SOL    HW2 2628   0.453   3.417   3.583
  577SOL     OW 2629   3.551   1.350   3.627
  577SOL    HW1 2630   3.582   1.330   3.719
  577SOL    HW2 2631   3.570   1.273   3.567
  578SOL     OW 2632   0.330   3.936   4.501
  578SOL    HW1 2633   0.379   3.925   4.415
  578SOL    HW2 2634   0.360   3.865   4.565
  579SOL     OW 2635   4.032   3.722   1.528
  579SOL    HW1 2636   3.945   3.736   1.575
  579SOL    HW2 2637   4.062   3.627   1.541
  580SOL     OW 2638   0.029   0.104   6.716
  580SOL    HW1 2639   0.082   0.023   6.744
  580SOL    HW2 2640   6.958   0.080   6.710
  581SOL     OW 2641   3.824   3.536   4.179
  581SOL    HW1 2642   3.887   3.463   4.151
  581SOL    HW2 2643   3.737   3.496   4.208
  582SOL     OW 2644   6.728   3.263   0.532
  582SOL    HW1 2645   6.728   3.348   0.584
  582SOL    HW2 2646   6.646   3.210   0.555
  583SOL     OW 2647   2.680   6.994   6.914
  583SOL    HW1 2648   2.681   7.020   6.817
  583SOL    HW2 2649   2.717   0.044   6.969
  584SOL     OW 2650   2.650   5.238   4.597
  584SOL    HW1 2651   2.651   5.251   4.696
  584SOL    HW2 2652   2.589   5.305   4.555
  585SOL     OW 2653   5.439   2.047   5.422
  585SOL    HW1 2654   5.426   1.975   5.490
  585SOL    HW2 2655   5.525   2.095   5.442
  586SOL     OW 2656   3.412   4.542   0.924
  586SOL    HW1 2657   3.418   4.451   0.965
  586SOL    HW2 2658   3.331   4.590   0.959
  587SOL     OW 2659   2.419   3.118   6.344
  587SOL    HW1 2660   2.401   3.024   6.374
  587SOL    HW2 2661   2.454   3.171   6.420
  588SOL     OW 2662   2.128   0.308   2.007
  588SOL    HW1 2663   2.144   0.301   1.908
  588SOL    HW2 2664   2.073   0.230   2.037
  589SOL     OW 2665   4.807   4.952   1.790
  589SOL    HW1 2666   4.869   4.997   1.854
  589SOL    HW2 2667   4.743   5.020   1.753
  590SOL     OW 2668   0.531   4.807   1.785
  590SOL    HW1 2669   0.624   4.772   1.798
  590SOL    HW2 2670   0.523   4.896   1.831
  591SOL     OW 2671   2.586   0.174   3.183
  591SOL    HW1 2672   2.587   0.075   3.192
  591SOL    HW2 2673   2.679   0.208   3.167
  592SOL     OW 2674   5.943   0.189   6.360
  592SOL    HW1 2675   5.872   0.154   6.421
  592SOL    HW2 2676   6.033   0.157   6.392
  593SOL     OW 2677   0.115   0.827   4.621
  593SOL    HW1 2678   0.204   0.817   4.577
  593SOL    HW2 2679   0.113   0.774   4.706
  594SOL     OW 2680   4.788   2.678   1.361
  594SOL    HW1 2681   4.838   2.594   1.383
  594SOL    HW2 2682   4.760   2.723   1.446
  595SOL     OW 2683   2.781   6.958   4.231
  595SOL    HW1 2684   2.821   6.882   4.179
  595SOL    HW2 2685   2.742   7.024   4.167
  596SOL     OW 2686   0.627   4.765   2.550
  596SOL    HW1 2687   0.616   4.863   2.539
  596SOL    HW2 2688   0.715   4.745   2.593
  597SOL     OW 2689   4.595   2.194   5.161
  597SOL    HW1 2690   4.654   2.116   5.141
  597SOL    HW2 2691   4.524   2.166   5.226
  598SOL     OW 2692   3.213   3.613   1.833
  598SOL    HW1 2693   3.235   3.688   1.894
  598SOL    HW2 2694   3.174   3.537   1.886
  599SOL     OW 2695   5.837   5.781   3.538
  599SOL    HW1 2696   5.795   5.851   3.596
  599SOL    HW2 2697   5.810   5.691   3.571
  600SOL     OW 2698   2.879   1.656   0.364
  600SOL    HW1 2699   2.841   1.609   0.444
  600SOL    HW2 2700   2.831   1.743   0.351
  601SOL     OW 2701   1.249   5.401   1.018
  601SOL    HW1 2702   1.260   5.469   1.091
  601SOL    HW2 2703   1.302   5.430   0.938
  602SOL     OW 2704   6.649   1.029   3.489
  602SOL    HW1 2705   6.610   1.060   3.576
  602SOL    HW2 2706   6.641   1.102   3.421
  603SOL     OW 2707   4.518   1.837   3.006
  603SOL    HW1 2708   4.452   1.765   2.982
  603SOL    HW2 2709   4.600   1.795   3.045
  604SOL     OW 2710   2.277   3.147   5.979
  604SOL    HW1 2711   2.358   3.094   6.006
  604SOL    HW2 2712   2.258   3.130   5.882
  605SOL     OW 2713   5.284   6.676   4.429
  605SOL    HW1 2714   5.349   6.689   4.503
  605SOL    HW2 2715   5.247   6.584   4.433
  606SOL     OW 2716   2.301   6.976   2.563
  606SOL    HW1 2717   2.237   6.930   2.624
  606SOL    HW2 2718   2.254   0.026   2.515
  607SOL     OW 2719   3.785   0.083   4.130
  607SOL    HW1 2720   3.694   0.104   4.093
  607SOL    HW2 2721   3.801   0.138   4.212
  608SOL     OW 2722   6.265   2.620   1.027
  608SOL    HW1 2723   6.171   2.652   1.018
  608SOL    HW2 2724   6.267   2.520   1.017
  609SOL     OW 2725   3.427   3.970   5.297
  609SOL    HW1 2726   3.482   3.992   5.217
  609SOL    HW2 2727   3.354   3.907   5.271
  610SOL     OW 2728   6.531   2.193   5.144
  610SOL    HW1 2729   6.509   2.109   5.095
  610SOL    HW2 2730   6.609   2.177   5.205
  611SOL     OW 2731   6.661   0.214   0.354
  611SOL    HW1 2732   6.757   0.237   0.369
  611SOL    HW2 2733   6.655   0.125   0.308
  612SOL     OW 2734   1.592   4.307   6.454
  612SOL    HW1 2735   1.650   4.350   6.385
  612SOL    HW2 2736   1.521   4.371   6.482
  613SOL     OW 2737   3.740   1.485   6.507
  613SOL    HW1 2738   3.746   1.413   6.576
  613SOL    HW2 2739   3.779   1.570   6.544
  614SOL     OW 2740   5.104   3.066   0.427
  614SOL    HW1 2741   5.115   3.067   0.328
  614SOL    HW2 2742   5.190   3.095   0.470
  615SOL     OW 2743   6.235   5.243   1.231
  615SOL    HW1 2744   6.155   5.188   1.256
  615SOL    HW2 2745   6.318   5.189   1.246
  616SOL     OW 2746   5.448   1.473   4.721
  616SOL    HW1 2747   5.498   1.547   4.678
  616SOL    HW2 2748   5.495   1.386   4.705
  617SOL     OW 2749   6.420   0.385   5.062
  617SOL    HW1 2750   6.340   0.336   5.027
  617SOL    HW2 2751   6.503   0.349   5.019
  618SOL     OW 2752   5.379   4.702   0.850
  618SOL    HW1 2753   5.415   4.770   0.786
  618SOL    HW2 2754   5.445   4.627   0.858
  619SOL     OW 2755   1.103   0.024   0.215
  619SOL    HW1 2756   1.178   6.988   0.192
  619SOL    HW2 2757   1.082   0.083   0.137
  620SOL     OW 2758   4.053   2.123   1.168
  620SOL    HW1 2759   4.033   2.211   1.210
  620SOL    HW2 2760   4.040   2.050   1.235
  621SOL     OW 2761   2.016   6.779   6.292
  621SOL    HW1 2762   1.972   6.853   6.343
  621SOL    HW2 2763   2.100   6.814   6.249
  622SOL     OW 2764   0.484   2.672   5.986
  622SOL    HW1 2765   0.442   2.603   6.045
  622SOL    HW2 2766   0.582   2.675   6.003
  623SOL     OW 2767   5.953   1.390   2.640
  623SOL    HW1 2768   5.993   1.431   2.558
  623SOL    HW2 2769   6.013   1.317   2.673
  624SOL     OW 2770   6.358   0.710   5.893
  624SOL    HW1 2771   6.334   0.671   5.983
  624SOL    HW2 2772   6.285   0.691   5.828
  625SOL     OW 2773   3.534   0.814   1.404
  625SOL    HW1 2774   3.525   0.911   1.380
  625SOL    HW2 2775   3.445   0.779   1.432
  626SOL     OW 2776   0.154   6.775   3.605
  626SOL    HW1 2777   0.066   6.806   3.641
  626SOL    HW2 2778   0.189   6.843   3.541
  627SOL     OW 2779   6.560   4.178   5.748
  627SOL    HW1 2780   6.578   4.144   5.656
  627SOL    HW2 2781   6.565   4.278   5.748
  628SOL     OW 2782   3.708   4.480   7.010
  628SOL    HW1 2783   3.614   4.453   6.987
  628SOL    HW2 2784   3.747   4.533   6.935
  629SOL     OW 2785   2.225   6.995   0.641
  629SOL    HW1 2786   2.244   6.982   0.739
  629SOL    HW2 2787   2.247   6.911   0.592
  630SOL     OW 2788   6.535   2.148   0.148
  630SOL    HW1 2789   6.467   2.136   0.075
  630SOL    HW2 2790   6.593   2.068   0.153
  631SOL     OW 2791   2.006   4.224   1.885
  631SOL    HW1 2792   2.106   4.218   1.879
  631SOL    HW2 2793   1.980   4.320   1.895
  632SOL     OW 2794   4.097   5.120   0.977
  632SOL    HW1 2795   4.191   5.142   1.006
  632SOL    HW2 2796   4.086   5.141   0.880
  633SOL     OW 2797   1.317   5.790   7.008
  633SOL    HW1 2798   1.260   5.867   0.010
  633SOL    HW2 2799   1.387   5.822   6.944
  634SOL     OW 2800   2.077   3.527   5.559
  634SOL    HW1 2801   2.095   3.612   5.609
  634SOL    HW2 2802   2.134   3.454   5.595
  635SOL     OW 2803   0.379   5.846   6.424
  635SOL    HW1 2804   0.331   5.869   6.509
  635SOL    HW2 2805   0.476   5.835   6.443
  636SOL     OW 2806   1.225   1.998   4.815
  636SOL    HW1 2807   1.170   2.031   4.892
  636SOL    HW2 2808   1.280   2.074   4.780
  637SOL     OW 2809   5.653   1.363   0.916
  637SOL    HW1 2810   5.618   1.322   0.832
  637SOL    HW2 2811   5.582   1.361   0.986
  638SOL     OW 2812   6.664   3.785   5.230
  638SOL    HW1 2813   6.630   3.723   5.161
  638SOL    HW2 2814   6.654   3.880   5.199
  639SOL     OW 2815   6.212   2.920   1.345
  639SOL    HW1 2816   6.296   2.948   1.392
  639SOL    HW2 2817   6.186   2.828   1.375
  640SOL     OW 2818   5.900   4.431   2.575
  640SOL    HW1 2819   5.802   4.448   2.564
  640SOL    HW2 2820   5.929   4.464   2.665
  641SOL     OW 2821   2.847   5.910   4.329
  641SOL    HW1 2822   2.782   5.985   4.337
  641SOL    HW2 2823   2.888   5.910   4.238
  642SOL     OW 2824   0.726   5.139   4.146
  642SOL    HW1 2825   0.720   5.131   4.245
  642SOL    HW2 2826   0.638   5.114   4.105
  643SOL     OW 2827   3.831   4.573   0.345
  643SOL    HW1 2828   3.836   4.545   0.250
  643SOL    HW2 2829   3.808   4.494   0.402
  644SOL     OW 2830   5.827   1.135   4.197
  644SOL    HW1 2831   5.924   1.112   4.188
  644SOL    HW2 2832   5.816   1.233   4.210
  645SOL     OW 2833   4.215   6.066   2.668
  645SOL    HW1 2834   4.178   5.980   2.704
  645SOL    HW2 2835   4.246   6.052   2.574
  646SOL     OW 2836   3.401   0.954   5.536
  646SOL    HW1 2837   3.474   0.920   5.595
  646SOL    HW2 2838   3.405   1.054   5.531
  647SOL     OW 2839   1.422   2.252   6.739
  647SOL    HW1 2840   1.430   2.350   6.721
  647SOL    HW2 2841   1.330   2.232   6.774
  648SOL     OW 2842   4.790   2.401   3.595
  648SOL    HW1 2843   4.796   2.302   3.604
  648SOL    HW2 2844   4.750   2.424   3.506
  649SOL     OW 2845   4.115   6.351   1.275
  649SOL    HW1 2846   4.114   6.332   1.373
  649SOL    HW2 2847   4.023   6.340   1.238
  650SOL     OW 2848   2.383   4.019   1.493
  650SOL    HW1 2849   2.482   4.034   1.485
  650SOL    HW2 2850   2.365   3.956   1.568
  651SOL     OW 2851   6.922   1.494   3.277
  651SOL    HW1 2852   6.988   1.550   3.325
  651SOL    HW2 2853   6.969   1.419   3.229
  652SOL     OW 2854   3.833   6.268   0.545
  652SOL    HW1 2855   3.875   6.356   0.568
  652SOL    HW2 2856   3.897   6.194   0.565
  653SOL     OW 2857   1.424   0.206   3.186
  653SOL    HW1 2858   1.392   0.251   3.103
  653SOL    HW2 2859   1.428   0.107   3.171
  654SOL     OW 2860   1.446   0.379   6.725
  654SOL    HW1 2861   1.491   0.435   6.656
  654SOL    HW2 2862   1.396   0.305   6.681
  655SOL     OW 2863   1.293   4.209   1.673
  655SOL    HW1 2864   1.335   4.119   1.663
  655SOL    HW2 2865   1.360   4.280   1.654
  656SOL     OW 2866   1.980   0.043   6.857
  656SOL    HW1 2867   1.971   0.046   6.956
  656SOL    HW2 2868   1.896   0.079   6.815
  657SOL     OW 2869   3.596   3.446   4.340
  657SOL    HW1 2870   3.640   3.362   4.374
  657SOL    HW2 2871   3.606   3.518   4.409
  658SOL     OW 2872   2.720   0.157   5.111
  658SOL    HW1 2873   2.737   0.157   5.210
  658SOL    HW2 2874   2.752   0.072   5.071
  659SOL     OW 2875   1.610   4.593   0.180
  659SOL    HW1 2876   1.675   4.534   0.132
  659SOL    HW2 2877   1.532   4.611   0.121
  660SOL     OW 2878   5.779   3.366   2.151
  660SOL    HW1 2879   5.760   3.387   2.247
  660SOL    HW2 2880   5.757   3.446   2.095
  661SOL     OW 2881   5.265   5.603   4.008
  661SOL    HW1 2882   5.266   5.503   4.013
  661SOL    HW2 2883   5.321   5.640   4.082
  662SOL     OW 2884   6.457   3.319   0.418
  662SOL    HW1 2885   6.512   3.351   0.495
  662SOL    HW2 2886   6.515   3.312   0.336
  663SOL     OW 2887   1.447   4.814   6.030
  663SOL    HW1 2888   1.349   4.818   6.046
  663SOL    HW2 2889   1.468   4.860   5.943
  664SOL     OW 2890   2.071   0.395   5.938
  664SOL    HW1 2891   2.018   0.475   5.966
  664SOL    HW2 2892   2.127   0.418   5.859
  665SOL     OW 2893   2.377   4.817   3.389
  665SOL    HW1 2894   2.298   4.761   3.367
  665SOL    HW2 2895   2.460   4.761   3.380
  666SOL     OW 2896   2.948   0.297   0.385
  666SOL    HW1 2897   2.949   0.210   0.334
  666SOL    HW2 2898   2.948   0.373   0.320
  667SOL     OW 2899   1.998   2.418   3.008
  667SOL    HW1 2900   1.956   2.328   2.992
  667SOL    HW2 2901   1.927   2.484   3.034
  668SOL     OW 2902   5.356   6.923   0.873
  668SOL    HW1 2903   5.405   6.965   0.950
  668SOL    HW2 2904   5.391   6.962   0.787
  669SOL     OW 2905   6.353   5.978   1.940
  669SOL    HW1 2906   6.283   5.933   1.885
  669SOL    HW2 2907   6.368   5.925   2.024
  670SOL     OW 2908   3.977   3.773   3.377
  670SOL    HW1 2909   3.938   3.837   3.443
  670SOL    HW2 2910   3.967   3.811   3.285
  671SOL     OW 2911   0.845   0.243   6.921
  671SOL    HW1 2912   0.758   0.287   6.900
  671SOL    HW2 2913   0.893   0.295   6.992
  672SOL     OW 2914   0.123   2.674   2.717
  672SOL    HW1 2915   0.064   2.651   2.639
  672SOL    HW2 2916   0.068   2.679   2.800
  673SOL     OW 2917   5.043   0.131   6.309
  673SOL    HW1 2918   5.038   0.231   6.313
  673SOL    HW2 2919   5.137   0.103   6.290
  674SOL     OW 2920   6.772   3.498   3.957
  674SOL    HW1 2921   6.792   3.468   4.050
  674SOL    HW2 2922   6.674   3.485   3.938
  675SOL     OW 2923   5.940   0.020   3.473
  675SOL    HW1 2924   6.026   0.059   3.506
  675SOL    HW2 2925   5.865   0.050   3.532
  676SOL     OW 2926   3.320   4.510   6.075
  676SOL    HW1 2927   3.308   4.495   5.977
  676SOL    HW2 2928   3.231   4.516   6.120
  677SOL     OW 2929   4.907   6.239   0.548
  677SOL    HW1 2930   4.935   6.147   0.520
  677SOL    HW2 2931   4.984   6.302   0.536
  678SOL     OW 2932   2.225   0.176   6.817
  678SOL    HW1 2933   2.278   0.164   6.901
  678SOL    HW2 2934   2.138   0.127   6.825
  679SOL     OW 2935   7.022   0.216   2.660
  679SOL    HW1 2936   6.987   0.165   2.581
  679SOL    HW2 2937   6.966   0.196   2.740
  680SOL     OW 2938   5.872   3.237   3.823
  680SOL    HW1 2939   5.830   3.218   3.912
  680SOL    HW2 2940   5.961   3.280   3.837
  681SOL     OW 2941   0.885   5.270   3.225
  681SOL    HW1 2942   0.903   5.182   3.269
  681SOL    HW2 2943   0.969   5.325   3.223
  682SOL     OW 2944   0.863   6.670   5.298
  682SOL    HW1 2945   0.877   6.739   5.368
  682SOL    HW2 2946   0.940   6.669   5.235
  683SOL     OW 2947   4.723   1.797   1.765
  683SOL    HW1 2948   4.764   1.884   1.737
  683SOL    HW2 2949   4.623   1.802   1.753
  684SOL     OW 2950   7.020   5.566   6.951
  684SOL    HW1 2951   0.079   5.587   7.001
  684SOL    HW2 2952   6.952   5.637   6.970
  685SOL     OW 2953   6.731   1.239   5.320
  685SOL    HW1 2954   6.827   1.249   5.293
  685SOL    HW2 2955   6.699   1.148   5.294
  686SOL     OW 2956   5.065   4.548   0.405
  686SOL    HW1 2957   5.098   4.593   0.488
  686SOL    HW2 2958   4.966   4.562   0.397
  687SOL     OW 2959   5.191   3.551   0.042
  687SOL    HW1 2960   5.186   3.622   0.113
  687SOL    HW2 2961   5.180   3.594   6.978
  688SOL     OW 2962   0.606   3.071   5.214
  688SOL    HW1 2963   0.623   3.030   5.303
  688SOL    HW2 2964   0.646   3.014   5.142
  689SOL     OW 2965   5.466   4.651   4.163
  689SOL    HW1 2966   5.471   4.726   4.230
  689SOL    HW2 2967   5.533   4.667   4.091
  690SOL     OW 2968   6.922   2.667   4.672
  690SOL    HW1 2969   6.866   2.590   4.642
  690SOL    HW2 2970   6.934   2.663   4.771
  691SOL     OW 2971   1.038   2.647   6.740
  691SOL    HW1 2972   1.076   2.691   6.821
  691SOL    HW2 2973   1.007   2.555   6.762
  692SOL     OW 2974   2.542   0.555   3.950
  692SOL    HW1 2975   2.633   0.578   3.916
  692SOL    HW2 2976   2.542   0.555   4.050
  693SOL     OW 2977   5.793   1.890   2.886
  693SOL    HW1 2978   5.842   1.922   2.967
  693SOL    HW2 2979   5.830   1.802   2.857
  694SOL     OW 2980   0.847   0.802   2.909
  694SOL    HW1 2981   0.907   0.722   2.916
  694SOL    HW2 2982   0.753   0.772   2.894
  695SOL     OW 2983   4.105   6.424   6.668
  695SOL    HW1 2984   4.152   6.480   6.600
  695SOL    HW2 2985   4.136   6.330   6.662
  696SOL     OW 2986   5.267   6.037   2.420
  696SOL    HW1 2987   5.362   6.068   2.418
  696SOL    HW2 2988   5.214   6.087   2.352
  697SOL     OW 2989   1.293   4.268   2.594
  697SOL    HW1 2990   1.377   4.275   2.647
  697SOL    HW2 2991   1.219   4.235   2.653
  698SOL     OW 2992   4.905   0.115   3.717
  698SOL    HW1 2993   4.956   0.028   3.721
  698SOL    HW2 2994   4.970   0.191   3.715
  699SOL     OW 2995   2.359   5.890   6.147
  699SOL    HW1 2996   2.324   5.984   6.147
  699SOL    HW2 2997   2.298   5.832   6.094
  700SOL     OW 2998   1.524   2.389   4.586
  700SOL    HW1 2999   1.570   2.399   4.674
  700SOL    HW2 3000   1.593   2.378   4.514
  701SOL     OW 3001   1.145   5.185   6.854
  701SOL    HW1 3002   1.126   5.124   6.777
  701SOL    HW2 3003   1.109   5.276   6.835
  702SOL     OW 3004   5.857   5.892   5.645
  702SOL    HW1 3005   5.761   5.864   5.657
  702SOL    HW2 3006   5.915   5.833   5.701
  703SOL     OW 3007   5.947   4.512   5.889
  703SOL    HW1 3008   5.865   4.472   5.849
  703SOL    HW2 3009   5.962   4.603   5.851
  704SOL     OW 3010   2.416   0.348   2.068
  704SOL    HW1 3011   2.481   0.285   2.026
  704SOL    HW2 3012   2.325   0.335   2.029
  705SOL     OW 3013   1.356   2.162   4.664
  705SOL    HW1 3014   1.356   2.180   4.565
  705SOL    HW2 3015   1.410   2.232   4.711
  706SOL     OW 3016   6.055   3.595   2.973
  706SOL    HW1 3017   6.032   3.568   2.880
  706SOL    HW2 3018   6.100   3.685   2.972
  707SOL     OW 3019   5.164   3.002   2.956
  707SOL    HW1 3020   5.118   2.915   2.970
  707SOL    HW2 3021   5.262   2.991   2.975
  708SOL     OW 3022   5.216   1.018   1.629
  708SOL    HW1 3023   5.283   1.033   1.702
  708SOL    HW2 3024   5.204   1.102   1.577
  709SOL     OW 3025   1.686   3.648   6.536
  709SOL    HW1 3026   1.728   3.727   6.491
  709SOL    HW2 3027   1.751   3.573   6.540
  710SOL     OW 3028   2.976   3.280   3.714
  710SOL    HW1 3029   2.897   3.277   3.653
  710SOL    HW2 3030   2.952   3.331   3.797
  711SOL     OW 3031   1.975   1.249   3.804
  711SOL    HW1 3032   1.906   1.234   3.733
  711SOL    HW2 3033   2.052   1.301   3.767
  712SOL     OW 3034   0.637   4.619   3.982
  712SOL    HW1 3035   0.723   4.572   3.961
  712SOL    HW2 3036   0.649   4.676   4.063
  713SOL     OW 3037   2.385   3.925   5.844
  713SOL    HW1 3038   2.421   4.018   5.855
  713SOL    HW2 3039   2.387   3.900   5.747
  714SOL     OW 3040   5.061   4.591   4.576
  714SOL    HW1 3041   5.157   4.611   4.597
  714SOL    HW2 3042   5.006   4.672   4.594
  715SOL     OW 3043   6.812   0.260   5.453
  715SOL    HW1 3044   6.810   0.360   5.458
  715SOL    HW2 3045   6.745   0.223   5.517
  716SOL     OW 3046   6.006   5.548   0.403
  716SOL    HW1 3047   5.918   5.503   0.416
  716SOL    HW2 3048   6.034   5.540   0.307
  717SOL     OW 3049   5.798   2.830   5.628
  717SOL    HW1 3050   5.761   2.743   5.661
  717SOL    HW2 3051   5.896   2.834   5.649
  718SOL     OW 3052   3.528   3.461   1.280
  718SOL    HW1 3053   3.568   3.503   1.198
  718SOL    HW2 3054   3.449   3.405   1.253
  719SOL     OW 3055   0.074   3.889   0.575
  719SOL    HW1 3056   0.002   3.954   0.548
  719SOL    HW2 3057   0.159   3.939   0.593
  720SOL     OW 3058   4.397   0.783   6.001
  720SOL    HW1 3059   4.346   0.865   6.026
  720SOL    HW2 3060   4.346   0.702   6.032
  721SOL     OW 3061   2.356   0.582   4.788
  721SOL    HW1 3062   2.292   0.506   4.801
  721SOL    HW2 3063   2.398   0.574   4.697
  722SOL     OW 3064   4.658   1.622   5.457
  722SOL    HW1 3065   4.708   1.543   5.423
  722SOL    HW2 3066   4.637   1.610   5.554
  723SOL     OW 3067   0.036   3.818   1.686
  723SOL    HW1 3068   0.066   3.722   1.695
  723SOL    HW2 3069   0.038   3.862   1.775
  724SOL     OW 3070   0.325   2.755   4.649
  724SOL    HW1 3071   0.288   2.764   4.742
  724SOL    HW2 3072   0.267   2.694   4.596
  725SOL     OW 3073   2.599   5.526   2.165
  725SOL    HW1 3074   2.623   5.519   2.068
  725SOL    HW2 3075   2.669   5.480   2.220
  726SOL     OW 3076   5.489   5.510   0.443
  726SOL    HW1 3077   5.453   5.599   0.416
  726SOL    HW2 3078   5.477   5.445   0.368
  727SOL     OW 3079   1.377   5.070   4.444
  727SOL    HW1 3080   1.392   4.980   4.404
  727SOL    HW2 3081   1.462   5.123   4.439
  728SOL     OW 3082   5.981   2.457   6.583
  728SOL    HW1 3083   6.005   2.492   6.674
  728SOL    HW2 3084   6.016   2.364   6.572
  729SOL     OW 3085   4.498   1.041   0.686
  729SOL    HW1 3086   4.570   1.018   0.621
  729SOL    HW2 3087   4.421   0.977   0.674
  730SOL     OW 3088   5.974   1.089   3.486
  730SOL    HW1 3089   5.924   1.126   3.408
  730SOL    HW2 3090   5.949   1.138   3.569
  731SOL     OW 3091   7.006   1.929   3.517
  731SOL    HW1 3092   6.991   1.993   3.592
  731SOL    HW2 3093   7.014   1.979   3.431
  732SOL     OW 3094   0.275   4.000   4.043
  732SOL    HW1 3095   0.205   4.069   4.028
  732SOL    HW2 3096   0.330   3.989   3.961
  733SOL     OW 3097   5.628   4.453   4.771
  733SOL    HW1 3098   5.684   4.389   4.824
  733SOL    HW2 3099   5.605   4.532   4.828
  734SOL     OW 3100   0.678   0.357   0.206
  734SOL    HW1 3101   0.712   0.419   0.135
  734SOL    HW2 3102   0.578   0.349   0.197
  735SOL     OW 3103   3.356   4.752   6.971
  735SOL    HW1 3104   3.451   4.724   6.985
  735SOL    HW2 3105   3.335   4.828   0.007
  736SOL     OW 3106   5.495   1.614   1.653
  736SOL    HW1 3107   5.557   1.570   1.588
  736SOL    HW2 3108   5.547   1.678   1.710
  737SOL     OW 3109   5.307   4.004   0.065
  737SOL    HW1 3110   5.306   4.038   0.159
  737SOL    HW2 3111   5.371   3.928   0.057
  738SOL     OW 3112   0.291   3.523   4.309
  738SOL    HW1 3113   0.301   3.447   4.372
  738SOL    HW2 3114   0.377   3.539   4.262
  739SOL     OW 3115   5.039   5.081   5.931
  739SOL    HW1 3116   5.055   5.001   5.873
  739SOL    HW2 3117   5.121   5.100   5.986
  740SOL     OW 3118   5.710   6.506   0.467
  740SOL    HW1 3119   5.613   6.506   0.439
  740SOL    HW2 3120   5.741   6.412   0.476
  741SOL     OW 3121   1.296   0.505   3.923
  741SOL    HW1 3122   1.287   0.491   3.825
  741SOL    HW2 3123   1.313   0.602   3.942
  742SOL     OW 3124   0.717   6.193   2.472
  742SOL    HW1 3125   0.702   6.094   2.467
  742SOL    HW2 3126   0.720   6.221   2.568
  743SOL     OW 3127   1.689   3.072   2.235
  743SOL    HW1 3128   1.756   3.005   2.203
  743SOL    HW2 3129   1.666   3.135   2.160
  744SOL     OW 3130   6.943   5.300   1.354
  744SOL    HW1 3131   6.893   5.246   1.286
  744SOL    HW2 3132   6.887   5.378   1.382
  745SOL     OW 3133   0.963   6.226   2.369
  745SOL    HW1 3134   0.877   6.223   2.420
  745SOL    HW2 3135   1.035   6.265   2.426
  746SOL     OW 3136   3.089   0.122   3.620
  746SOL    HW1 3137   3.024   0.176   3.673
  746SOL    HW2 3138   3.182   0.141   3.651
  747SOL     OW 3139   0.398   3.916   0.593
  747SOL    HW1 3140   0.473   3.904   0.528
  747SOL    HW2 3141   0.381   4.014   0.607
  748SOL     OW 3142   3.911   3.797   4.127
  748SOL    HW1 3143   3.834   3.851   4.159
  748SOL    HW2 3144   3.890   3.700   4.135
  749SOL     OW 3145   4.539   2.799   5.620
  749SOL    HW1 3146   4.483   2.855   5.682
  749SOL    HW2 3147   4.636   2.816   5.639
  750SOL     OW 3148   2.904   3.073   1.803
  750SOL    HW1 3149   2.912   3.170   1.777
  750SOL    HW2 3150   2.907   3.065   1.903
  751SOL     OW 3151   5.239   0.969   0.838
  751SOL    HW1 3152   5.225   1.068   0.846
  751SOL    HW2 3153   5.153   0.926   0.811
  752SOL     OW 3154   4.191   0.280   2.007
  752SOL    HW1 3155   4.169   0.250   1.914
  752SOL    HW2 3156   4.142   0.222   2.072
  753SOL     OW 3157   2.597   1.608   1.342
  753SOL    HW1 3158   2.694   1.631   1.353
  753SOL    HW2 3159   2.542   1.690   1.356
  754SOL     OW 3160   5.527   4.872   0.359
  754SOL    HW1 3161   5.587   4.949   0.338
  754SOL    HW2 3162   5.445   4.877   0.303
  755SOL     OW 3163   5.681   4.956   2.283
  755SOL    HW1 3164   5.602   4.928   2.229
  755SOL    HW2 3165   5.723   4.877   2.326
  756SOL     OW 3166   2.996   6.360   4.506
  756SOL    HW1 3167   3.009   6.297   4.430
  756SOL    HW2 3168   3.085   6.387   4.543
  757SOL     OW 3169   0.122   1.269   4.097
  757SOL    HW1 3170   0.129   1.231   4.005
  757SOL    HW2 3171   0.028   1.263   4.130
  758SOL     OW 3172   4.274   1.646   0.381
  758SOL    HW1 3173   4.327   1.621   0.462
  758SOL    HW2 3174   4.301   1.587   0.304
  759SOL     OW 3175   1.950   0.088   1.271
  759SOL    HW1 3176   2.023   0.093   1.203
  759SOL    HW2 3177   1.930   7.017   1.293
  760SOL     OW 3178   5.043   1.044   5.988
  760SOL    HW1 3179   5.089   0.955   5.994
  760SOL    HW2 3180   4.951   1.031   5.951
  761SOL     OW 3181   5.136   0.956   6.514
  761SOL    HW1 3182   5.064   0.984   6.451
  761SOL    HW2 3183   5.221   0.940   6.464
  762SOL     OW 3184   2.228   4.391   4.961
  762SOL    HW1 3185   2.154   4.456   4.947
  762SOL    HW2 3186   2.298   4.432   5.019
  763SOL     OW 3187   0.536   4.441   1.047
  763SOL    HW1 3188   0.588   4.446   1.132
  763SOL    HW2 3189   0.453   4.496   1.055
  764SOL     OW 3190   5.983   1.702   2.086
  764SOL    HW1 3191   5.890   1.736   2.099
  764SOL    HW2 3192   5.987   1.647   2.003
  765SOL     OW 3193   0.419   6.201   2.599
  765SOL    HW1 3194   0.466   6.140   2.536
  765SOL    HW2 3195   0.470   6.286   2.609
  766SOL     OW 3196   0.806   5.874   0.371
  766SOL    HW1 3197   0.787   5.973   0.371
  766SOL    HW2 3198   0.896   5.858   0.412
  767SOL     OW 3199   5.659   6.176   1.943
  767SOL    HW1 3200   5.744   6.137   1.976
  767SOL    HW2 3201   5.678   6.259   1.890
  768SOL     OW 3202   3.196   6.116   4.980
  768SOL    HW1 3203   3.260   6.133   4.905
  768SOL    HW2 3204   3.105   6.099   4.942
  769SOL     OW 3205   3.384   0.664   0.077
  769SOL    HW1 3206   3.477   0.694   0.057
  769SOL    HW2 3207   3.374   0.567   0.055
  770SOL     OW 3208   4.350   4.783   5.087
  770SOL    HW1 3209   4.323   4.782   5.183
  770SOL    HW2 3210   4.373   4.691   5.057
  771SOL     OW 3211   0.085   0.193   4.917
  771SOL    HW1 3212   0.045   0.154   4.834
  771SOL    HW2 3213   0.036   0.276   4.943
  772SOL     OW 3214   1.062   2.994   6.871
  772SOL    HW1 3215   0.971   2.955   6.881
  772SOL    HW2 3216   1.073   3.070   6.935
  773SOL     OW 3217   0.089   3.572   1.743
  773SOL    HW1 3218   0.168   3.520   1.711
  773SOL    HW2 3219   0.052   3.529   1.825
  774SOL     OW 3220   1.083   1.438   1.907
  774SOL    HW1 3221   0.992   1.414   1.873
  774SOL    HW2 3222   1.134   1.484   1.834
  775SOL     OW 3223   2.203   2.428   4.154
  775SOL    HW1 3224   2.211   2.483   4.070
  775SOL    HW2 3225   2.285   2.441   4.210
  776SOL     OW 3226   2.510   1.174   5.236
  776SOL    HW1 3227   2.486   1.152   5.142
  776SOL    HW2 3228   2.485   1.269   5.256
  777SOL     OW 3229   4.789   0.423   6.922
  777SOL    HW1 3230   4.757   0.442   6.830
  777SOL    HW2 3231   4.860   0.352   6.919
  778SOL     OW 3232   4.750   6.197   5.436
  778SOL    HW1 3233   4.809   6.135   5.385
  778SOL    HW2 3234   4.805   6.256   5.495
  779SOL     OW 3235   0.757   0.344   2.280
  779SOL    HW1 3236   0.754   0.331   2.181
  779SOL    HW2 3237   0.664   0.353   2.315
  780SOL     OW 3238   5.905   2.613   5.428
  780SOL    HW1 3239   5.824   2.611   5.369
  780SOL    HW2 3240   5.883   2.663   5.512
  781SOL     OW 3241   0.894   3.727   6.822
  781SOL    HW1 3242   0.826   3.663   6.788
  781SOL    HW2 3243   0.879   3.743   6.920
  782SOL     OW 3244   0.540   5.283   0.519
  782SOL    HW1 3245   0.623   5.232   0.495
  782SOL    HW2 3246   0.549   5.320   0.611
  783SOL     OW 3247   1.610   5.443   0.560
  783SOL    HW1 3248   1.586   5.392   0.478
  783SOL    HW2 3249   1.663   5.524   0.534
  784SOL     OW 3250   5.094   5.609   2.685
  784SOL    HW1 3251   5.160   5.661   2.630
  784SOL    HW2 3252   5.085   5.652   2.775
  785SOL     OW 3253   6.718   3.234   2.906
  785SOL    HW1 3254   6.808   3.204   2.936
  785SOL    HW2 3255   6.650   3.164   2.928
  786SOL     OW 3256   5.918   0.091   1.777
  786SOL    HW1 3257   5.871   0.005   1.800
  786SOL    HW2 3258   6.002   0.099   1.831
  787SOL     OW 3259   4.777   0.842   5.384
  787SOL    HW1 3260   4.700   0.779   5.375
  787SOL    HW2 3261   4.859   0.791   5.409
  788SOL     OW 3262   6.626   5.118   2.842
  788SOL    HW1 3263   6.556   5.147   2.777
  788SOL    HW2 3264   6.598   5.033   2.886
  789SOL     OW 3265   5.770   2.989   0.286
  789SOL    HW1 3266   5.771   2.889   0.279
  789SOL    HW2 3267   5.690   3.019   0.338
  790SOL     OW 3268   2.799   0.852   4.461
  790SOL    HW1 3269   2.714   0.838   4.410
  790SOL    HW2 3270   2.842   0.764   4.480
  791SOL     OW 3271   3.502   1.013   3.637
  791SOL    HW1 3272   3.543   1.053   3.555
  791SOL    HW2 3273   3.497   1.083   3.708
  792SOL     OW 3274   4.828   0.721   3.698
  792SOL    HW1 3275   4.804   0.817   3.686
  792SOL    HW2 3276   4.889   0.692   3.624
  793SOL     OW 3277   1.075   6.092   6.109
  793SOL    HW1 3278   1.043   6.014   6.161
  793SOL    HW2 3279   1.113   6.161   6.171
  794SOL     OW 3280   3.501   5.385   4.706
  794SOL    HW1 3281   3.485   5.304   4.649
  794SOL    HW2 3282   3.468   5.367   4.799
  795SOL     OW 3283   5.000   5.282   6.935
  795SOL    HW1 3284   4.934   5.286   7.009
  795SOL    HW2 3285   5.090   5.257   6.971
  796SOL     OW 3286   1.500   1.859   6.698
  796SOL    HW1 3287   1.445   1.822   6.773
  796SOL    HW2 3288   1.586   1.808   6.693
  797SOL     OW 3289   6.080   2.853   5.735
  797SOL    HW1 3290   6.168   2.808   5.715
  797SOL    HW2 3291   6.098   2.940   5.780
  798SOL     OW 3292   6.057   0.627   4.219
  798SOL    HW1 3293   6.106   0.696   4.165
  798SOL    HW2 3294   6.105   0.615   4.307
  799SOL     OW 3295   6.944   4.489   4.143
  799SOL    HW1 3296   6.865   4.499   4.203
  799SOL    HW2 3297   6.919   4.432   4.064
  800SOL     OW 3298   0.165   2.230   2.312
  800SOL    HW1 3299   0.229   2.260   2.383
  800SOL    HW2 3300   0.142   2.134   2.326
  801SOL     OW 3301   0.343   3.765   3.694
  801SOL    HW1 3302   0.353   3.758   3.594
  801SOL    HW2 3303   0.353   3.860   3.721
  802SOL     OW 3304   6.943   0.801   0.858
  802SOL    HW1 3305   7.001   0.750   0.795
  802SOL    HW2 3306   6.928   0.893   0.822
  803SOL     OW 3307   2.791   6.170   4.588
  803SOL    HW1 3308   2.846   6.245   4.553
  803SOL    HW2 3309   2.736   6.132   4.514
  804SOL     OW 3310   5.658   5.417   0.754
  804SOL    HW1 3311   5.609   5.379   0.833
  804SOL    HW2 3312   5.661   5.516   0.762
  805SOL     OW 3313   2.419   2.022   6.444
  805SOL    HW1 3314   2.365   2.046   6.364
  805SOL    HW2 3315   2.369   1.954   6.498
  806SOL     OW 3316   3.942   6.134   6.778
  806SOL    HW1 3317   4.010   6.145   6.850
  806SOL    HW2 3318   3.903   6.223   6.754
  807SOL     OW 3319   6.269   1.057   3.409
  807SOL    HW1 3320   6.303   0.989   3.474
  807SOL    HW2 3321   6.170   1.067   3.420
  808SOL     OW 3322   6.216   4.101   4.929
  808SOL    HW1 3323   6.278   4.031   4.965
  808SOL    HW2 3324   6.140   4.057   4.880
  809SOL     OW 3325   0.225   6.041   5.521
  809SOL    HW1 3326   0.136   6.085   5.531
  809SOL    HW2 3327   0.267   6.029   5.611
  810SOL     OW 3328   5.422   4.919   6.163
  810SOL    HW1 3329   5.372   4.837   6.192
  810SOL    HW2 3330   5.509   4.892   6.122
  811SOL     OW 3331   3.075   4.903   2.185
  811SOL    HW1 3332   3.024   4.845   2.121
  811SOL    HW2 3333   3.010   4.953   2.242
  812SOL     OW 3334   6.504   0.374   3.085
  812SOL    HW1 3335   6.469   0.284   3.061
  812SOL    HW2 3336   6.430   0.441   3.082
  813SOL     OW 3337   4.479   4.968   1.934
  813SOL    HW1 3338   4.448   5.063   1.935
  813SOL    HW2 3339   4.513   4.945   1.842
  814SOL     OW 3340   5.094   5.201   1.166
  814SOL    HW1 3341   5.111   5.144   1.086
  814SOL    HW2 3342   5.171   5.264   1.179
  815SOL     OW 3343   0.619   1.320   1.418
  815SOL    HW1 3344   0.711   1.353   1.396
  815SOL    HW2 3345   0.572   1.297   1.333
  816SOL     OW 3346   6.390   0.548   1.225
  816SOL    HW1 3347   6.386   0.449   1.240
  816SOL    HW2 3348   6.439   0.566   1.140
  817SOL     OW 3349   6.824   1.675   2.470
  817SOL    HW1 3350   6.787   1.622   2.394
  817SOL    HW2 3351   6.923   1.662   2.474
  818SOL     OW 3352   5.492   2.040   3.244
  818SOL    HW1 3353   5.483   2.127   3.196
  818SOL    HW2 3354   5.451   2.049   3.335
  819SOL     OW 3355   0.512   5.010   3.139
  819SOL    HW1 3356   0.596   4.972   3.179
  819SOL    HW2 3357   0.535   5.074   3.065
  820SOL     OW 3358   2.918   3.311   6.345
  820SOL    HW1 3359   2.890   3.262   6.428
  820SOL    HW2 3360   3.001   3.363   6.364
  821SOL     OW 3361   1.173   4.201   0.321
  821SOL    HW1 3362   1.190   4.300   0.320
  821SOL    HW2 3363   1.248   4.154   0.274
  822SOL     OW 3364   0.936   3.080   5.709
  822SOL    HW1 3365   0.920   3.179   5.706
  822SOL    HW2 3366   1.033   3.063   5.691
  823SOL     OW 3367   4.749   3.663   1.242
  823SOL    HW1 3368   4.703   3.698   1.161
  823SOL    HW2 3369   4.845   3.644   1.219
  824SOL     OW 3370   6.221   4.010   6.928
  824SOL    HW1 3371   6.173   3.934   6.973
  824SOL    HW2 3372   6.205   4.005   6.829
  825SOL     OW 3373   2.250   3.115   1.567
  825SOL    HW1 3374   2.225   3.182   1.637
  825SOL    HW2 3375   2.208   3.140   1.480
  826SOL     OW 3376   0.986   1.232   6.699
  826SOL    HW1 3377   1.078   1.220   6.663
  826SOL    HW2 3378   0.981   1.195   6.792
  827SOL     OW 3379   3.818   4.489   1.208
  827SOL    HW1 3380   3.747   4.494   1.139
  827SOL    HW2 3381   3.904   4.522   1.170
  828SOL     OW 3382   5.577   1.575   5.583
  828SOL    HW1 3383   5.590   1.645   5.513
  828SOL    HW2 3384   5.574   1.485   5.540
  829SOL     OW 3385   4.580   4.302   5.831
  829SOL    HW1 3386   4.508   4.237   5.855
  829SOL    HW2 3387   4.626   4.333   5.914
  830SOL     OW 3388   4.229   3.724   6.761
  830SOL    HW1 3389   4.318   3.682   6.741
  830SOL    HW2 3390   4.180   3.741   6.675
  831SOL     OW 3391   5.089   1.728   5.844
  831SOL    HW1 3392   5.180   1.685   5.844
  831SOL    HW2 3393   5.046   1.714   5.755
  832SOL     OW 3394   3.612   1.268   5.749
  832SOL    HW1 3395   3.543   1.330   5.785
  832SOL    HW2 3396   3.646   1.303   5.662
  833SOL     OW 3397   1.090   0.904   5.195
  833SOL    HW1 3398   1.060   0.858   5.278
  833SOL    HW2 3399   1.136   0.990   5.218
  834SOL     OW 3400   2.479   4.452   5.808
  834SOL    HW1 3401   2.443   4.534   5.852
  834SOL    HW2 3402   2.578   4.460   5.797
  835SOL     OW 3403   4.013   1.957   2.436
  835SOL    HW1 3404   4.037   1.864   2.407
  835SOL    HW2 3405   3.950   1.997   2.369
  836SOL     OW 3406   2.028   1.352   5.275
  836SOL    HW1 3407   2.077   1.307   5.349
  836SOL    HW2 3408   1.944   1.302   5.255
  837SOL     OW 3409   4.078   1.209   4.508
  837SOL    HW1 3410   4.126   1.157   4.437
  837SOL    HW2 3411   3.979   1.191   4.502
  838SOL     OW 3412   0.162   6.159   2.226
  838SOL    HW1 3413   0.147   6.198   2.316
  838SOL    HW2 3414   0.109   6.210   2.158
  839SOL     OW 3415   2.096   1.292   2.069
  839SOL    HW1 3416   2.102   1.192   2.065
  839SOL    HW2 3417   2.014   1.322   2.021
  840SOL     OW 3418   2.302   0.524   4.407
  840SOL    HW1 3419   2.376   0.564   4.461
  840SOL    HW2 3420   2.282   0.432   4.442
  841SOL     OW 3421   6.533   3.001   0.314
  841SOL    HW1 3422   6.487   2.967   0.396
  841SOL    HW2 3423   6.466   3.017   0.241
  842SOL     OW 3424   3.808   5.096   4.428
  842SOL    HW1 3425   3.797   5.042   4.511
  842SOL    HW2 3426   3.736   5.165   4.423
  843SOL     OW 3427   6.957   2.932   0.952
  843SOL    HW1 3428   6.880   2.974   0.903
  843SOL    HW2 3429   6.924   2.850   0.999
  844SOL     OW 3430   5.829   4.273   6.312
  844SOL    HW1 3431   5.886   4.331   6.370
  844SOL    HW2 3432   5.743   4.254   6.360
  845SOL     OW 3433   2.094   4.862   5.870
  845SOL    HW1 3434   2.049   4.849   5.958
  845SOL    HW2 3435   2.027   4.889   5.801
  846SOL     OW 3436   5.272   2.107   6.777
  846SOL    HW1 3437   5.367   2.138   6.781
  846SOL    HW2 3438   5.269   2.011   6.749
  847SOL     OW 3439   4.683   3.419   1.349
  847SOL    HW1 3440   4.684   3.506   1.300
  847SOL    HW2 3441   4.777   3.390   1.368
  848SOL     OW 3442   6.366   6.504   5.703
  848SOL    HW1 3443   6.352   6.596   5.667
  848SOL    HW2 3444   6.458   6.473   5.680
  849SOL     OW 3445   1.148   0.239   3.775
  849SOL    HW1 3446   1.080   0.190   3.720
  849SOL    HW2 3447   1.103   0.311   3.828
  850SOL     OW 3448   3.156   0.700   2.961
  850SOL    HW1 3449   3.119   0.790   2.937
  850SOL    HW2 3450   3.089   0.629   2.940
  851SOL     OW 3451   5.966   1.392   6.083
  851SOL    HW1 3452   6.048   1.433   6.122
  851SOL    HW2 3453   5.986   1.300   6.050
  852SOL     OW 3454   3.827   5.271   4.766
  852SOL    HW1 3455   3.861   5.177   4.771
  852SOL    HW2 3456   3.848   5.319   4.851
  853SOL     OW 3457   1.026   4.014   0.925
  853SOL    HW1 3458   0.946   4.018   0.864
  853SOL    HW2 3459   1.015   4.081   0.998
  854SOL     OW 3460   6.728   4.717   1.455
  854SOL    HW1 3461   6.782   4.688   1.534
  854SOL    HW2 3462   6.638   4.746   1.485
  855SOL     OW 3463   4.776   0.327   0.154
  855SOL    HW1 3464   4.868   0.293   0.137
  855SOL    HW2 3465   4.744   0.378   0.074
  856SOL     OW 3466   2.184   1.504   5.535
  856SOL    HW1 3467   2.268   1.482   5.485
  856SOL    HW2 3468   2.157   1.425   5.590
  857SOL     OW 3469   6.945   4.541   2.241
  857SOL    HW1 3470   6.881   4.510   2.311
  857SOL    HW2 3471   6.972   4.635   2.261
  858SOL     OW 3472   3.833   3.560   2.141
  858SOL    HW1 3473   3.931   3.579   2.138
  858SOL    HW2 3474   3.813   3.479   2.087
  859SOL     OW 3475   6.648   3.863   1.601
  859SOL    HW1 3476   6.633   3.783   1.544
  859SOL    HW2 3477   6.707   3.928   1.553
  860SOL     OW 3478   1.421   4.135   6.362
  860SOL    HW1 3479   1.373   4.091   6.437
  860SOL    HW2 3480   1.497   4.189   6.398
  861SOL     OW 3481   4.369   4.312   6.839
  861SOL    HW1 3482   4.328   4.222   6.820
  861SOL    HW2 3483   4.309   4.384   6.804
  862SOL     OW 3484   4.167   4.695   3.653
  862SOL    HW1 3485   4.181   4.639   3.572
  862SOL    HW2 3486   4.256   4.727   3.687
  863SOL     OW 3487   6.595   2.997   1.195
  863SOL    HW1 3488   6.524   3.067   1.196
  863SOL    HW2 3489   6.553   2.908   1.173
  864SOL     OW 3490   1.562   6.787   1.825
  864SOL    HW1 3491   1.656   6.821   1.817
  864SOL    HW2 3492   1.499   6.864   1.820
  865SOL     OW 3493   0.583   1.130   3.853
  865SOL    HW1 3494   0.670   1.161   3.815
  865SOL    HW2 3495   0.508   1.174   3.805
  866SOL     OW 3496   3.668   0.801   1.885
  866SOL    HW1 3497   3.705   0.870   1.823
  866SOL    HW2 3498   3.600   0.746   1.838
  867SOL     OW 3499   3.315   1.730   6.223
  867SOL    HW1 3500   3.391   1.666   6.232
  867SOL    HW2 3501   3.330   1.809   6.282
  868SOL     OW 3502   4.527   1.948   3.516
  868SOL    HW1 3503   4.584   1.870   3.542
  868SOL    HW2 3504   4.460   1.919   3.448
  869SOL     OW 3505   6.287   3.072   0.901
  869SOL    HW1 3506   6.233   3.000   0.946
  869SOL    HW2 3507   6.265   3.161   0.943
  870SOL     OW 3508   6.144   1.865   0.559
  870SOL    HW1 3509   6.122   1.792   0.494
  870SOL    HW2 3510   6.164   1.825   0.648
  871SOL     OW 3511   0.053   4.052   0.898
  871SOL    HW1 3512   0.010   3.964   0.875
  871SOL    HW2 3513   0.041   4.115   0.822
  872SOL     OW 3514   6.246   1.642   1.770
  872SOL    HW1 3515   6.285   1.642   1.862
  872SOL    HW2 3516   6.301   1.583   1.711
  873SOL     OW 3517   4.071   0.114   3.535
  873SOL    HW1 3518   4.151   0.101   3.477
  873SOL    HW2 3519   4.046   0.026   3.577
  874SOL     OW 3520   1.246   3.284   6.763
  874SOL    HW1 3521   1.175   3.355   6.767
  874SOL    HW2 3522   1.219   3.214   6.698
  875SOL     OW 3523   6.589   5.825   6.639
  875SOL    HW1 3524   6.654   5.781   6.578
  875SOL    HW2 3525   6.534   5.891   6.587
  876SOL     OW 3526   2.633   2.441   1.967
  876SOL    HW1 3527   2.733   2.440   1.968
  876SOL    HW2 3528   2.599   2.433   2.061
  877SOL     OW 3529   6.030   5.625   6.070
  877SOL    HW1 3530   6.033   5.678   6.154
  877SOL    HW2 3531   6.086   5.543   6.080
  878SOL     OW 3532   3.844   3.195   1.419
  878SOL    HW1 3533   3.828   3.161   1.511
  878SOL    HW2 3534   3.929   3.157   1.384
  879SOL     OW 3535   5.187   3.195   2.697
  879SOL    HW1 3536   5.171   3.196   2.599
  879SOL    HW2 3537   5.158   3.108   2.736
  880SOL     OW 3538   4.026   6.871   0.940
  880SOL    HW1 3539   4.095   6.799   0.950
  880SOL    HW2 3540   3.937   6.837   0.973
  881SOL     OW 3541   4.525   5.804   2.972
  881SOL    HW1 3542   4.486   5.866   3.041
  881SOL    HW2 3543   4.480   5.715   2.979
  882SOL     OW 3544   1.255   2.183   5.036
  882SOL    HW1 3545   1.173   2.240   5.042
  882SOL    HW2 3546   1.265   2.129   5.119
  883SOL     OW 3547   2.371   5.349   0.163
  883SOL    HW1 3548   2.309   5.342   0.085
  883SOL    HW2 3549   2.325   5.393   0.239
  884SOL     OW 3550   4.776   4.125   1.439
  884SOL    HW1 3551   4.733   4.134   1.349
  884SOL    HW2 3552   4.737   4.192   1.502
  885SOL     OW 3553   3.959   5.134   6.693
  885SOL    HW1 3554   3.999   5.108   6.605
  885SOL    HW2 3555   3.862   5.154   6.680
  886SOL     OW 3556   3.931   2.780   6.614
  886SOL    HW1 3557   3.842   2.787   6.569
  886SOL    HW2 3558   3.955   2.869   6.654
  887SOL     OW 3559   6.704   6.174   5.111
  887SOL    HW1 3560   6.632   6.205   5.173
  887SOL    HW2 3561   6.729   6.080   5.134
  888SOL     OW 3562   6.309   1.482   3.854
  888SOL    HW1 3563   6.332   1.573   3.888
  888SOL    HW2 3564   6.238   1.442   3.911
  889SOL     OW 3565   0.835   0.195   4.812
  889SOL    HW1 3566   0.839   0.111   4.866
  889SOL    HW2 3567   0.894   0.264   4.853
  890SOL     OW 3568   2.876   3.447   0.900
  890SOL    HW1 3569   2.793   3.394   0.880
  890SOL    HW2 3570   2.956   3.387   0.899
  891SOL     OW 3571   6.853   3.399   5.582
  891SOL    HW1 3572   6.879   3.303   5.595
  891SOL    HW2 3573   6.787   3.426   5.651
  892SOL     OW 3574   2.316   4.363   1.945
  892SOL    HW1 3575   2.279   4.336   2.034
  892SOL    HW2 3576   2.370   4.288   1.907
  893SOL     OW 3577   2.105   0.637   1.973
  893SOL    HW1 3578   2.078   0.731   1.955
  893SOL    HW2 3579   2.205   0.633   1.985
  894SOL     OW 3580   1.192   5.331   3.827
  894SOL    HW1 3581   1.165   5.315   3.732
  894SOL    HW2 3582   1.230   5.246   3.865
  895SOL     OW 3583   2.949   1.414   4.637
  895SOL    HW1 3584   3.037   1.392   4.678
  895SOL    HW2 3585   2.954   1.505   4.595
  896SOL     OW 3586   4.605   6.668   2.591
  896SOL    HW1 3587   4.575   6.756   2.630
  896SOL    HW2 3588   4.526   6.619   2.556
  897SOL     OW 3589   6.693   0.762   6.850
  897SOL    HW1 3590   6.712   0.811   6.934
  897SOL    HW2 3591   6.641   0.821   6.788
  898SOL     OW 3592   5.707   5.945   3.743
  898SOL    HW1 3593   5.667   5.894   3.820
  898SOL    HW2 3594   5.646   6.019   3.716
  899SOL     OW 3595   1.616   4.448   0.456
  899SOL    HW1 3596   1.687   4.475   0.521
  899SOL    HW2 3597   1.640   4.481   0.365
  900SOL     OW 3598   0.241   5.626   3.483
  900SOL    HW1 3599   0.203   5.653   3.394
  900SOL    HW2 3600   0.274   5.707   3.531
  901SOL     OW 3601   6.491   2.588   3.369
  901SOL    HW1 3602   6.399   2.560   3.341
  901SOL    HW2 3603   6.485   2.644   3.452
  902SOL     OW 3604   1.454   5.879   6.782
  902SOL    HW1 3605   1.508   5.961   6.801
  902SOL    HW2 3606   1.396   5.894   6.702
  903SOL     OW 3607   1.035   5.048   0.331
  903SOL    HW1 3608   1.087   4.963   0.328
  903SOL    HW2 3609   1.040   5.094   0.243
  904SOL     OW 3610   0.814   2.755   3.699
  904SOL    HW1 3611   0.848   2.663   3.722
  904SOL    HW2 3612   0.763   2.752   3.614
  905SOL     OW 3613   6.420   4.269   2.984
  905SOL    HW1 3614   6.462   4.359   2.975
  905SOL    HW2 3615   6.449   4.227   3.070
  906SOL     OW 3616   0.098   3.747   5.888
  906SOL    HW1 3617   0.044   3.706   5.814
  906SOL    HW2 3618   0.195   3.736   5.868
  907SOL     OW 3619   7.016   4.745   2.991
  907SOL    HW1 3620   0.019   4.841   2.985
  907SOL    HW2 3621   0.071   4.686   2.979
  908SOL     OW 3622   2.322   1.063   2.746
  908SOL    HW1 3623   2.262   1.142   2.751
  908SOL    HW2 3624   2.404   1.080   2.801
  909SOL     OW 3625   2.932   6.720   2.358
  909SOL    HW1 3626   2.936   6.708   2.259
  909SOL    HW2 3627   2.877   6.647   2.399
  910SOL     OW 3628   1.214   0.495   2.516
  910SOL    HW1 3629   1.204   0.402   2.482
  910SOL    HW2 3630   1.171   0.559   2.451
  911SOL     OW 3631   0.967   2.477   0.995
  911SOL    HW1 3632   1.030   2.450   1.068
  911SOL    HW2 3633   0.995   2.434   0.909
  912SOL     OW 3634   2.275   0.498   1.137
  912SOL    HW1 3635   2.315   0.588   1.152
  912SOL    HW2 3636   2.333   0.428   1.179
  913SOL     OW 3637   2.310   1.334   1.615
  913SOL    HW1 3638   2.213   1.345   1.637
  913SOL    HW2 3639   2.359   1.417   1.642
  914SOL     OW 3640   3.071   4.952   2.600
  914SOL    HW1 3641   3.046   5.003   2.518
  914SOL    HW2 3642   3.166   4.972   2.625
  915SOL     OW 3643   3.309   2.280   1.689
  915SOL    HW1 3644   3.308   2.198   1.747
  915SOL    HW2 3645   3.369   2.264   1.610
  916SOL     OW 3646   6.893   4.106   2.794
  916SOL    HW1 3647   6.936   4.166   2.728
  916SOL    HW2 3648   6.825   4.048   2.748
  917SOL     OW 3649   4.585   6.950   4.789
  917SOL    HW1 3650   4.641   6.895   4.851
  917SOL    HW2 3651   4.488   6.937   4.811
  918SOL     OW 3652   0.540   2.691   5.290
  918SOL    HW1 3653   0.480   2.650   5.221
  918SOL    HW2 3654   0.597   2.619   5.330
  919SOL     OW 3655   0.908   0.331   1.401
  919SOL    HW1 3656   0.951   0.358   1.487
  919SOL    HW2 3657   0.979   0.319   1.331
  920SOL     OW 3658   0.964   1.518   2.647
  920SOL    HW1 3659   0.977   1.580   2.570
  920SOL    HW2 3660   0.884   1.546   2.700
  921SOL     OW 3661   4.302   4.318   0.144
  921SOL    HW1 3662   4.350   4.293   0.060
  921SOL    HW2 3663   4.250   4.240   0.178
  922SOL     OW 3664   2.953   5.628   6.660
  922SOL    HW1 3665   3.004   5.632   6.574
  922SOL    HW2 3666   2.865   5.584   6.644
  923SOL     OW 3667   3.610   1.656   0.237
  923SOL    HW1 3668   3.685   1.596   0.211
  923SOL    HW2 3669   3.628   1.694   0.328
  924SOL     OW 3670   4.880   5.089   0.908
  924SOL    HW1 3671   4.918   5.000   0.882
  924SOL    HW2 3672   4.889   5.102   1.007
  925SOL     OW 3673   5.989   2.240   1.036
  925SOL    HW1 3674   5.897   2.257   0.999
  925SOL    HW2 3675   6.019   2.321   1.087
  926SOL     OW 3676   4.326   5.799   1.296
  926SOL    HW1 3677   4.301   5.784   1.201
  926SOL    HW2 3678   4.419   5.766   1.312
  927SOL     OW 3679   5.347   5.456   5.940
  927SOL    HW1 3680   5.304   5.421   5.856
  927SOL    HW2 3681   5.362   5.380   6.004
  928SOL     OW 3682   5.834   1.039   2.260
  928SOL    HW1 3683   5.793   0.951   2.283
  928SOL    HW2 3684   5.926   1.045   2.299
  929SOL     OW 3685   6.760   2.161   2.967
  929SOL    HW1 3686   6.794   2.228   2.900
  929SOL    HW2 3687   6.660   2.160   2.964
  930SOL     OW 3688   5.918   4.098   2.079
  930SOL    HW1 3689   5.885   4.186   2.045
  930SOL    HW2 3690   5.977   4.113   2.159
  931SOL     OW 3691   0.236   2.873   6.944
  931SOL    HW1 3692   0.198   2.953   6.897
  931SOL    HW2 3693   0.276   2.811   6.878
  932SOL     OW 3694   4.120   6.716   0.515
  932SOL    HW1 3695   4.044   6.730   0.579
  932SOL    HW2 3696   4.185   6.651   0.553
  933SOL     OW 3697   0.792   6.993   3.064
  933SOL    HW1 3698   0.705   6.992   3.014
  933SOL    HW2 3699   0.825   0.062   3.071
  934SOL     OW 3700   4.077   1.632   4.622
  934SOL    HW1 3701   4.040   1.711   4.573
  934SOL    HW2 3702   4.013   1.604   4.693
  935SOL     OW 3703   1.095   3.901   3.871
  935SOL    HW1 3704   1.118   3.935   3.962
  935SOL    HW2 3705   1.097   3.976   3.805
  936SOL     OW 3706   0.755   1.359   0.669
  936SOL    HW1 3707   0.834   1.408   0.634
  936SOL    HW2 3708   0.672   1.393   0.623
  937SOL     OW 3709   4.803   2.054   3.036
  937SOL    HW1 3710   4.723   2.085   2.985
  937SOL    HW2 3711   4.854   1.989   2.981
  938SOL     OW 3712   0.841   0.687   5.960
  938SOL    HW1 3713   0.836   0.728   6.051
  938SOL    HW2 3714   0.911   0.734   5.906
  939SOL     OW 3715   0.207   1.138   4.904
  939SOL    HW1 3716   0.157   1.052   4.900
  939SOL    HW2 3717   0.201   1.176   4.997
  940SOL     OW 3718   6.159   0.144   3.555
  940SOL    HW1 3719   6.207   0.185   3.477
  940SOL    HW2 3720   6.207   0.167   3.639
  941SOL     OW 3721   5.991   2.143   4.974
  941SOL    HW1 3722   5.907   2.089   4.973
  941SOL    HW2 3723   6.032   2.139   5.065
  942SOL     OW 3724   3.968   6.664   6.359
  942SOL    HW1 3725   3.956   6.581   6.414
  942SOL    HW2 3726   3.937   6.743   6.412
  943SOL     OW 3727   5.093   2.335   6.707
  943SOL    HW1 3728   5.095   2.238   6.732
  943SOL    HW2 3729   5.010   2.354   6.654
  944SOL     OW 3730   5.732   4.912   3.682
  944SOL    HW1 3731   5.767   4.819   3.690
  944SOL    HW2 3732   5.659   4.926   3.749
  945SOL     OW 3733   6.667   3.217   6.419
  945SOL    HW1 3734   6.598   3.236   6.489
  945SOL    HW2 3735   6.756   3.251   6.449
  946SOL     OW 3736   5.698   3.421   6.483
  946SOL    HW1 3737   5.709   3.334   6.435
  946SOL    HW2 3738   5.704   3.496   6.418
  947SOL     OW 3739   1.502   2.208   6.293
  947SOL    HW1 3740   1.535   2.172   6.380
  947SOL    HW2 3741   1.474   2.132   6.234
  948SOL     OW 3742   4.002   1.429   0.939
  948SOL    HW1 3743   4.013   1.493   0.863
  948SOL    HW2 3744   4.089   1.421   0.988
  949SOL     OW 3745   4.728   4.857   6.033
  949SOL    HW1 3746   4.814   4.828   6.075
  949SOL    HW2 3747   4.655   4.797   6.063
  950SOL     OW 3748   3.205   5.350   0.294
  950SOL    HW1 3749   3.144   5.272   0.310
  950SOL    HW2 3750   3.239   5.346   0.200
  951SOL     OW 3751   0.532   4.145   2.769
  951SOL    HW1 3752   0.514   4.079   2.841
  951SOL    HW2 3753   0.577   4.099   2.692
  952SOL     OW 3754   4.333   0.667   0.590
  952SOL    HW1 3755   4.325   0.765   0.606
  952SOL    HW2 3756   4.269   0.618   0.650
  953SOL     OW 3757   4.589   6.613   6.003
  953SOL    HW1 3758   4.534   6.660   6.071
  953SOL    HW2 3759   4.538   6.608   5.917
  954SOL     OW 3760   6.988   6.322   1.293
  954SOL    HW1 3761   7.025   6.288   1.207
  954SOL    HW2 3762   6.944   6.247   1.342
  955SOL     OW 3763   1.392   6.808   3.583
  955SOL    HW1 3764   1.317   6.758   3.540
  955SOL    HW2 3765   1.354   6.877   3.645
  956SOL     OW 3766   1.841   2.765   1.402
  956SOL    HW1 3767   1.925   2.711   1.408
  956SOL    HW2 3768   1.840   2.816   1.315
  957SOL     OW 3769   3.172   6.323   4.289
  957SOL    HW1 3770   3.232   6.344   4.366
  957SOL    HW2 3771   3.156   6.406   4.235
  958SOL     OW 3772   4.495   2.116   6.696
  958SOL    HW1 3773   4.480   2.036   6.638
  958SOL    HW2 3774   4.576   2.101   6.753
  959SOL     OW 3775   1.494   3.907   0.585
  959SOL    HW1 3776   1.505   3.855   0.669
  959SOL    HW2 3777   1.584   3.931   0.547
  960SOL     OW 3778   1.681   3.431   5.689
  960SOL    HW1 3779   1.686   3.386   5.600
  960SOL    HW2 3780   1.623   3.512   5.682
  961SOL     OW 3781   3.846   7.002   6.177
  961SOL    HW1 3782   3.816   0.048   6.113
  961SOL    HW2 3783   3.881   0.020   6.261
  962SOL     OW 3784   0.699   0.212   4.234
  962SOL    HW1 3785   0.632   0.263   4.288
  962SOL    HW2 3786   0.709   0.255   4.144
  963SOL     OW 3787   5.560   0.250   3.411
  963SOL    HW1 3788   5.547   0.169   3.353
  963SOL    HW2 3789   5.611   0.319   3.360
  964SOL     OW 3790   5.984   4.387   1.847
  964SOL    HW1 3791   6.070   4.393   1.897
  964SOL    HW2 3792   5.995   4.427   1.756
  965SOL     OW 3793   1.392   2.383   0.462
  965SOL    HW1 3794   1.431   2.469   0.494
  965SOL    HW2 3795   1.465   2.317   0.446
  966SOL     OW 3796   4.862   2.590   1.674
  966SOL    HW1 3797   4.936   2.644   1.633
  966SOL    HW2 3798   4.814   2.646   1.742
  967SOL     OW 3799   0.720   5.845   3.073
  967SOL    HW1 3800   0.814   5.849   3.107
  967SOL    HW2 3801   0.719   5.810   2.979
  968SOL     OW 3802   0.025   4.267   1.091
  968SOL    HW1 3803   0.123   4.275   1.113
  968SOL    HW2 3804   0.012   4.194   1.025
  969SOL     OW 3805   3.352   7.017   6.448
  969SOL    HW1 3806   3.362   0.064   6.516
  969SOL    HW2 3807   3.335   6.930   6.493
  970SOL     OW 3808   5.890   3.855   6.091
  970SOL    HW1 3809   5.804   3.882   6.134
  970SOL    HW2 3810   5.882   3.861   5.992
  971SOL     OW 3811   0.867   1.463   6.718
  971SOL    HW1 3812   0.891   1.367   6.701
  971SOL    HW2 3813   0.851   1.509   6.631
  972SOL     OW 3814   3.691   6.737   6.089
  972SOL    HW1 3815   3.768   6.777   6.139
  972SOL    HW2 3816   3.725   6.690   6.007
  973SOL     OW 3817   6.504   3.820   5.858
  973SOL    HW1 3818   6.547   3.731   5.873
  973SOL    HW2 3819   6.418   3.807   5.808
  974SOL     OW 3820   2.932   0.853   3.402
  974SOL    HW1 3821   2.876   0.855   3.319
  974SOL    HW2 3822   3.012   0.911   3.389
  975SOL     OW 3823   3.184   6.568   4.151
  975SOL    HW1 3824   3.197   6.589   4.054
  975SOL    HW2 3825   3.161   6.652   4.200
  976SOL     OW 3826   0.786   5.317   4.650
  976SOL    HW1 3827   0.813   5.337   4.556
  976SOL    HW2 3828   0.807   5.221   4.672
  977SOL     OW 3829   0.131   1.452   2.240
  977SOL    HW1 3830   0.223   1.480   2.267
  977SOL    HW2 3831   0.093   1.519   2.176
  978SOL     OW 3832   6.296   2.644   4.026
  978SOL    HW1 3833   6.225   2.622   3.959
  978SOL    HW2 3834   6.345   2.726   3.997
  979SOL     OW 3835   5.613   1.669   1.946
  979SOL    HW1 3836   5.674   1.602   1.904
  979SOL    HW2 3837   5.662   1.717   2.019
  980SOL     OW 3838   6.172   5.928   5.777
  980SOL    HW1 3839   6.255   5.888   5.816
  980SOL    HW2 3840   6.094   5.869   5.798
  981SOL     OW 3841   5.896   3.317   6.782
  981SOL    HW1 3842   5.899   3.240   6.718
  981SOL    HW2 3843   5.842   3.391   6.742
  982SOL     OW 3844   1.362   4.558   0.057
  982SOL    HW1 3845   1.326   4.535   0.147
  982SOL    HW2 3846   1.302   4.626   0.014
  983SOL     OW 3847   5.134   1.891   3.904
  983SOL    HW1 3848   5.055   1.839   3.871
  983SOL    HW2 3849   5.135   1.981   3.860
  984SOL     OW 3850   4.966   3.194   4.999
  984SOL    HW1 3851   4.958   3.115   4.939
  984SOL    HW2 3852   5.058   3.199   5.036
  985SOL     OW 3853   2.182   3.761   0.920
  985SOL    HW1 3854   2.157   3.851   0.956
  985SOL    HW2 3855   2.109   3.725   0.863
  986SOL     OW 3856   6.081   4.309   4.338
  986SOL    HW1 3857   6.127   4.342   4.420
  986SOL    HW2 3858   5.983   4.327   4.344
  987SOL     OW 3859   2.281   0.871   3.106
  987SOL    HW1 3860   2.287   0.952   3.164
  987SOL    HW2 3861   2.365   0.861   3.053
  988SOL     OW 3862   3.743   3.971   2.069
  988SOL    HW1 3863   3.675   4.040   2.046
  988SOL    HW2 3864   3.757   3.909   1.992
  989SOL     OW 3865   0.866   0.989   5.397
  989SOL    HW1 3866   0.812   0.918   5.352
  989SOL    HW2 3867   0.833   1.079   5.371
  990SOL     OW 3868   3.630   6.352   1.697
  990SOL    HW1 3869   3.654   6.262   1.735
  990SOL    HW2 3870   3.638   6.421   1.768
  991SOL     OW 3871   5.979   1.687   6.521
  991SOL    HW1 3872   5.913   1.715   6.452
  991SOL    HW2 3873   5.933   1.631   6.590
  992SOL     OW 3874   0.153   2.541   0.138
  992SOL    HW1 3875   0.087   2.489   0.191
  992SOL    HW2 3876   0.189   2.616   0.193
  993SOL     OW 3877   4.014   6.697   4.153
  993SOL    HW1 3878   3.984   6.777   4.101
  993SOL    HW2 3879   3.952   6.621   4.136
  994SOL     OW 3880   3.326   3.793   3.862
  994SOL    HW1 3881   3.404   3.856   3.862
  994SOL    HW2 3882   3.250   3.834   3.912
  995SOL     OW 3883   1.721   1.460   5.177
  995SOL    HW1 3884   1.720   1.458   5.077
  995SOL    HW2 3885   1.713   1.366   5.212
  996SOL     OW 3886   2.604   3.038   0.845
  996SOL    HW1 3887   2.621   2.952   0.893
  996SOL    HW2 3888   2.629   3.028   0.749
  997SOL     OW 3889   6.780   1.879   0.414
  997SOL    HW1 3890   6.680   1.869   0.407
  997SOL    HW2 3891   6.822   1.789   0.415
  998SOL     OW 3892   4.749   7.008   3.524
  998SOL    HW1 3893   4.812   7.000   3.446
  998SOL    HW2 3894   4.800   0.011   3.605
  999SOL     OW 3895   0.272   4.834   6.514
  999SOL    HW1 3896   0.238   4.781   6.437
  999SOL    HW2 3897   0.261   4.931   6.496
 1000SOL     OW 3898   4.104   1.511   5.660
 1000SOL    HW1 3899   4.036   1.581   5.639
 1000SOL    HW2 3900   4.064   1.420   5.648
 1001SOL     OW 3901   5.604   0.545   4.906
 1001SOL    HW1 3902   5.629   0.492   4.987
 1001SOL    HW2 3903   5.576   0.637   4.933
 1002SOL     OW 3904   0.020   1.876   0.102
 1002SOL    HW1 3905   6.962   1.823   0.085
 1002SOL    HW2 3906   0.099   1.827   0.064
 1003SOL     OW 3907   5.001   5.064   1.947
 1003SOL    HW1 3908   4.970   5.063   2.042
 1003SOL    HW2 3909   5.057   5.146   1.932
 1004SOL     OW 3910   6.290   5.958   6.760
 1004SOL    HW1 3911   6.389   5.966   6.750
 1004SOL    HW2 3912   6.246   6.044   6.733
 1005SOL     OW 3913   5.002   6.871   2.616
 1005SOL    HW1 3914   4.919   6.914   2.579
 1005SOL    HW2 3915   4.996   6.772   2.604
 1006SOL     OW 3916   1.838   5.824   0.105
 1006SOL    HW1 3917   1.925   5.836   0.058
 1006SOL    HW2 3918   1.843   5.744   0.165
 1007SOL     OW 3919   5.912   2.734   2.358
 1007SOL    HW1 3920   5.899   2.805   2.426
 1007SOL    HW2 3921   5.959   2.772   2.278
 1008SOL     OW 3922   3.430   1.070   5.274
 1008SOL    HW1 3923   3.437   1.139   5.345
 1008SOL    HW2 3924   3.397   0.984   5.313
 1009SOL     OW 3925   3.143   6.599   5.582
 1009SOL    HW1 3926   3.070   6.577   5.518
 1009SOL    HW2 3927   3.120   6.683   5.631
 1010SOL     OW 3928   4.984   6.096   6.084
 1010SOL    HW1 3929   5.032   6.011   6.106
 1010SOL    HW2 3930   4.929   6.084   6.002
 1011SOL     OW 3931   2.608   4.952   4.517
 1011SOL    HW1 3932   2.604   5.038   4.568
 1011SOL    HW2 3933   2.703   4.933   4.491
 1012SOL     OW 3934   2.880   5.753   0.638
 1012SOL    HW1 3935   2.912   5.836   0.685
 1012SOL    HW2 3936   2.936   5.675   0.667
 1013SOL     OW 3937   1.081   0.331   1.208
 1013SOL    HW1 3938   1.013   0.286   1.150
 1013SOL    HW2 3939   1.155   0.266   1.229
 1014SOL     OW 3940   6.164   6.183   6.698
 1014SOL    HW1 3941   6.180   6.278   6.727
 1014SOL    HW2 3942   6.082   6.180   6.641
 1015SOL     OW 3943   2.509   0.190   4.902
 1015SOL    HW1 3944   2.580   0.190   4.973
 1015SOL    HW2 3945   2.420   0.205   4.945
 1016SOL     OW 3946   4.081   3.047   1.775
 1016SOL    HW1 3947   4.012   3.091   1.833
 1016SOL    HW2 3948   4.126   3.117   1.718
 1017SOL     OW 3949   5.083   6.933   5.602
 1017SOL    HW1 3950   5.079   0.000   5.563
 1017SOL    HW2 3951   5.130   6.936   5.690
 1018SOL     OW 3952   1.147   1.870   1.800
 1018SOL    HW1 3953   1.186   1.862   1.891
 1018SOL    HW2 3954   1.063   1.925   1.804
 1019SOL     OW 3955   6.327   0.824   6.278
 1019SOL    HW1 3956   6.300   0.765   6.354
 1019SOL    HW2 3957   6.317   0.774   6.192
 1020SOL     OW 3958   3.348   1.662   1.043
 1020SOL    HW1 3959   3.299   1.633   1.125
 1020SOL    HW2 3960   3.354   1.761   1.040
 1021SOL     OW 3961   4.852   1.466   1.516
 1021SOL    HW1 3962   4.760   1.445   1.483
 1021SOL    HW2 3963   4.870   1.414   1.600
 1022SOL     OW 3964   2.532   3.846   6.783
 1022SOL    HW1 3965   2.617   3.829   6.733
 1022SOL    HW2 3966   2.454   3.829   6.724
 1023SOL     OW 3967   6.891   1.187   4.193
 1023SOL    HW1 3968   6.867   1.211   4.286
 1023SOL    HW2 3969   6.819   1.131   4.153
 1024SOL     OW 3970   6.614   2.874   4.183
 1024SOL    HW1 3971   6.603   2.958   4.131
 1024SOL    HW2 3972   6.689   2.885   4.249
 1025SOL     OW 3973   2.396   4.198   1.226
 1025SOL    HW1 3974   2.425   4.146   1.306
 1025SOL    HW2 3975   2.466   4.266   1.203
 1026SOL     OW 3976   0.673   3.241   6.673
 1026SOL    HW1 3977   0.712   3.149   6.677
 1026SOL    HW2 3978   0.577   3.238   6.702
 1027SOL     OW 3979   1.790   4.674   1.390
 1027SOL    HW1 3980   1.706   4.686   1.337
 1027SOL    HW2 3981   1.866   4.652   1.329
 1028SOL     OW 3982   0.743   4.770   0.432
 1028SOL    HW1 3983   0.686   4.694   0.462
 1028SOL    HW2 3984   0.830   4.768   0.481
 1029SOL     OW 3985   3.929   0.665   4.519
 1029SOL    HW1 3986   3.907   0.763   4.510
 1029SOL    HW2 3987   3.867   0.623   4.586
 1030SOL     OW 3988   4.300   4.720   4.777
 1030SOL    HW1 3989   4.231   4.778   4.820
 1030SOL    HW2 3990   4.319   4.641   4.836
 1031SOL     OW 3991   2.564   5.814   0.878
 1031SOL    HW1 3992   2.656   5.787   0.850
 1031SOL    HW2 3993   2.506   5.823   0.797
 1032SOL     OW 3994   1.274   2.924   4.882
 1032SOL    HW1 3995   1.342   2.990   4.912
 1032SOL    HW2 3996   1.310   2.831   4.892
 1033SOL     OW 3997   3.233   6.516   2.022
 1033SOL    HW1 3998   3.283   6.599   1.997
 1033SOL    HW2 3999   3.297   6.439   2.030
 1034SOL     OW 4000   0.309   5.379   3.155
 1034SOL    HW1 4001   0.355   5.466   3.139
 1034SOL    HW2 4002   0.310   5.358   3.253
 1035SOL     OW 4003   2.807   1.741   3.334
 1035SOL    HW1 4004   2.793   1.790   3.420
 1035SOL    HW2 4005   2.813   1.806   3.259
 1036SOL     OW 4006   4.450   6.402   6.512
 1036SOL    HW1 4007   4.387   6.343   6.461
 1036SOL    HW2 4008   4.487   6.352   6.590
 1037SOL     OW 4009   4.301   1.043   6.003
 1037SOL    HW1 4010   4.319   1.127   5.953
 1037SOL    HW2 4011   4.235   1.061   6.076
 1038SOL     OW 4012   2.923   1.641   4.927
 1038SOL    HW1 4013   2.897   1.692   4.845
 1038SOL    HW2 4014   2.895   1.692   5.009
 1039SOL     OW 4015   5.492   1.962   2.193
 1039SOL    HW1 4016   5.419   1.970   2.261
 1039SOL    HW2 4017   5.570   2.018   2.220
 1040SOL     OW 4018   6.230   4.994   4.865
 1040SOL    HW1 4019   6.269   5.076   4.908
 1040SOL    HW2 4020   6.264   4.987   4.772
 1041SOL     OW 4021   1.627   0.277   4.663
 1041SOL    HW1 4022   1.693   0.294   4.589
 1041SOL    HW2 4023   1.663   0.316   4.748
 1042SOL     OW 4024   4.049   5.092   0.700
 1042SOL    HW1 4025   4.000   5.022   0.647
 1042SOL    HW2 4026   4.146   5.067   0.706
 1043SOL     OW 4027   4.526   0.406   6.122
 1043SOL    HW1 4028   4.545   0.391   6.025
 1043SOL    HW2 4029   4.522   0.318   6.169
 1044SOL     OW 4030   4.167   3.557   3.977
 1044SOL    HW1 4031   4.226   3.562   4.057
 1044SOL    HW2 4032   4.128   3.647   3.957
 1045SOL     OW 4033   1.948   1.182   2.836
 1045SOL    HW1 4034   1.929   1.097   2.787
 1045SOL    HW2 4035   2.029   1.226   2.798
 1046SOL     OW 4036   2.552   0.861   2.163
 1046SOL    HW1 4037   2.553   0.951   2.207
 1046SOL    HW2 4038   2.504   0.866   2.076
 1047SOL     OW 4039   0.538   6.638   2.420
 1047SOL    HW1 4040   0.451   6.622   2.467
 1047SOL    HW2 4041   0.586   6.551   2.409
 1048SOL     OW 4042   6.859   4.033   4.953
 1048SOL    HW1 4043   6.766   4.051   4.920
 1048SOL    HW2 4044   6.895   3.951   4.909
 1049SOL     OW 4045   0.808   3.752   5.480
 1049SOL    HW1 4046   0.732   3.693   5.508
 1049SOL    HW2 4047   0.792   3.783   5.386
 1050SOL     OW 4048   3.013   0.399   1.478
 1050SOL    HW1 4049   3.039   0.462   1.551
 1050SOL    HW2 4050   3.077   0.408   1.402
 1051SOL     OW 4051   5.014   3.374   2.095
 1051SOL    HW1 4052   4.972   3.415   2.015
 1051SOL    HW2 4053   5.092   3.429   2.124
 1052SOL     OW 4054   1.888   6.262   3.659
 1052SOL    HW1 4055   1.945   6.333   3.701
 1052SOL    HW2 4056   1.902   6.263   3.560
 1053SOL     OW 4057   3.643   6.068   3.037
 1053SOL    HW1 4058   3.594   6.063   3.124
 1053SOL    HW2 4059   3.645   6.163   3.005
 1054SOL     OW 4060   3.185   5.673   5.459
 1054SOL    HW1 4061   3.130   5.590   5.455
 1054SOL    HW2 4062   3.265   5.657   5.517
 1055SOL     OW 4063   3.464   5.021   4.751
 1055SOL    HW1 4064   3.409   5.079   4.811
 1055SOL    HW2 4065   3.486   5.071   4.667
 1056SOL     OW 4066   3.192   6.061   0.498
 1056SOL    HW1 4067   3.179   5.998   0.421
 1056SOL    HW2 4068   3.243   6.015   0.571
 1057SOL     OW 4069   3.595   3.572   1.812
 1057SOL    HW1 4070   3.569   3.587   1.908
 1057SOL    HW2 4071   3.513   3.549   1.759
 1058SOL     OW 4072   2.632   0.590   2.158
 1058SOL    HW1 4073   2.662   0.551   2.245
 1058SOL    HW2 4074   2.615   0.688   2.169
 1059SOL     OW 4075   4.003   0.710   0.362
 1059SOL    HW1 4076   4.086   0.670   0.323
 1059SOL    HW2 4077   3.947   0.637   0.404
 1060SOL     OW 4078   3.974   1.512   4.187
 1060SOL    HW1 4079   3.924   1.558   4.114
 1060SOL    HW2 4080   4.056   1.563   4.210
 1061SOL     OW 4081   2.962   5.468   1.686
 1061SOL    HW1 4082   2.980   5.480   1.589
 1061SOL    HW2 4083   2.876   5.419   1.699
 1062SOL     OW 4084   6.295   4.176   5.439
 1062SOL    HW1 4085   6.235   4.249   5.470
 1062SOL    HW2 4086   6.319   4.117   5.516
 1063SOL     OW 4087   4.433   2.181   5.900
 1063SOL    HW1 4088   4.435   2.087   5.933
 1063SOL    HW2 4089   4.357   2.229   5.944
 1064SOL     OW 4090   0.180   2.776   2.287
 1064SOL    HW1 4091   0.156   2.857   2.234
 1064SOL    HW2 4092   0.112   2.705   2.272
 1065SOL     OW 4093   4.231   6.002   0.124
 1065SOL    HW1 4094   4.241   6.030   0.220
 1065SOL    HW2 4095   4.302   5.936   0.101
 1066SOL     OW 4096   5.046   6.076   3.515
 1066SOL    HW1 4097   4.973   6.010   3.499
 1066SOL    HW2 4098   5.127   6.050   3.464
 1067SOL     OW 4099   3.723   4.724   0.538
 1067SOL    HW1 4100   3.768   4.659   0.476
 1067SOL    HW2 4101   3.626   4.729   0.516
 1068SOL     OW 4102   1.020   5.310   2.401
 1068SOL    HW1 4103   1.044   5.223   2.444
 1068SOL    HW2 4104   1.091   5.377   2.419
 1069SOL     OW 4105   4.052   3.492   3.146
 1069SOL    HW1 4106   4.135   3.505   3.201
 1069SOL    HW2 4107   4.003   3.578   3.139
 1070SOL     OW 4108   1.478   6.556   0.419
 1070SOL    HW1 4109   1.393   6.574   0.470
 1070SOL    HW2 4110   1.554   6.546   0.483
 1071SOL     OW 4111   4.588   4.939   3.839
 1071SOL    HW1 4112   4.572   5.010   3.908
 1071SOL    HW2 4113   4.683   4.945   3.807
 1072SOL     OW 4114   4.631   5.309   3.517
 1072SOL    HW1 4115   4.633   5.283   3.613
 1072SOL    HW2 4116   4.724   5.316   3.482
 1073SOL     OW 4117   3.035   5.486   3.869
 1073SOL    HW1 4118   3.115   5.453   3.919
 1073SOL    HW2 4119   2.954   5.481   3.927
 1074SOL     OW 4120   2.777   4.742   3.966
 1074SOL    HW1 4121   2.757   4.742   4.064
 1074SOL    HW2 4122   2.705   4.693   3.917
 1075SOL     OW 4123   1.173   4.608   2.766
 1075SOL    HW1 4124   1.261   4.572   2.736
 1075SOL    HW2 4125   1.119   4.534   2.805
 1076SOL     OW 4126   5.167   3.840   3.682
 1076SOL    HW1 4127   5.105   3.780   3.733
 1076SOL    HW2 4128   5.133   3.934   3.686
 1077SOL     OW 4129   4.031   0.166   2.217
 1077SOL    HW1 4130   3.959   0.110   2.175
 1077SOL    HW2 4131   4.014   0.173   2.315
 1078SOL     OW 4132   5.659   2.531   1.629
 1078SOL    HW1 4133   5.687   2.516   1.534
 1078SOL    HW2 4134   5.612   2.450   1.662
 1079SOL     OW 4135   1.710   4.563   3.677
 1079SOL    HW1 4136   1.639   4.631   3.658
 1079SOL    HW2 4137   1.733   4.566   3.774
 1080SOL     OW 4138   2.825   5.479   4.024
 1080SOL    HW1 4139   2.757   5.452   3.956
 1080SOL    HW2 4140   2.814   5.422   4.106
 1081SOL     OW 4141   1.142   0.993   0.638
 1081SOL    HW1 4142   1.122   1.023   0.731
 1081SOL    HW2 4143   1.121   1.067   0.574
 1082SOL     OW 4144   2.318   0.917   1.407
 1082SOL    HW1 4145   2.344   1.011   1.430
 1082SOL    HW2 4146   2.224   0.900   1.436
 1083SOL     OW 4147   3.541   4.150   2.030
 1083SOL    HW1 4148   3.467   4.208   2.063
 1083SOL    HW2 4149   3.547   4.156   1.930
 1084SOL     OW 4150   5.726   3.933   0.953
 1084SOL    HW1 4151   5.736   3.988   0.870
 1084SOL    HW2 4152   5.779   3.849   0.945
 1085SOL     OW 4153   1.556   6.608   3.692
 1085SOL    HW1 4154   1.548   6.519   3.645
 1085SOL    HW2 4155   1.509   6.678   3.638
 1086SOL     OW 4156   3.138   6.699   2.769
 1086SOL    HW1 4157   3.058   6.659   2.724
 1086SOL    HW2 4158   3.135   6.799   2.759
 1087SOL     OW 4159   3.942   3.017   5.953
 1087SOL    HW1 4160   3.847   3.047   5.948
 1087SOL    HW2 4161   3.999   3.079   5.900
 1088SOL     OW 4162   6.841   5.525   2.198
 1088SOL    HW1 4163   6.806   5.618   2.191
 1088SOL    HW2 4164   6.828   5.478   2.111
 1089SOL     OW 4165   6.691   0.641   3.258
 1089SOL    HW1 4166   6.615   0.706   3.269
 1089SOL    HW2 4167   6.662   0.551   3.290
 1090SOL     OW 4168   3.101   1.853   0.039
 1090SOL    HW1 4169   3.136   1.943   0.013
 1090SOL    HW2 4170   3.018   1.865   0.095
 1091SOL     OW 4171   1.433   1.719   6.083
 1091SOL    HW1 4172   1.449   1.654   6.158
 1091SOL    HW2 4173   1.501   1.705   6.012
 1092SOL     OW 4174   2.818   5.444   0.950
 1092SOL    HW1 4175   2.765   5.435   1.034
 1092SOL    HW2 4176   2.865   5.533   0.949
 1093SOL     OW 4177   6.450   1.513   1.615
 1093SOL    HW1 4178   6.422   1.449   1.544
 1093SOL    HW2 4179   6.515   1.579   1.577
 1094SOL     OW 4180   0.547   6.436   3.073
 1094SOL    HW1 4181   0.521   6.370   3.144
 1094SOL    HW2 4182   0.470   6.451   3.012
 1095SOL     OW 4183   1.629   3.091   5.348
 1095SOL    HW1 4184   1.698   3.141   5.297
 1095SOL    HW2 4185   1.674   3.020   5.403
 1096SOL     OW 4186   3.509   2.785   1.916
 1096SOL    HW1 4187   3.523   2.692   1.884
 1096SOL    HW2 4188   3.444   2.832   1.855
 1097SOL     OW 4189   2.744   4.480   5.901
 1097SOL    HW1 4190   2.751   4.489   6.000
 1097SOL    HW2 4191   2.806   4.546   5.857
 1098SOL     OW 4192   3.007   6.975   2.334
 1098SOL    HW1 4193   2.990   6.883   2.370
 1098SOL    HW2 4194   2.991   0.017   2.406
 1099SOL     OW 4195   3.125   0.403   2.200
 1099SOL    HW1 4196   3.130   0.364   2.108
 1099SOL    HW2 4197   3.186   0.482   2.206
 1100SOL     OW 4198   0.095   0.679   0.546
 1100SOL    HW1 4199   0.068   0.655   0.453
 1100SOL    HW2 4200   0.124   0.774   0.550
 1101SOL     OW 4201   5.763   5.141   0.950
 1101SOL    HW1 4202   5.830   5.213   0.969
 1101SOL    HW2 4203   5.739   5.143   0.853
 1102SOL     OW 4204   0.354   4.747   4.137
 1102SOL    HW1 4205   0.384   4.684   4.208
 1102SOL    HW2 4206   0.261   4.725   4.109
 1103SOL     OW 4207   0.429   2.306   6.063
 1103SOL    HW1 4208   0.449   2.217   6.022
 1103SOL    HW2 4209   0.405   2.294   6.159
 1104SOL     OW 4210   2.803   5.253   5.525
 1104SOL    HW1 4211   2.712   5.224   5.497
 1104SOL    HW2 4212   2.872   5.201   5.474
 1105SOL     OW 4213   3.598   5.539   0.399
 1105SOL    HW1 4214   3.521   5.534   0.463
 1105SOL    HW2 4215   3.583   5.613   0.334
 1106SOL     OW 4216   0.976   2.327   6.608
 1106SOL    HW1 4217   1.012   2.401   6.552
 1106SOL    HW2 4218   0.897   2.286   6.562
 1107SOL     OW 4219   6.720   6.553   1.628
 1107SOL    HW1 4220   6.786   6.547   1.553
 1107SOL    HW2 4221   6.659   6.631   1.613
 1108SOL     OW 4222   1.250   1.138   6.668
 1108SOL    HW1 4223   1.327   1.146   6.605
 1108SOL    HW2 4224   1.255   1.051   6.717
 1109SOL     OW 4225   4.035   1.206   3.068
 1109SOL    HW1 4226   4.122   1.203   3.018
 1109SOL    HW2 4227   3.964   1.162   3.014
 1110SOL     OW 4228   4.088   3.517   3.431
 1110SOL    HW1 4229   4.059   3.502   3.526
 1110SOL    HW2 4230   4.090   3.615   3.412
 1111SOL     OW 4231   3.871   0.468   6.718
 1111SOL    HW1 4232   3.899   0.563   6.729
 1111SOL    HW2 4233   3.773   0.464   6.700
 1112SOL     OW 4234   0.304   1.381   2.842
 1112SOL    HW1 4235   0.377   1.322   2.808
 1112SOL    HW2 4236   0.215   1.348   2.810
 1113SOL     OW 4237   0.599   5.775   1.645
 1113SOL    HW1 4238   0.697   5.790   1.634
 1113SOL    HW2 4239   0.562   5.732   1.563
 1114SOL     OW 4240   5.804   0.777   5.317
 1114SOL    HW1 4241   5.847   0.686   5.310
 1114SOL    HW2 4242   5.860   0.843   5.267
 1115SOL     OW 4243   2.086   4.876   0.366
 1115SOL    HW1 4244   2.004   4.904   0.414
 1115SOL    HW2 4245   2.158   4.943   0.380
 1116SOL     OW 4246   3.248   6.627   6.298
 1116SOL    HW1 4247   3.214   6.541   6.335
 1116SOL    HW2 4248   3.337   6.613   6.255
 1117SOL     OW 4249   2.441   2.179   0.868
 1117SOL    HW1 4250   2.490   2.150   0.951
 1117SOL    HW2 4251   2.392   2.265   0.886
 1118SOL     OW 4252   1.611   1.774   1.424
 1118SOL    HW1 4253   1.555   1.826   1.489
 1118SOL    HW2 4254   1.701   1.757   1.464
 1119SOL     OW 4255   3.735   4.104   3.947
 1119SOL    HW1 4256   3.669   4.048   3.897
 1119SOL    HW2 4257   3.719   4.095   4.045
 1120SOL     OW 4258   3.078   1.136   3.087
 1120SOL    HW1 4259   3.069   1.060   3.023
 1120SOL    HW2 4260   3.016   1.210   3.062
 1121SOL     OW 4261   4.878   3.818   2.398
 1121SOL    HW1 4262   4.950   3.761   2.359
 1121SOL    HW2 4263   4.914   3.910   2.416
 1122SOL     OW 4264   4.652   4.819   0.397
 1122SOL    HW1 4265   4.719   4.893   0.394
 1122SOL    HW2 4266   4.696   4.737   0.433
 1123SOL     OW 4267   4.515   0.293   2.147
 1123SOL    HW1 4268   4.524   0.314   2.049
 1123SOL    HW2 4269   4.475   0.371   2.194
 1124SOL     OW 4270   2.400   5.231   3.512
 1124SOL    HW1 4271   2.401   5.164   3.438
 1124SOL    HW2 4272   2.466   5.205   3.582
 1125SOL     OW 4273   3.686   4.317   6.038
 1125SOL    HW1 4274   3.708   4.388   5.972
 1125SOL    HW2 4275   3.722   4.343   6.128
 1126SOL     OW 4276   5.995   0.677   2.399
 1126SOL    HW1 4277   5.997   0.771   2.434
 1126SOL    HW2 4278   5.936   0.673   2.319
 1127SOL     OW 4279   2.505   5.612   6.215
 1127SOL    HW1 4280   2.594   5.610   6.262
 1127SOL    HW2 4281   2.475   5.707   6.205
 1128SOL     OW 4282   3.427   1.220   5.492
 1128SOL    HW1 4283   3.331   1.231   5.517
 1128SOL    HW2 4284   3.476   1.306   5.508
 1129SOL     OW 4285   4.139   5.499   6.888
 1129SOL    HW1 4286   4.161   5.490   6.791
 1129SOL    HW2 4287   4.224   5.502   6.941
 1130SOL     OW 4288   1.098   5.846   5.580
 1130SOL    HW1 4289   1.081   5.916   5.511
 1130SOL    HW2 4290   1.150   5.885   5.656
 1131SOL     OW 4291   1.140   4.150   5.749
 1131SOL    HW1 4292   1.110   4.122   5.658
 1131SOL    HW2 4293   1.220   4.211   5.740
 1132SOL     OW 4294   5.298   6.947   4.225
 1132SOL    HW1 4295   5.212   6.982   4.190
 1132SOL    HW2 4296   5.281   6.888   4.304
 1133SOL     OW 4297   6.646   1.912   0.156
 1133SOL    HW1 4298   6.690   1.887   0.070
 1133SOL    HW2 4299   6.700   1.879   0.232
 1134SOL     OW 4300   0.489   4.128   5.967
 1134SOL    HW1 4301   0.500   4.044   6.020
 1134SOL    HW2 4302   0.569   4.186   5.979
 1135SOL     OW 4303   6.993   1.954   4.485
 1135SOL    HW1 4304   6.894   1.941   4.479
 1135SOL    HW2 4305   7.020   1.955   4.581
 1136SOL     OW 4306   4.488   5.520   3.746
 1136SOL    HW1 4307   4.494   5.562   3.655
 1136SOL    HW2 4308   4.537   5.432   3.746
 1137SOL     OW 4309   0.409   0.860   6.432
 1137SOL    HW1 4310   0.498   0.829   6.397
 1137SOL    HW2 4311   0.360   0.909   6.360
 1138SOL     OW 4312   0.572   2.062   5.621
 1138SOL    HW1 4313   0.507   2.134   5.644
 1138SOL    HW2 4314   0.613   2.026   5.705
 1139SOL     OW 4315   0.332   0.527   2.757
 1139SOL    HW1 4316   0.354   0.622   2.739
 1139SOL    HW2 4317   0.402   0.468   2.715
 1140SOL     OW 4318   4.150   2.209   2.806
 1140SOL    HW1 4319   4.209   2.269   2.859
 1140SOL    HW2 4320   4.205   2.138   2.761
 1141SOL     OW 4321   0.666   0.371   5.345
 1141SOL    HW1 4322   0.696   0.277   5.329
 1141SOL    HW2 4323   0.622   0.406   5.262
 1142SOL     OW 4324   5.673   6.374   5.452
 1142SOL    HW1 4325   5.592   6.424   5.422
 1142SOL    HW2 4326   5.755   6.416   5.413
 1143SOL     OW 4327   5.102   2.020   1.230
 1143SOL    HW1 4328   5.124   1.927   1.259
 1143SOL    HW2 4329   5.045   2.017   1.148
 1144SOL     OW 4330   1.205   6.838   4.564
 1144SOL    HW1 4331   1.246   6.747   4.560
 1144SOL    HW2 4332   1.119   6.833   4.616
 1145SOL     OW 4333   3.617   4.981   4.992
 1145SOL    HW1 4334   3.586   5.028   4.909
 1145SOL    HW2 4335   3.539   4.968   5.054
 1146SOL     OW 4336   6.135   2.447   1.964
 1146SOL    HW1 4337   6.199   2.523   1.976
 1146SOL    HW2 4338   6.170   2.385   1.894
 1147SOL     OW 4339   6.726   4.196   3.011
 1147SOL    HW1 4340   6.761   4.273   3.065
 1147SOL    HW2 4341   6.788   4.179   2.934
 1148SOL     OW 4342   6.730   6.333   5.820
 1148SOL    HW1 4343   6.827   6.314   5.804
 1148SOL    HW2 4344   6.721   6.389   5.903
 1149SOL     OW 4345   4.906   3.506   2.511
 1149SOL    HW1 4346   5.005   3.515   2.510
 1149SOL    HW2 4347   4.864   3.595   2.495
 1150SOL     OW 4348   3.219   5.596   5.046
 1150SOL    HW1 4349   3.134   5.550   5.022
 1150SOL    HW2 4350   3.200   5.670   5.111
 1151SOL     OW 4351   1.753   5.685   0.931
 1151SOL    HW1 4352   1.836   5.670   0.985
 1151SOL    HW2 4353   1.763   5.767   0.876
 1152SOL     OW 4354   0.098   0.516   3.631
 1152SOL    HW1 4355   0.093   0.563   3.543
 1152SOL    HW2 4356   0.155   0.434   3.621
 1153SOL     OW 4357   1.026   4.546   1.498
 1153SOL    HW1 4358   1.073   4.459   1.489
 1153SOL    HW2 4359   1.068   4.614   1.438
 1154SOL     OW 4360   1.915   3.982   1.989
 1154SOL    HW1 4361   1.926   4.081   1.980
 1154SOL    HW2 4362   1.915   3.957   2.086
 1155SOL     OW 4363   5.069   1.548   2.064
 1155SOL    HW1 4364   5.027   1.603   1.993
 1155SOL    HW2 4365   5.154   1.508   2.030
 1156SOL     OW 4366   2.805   1.446   3.694
 1156SOL    HW1 4367   2.835   1.531   3.738
 1156SOL    HW2 4368   2.868   1.422   3.620
 1157SOL     OW 4369   1.871   3.225   3.047
 1157SOL    HW1 4370   1.900   3.297   3.110
 1157SOL    HW2 4371   1.891   3.253   2.953
 1158SOL     OW 4372   4.424   5.284   5.290
 1158SOL    HW1 4373   4.509   5.276   5.237
 1158SOL    HW2 4374   4.379   5.194   5.294
 1159SOL     OW 4375   6.529   4.918   3.308
 1159SOL    HW1 4376   6.548   4.820   3.315
 1159SOL    HW2 4377   6.434   4.936   3.333
 1160SOL     OW 4378   3.089   2.054   1.876
 1160SOL    HW1 4379   3.138   2.018   1.797
 1160SOL    HW2 4380   3.027   2.127   1.846
 1161SOL     OW 4381   4.283   1.991   2.723
 1161SOL    HW1 4382   4.372   1.950   2.706
 1161SOL    HW2 4383   4.212   1.920   2.723
 1162SOL     OW 4384   3.416   4.547   1.367
 1162SOL    HW1 4385   3.463   4.630   1.337
 1162SOL    HW2 4386   3.430   4.534   1.465
 1163SOL     OW 4387   5.025   6.770   3.438
 1163SOL    HW1 4388   4.950   6.711   3.408
 1163SOL    HW2 4389   5.092   6.716   3.488
 1164SOL     OW 4390   6.900   4.392   4.817
 1164SOL    HW1 4391   6.875   4.456   4.744
 1164SOL    HW2 4392   6.817   4.361   4.863
 1165SOL     OW 4393   0.390   5.187   2.330
 1165SOL    HW1 4394   0.348   5.243   2.259
 1165SOL    HW2 4395   0.321   5.164   2.399
 1166SOL     OW 4396   3.600   0.984   5.825
 1166SOL    HW1 4397   3.579   1.067   5.775
 1166SOL    HW2 4398   3.537   0.974   5.902
 1167SOL     OW 4399   4.919   1.059   5.514
 1167SOL    HW1 4400   4.852   1.051   5.440
 1167SOL    HW2 4401   4.899   0.992   5.585
 1168SOL     OW 4402   5.781   1.571   4.433
 1168SOL    HW1 4403   5.710   1.591   4.500
 1168SOL    HW2 4404   5.846   1.647   4.429
 1169SOL     OW 4405   1.781   2.608   1.020
 1169SOL    HW1 4406   1.874   2.588   0.988
 1169SOL    HW2 4407   1.764   2.562   1.107
 1170SOL     OW 4408   2.344   1.198   1.361
 1170SOL    HW1 4409   2.296   1.245   1.287
 1170SOL    HW2 4410   2.351   1.259   1.441
 1171SOL     OW 4411   5.323   0.358   0.666
 1171SOL    HW1 4412   5.342   0.454   0.684
 1171SOL    HW2 4413   5.242   0.351   0.607
 1172SOL     OW 4414   2.985   3.509   5.767
 1172SOL    HW1 4415   2.976   3.587   5.706
 1172SOL    HW2 4416   3.024   3.539   5.854
 1173SOL     OW 4417   4.839   5.688   6.992
 1173SOL    HW1 4418   4.870   5.658   6.901
 1173SOL    HW2 4419   4.778   5.618   0.005
 1174SOL     OW 4420   4.453   6.568   5.778
 1174SOL    HW1 4421   4.479   6.661   5.753
 1174SOL    HW2 4422   4.353   6.561   5.778
 1175SOL     OW 4423   6.962   5.415   5.334
 1175SOL    HW1 4424   6.865   5.426   5.358
 1175SOL    HW2 4425   6.987   5.318   5.341
 1176SOL     OW 4426   6.029   3.132   1.375
 1176SOL    HW1 4427   6.088   3.053   1.360
 1176SOL    HW2 4428   5.935   3.108   1.353
 1177SOL     OW 4429   6.964   3.484   4.956
 1177SOL    HW1 4430   6.984   3.394   4.994
 1177SOL    HW2 4431   7.010   3.494   4.868
 1178SOL     OW 4432   4.974   4.614   2.086
 1178SOL    HW1 4433   4.949   4.532   2.034
 1178SOL    HW2 4434   5.048   4.661   2.039
 1179SOL     OW 4435   1.689   5.416   5.489
 1179SOL    HW1 4436   1.776   5.455   5.461
 1179SOL    HW2 4437   1.702   5.366   5.575
 1180SOL     OW 4438   2.266   1.393   4.592
 1180SOL    HW1 4439   2.177   1.346   4.587
 1180SOL    HW2 4440   2.271   1.463   4.521
 1181SOL     OW 4441   1.139   4.232   2.027
 1181SOL    HW1 4442   1.133   4.266   2.121
 1181SOL    HW2 4443   1.135   4.310   1.963
 1182SOL     OW 4444   7.016   4.053   3.755
 1182SOL    HW1 4445   0.008   3.955   3.744
 1182SOL    HW2 4446   0.023   4.102   3.674
 1183SOL     OW 4447   4.468   6.214   7.005
 1183SOL    HW1 4448   4.523   6.269   6.942
 1183SOL    HW2 4449   4.401   6.273   0.025
 1184SOL     OW 4450   4.435   3.583   6.626
 1184SOL    HW1 4451   4.511   3.577   6.691
 1184SOL    HW2 4452   4.392   3.493   6.616
 1185SOL     OW 4453   3.136   1.024   6.472
 1185SOL    HW1 4454   3.105   1.118   6.456
 1185SOL    HW2 4455   3.181   1.020   6.562
 1186SOL     OW 4456   4.085   6.518   5.290
 1186SOL    HW1 4457   4.168   6.529   5.344
 1186SOL    HW2 4458   4.011   6.482   5.348
 1187SOL     OW 4459   6.943   2.698   4.949
 1187SOL    HW1 4460   6.939   2.798   4.951
 1187SOL    HW2 4461   6.900   2.661   5.031
 1188SOL     OW 4462   2.346   0.837   4.873
 1188SOL    HW1 4463   2.246   0.843   4.868
 1188SOL    HW2 4464   2.373   0.741   4.874
 1189SOL     OW 4465   1.746   0.492   1.035
 1189SOL    HW1 4466   1.653   0.475   1.066
 1189SOL    HW2 4467   1.757   0.458   0.941
 1190SOL     OW 4468   2.847   6.261   1.283
 1190SOL    HW1 4469   2.897   6.245   1.368
 1190SOL    HW2 4470   2.750   6.274   1.302
 1191SOL     OW 4471   1.797   3.976   1.532
 1191SOL    HW1 4472   1.754   4.066   1.531
 1191SOL    HW2 4473   1.870   3.974   1.600
 1192SOL     OW 4474   4.011   6.015   2.308
 1192SOL    HW1 4475   4.109   6.034   2.322
 1192SOL    HW2 4476   3.984   5.939   2.367
 1193SOL     OW 4477   3.434   2.022   3.377
 1193SOL    HW1 4478   3.424   2.036   3.279
 1193SOL    HW2 4479   3.345   2.032   3.422
 1194SOL     OW 4480   7.018   3.039   2.027
 1194SOL    HW1 4481   6.950   2.968   2.042
 1194SOL    HW2 4482   0.026   3.073   2.115
 1195SOL     OW 4483   5.249   0.814   0.061
 1195SOL    HW1 4484   5.194   0.731   0.064
 1195SOL    HW2 4485   5.197   0.887   0.015
 1196SOL     OW 4486   1.676   5.475   3.939
 1196SOL    HW1 4487   1.580   5.469   3.911
 1196SOL    HW2 4488   1.691   5.418   4.020
 1197SOL     OW 4489   3.984   4.855   0.068
 1197SOL    HW1 4490   4.007   4.869   6.997
 1197SOL    HW2 4491   4.068   4.860   0.123
 1198SOL     OW 4492   3.046   1.688   3.006
 1198SOL    HW1 4493   2.984   1.661   3.079
 1198SOL    HW2 4494   3.098   1.769   3.034
 1199SOL     OW 4495   3.285   4.087   3.741
 1199SOL    HW1 4496   3.222   4.154   3.702
 1199SOL    HW2 4497   3.298   4.012   3.676
 1200SOL     OW 4498   4.370   3.810   1.369
 1200SOL    HW1 4499   4.462   3.825   1.407
 1200SOL    HW2 4500   4.306   3.876   1.409
 1201SOL     OW 4501   2.021   1.604   5.258
 1201SOL    HW1 4502   2.046   1.507   5.264
 1201SOL    HW2 4503   1.929   1.617   5.295
 1202SOL     OW 4504   5.335   6.059   4.545
 1202SOL    HW1 4505   5.301   6.101   4.629
 1202SOL    HW2 4506   5.434   6.052   4.549
 1203SOL     OW 4507   5.041   0.193   1.810
 1203SOL    HW1 4508   5.125   0.210   1.758
 1203SOL    HW2 4509   5.056   0.221   1.905
 1204SOL     OW 4510   2.385   6.944   0.373
 1204SOL    HW1 4511   2.335   6.881   0.313
 1204SOL    HW2 4512   2.459   6.988   0.321
 1205SOL     OW 4513   0.940   2.766   6.512
 1205SOL    HW1 4514   0.957   2.735   6.606
 1205SOL    HW2 4515   0.975   2.697   6.448
 1206SOL     OW 4516   6.305   2.184   5.424
 1206SOL    HW1 4517   6.288   2.248   5.499
 1206SOL    HW2 4518   6.372   2.116   5.453
 1207SOL     OW 4519   5.558   5.804   5.590
 1207SOL    HW1 4520   5.567   5.705   5.582
 1207SOL    HW2 4521   5.544   5.844   5.499
 1208SOL     OW 4522   3.984   3.102   3.610
 1208SOL    HW1 4523   4.081   3.116   3.592
 1208SOL    HW2 4524   3.966   3.112   3.708
 1209SOL     OW 4525   0.418   3.412   4.624
 1209SOL    HW1 4526   0.362   3.468   4.685
 1209SOL    HW2 4527   0.506   3.457   4.608
 1210SOL     OW 4528   2.717   0.388   4.530
 1210SOL    HW1 4529   2.732   0.341   4.443
 1210SOL    HW2 4530   2.681   0.323   4.597
 1211SOL     OW 4531   6.677   4.401   3.758
 1211SOL    HW1 4532   6.657   4.497   3.780
 1211SOL    HW2 4533   6.594   4.347   3.768
 1212SOL     OW 4534   1.224   3.040   2.426
 1212SOL    HW1 4535   1.253   3.136   2.422
 1212SOL    HW2 4536   1.304   2.981   2.419
 1213SOL     OW 4537   6.520   4.036   5.233
 1213SOL    HW1 4538   6.546   4.064   5.141
 1213SOL    HW2 4539   6.423   4.010   5.234
 1214SOL     OW 4540   0.485   2.080   0.673
 1214SOL    HW1 4541   0.412   2.139   0.641
 1214SOL    HW2 4542   0.567   2.095   0.617
 1215SOL     OW 4543   0.931   0.249   2.069
 1215SOL    HW1 4544   0.891   0.165   2.033
 1215SOL    HW2 4545   0.965   0.233   2.161
 1216SOL     OW 4546   1.852   0.467   0.434
 1216SOL    HW1 4547   1.834   0.558   0.471
 1216SOL    HW2 4548   1.941   0.435   0.467
 1217SOL     OW 4549   0.868   3.012   3.297
 1217SOL    HW1 4550   0.864   2.921   3.337
 1217SOL    HW2 4551   0.787   3.064   3.323
 1218SOL     OW 4552   0.126   4.650   4.079
 1218SOL    HW1 4553   0.118   4.656   3.979
 1218SOL    HW2 4554   0.056   4.587   4.114
 1219SOL     OW 4555   1.707   5.529   2.666
 1219SOL    HW1 4556   1.677   5.583   2.744
 1219SOL    HW2 4557   1.703   5.585   2.583
 1220SOL     OW 4558   5.863   4.956   2.925
 1220SOL    HW1 4559   5.841   4.988   2.833
 1220SOL    HW2 4560   5.818   5.015   2.992
 1221SOL     OW 4561   4.538   5.344   0.787
 1221SOL    HW1 4562   4.559   5.421   0.847
 1221SOL    HW2 4563   4.464   5.370   0.725
 1222SOL     OW 4564   6.983   4.870   1.374
 1222SOL    HW1 4565   6.906   4.811   1.398
 1222SOL    HW2 4566   6.980   4.953   1.431
 1223SOL     OW 4567   1.332   3.888   4.679
 1223SOL    HW1 4568   1.426   3.921   4.671
 1223SOL    HW2 4569   1.329   3.790   4.656
 1224SOL     OW 4570   4.053   5.433   1.674
 1224SOL    HW1 4571   4.008   5.347   1.699
 1224SOL    HW2 4572   4.104   5.419   1.589
 1225SOL     OW 4573   5.129   2.003   6.456
 1225SOL    HW1 4574   5.176   2.092   6.455
 1225SOL    HW2 4575   5.174   1.943   6.523
 1226SOL     OW 4576   5.753   5.792   1.349
 1226SOL    HW1 4577   5.658   5.763   1.359
 1226SOL    HW2 4578   5.802   5.728   1.289
 1227SOL     OW 4579   6.669   4.522   0.763
 1227SOL    HW1 4580   6.677   4.479   0.853
 1227SOL    HW2 4581   6.593   4.587   0.764
 1228SOL     OW 4582   4.042   3.643   4.943
 1228SOL    HW1 4583   3.964   3.591   4.977
 1228SOL    HW2 4584   4.111   3.581   4.908
 1229SOL     OW 4585   1.820   5.022   1.707
 1229SOL    HW1 4586   1.900   5.075   1.736
 1229SOL    HW2 4587   1.847   4.953   1.640
 1230SOL     OW 4588   5.773   4.637   0.420
 1230SOL    HW1 4589   5.711   4.613   0.495
 1230SOL    HW2 4590   5.829   4.557   0.397
 1231SOL     OW 4591   1.763   0.761   1.372
 1231SOL    HW1 4592   1.686   0.703   1.344
 1231SOL    HW2 4593   1.741   0.804   1.460
 1232SOL     OW 4594   1.840   1.986   5.936
 1232SOL    HW1 4595   1.934   1.959   5.954
 1232SOL    HW2 4596   1.806   2.040   6.013
 1233SOL     OW 4597   0.422   5.633   5.455
 1233SOL    HW1 4598   0.327   5.618   5.480
 1233SOL    HW2 4599   0.436   5.608   5.360
 1234SOL     OW 4600   6.903   4.609   5.078
 1234SOL    HW1 4601   6.811   4.640   5.101
 1234SOL    HW2 4602   6.901   4.514   5.047
 1235SOL     OW 4603   6.622   4.995   0.089
 1235SOL    HW1 4604   6.567   5.016   0.170
 1235SOL    HW2 4605   6.635   5.079   0.035
 1236SOL     OW 4606   7.014   0.843   3.073
 1236SOL    HW1 4607   6.967   0.847   2.985
 1236SOL    HW2 4608   6.959   0.890   3.143
 1237SOL     OW 4609   0.700   0.624   5.459
 1237SOL    HW1 4610   0.685   0.532   5.423
 1237SOL    HW2 4611   0.787   0.659   5.425
 1238SOL     OW 4612   0.002   0.577   4.256
 1238SOL    HW1 4613   0.015   0.662   4.205
 1238SOL    HW2 4614   6.944   0.584   4.312
 1239SOL     OW 4615   4.500   5.330   3.279
 1239SOL    HW1 4616   4.566   5.326   3.354
 1239SOL    HW2 4617   4.407   5.337   3.316
 1240SOL     OW 4618   1.096   3.536   2.192
 1240SOL    HW1 4619   1.149   3.604   2.243
 1240SOL    HW2 4620   1.042   3.582   2.121
 1241SOL     OW 4621   2.775   5.450   6.301
 1241SOL    HW1 4622   2.780   5.362   6.254
 1241SOL    HW2 4623   2.792   5.524   6.235
 1242SOL     OW 4624   2.255   6.046   0.589
 1242SOL    HW1 4625   2.224   5.955   0.618
 1242SOL    HW2 4626   2.217   6.067   0.499
 1243SOL     OW 4627   1.272   4.332   4.025
 1243SOL    HW1 4628   1.197   4.328   3.958
 1243SOL    HW2 4629   1.254   4.268   4.099
 1244SOL     OW 4630   6.167   6.069   5.187
 1244SOL    HW1 4631   6.207   6.090   5.276
 1244SOL    HW2 4632   6.225   6.002   5.140
 1245SOL     OW 4633   3.697   6.425   1.402
 1245SOL    HW1 4634   3.613   6.433   1.348
 1245SOL    HW2 4635   3.674   6.429   1.499
 1246SOL     OW 4636   5.044   2.390   3.285
 1246SOL    HW1 4637   5.054   2.307   3.229
 1246SOL    HW2 4638   5.116   2.455   3.261
 1247SOL     OW 4639   4.591   5.980   2.513
 1247SOL    HW1 4640   4.568   5.930   2.596
 1247SOL    HW2 4641   4.539   6.065   2.509
 1248SOL     OW 4642   0.179   0.509   5.130
 1248SOL    HW1 4643   0.265   0.545   5.165
 1248SOL    HW2 4644   0.135   0.452   5.199
 1249SOL     OW 4645   6.703   6.981   0.281
 1249SOL    HW1 4646   6.772   6.989   0.353
 1249SOL    HW2 4647   6.621   6.937   0.317
 1250SOL     OW 4648   1.140   4.128   5.212
 1250SOL    HW1 4649   1.239   4.133   5.195
 1250SOL    HW2 4650   1.095   4.207   5.169
 1251SOL     OW 4651   1.764   0.203   4.049
 1251SOL    HW1 4652   1.830   0.226   4.121
 1251SOL    HW2 4653   1.760   0.278   3.983
 1252SOL     OW 4654   3.495   4.425   6.635
 1252SOL    HW1 4655   3.594   4.414   6.622
 1252SOL    HW2 4656   3.451   4.335   6.636
 1253SOL     OW 4657   2.662   5.112   0.519
 1253SOL    HW1 4658   2.707   5.116   0.608
 1253SOL    HW2 4659   2.574   5.158   0.524
 1254SOL     OW 4660   6.470   1.353   4.733
 1254SOL    HW1 4661   6.538   1.324   4.665
 1254SOL    HW2 4662   6.406   1.278   4.749
 1255SOL     OW 4663   5.779   2.197   6.745
 1255SOL    HW1 4664   5.879   2.192   6.738
 1255SOL    HW2 4665   5.754   2.272   6.805
 1256SOL     OW 4666   0.140   6.307   6.313
 1256SOL    HW1 4667   0.127   6.285   6.409
 1256SOL    HW2 4668   0.163   6.224   6.262
 1257SOL     OW 4669   6.828   6.185   2.216
 1257SOL    HW1 4670   6.809   6.129   2.136
 1257SOL    HW2 4671   6.877   6.268   2.188
 1258SOL     OW 4672   4.957   4.723   6.443
 1258SOL    HW1 4673   4.871   4.765   6.472
 1258SOL    HW2 4674   5.031   4.790   6.450
 1259SOL     OW 4675   6.323   6.970   4.355
 1259SOL    HW1 4676   6.327   6.907   4.433
 1259SOL    HW2 4677   6.415   6.981   4.317
 1260SOL     OW 4678   3.057   0.352   0.874
 1260SOL    HW1 4679   3.097   0.270   0.914
 1260SOL    HW2 4680   3.021   0.410   0.947
 1261SOL     OW 4681   1.026   3.430   5.055
 1261SOL    HW1 4682   0.979   3.389   5.133
 1261SOL    HW2 4683   1.076   3.360   5.005
 1262SOL     OW 4684   5.008   6.525   0.101
 1262SOL    HW1 4685   4.985   6.456   0.032
 1262SOL    HW2 4686   4.924   6.560   0.143
 1263SOL     OW 4687   6.713   0.823   1.466
 1263SOL    HW1 4688   6.644   0.882   1.425
 1263SOL    HW2 4689   6.673   0.734   1.487
 1264SOL     OW 4690   6.274   1.914   4.297
 1264SOL    HW1 4691   6.306   1.950   4.209
 1264SOL    HW2 4692   6.184   1.952   4.317
 1265SOL     OW 4693   6.548   6.228   3.225
 1265SOL    HW1 4694   6.510   6.162   3.161
 1265SOL    HW2 4695   6.476   6.259   3.288
 1266SOL     OW 4696   2.852   1.251   5.259
 1266SOL    HW1 4697   2.781   1.202   5.208
 1266SOL    HW2 4698   2.812   1.293   5.340
 1267SOL     OW 4699   0.086   4.238   2.116
 1267SOL    HW1 4700   7.017   4.236   2.081
 1267SOL    HW2 4701   0.099   4.318   2.173
 1268SOL     OW 4702   6.291   5.050   6.138
 1268SOL    HW1 4703   6.344   4.971   6.169
 1268SOL    HW2 4704   6.194   5.026   6.134
 1269SOL     OW 4705   1.229   3.477   5.752
 1269SOL    HW1 4706   1.291   3.446   5.825
 1269SOL    HW2 4707   1.160   3.539   5.791
 1270SOL     OW 4708   0.987   2.921   3.809
 1270SOL    HW1 4709   0.988   2.879   3.899
 1270SOL    HW2 4710   0.934   2.864   3.746
 1271SOL     OW 4711   5.323   4.304   3.308
 1271SOL    HW1 4712   5.233   4.262   3.315
 1271SOL    HW2 4713   5.316   4.392   3.259
 1272SOL     OW 4714   6.258   0.586   0.825
 1272SOL    HW1 4715   6.328   0.527   0.866
 1272SOL    HW2 4716   6.201   0.625   0.897
 1273SOL     OW 4717   2.857   6.292   4.268
 1273SOL    HW1 4718   2.819   6.344   4.192
 1273SOL    HW2 4719   2.905   6.212   4.233
 1274SOL     OW 4720   5.747   2.194   1.374
 1274SOL    HW1 4721   5.812   2.118   1.362
 1274SOL    HW2 4722   5.791   2.267   1.425
 1275SOL     OW 4723   3.624   0.645   3.329
 1275SOL    HW1 4724   3.574   0.564   3.296
 1275SOL    HW2 4725   3.565   0.697   3.391
 1276SOL     OW 4726   5.029   6.267   2.813
 1276SOL    HW1 4727   4.946   6.323   2.822
 1276SOL    HW2 4728   5.045   6.246   2.717
 1277SOL     OW 4729   0.375   1.687   5.241
 1277SOL    HW1 4730   0.328   1.742   5.310
 1277SOL    HW2 4731   0.346   1.716   5.150
 1278SOL     OW 4732   2.691   1.463   4.690
 1278SOL    HW1 4733   2.626   1.389   4.710
 1278SOL    HW2 4734   2.782   1.424   4.676
 1279SOL     OW 4735   1.752   4.692   0.727
 1279SOL    HW1 4736   1.717   4.604   0.759
 1279SOL    HW2 4737   1.821   4.726   0.790
 1280SOL     OW 4738   0.751   6.229   3.002
 1280SOL    HW1 4739   0.689   6.305   3.024
 1280SOL    HW2 4740   0.699   6.153   2.964
 1281SOL     OW 4741   1.196   6.515   4.273
 1281SOL    HW1 4742   1.270   6.514   4.205
 1281SOL    HW2 4743   1.155   6.607   4.276
 1282SOL     OW 4744   1.514   6.740   2.798
 1282SOL    HW1 4745   1.483   6.699   2.883
 1282SOL    HW2 4746   1.445   6.805   2.766
 1283SOL     OW 4747   5.863   4.525   5.408
 1283SOL    HW1 4748   5.832   4.525   5.313
 1283SOL    HW2 4749   5.813   4.594   5.459
 1284SOL     OW 4750   3.010   2.147   3.166
 1284SOL    HW1 4751   3.073   2.104   3.231
 1284SOL    HW2 4752   3.057   2.161   3.079
 1285SOL     OW 4753   5.980   2.351   5.921
 1285SOL    HW1 4754   5.993   2.449   5.939
 1285SOL    HW2 4755   6.064   2.314   5.882
 1286SOL     OW 4756   4.847   5.373   0.936
 1286SOL    HW1 4757   4.856   5.275   0.916
 1286SOL    HW2 4758   4.751   5.395   0.949
 1287SOL     OW 4759   6.023   3.655   6.198
 1287SOL    HW1 4760   5.964   3.722   6.154
 1287SOL    HW2 4761   6.118   3.671   6.170
 1288SOL     OW 4762   0.447   2.964   3.137
 1288SOL    HW1 4763   0.418   3.059   3.133
 1288SOL    HW2 4764   0.369   2.904   3.120
 1289SOL     OW 4765   0.602   5.257   3.295
 1289SOL    HW1 4766   0.567   5.338   3.341
 1289SOL    HW2 4767   0.678   5.283   3.235
 1290SOL     OW 4768   0.353   0.123   1.500
 1290SOL    HW1 4769   0.337   0.077   1.413
 1290SOL    HW2 4770   0.446   0.103   1.531
 1291SOL     OW 4771   1.438   5.597   1.704
 1291SOL    HW1 4772   1.383   5.546   1.770
 1291SOL    HW2 4773   1.414   5.694   1.707
 1292SOL     OW 4774   1.333   6.876   0.169
 1292SOL    HW1 4775   1.301   6.800   0.114
 1292SOL    HW2 4776   1.397   6.843   0.239
 1293SOL     OW 4777   6.723   1.283   6.309
 1293SOL    HW1 4778   6.754   1.231   6.229
 1293SOL    HW2 4779   6.711   1.220   6.386
 1294SOL     OW 4780   1.107   1.613   4.445
 1294SOL    HW1 4781   1.061   1.531   4.478
 1294SOL    HW2 4782   1.131   1.671   4.523
 1295SOL     OW 4783   5.135   4.288   0.403
 1295SOL    HW1 4784   5.110   4.384   0.404
 1295SOL    HW2 4785   5.063   4.233   0.446
 1296SOL     OW 4786   3.635   0.824   0.060
 1296SOL    HW1 4787   3.611   0.847   0.154
 1296SOL    HW2 4788   3.609   0.899   7.025
 1297SOL     OW 4789   5.685   0.776   5.919
 1297SOL    HW1 4790   5.718   0.713   5.990
 1297SOL    HW2 4791   5.724   0.749   5.830
 1298SOL     OW 4792   6.119   3.244   3.246
 1298SOL    HW1 4793   6.124   3.211   3.340
 1298SOL    HW2 4794   6.177   3.325   3.236
 1299SOL     OW 4795   1.974   4.488   4.576
 1299SOL    HW1 4796   2.034   4.515   4.501
 1299SOL    HW2 4797   1.990   4.392   4.600
 1300SOL     OW 4798   3.762   3.519   3.212
 1300SOL    HW1 4799   3.665   3.502   3.192
 1300SOL    HW2 4800   3.771   3.607   3.259
 1301SOL     OW 4801   0.443   0.762   1.678
 1301SOL    HW1 4802   0.457   0.719   1.589
 1301SOL    HW2 4803   0.532   0.787   1.717
 1302SOL     OW 4804   2.826   5.210   5.795
 1302SOL    HW1 4805   2.774   5.264   5.861
 1302SOL    HW2 4806   2.826   5.256   5.706
 1303SOL     OW 4807   2.508   0.151   1.850
 1303SOL    HW1 4808   2.541   0.176   1.759
 1303SOL    HW2 4809   2.585   0.123   1.907
 1304SOL     OW 4810   3.580   0.953   6.324
 1304SOL    HW1 4811   3.491   0.916   6.348
 1304SOL    HW2 4812   3.628   0.888   6.264
 1305SOL     OW 4813   6.011   6.631   4.414
 1305SOL    HW1 4814   6.101   6.636   4.372
 1305SOL    HW2 4815   5.942   6.664   4.350
 1306SOL     OW 4816   1.431   5.432   3.408
 1306SOL    HW1 4817   1.427   5.477   3.497
 1306SOL    HW2 4818   1.404   5.497   3.337
 1307SOL     OW 4819   0.911   0.688   5.319
 1307SOL    HW1 4820   0.995   0.642   5.288
 1307SOL    HW2 4821   0.866   0.731   5.240
 1308SOL     OW 4822   4.435   6.670   3.491
 1308SOL    HW1 4823   4.531   6.661   3.517
 1308SOL    HW2 4824   4.392   6.740   3.549
 1309SOL     OW 4825   6.439   2.777   4.382
 1309SOL    HW1 4826   6.499   2.783   4.302
 1309SOL    HW2 4827   6.351   2.820   4.361
 1310SOL     OW 4828   5.539   3.863   6.444
 1310SOL    HW1 4829   5.480   3.908   6.510
 1310SOL    HW2 4830   5.523   3.903   6.353
 1311SOL     OW 4831   5.547   4.628   0.596
 1311SOL    HW1 4832   5.562   4.724   0.621
 1311SOL    HW2 4833   5.463   4.621   0.542
 1312SOL     OW 4834   5.920   1.650   1.374
 1312SOL    HW1 4835   5.990   1.693   1.431
 1312SOL    HW2 4836   5.924   1.550   1.386
 1313SOL     OW 4837   4.649   5.072   4.527
 1313SOL    HW1 4838   4.559   5.107   4.501
 1313SOL    HW2 4839   4.639   4.992   4.586
 1314SOL     OW 4840   6.670   1.745   5.947
 1314SOL    HW1 4841   6.696   1.651   5.967
 1314SOL    HW2 4842   6.665   1.797   6.032
 1315SOL     OW 4843   1.102   6.816   3.831
 1315SOL    HW1 4844   1.162   6.892   3.807
 1315SOL    HW2 4845   1.158   6.737   3.859
 1316SOL     OW 4846   3.639   5.597   4.166
 1316SOL    HW1 4847   3.576   5.642   4.102
 1316SOL    HW2 4848   3.713   5.554   4.116
 1317SOL     OW 4849   0.195   3.556   3.178
 1317SOL    HW1 4850   0.133   3.491   3.134
 1317SOL    HW2 4851   0.178   3.555   3.277
 1318SOL     OW 4852   0.170   6.364   2.444
 1318SOL    HW1 4853   0.167   6.464   2.446
 1318SOL    HW2 4854   0.228   6.331   2.519
 1319SOL     OW 4855   0.237   6.834   0.570
 1319SOL    HW1 4856   0.191   6.919   0.547
 1319SOL    HW2 4857   0.213   6.807   0.663
 1320SOL     OW 4858   6.470   5.051   5.359
 1320SOL    HW1 4859   6.523   5.103   5.292
 1320SOL    HW2 4860   6.427   4.973   5.315
 1321SOL     OW 4861   3.441   1.089   1.315
 1321SOL    HW1 4862   3.376   1.165   1.320
 1321SOL    HW2 4863   3.456   1.065   1.220
 1322SOL     OW 4864   5.366   0.933   6.310
 1322SOL    HW1 4865   5.355   1.010   6.247
 1322SOL    HW2 4866   5.463   0.919   6.330
 1323SOL     OW 4867   6.601   0.382   4.615
 1323SOL    HW1 4868   6.653   0.464   4.591
 1323SOL    HW2 4869   6.570   0.337   4.532
 1324SOL     OW 4870   1.306   2.453   0.831
 1324SOL    HW1 4871   1.354   2.519   0.775
 1324SOL    HW2 4872   1.247   2.396   0.774
 1325SOL     OW 4873   5.035   5.021   3.047
 1325SOL    HW1 4874   5.120   5.072   3.060
 1325SOL    HW2 4875   4.975   5.035   3.126
 1326SOL     OW 4876   4.863   3.988   4.227
 1326SOL    HW1 4877   4.940   4.044   4.258
 1326SOL    HW2 4878   4.873   3.895   4.262
 1327SOL     OW 4879   3.446   5.985   3.768
 1327SOL    HW1 4880   3.455   5.984   3.868
 1327SOL    HW2 4881   3.358   5.945   3.742
 1328SOL     OW 4882   2.212   1.821   1.820
 1328SOL    HW1 4883   2.304   1.799   1.852
 1328SOL    HW2 4884   2.158   1.737   1.813
 1329SOL     OW 4885   1.140   5.661   1.709
 1329SOL    HW1 4886   1.196   5.658   1.792
 1329SOL    HW2 4887   1.140   5.571   1.666
 1330SOL     OW 4888   6.616   6.319   1.519
 1330SOL    HW1 4889   6.565   6.374   1.585
 1330SOL    HW2 4890   6.665   6.380   1.456
 1331SOL     OW 4891   1.006   1.898   1.498
 1331SOL    HW1 4892   0.917   1.908   1.455
 1331SOL    HW2 4893   0.999   1.917   1.596
 1332SOL     OW 4894   4.058   2.205   0.365
 1332SOL    HW1 4895   4.028   2.248   0.451
 1332SOL    HW2 4896   4.127   2.136   0.386
 1333SOL     OW 4897   4.178   3.690   5.702
 1333SOL    HW1 4898   4.189   3.742   5.787
 1333SOL    HW2 4899   4.259   3.699   5.645
 1334SOL     OW 4900   1.570   3.546   3.703
 1334SOL    HW1 4901   1.519   3.584   3.780
 1334SOL    HW2 4902   1.620   3.465   3.733
 1335SOL     OW 4903   1.963   5.958   4.172
 1335SOL    HW1 4904   2.003   5.892   4.108
 1335SOL    HW2 4905   1.904   6.021   4.123
 1336SOL     OW 4906   0.087   6.666   4.671
 1336SOL    HW1 4907   0.134   6.580   4.690
 1336SOL    HW2 4908   0.015   6.679   4.740
 1337SOL     OW 4909   2.797   0.177   0.044
 1337SOL    HW1 4910   2.795   0.180   0.144
 1337SOL    HW2 4911   2.822   0.267   0.009
 1338SOL     OW 4912   4.130   4.250   0.784
 1338SOL    HW1 4913   4.163   4.277   0.694
 1338SOL    HW2 4914   4.149   4.153   0.799
 1339SOL     OW 4915   0.013   4.282   6.794
 1339SOL    HW1 4916   0.037   4.219   6.868
 1339SOL    HW2 4917   0.009   4.375   6.831
 1340SOL     OW 4918   2.325   1.820   5.872
 1340SOL    HW1 4919   2.361   1.864   5.790
 1340SOL    HW2 4920   2.313   1.888   5.944
 1341SOL     OW 4921   4.992   1.564   3.637
 1341SOL    HW1 4922   4.998   1.625   3.559
 1341SOL    HW2 4923   4.955   1.614   3.716
 1342SOL     OW 4924   0.886   5.541   0.615
 1342SOL    HW1 4925   0.947   5.561   0.539
 1342SOL    HW2 4926   0.931   5.481   0.680
 1343SOL     OW 4927   3.305   5.947   3.357
 1343SOL    HW1 4928   3.226   5.907   3.312
 1343SOL    HW2 4929   3.290   5.947   3.456
 1344SOL     OW 4930   4.923   1.620   1.838
 1344SOL    HW1 4931   4.859   1.688   1.802
 1344SOL    HW2 4932   4.943   1.552   1.767
 1345SOL     OW 4933   6.396   5.474   1.997
 1345SOL    HW1 4934   6.304   5.507   2.022
 1345SOL    HW2 4935   6.435   5.533   1.927
 1346SOL     OW 4936   6.484   1.944   3.264
 1346SOL    HW1 4937   6.479   1.917   3.168
 1346SOL    HW2 4938   6.527   1.871   3.317
 1347SOL     OW 4939   4.297   1.442   3.436
 1347SOL    HW1 4940   4.249   1.529   3.427
 1347SOL    HW2 4941   4.244   1.371   3.390
 1348SOL     OW 4942   5.864   6.648   4.644
 1348SOL    HW1 4943   5.864   6.709   4.723
 1348SOL    HW2 4944   5.917   6.689   4.570
 1349SOL     OW 4945   4.921   1.348   6.775
 1349SOL    HW1 4946   4.914   1.249   6.780
 1349SOL    HW2 4947   5.017   1.374   6.765
 1350SOL     OW 4948   4.162   1.654   4.944
 1350SOL    HW1 4949   4.250   1.651   4.898
 1350SOL    HW2 4950   4.091   1.622   4.882
 1351SOL     OW 4951   1.704   2.032   4.651
 1351SOL    HW1 4952   1.659   2.061   4.736
 1351SOL    HW2 4953   1.639   2.041   4.575
 1352SOL     OW 4954   1.586   6.765   4.781
 1352SOL    HW1 4955   1.603   6.840   4.718
 1352SOL    HW2 4956   1.634   6.683   4.749
 1353SOL     OW 4957   2.718   3.287   5.640
 1353SOL    HW1 4958   2.660   3.317   5.715
 1353SOL    HW2 4959   2.661   3.250   5.566
 1354SOL     OW 4960   0.805   6.267   6.712
 1354SOL    HW1 4961   0.830   6.171   6.728
 1354SOL    HW2 4962   0.762   6.275   6.622
 1355SOL     OW 4963   4.105   3.979   0.605
 1355SOL    HW1 4964   4.176   3.937   0.663
 1355SOL    HW2 4965   4.138   4.067   0.571
 1356SOL     OW 4966   3.789   2.990   2.702
 1356SOL    HW1 4967   3.709   2.953   2.655
 1356SOL    HW2 4968   3.870   2.980   2.644
 1357SOL     OW 4969   4.037   2.661   6.361
 1357SOL    HW1 4970   4.125   2.699   6.390
 1357SOL    HW2 4971   3.965   2.693   6.423
 1358SOL     OW 4972   2.101   2.799   4.339
 1358SOL    HW1 4973   2.066   2.721   4.287
 1358SOL    HW2 4974   2.041   2.877   4.326
 1359SOL     OW 4975   1.177   1.800   6.065
 1359SOL    HW1 4976   1.129   1.716   6.042
 1359SOL    HW2 4977   1.275   1.782   6.072
 1360SOL     OW 4978   3.184   3.898   5.201
 1360SOL    HW1 4979   3.203   3.991   5.171
 1360SOL    HW2 4980   3.092   3.871   5.172
 1361SOL     OW 4981   1.487   6.358   1.223
 1361SOL    HW1 4982   1.578   6.316   1.222
 1361SOL    HW2 4983   1.442   6.338   1.310
 1362SOL     OW 4984   3.986   1.290   6.534
 1362SOL    HW1 4985   3.906   1.271   6.590
 1362SOL    HW2 4986   3.968   1.265   6.439
 1363SOL     OW 4987   6.516   5.961   1.241
 1363SOL    HW1 4988   6.598   5.905   1.230
 1363SOL    HW2 4989   6.438   5.902   1.260
 1364SOL     OW 4990   1.500   2.854   1.103
 1364SOL    HW1 4991   1.539   2.838   1.012
 1364SOL    HW2 4992   1.492   2.953   1.119
 1365SOL     OW 4993   1.723   3.293   6.996
 1365SOL    HW1 4994   1.702   3.293   6.898
 1365SOL    HW2 4995   1.812   3.249   7.010
 1366SOL     OW 4996   4.251   1.183   2.017
 1366SOL    HW1 4997   4.275   1.130   2.098
 1366SOL    HW2 4998   4.165   1.148   1.979
 1367SOL     OW 4999   2.261   0.670   3.557
 1367SOL    HW1 5000   2.247   0.641   3.462
 1367SOL    HW2 5001   2.357   0.694   3.571
 1368SOL     OW 5002   2.053   5.877   5.201
 1368SOL    HW1 5003   1.997   5.864   5.120
 1368SOL    HW2 5004   1.996   5.907   5.277
 1369SOL     OW 5005   2.624   5.836   3.102
 1369SOL    HW1 5006   2.621   5.741   3.134
 1369SOL    HW2 5007   2.534   5.862   3.067
 1370SOL     OW 5008   6.533   3.055   2.973
 1370SOL    HW1 5009   6.461   3.102   2.922
 1370SOL    HW2 5010   6.532   2.958   2.950
 1371SOL     OW 5011   6.262   2.096   6.222
 1371SOL    HW1 5012   6.265   2.192   6.194
 1371SOL    HW2 5013   6.221   2.089   6.313
 1372SOL     OW 5014   5.167   2.145   1.486
 1372SOL    HW1 5015   5.097   2.197   1.536
 1372SOL    HW2 5016   5.124   2.097   1.410
 1373SOL     OW 5017   3.525   2.713   0.889
 1373SOL    HW1 5018   3.496   2.801   0.853
 1373SOL    HW2 5019   3.565   2.725   0.980
 1374SOL     OW 5020   3.522   3.313   3.888
 1374SOL    HW1 5021   3.448   3.378   3.907
 1374SOL    HW2 5022   3.529   3.248   3.964
 1375SOL     OW 5023   6.256   3.973   5.291
 1375SOL    HW1 5024   6.240   3.901   5.359
 1375SOL    HW2 5025   6.267   4.061   5.338
 1376SOL     OW 5026   2.795   4.655   6.488
 1376SOL    HW1 5027   2.751   4.744   6.500
 1376SOL    HW2 5028   2.789   4.628   6.392
 1377SOL     OW 5029   1.334   1.801   3.246
 1377SOL    HW1 5030   1.279   1.770   3.168
 1377SOL    HW2 5031   1.273   1.841   3.315
 1378SOL     OW 5032   5.634   2.533   3.335
 1378SOL    HW1 5033   5.672   2.625   3.344
 1378SOL    HW2 5034   5.630   2.507   3.239
 1379SOL     OW 5035   5.869   5.531   6.522
 1379SOL    HW1 5036   5.958   5.539   6.477
 1379SOL    HW2 5037   5.803   5.588   6.473
 1380SOL     OW 5038   6.625   6.947   3.555
 1380SOL    HW1 5039   6.624   6.919   3.651
 1380SOL    HW2 5040   6.580   6.877   3.500
 1381SOL     OW 5041   0.319   2.916   6.032
 1381SOL    HW1 5042   0.332   2.969   5.948
 1381SOL    HW2 5043   0.350   2.822   6.018
 1382SOL     OW 5044   4.406   1.742   5.110
 1382SOL    HW1 5045   4.358   1.657   5.092
 1382SOL    HW2 5046   4.341   1.818   5.106
 1383SOL     OW 5047   5.509   6.936   0.611
 1383SOL    HW1 5048   5.538   7.012   0.669
 1383SOL    HW2 5049   5.468   6.972   0.527
 1384SOL     OW 5050   5.716   1.813   2.539
 1384SOL    HW1 5051   5.694   1.734   2.482
 1384SOL    HW2 5052   5.815   1.821   2.548
 1385SOL     OW 5053   6.696   6.743   2.253
 1385SOL    HW1 5054   6.659   6.654   2.224
 1385SOL    HW2 5055   6.710   6.743   2.352
 1386SOL     OW 5056   1.780   0.735   3.824
 1386SOL    HW1 5057   1.814   0.709   3.914
 1386SOL    HW2 5058   1.853   0.725   3.756
 1387SOL     OW 5059   1.167   5.424   1.553
 1387SOL    HW1 5060   1.227   5.378   1.618
 1387SOL    HW2 5061   1.201   5.409   1.460
 1388SOL     OW 5062   6.280   0.503   1.549
 1388SOL    HW1 5063   6.259   0.412   1.513
 1388SOL    HW2 5064   6.264   0.571   1.477
 1389SOL     OW 5065   6.663   0.439   0.619
 1389SOL    HW1 5066   6.739   0.376   0.603
 1389SOL    HW2 5067   6.691   0.508   0.687
 1390SOL     OW 5068   1.373   1.351   4.650
 1390SOL    HW1 5069   1.467   1.322   4.671
 1390SOL    HW2 5070   1.375   1.423   4.581
 1391SOL     OW 5071   1.145   3.721   3.407
 1391SOL    HW1 5072   1.167   3.673   3.492
 1391SOL    HW2 5073   1.230   3.753   3.364
 1392SOL     OW 5074   5.375   5.968   3.705
 1392SOL    HW1 5075   5.290   5.930   3.740
 1392SOL    HW2 5076   5.429   5.895   3.662
 1393SOL     OW 5077   3.879   4.651   6.444
 1393SOL    HW1 5078   3.860   4.676   6.349
 1393SOL    HW2 5079   3.802   4.677   6.502
 1394SOL     OW 5080   0.750   6.850   6.647
 1394SOL    HW1 5081   0.783   6.919   6.711
 1394SOL    HW2 5082   0.796   6.763   6.665
 1395SOL     OW 5083   4.208   4.854   6.222
 1395SOL    HW1 5084   4.114   4.825   6.202
 1395SOL    HW2 5085   4.243   4.908   6.146
 1396SOL     OW 5086   4.519   5.198   2.501
 1396SOL    HW1 5087   4.544   5.161   2.412
 1396SOL    HW2 5088   4.583   5.165   2.570
 1397SOL     OW 5089   6.326   6.547   4.284
 1397SOL    HW1 5090   6.406   6.607   4.274
 1397SOL    HW2 5091   6.253   6.578   4.224
 1398SOL     OW 5092   1.987   0.622   5.537
 1398SOL    HW1 5093   1.974   0.588   5.444
 1398SOL    HW2 5094   2.027   0.713   5.535
 1399SOL     OW 5095   2.857   5.455   2.225
 1399SOL    HW1 5096   2.887   5.374   2.176
 1399SOL    HW2 5097   2.912   5.467   2.307
 1400SOL     OW 5098   1.392   0.963   3.153
 1400SOL    HW1 5099   1.460   1.035   3.164
 1400SOL    HW2 5100   1.302   1.004   3.140
 1401SOL     OW 5101   6.779   2.475   4.549
 1401SOL    HW1 5102   6.792   2.376   4.539
 1401SOL    HW2 5103   6.702   2.492   4.611
 1402SOL     OW 5104   5.963   2.051   0.001
 1402SOL    HW1 5105   6.002   2.138   6.998
 1402SOL    HW2 5106   5.955   2.049   0.101
 1403SOL     OW 5107   3.491   0.919   2.076
 1403SOL    HW1 5108   3.573   0.902   2.023
 1403SOL    HW2 5109   3.490   0.861   2.157
 1404SOL     OW 5110   4.644   0.879   6.217
 1404SOL    HW1 5111   4.732   0.845   6.186
 1404SOL    HW2 5112   4.644   0.979   6.214
 1405SOL     OW 5113   3.174   2.770   1.020
 1405SOL    HW1 5114   3.161   2.678   1.056
 1405SOL    HW2 5115   3.199   2.832   1.094
 1406SOL     OW 5116   0.311   3.400   1.641
 1406SOL    HW1 5117   0.410   3.411   1.643
 1406SOL    HW2 5118   0.275   3.442   1.557
 1407SOL     OW 5119   6.742   2.688   2.583
 1407SOL    HW1 5120   6.733   2.592   2.608
 1407SOL    HW2 5121   6.700   2.704   2.494
 1408SOL     OW 5122   6.679   4.428   6.885
 1408SOL    HW1 5123   6.738   4.347   6.890
 1408SOL    HW2 5124   6.625   4.425   6.800
 1409SOL     OW 5125   6.728   1.333   3.789
 1409SOL    HW1 5126   6.775   1.296   3.709
 1409SOL    HW2 5127   6.785   1.404   3.830
 1410SOL     OW 5128   0.452   1.849   6.284
 1410SOL    HW1 5129   0.499   1.925   6.330
 1410SOL    HW2 5130   0.363   1.880   6.253
 1411SOL     OW 5131   1.629   1.104   0.852
 1411SOL    HW1 5132   1.539   1.127   0.816
 1411SOL    HW2 5133   1.640   1.143   0.944
 1412SOL     OW 5134   1.792   1.728   0.791
 1412SOL    HW1 5135   1.704   1.739   0.744
 1412SOL    HW2 5136   1.819   1.631   0.789
 1413SOL     OW 5137   3.187   6.782   3.601
 1413SOL    HW1 5138   3.281   6.795   3.633
 1413SOL    HW2 5139   3.154   6.692   3.632
 1414SOL     OW 5140   0.965   0.449   2.809
 1414SOL    HW1 5141   0.905   0.466   2.887
 1414SOL    HW2 5142   1.052   0.498   2.823
 1415SOL     OW 5143   5.788   6.661   4.201
 1415SOL    HW1 5144   5.810   6.567   4.173
 1415SOL    HW2 5145   5.690   6.670   4.215
 1416SOL     OW 5146   5.218   5.733   3.787
 1416SOL    HW1 5147   5.122   5.718   3.761
 1416SOL    HW2 5148   5.236   5.685   3.873
 1417SOL     OW 5149   3.428   3.572   5.587
 1417SOL    HW1 5150   3.340   3.558   5.632
 1417SOL    HW2 5151   3.416   3.568   5.488
 1418SOL     OW 5152   3.280   4.018   4.258
 1418SOL    HW1 5153   3.313   4.041   4.166
 1418SOL    HW2 5154   3.356   3.984   4.313
 1419SOL     OW 5155   3.676   6.229   3.961
 1419SOL    HW1 5156   3.679   6.306   3.897
 1419SOL    HW2 5157   3.769   6.205   3.988
 1420SOL     OW 5158   6.901   6.856   2.708
 1420SOL    HW1 5159   6.939   6.898   2.791
 1420SOL    HW2 5160   6.925   6.759   2.706
 1421SOL     OW 5161   3.399   0.812   3.025
 1421SOL    HW1 5162   3.313   0.766   3.002
 1421SOL    HW2 5163   3.392   0.852   3.116
 1422SOL     OW 5164   2.641   5.346   0.191
 1422SOL    HW1 5165   2.678   5.253   0.192
 1422SOL    HW2 5166   2.542   5.342   0.180
 1423SOL     OW 5167   4.532   0.365   2.774
 1423SOL    HW1 5168   4.590   0.446   2.776
 1423SOL    HW2 5169   4.436   0.392   2.770
 1424SOL     OW 5170   6.184   5.191   2.122
 1424SOL    HW1 5171   6.269   5.171   2.073
 1424SOL    HW2 5172   6.195   5.167   2.218
 1425SOL     OW 5173   2.021   6.988   4.181
 1425SOL    HW1 5174   2.095   6.933   4.218
 1425SOL    HW2 5175   2.039   0.059   4.198
 1426SOL     OW 5176   1.332   0.738   6.181
 1426SOL    HW1 5177   1.383   0.702   6.259
 1426SOL    HW2 5178   1.318   0.837   6.193
 1427SOL     OW 5179   4.519   2.497   6.169
 1427SOL    HW1 5180   4.575   2.511   6.087
 1427SOL    HW2 5181   4.470   2.410   6.161
 1428SOL     OW 5182   6.061   0.263   0.982
 1428SOL    HW1 5183   6.067   0.342   1.043
 1428SOL    HW2 5184   6.012   0.289   0.898
 1429SOL     OW 5185   5.218   5.325   1.732
 1429SOL    HW1 5186   5.195   5.238   1.689
 1429SOL    HW2 5187   5.316   5.341   1.725
 1430SOL     OW 5188   2.801   5.260   2.605
 1430SOL    HW1 5189   2.765   5.192   2.668
 1430SOL    HW2 5190   2.860   5.324   2.655
 1431SOL     OW 5191   2.014   1.492   0.508
 1431SOL    HW1 5192   1.949   1.487   0.584
 1431SOL    HW2 5193   2.084   1.421   0.519
 1432SOL     OW 5194   3.101   6.735   1.554
 1432SOL    HW1 5195   3.044   6.737   1.637
 1432SOL    HW2 5196   3.197   6.726   1.580
 1433SOL     OW 5197   5.188   0.113   3.047
 1433SOL    HW1 5198   5.126   0.185   3.018
 1433SOL    HW2 5199   5.239   0.079   2.968
 1434SOL     OW 5200   0.478   0.798   5.045
 1434SOL    HW1 5201   0.405   0.734   5.020
 1434SOL    HW2 5202   0.438   0.884   5.077
 1435SOL     OW 5203   0.007   2.468   4.031
 1435SOL    HW1 5204   0.066   2.440   4.106
 1435SOL    HW2 5205   6.949   2.413   4.031
 1436SOL     OW 5206   5.448   3.568   1.440
 1436SOL    HW1 5207   5.455   3.469   1.451
 1436SOL    HW2 5208   5.356   3.598   1.466
 1437SOL     OW 5209   4.400   0.807   2.768
 1437SOL    HW1 5210   4.452   0.819   2.683
 1437SOL    HW2 5211   4.303   0.796   2.747
 1438SOL     OW 5212   2.845   6.489   2.120
 1438SOL    HW1 5213   2.900   6.477   2.202
 1438SOL    HW2 5214   2.863   6.580   2.081
 1439SOL     OW 5215   0.730   5.630   2.542
 1439SOL    HW1 5216   0.675   5.563   2.493
 1439SOL    HW2 5217   0.825   5.598   2.548
 1440SOL     OW 5218   2.556   2.878   1.072
 1440SOL    HW1 5219   2.489   2.936   1.117
 1440SOL    HW2 5220   2.547   2.784   1.106
 1441SOL     OW 5221   4.682   6.314   6.413
 1441SOL    HW1 5222   4.601   6.368   6.436
 1441SOL    HW2 5223   4.727   6.283   6.496
 1442SOL     OW 5224   4.447   5.663   1.652
 1442SOL    HW1 5225   4.489   5.741   1.606
 1442SOL    HW2 5226   4.435   5.588   1.587
 1443SOL     OW 5227   7.005   2.626   2.127
 1443SOL    HW1 5228   6.963   2.536   2.138
 1443SOL    HW2 5229   6.937   2.698   2.143
 1444SOL     OW 5230   0.300   6.495   4.803
 1444SOL    HW1 5231   0.253   6.487   4.891
 1444SOL    HW2 5232   0.392   6.531   4.818
 1445SOL     OW 5233   0.889   2.307   1.299
 1445SOL    HW1 5234   0.925   2.359   1.377
 1445SOL    HW2 5235   0.852   2.370   1.231
 1446SOL     OW 5236   6.135   5.860   1.765
 1446SOL    HW1 5237   6.043   5.899   1.759
 1446SOL    HW2 5238   6.135   5.766   1.732
 1447SOL     OW 5239   0.310   6.626   3.772
 1447SOL    HW1 5240   0.267   6.692   3.711
 1447SOL    HW2 5241   0.287   6.648   3.867
 1448SOL     OW 5242   1.731   1.170   5.292
 1448SOL    HW1 5243   1.706   1.159   5.388
 1448SOL    HW2 5244   1.652   1.152   5.234
 1449SOL     OW 5245   2.290   2.765   2.562
 1449SOL    HW1 5246   2.290   2.667   2.585
 1449SOL    HW2 5247   2.242   2.779   2.475
 1450SOL     OW 5248   3.233   2.159   2.671
 1450SOL    HW1 5249   3.288   2.104   2.608
 1450SOL    HW2 5250   3.237   2.255   2.644
 1451SOL     OW 5251   4.224   2.132   2.379
 1451SOL    HW1 5252   4.253   2.205   2.440
 1451SOL    HW2 5253   4.175   2.061   2.431
 1452SOL     OW 5254   4.325   2.955   5.343
 1452SOL    HW1 5255   4.235   2.942   5.303
 1452SOL    HW2 5256   4.325   2.925   5.438
 1453SOL     OW 5257   1.869   3.219   5.228
 1453SOL    HW1 5258   1.928   3.184   5.155
 1453SOL    HW2 5259   1.907   3.304   5.263
 1454SOL     OW 5260   3.325   1.915   2.304
 1454SOL    HW1 5261   3.237   1.943   2.267
 1454SOL    HW2 5262   3.346   1.969   2.385
 1455SOL     OW 5263   6.852   5.728   2.977
 1455SOL    HW1 5264   6.832   5.793   2.904
 1455SOL    HW2 5265   6.839   5.634   2.944
 1456SOL     OW 5266   6.395   6.067   4.249
 1456SOL    HW1 5267   6.348   6.056   4.161
 1456SOL    HW2 5268   6.454   6.148   4.246
 1457SOL     OW 5269   1.315   6.145   5.348
 1457SOL    HW1 5270   1.353   6.058   5.315
 1457SOL    HW2 5271   1.346   6.219   5.288
 1458SOL     OW 5272   6.797   5.255   4.990
 1458SOL    HW1 5273   6.827   5.168   4.951
 1458SOL    HW2 5274   6.832   5.330   4.935
 1459SOL     OW 5275   0.446   6.020   5.353
 1459SOL    HW1 5276   0.365   6.017   5.412
 1459SOL    HW2 5277   0.514   5.954   5.386
 1460SOL     OW 5278   1.710   6.660   5.363
 1460SOL    HW1 5279   1.637   6.595   5.383
 1460SOL    HW2 5280   1.788   6.642   5.422
 1461SOL     OW 5281   5.283   3.762   3.147
 1461SOL    HW1 5282   5.194   3.804   3.165
 1461SOL    HW2 5283   5.288   3.673   3.193
 1462SOL     OW 5284   1.127   1.600   2.365
 1462SOL    HW1 5285   1.110   1.617   2.268
 1462SOL    HW2 5286   1.082   1.670   2.420
 1463SOL     OW 5287   1.827   4.210   6.703
 1463SOL    HW1 5288   1.762   4.284   6.716
 1463SOL    HW2 5289   1.793   4.127   6.747
 1464SOL     OW 5290   1.073   4.042   5.486
 1464SOL    HW1 5291   1.145   4.068   5.422
 1464SOL    HW2 5292   1.084   3.946   5.511
 1465SOL     OW 5293   1.887   3.486   5.875
 1465SOL    HW1 5294   1.813   3.458   5.814
 1465SOL    HW2 5295   1.880   3.435   5.961
 1466SOL     OW 5296   5.286   1.324   2.487
 1466SOL    HW1 5297   5.358   1.370   2.539
 1466SOL    HW2 5298   5.303   1.334   2.389
 1467SOL     OW 5299   0.710   0.298   3.968
 1467SOL    HW1 5300   0.677   0.209   3.938
 1467SOL    HW2 5301   0.698   0.364   3.893
 1468SOL     OW 5302   3.692   6.801   3.764
 1468SOL    HW1 5303   3.722   6.871   3.698
 1468SOL    HW2 5304   3.771   6.746   3.791
 1469SOL     OW 5305   5.264   4.747   3.633
 1469SOL    HW1 5306   5.321   4.665   3.631
 1469SOL    HW2 5307   5.192   4.740   3.564
 1470SOL     OW 5308   6.020   1.436   1.632
 1470SOL    HW1 5309   6.066   1.370   1.691
 1470SOL    HW2 5310   5.989   1.514   1.686
 1471SOL     OW 5311   4.639   6.286   0.365
 1471SOL    HW1 5312   4.718   6.257   0.420
 1471SOL    HW2 5313   4.615   6.213   0.301
 1472SOL     OW 5314   1.954   0.156   0.149
 1472SOL    HW1 5315   1.858   0.154   0.178
 1472SOL    HW2 5316   1.970   0.239   0.094
 1473SOL     OW 5317   1.612   6.047   3.938
 1473SOL    HW1 5318   1.514   6.033   3.954
 1473SOL    HW2 5319   1.643   5.985   3.866
 1474SOL     OW 5320   1.557   4.163   1.919
 1474SOL    HW1 5321   1.487   4.234   1.923
 1474SOL    HW2 5322   1.523   4.080   1.962
 1475SOL     OW 5323   6.995   6.818   6.360
 1475SOL    HW1 5324   6.900   6.792   6.375
 1475SOL    HW2 5325   7.018   6.811   6.263
 1476SOL     OW 5326   6.025   6.890   6.576
 1476SOL    HW1 5327   6.108   6.842   6.605
 1476SOL    HW2 5328   5.949   6.826   6.573
 1477SOL     OW 5329   3.668   4.179   1.764
 1477SOL    HW1 5330   3.768   4.176   1.768
 1477SOL    HW2 5331   3.639   4.244   1.694
 1478SOL     OW 5332   4.527   3.684   6.405
 1478SOL    HW1 5333   4.476   3.637   6.333
 1478SOL    HW2 5334   4.495   3.653   6.494
 1479SOL     OW 5335   4.257   4.585   1.456
 1479SOL    HW1 5336   4.339   4.640   1.468
 1479SOL    HW2 5337   4.177   4.637   1.485
 1480SOL     OW 5338   2.583   1.430   3.504
 1480SOL    HW1 5339   2.655   1.459   3.568
 1480SOL    HW2 5340   2.611   1.452   3.410
 1481SOL     OW 5341   4.287   1.695   5.696
 1481SOL    HW1 5342   4.204   1.639   5.697
 1481SOL    HW2 5343   4.316   1.709   5.601
 1482SOL     OW 5344   6.374   1.182   1.195
 1482SOL    HW1 5345   6.281   1.169   1.160
 1482SOL    HW2 5346   6.430   1.227   1.125
 1483SOL     OW 5347   5.739   6.429   0.134
 1483SOL    HW1 5348   5.738   6.436   0.233
 1483SOL    HW2 5349   5.794   6.503   0.095
 1484SOL     OW 5350   3.078   6.771   5.791
 1484SOL    HW1 5351   3.116   6.853   5.833
 1484SOL    HW2 5352   2.978   6.775   5.795
 1485SOL     OW 5353   5.102   3.653   3.505
 1485SOL    HW1 5354   5.089   3.686   3.412
 1485SOL    HW2 5355   5.140   3.726   3.562
 1486SOL     OW 5356   6.387   5.961   4.664
 1486SOL    HW1 5357   6.310   5.933   4.722
 1486SOL    HW2 5358   6.360   6.040   4.610
 1487SOL     OW 5359   6.227   0.139   6.395
 1487SOL    HW1 5360   6.276   0.202   6.335
 1487SOL    HW2 5361   6.206   0.055   6.345
 1488SOL     OW 5362   6.960   2.897   3.001
 1488SOL    HW1 5363   6.919   2.876   3.090
 1488SOL    HW2 5364   6.966   2.997   2.991
 1489SOL     OW 5365   3.253   5.915   6.875
 1489SOL    HW1 5366   3.185   5.982   6.905
 1489SOL    HW2 5367   3.207   5.836   6.836
 1490SOL     OW 5368   6.048   2.754   2.120
 1490SOL    HW1 5369   6.127   2.784   2.066
 1490SOL    HW2 5370   5.965   2.794   2.081
 1491SOL     OW 5371   5.768   3.714   5.171
 1491SOL    HW1 5372   5.802   3.764   5.092
 1491SOL    HW2 5373   5.684   3.758   5.204
 1492SOL     OW 5374   1.854   2.751   2.310
 1492SOL    HW1 5375   1.765   2.714   2.284
 1492SOL    HW2 5376   1.877   2.828   2.250
 1493SOL     OW 5377   6.284   2.072   6.607
 1493SOL    HW1 5378   6.379   2.042   6.609
 1493SOL    HW2 5379   6.229   2.007   6.555
 1494SOL     OW 5380   1.971   3.181   0.009
 1494SOL    HW1 5381   2.032   3.103   7.018
 1494SOL    HW2 5382   1.989   3.219   0.100
 1495SOL     OW 5383   6.510   4.002   3.916
 1495SOL    HW1 5384   6.467   4.086   3.884
 1495SOL    HW2 5385   6.601   4.023   3.951
 1496SOL     OW 5386   6.818   5.517   6.138
 1496SOL    HW1 5387   6.856   5.434   6.098
 1496SOL    HW2 5388   6.718   5.517   6.128
 1497SOL     OW 5389   4.751   2.899   3.042
 1497SOL    HW1 5390   4.764   2.993   3.012
 1497SOL    HW2 5391   4.794   2.887   3.132
 1498SOL     OW 5392   3.693   4.242   0.783
 1498SOL    HW1 5393   3.603   4.241   0.827
 1498SOL    HW2 5394   3.763   4.214   0.849
 1499SOL     OW 5395   1.926   4.669   4.136
 1499SOL    HW1 5396   1.899   4.576   4.111
 1499SOL    HW2 5397   1.880   4.696   4.220
 1500SOL     OW 5398   2.547   5.959   1.360
 1500SOL    HW1 5399   2.640   5.927   1.380
 1500SOL    HW2 5400   2.539   5.976   1.262
 1501SOL     OW 5401   5.594   1.598   1.149
 1501SOL    HW1 5402   5.608   1.642   1.060
 1501SOL    HW2 5403   5.518   1.642   1.196
 1502SOL     OW 5404   1.134   6.784   6.080
 1502SOL    HW1 5405   1.089   6.746   6.161
 1502SOL    HW2 5406   1.114   6.881   6.073
 1503SOL     OW 5407   6.424   5.936   2.198
 1503SOL    HW1 5408   6.520   5.911   2.209
 1503SOL    HW2 5409   6.410   6.028   2.234
 1504SOL     OW 5410   1.423   0.589   3.472
 1504SOL    HW1 5411   1.503   0.636   3.510
 1504SOL    HW2 5412   1.373   0.653   3.413
 1505SOL     OW 5413   6.690   4.628   4.832
 1505SOL    HW1 5414   6.663   4.544   4.879
 1505SOL    HW2 5415   6.712   4.607   4.737
 1506SOL     OW 5416   0.796   0.887   0.568
 1506SOL    HW1 5417   0.834   0.801   0.602
 1506SOL    HW2 5418   0.760   0.940   0.645
 1507SOL     OW 5419   2.613   2.146   4.039
 1507SOL    HW1 5420   2.691   2.201   4.070
 1507SOL    HW2 5421   2.584   2.179   3.949
 1508SOL     OW 5422   1.385   0.200   1.650
 1508SOL    HW1 5423   1.441   0.214   1.568
 1508SOL    HW2 5424   1.354   0.289   1.684
 1509SOL     OW 5425   4.280   0.520   4.861
 1509SOL    HW1 5426   4.227   0.597   4.826
 1509SOL    HW2 5427   4.374   0.549   4.876
 1510SOL     OW 5428   2.899   6.776   5.214
 1510SOL    HW1 5429   2.903   6.843   5.288
 1510SOL    HW2 5430   2.822   6.714   5.229
 1511SOL     OW 5431   3.710   4.011   5.184
 1511SOL    HW1 5432   3.673   4.079   5.247
 1511SOL    HW2 5433   3.794   4.046   5.143
 1512SOL     OW 5434   5.397   6.614   0.848
 1512SOL    HW1 5435   5.385   6.699   0.900
 1512SOL    HW2 5436   5.460   6.629   0.772
 1513SOL     OW 5437   2.507   6.543   5.671
 1513SOL    HW1 5438   2.563   6.561   5.591
 1513SOL    HW2 5439   2.562   6.554   5.754
 1514SOL     OW 5440   3.317   1.023   0.405
 1514SOL    HW1 5441   3.289   0.944   0.350
 1514SOL    HW2 5442   3.241   1.087   0.411
 1515SOL     OW 5443   3.737   0.663   1.448
 1515SOL    HW1 5444   3.711   0.596   1.517
 1515SOL    HW2 5445   3.662   0.728   1.435
 1516SOL     OW 5446   0.745   6.332   6.982
 1516SOL    HW1 5447   0.760   6.240   7.017
 1516SOL    HW2 5448   0.785   6.341   6.891
 1517SOL     OW 5449   1.664   5.687   2.880
 1517SOL    HW1 5450   1.593   5.756   2.894
 1517SOL    HW2 5451   1.745   5.731   2.840
 1518SOL     OW 5452   2.811   2.417   6.946
 1518SOL    HW1 5453   2.714   2.401   6.961
 1518SOL    HW2 5454   2.855   2.332   6.915
 1519SOL     OW 5455   0.741   4.607   0.031
 1519SOL    HW1 5456   0.715   4.547   0.106
 1519SOL    HW2 5457   0.785   4.689   0.068
 1520SOL     OW 5458   7.014   0.342   3.284
 1520SOL    HW1 5459   0.032   0.416   3.234
 1520SOL    HW2 5460   6.916   0.340   3.263
 1521SOL     OW 5461   2.125   5.051   0.096
 1521SOL    HW1 5462   2.089   4.959   0.108
 1521SOL    HW2 5463   2.162   5.062   0.004
 1522SOL     OW 5464   6.529   6.310   4.272
 1522SOL    HW1 5465   6.441   6.358   4.268
 1522SOL    HW2 5466   6.601   6.371   4.237
 1523SOL     OW 5467   2.763   6.161   0.577
 1523SOL    HW1 5468   2.665   6.172   0.597
 1523SOL    HW2 5469   2.814   6.153   0.662
 1524SOL     OW 5470   1.775   1.723   4.843
 1524SOL    HW1 5471   1.850   1.657   4.853
 1524SOL    HW2 5472   1.784   1.769   4.755
 1525SOL     OW 5473   6.036   4.130   0.353
 1525SOL    HW1 5474   6.000   4.056   0.296
 1525SOL    HW2 5475   6.136   4.125   0.355
 1526SOL     OW 5476   0.220   1.091   2.237
 1526SOL    HW1 5477   0.168   1.033   2.300
 1526SOL    HW2 5478   0.160   1.161   2.199
 1527SOL     OW 5479   5.300   0.576   5.187
 1527SOL    HW1 5480   5.328   0.481   5.205
 1527SOL    HW2 5481   5.278   0.586   5.090
 1528SOL     OW 5482   2.999   3.258   2.292
 1528SOL    HW1 5483   3.039   3.220   2.376
 1528SOL    HW2 5484   2.959   3.347   2.312
 1529SOL     OW 5485   4.874   0.451   6.036
 1529SOL    HW1 5486   4.783   0.490   6.051
 1529SOL    HW2 5487   4.930   0.466   6.118
 1530SOL     OW 5488   2.575   6.885   2.226
 1530SOL    HW1 5489   2.624   6.857   2.144
 1530SOL    HW2 5490   2.478   6.863   2.216
 1531SOL     OW 5491   6.057   0.022   4.354
 1531SOL    HW1 5492   6.148   7.006   4.360
 1531SOL    HW2 5493   6.047   0.090   4.426
 1532SOL     OW 5494   3.408   5.478   2.141
 1532SOL    HW1 5495   3.468   5.405   2.106
 1532SOL    HW2 5496   3.313   5.447   2.138
 1533SOL     OW 5497   5.815   5.806   2.054
 1533SOL    HW1 5498   5.715   5.804   2.062
 1533SOL    HW2 5499   5.851   5.714   2.068
 1534SOL     OW 5500   2.737   4.976   7.010
 1534SOL    HW1 5501   2.782   4.979   6.921
 1534SOL    HW2 5502   2.771   5.051   0.042
 1535SOL     OW 5503   5.567   5.112   3.311
 1535SOL    HW1 5504   5.489   5.070   3.264
 1535SOL    HW2 5505   5.534   5.172   3.384
 1536SOL     OW 5506   3.817   4.687   6.183
 1536SOL    HW1 5507   3.820   4.787   6.191
 1536SOL    HW2 5508   3.723   4.656   6.189
 1537SOL     OW 5509   2.946   6.202   1.954
 1537SOL    HW1 5510   2.992   6.282   1.915
 1537SOL    HW2 5511   3.014   6.138   1.987
 1538SOL     OW 5512   2.551   1.282   0.651
 1538SOL    HW1 5513   2.488   1.342   0.702
 1538SOL    HW2 5514   2.499   1.207   0.610
 1539SOL     OW 5515   6.963   3.331   0.961
 1539SOL    HW1 5516   6.968   3.256   0.895
 1539SOL    HW2 5517   6.900   3.307   1.035
 1540SOL     OW 5518   4.318   6.091   3.771
 1540SOL    HW1 5519   4.417   6.088   3.757
 1540SOL    HW2 5520   4.289   6.010   3.821
 1541SOL     OW 5521   4.347   2.306   5.676
 1541SOL    HW1 5522   4.271   2.242   5.666
 1541SOL    HW2 5523   4.383   2.301   5.769
 1542SOL     OW 5524   1.000   4.364   2.547
 1542SOL    HW1 5525   0.919   4.414   2.578
 1542SOL    HW2 5526   1.031   4.303   2.620
 1543SOL     OW 5527   4.313   5.400   0.636
 1543SOL    HW1 5528   4.249   5.371   0.565
 1543SOL    HW2 5529   4.263   5.439   0.713
 1544SOL     OW 5530   3.610   2.855   3.858
 1544SOL    HW1 5531   3.618   2.933   3.797
 1544SOL    HW2 5532   3.576   2.776   3.807
 1545SOL     OW 5533   6.678   4.273   0.646
 1545SOL    HW1 5534   6.632   4.272   0.557
 1545SOL    HW2 5535   6.697   4.368   0.672
 1546SOL     OW 5536   0.068   6.419   5.971
 1546SOL    HW1 5537   0.120   6.428   5.886
 1546SOL    HW2 5538   0.123   6.453   6.047
 1547SOL     OW 5539   1.095   2.712   0.016
 1547SOL    HW1 5540   1.187   2.674   0.011
 1547SOL    HW2 5541   1.030   2.639   0.040
 1548SOL     OW 5542   6.579   2.139   0.568
 1548SOL    HW1 5543   6.628   2.058   0.536
 1548SOL    HW2 5544   6.501   2.157   0.507
 1549SOL     OW 5545   4.646   0.326   4.533
 1549SOL    HW1 5546   4.607   0.270   4.605
 1549SOL    HW2 5547   4.584   0.329   4.455
 1550SOL     OW 5548   3.004   3.792   4.937
 1550SOL    HW1 5549   2.928   3.844   4.975
 1550SOL    HW2 5550   3.071   3.855   4.897
 1551SOL     OW 5551   0.329   5.546   5.994
 1551SOL    HW1 5552   0.295   5.616   5.932
 1551SOL    HW2 5553   0.304   5.570   6.088
 1552SOL     OW 5554   2.245   4.025   1.116
 1552SOL    HW1 5555   2.259   3.937   1.163
 1552SOL    HW2 5556   2.297   4.096   1.163
 1553SOL     OW 5557   1.150   2.088   5.772
 1553SOL    HW1 5558   1.228   2.147   5.793
 1553SOL    HW2 5559   1.181   1.994   5.759
 1554SOL     OW 5560   4.391   2.411   3.545
 1554SOL    HW1 5561   4.448   2.462   3.609
 1554SOL    HW2 5562   4.445   2.383   3.466
 1555SOL     OW 5563   6.123   4.412   5.462
 1555SOL    HW1 5564   6.192   4.483   5.473
 1555SOL    HW2 5565   6.037   4.453   5.432
 1556SOL     OW 5566   2.481   0.998   5.501
 1556SOL    HW1 5567   2.388   1.009   5.539
 1556SOL    HW2 5568   2.496   1.068   5.431
 1557SOL     OW 5569   1.323   1.679   6.493
 1557SOL    HW1 5570   1.344   1.583   6.509
 1557SOL    HW2 5571   1.407   1.730   6.476
 1558SOL     OW 5572   6.839   6.994   4.196
 1558SOL    HW1 5573   6.899   6.981   4.117
 1558SOL    HW2 5574   6.840   6.912   4.252
 1559SOL     OW 5575   1.706   1.294   6.182
 1559SOL    HW1 5576   1.775   1.228   6.152
 1559SOL    HW2 5577   1.633   1.298   6.114
 1560SOL     OW 5578   0.364   0.094   1.186
 1560SOL    HW1 5579   0.327   0.076   1.095
 1560SOL    HW2 5580   0.340   0.187   1.214
 1561SOL     OW 5581   5.929   6.349   2.001
 1561SOL    HW1 5582   5.958   6.253   2.005
 1561SOL    HW2 5583   5.918   6.376   1.905
 1562SOL     OW 5584   5.804   0.237   4.074
 1562SOL    HW1 5585   5.710   0.240   4.040
 1562SOL    HW2 5586   5.808   0.275   4.166
 1563SOL     OW 5587   2.676   0.568   6.504
 1563SOL    HW1 5588   2.693   0.483   6.454
 1563SOL    HW2 5589   2.729   0.568   6.589
 1564SOL     OW 5590   1.538   1.471   2.906
 1564SOL    HW1 5591   1.488   1.546   2.862
 1564SOL    HW2 5592   1.607   1.437   2.842
 1565SOL     OW 5593   5.793   3.597   1.999
 1565SOL    HW1 5594   5.819   3.684   2.041
 1565SOL    HW2 5595   5.873   3.536   1.996
 1566SOL     OW 5596   5.763   4.325   2.021
 1566SOL    HW1 5597   5.822   4.389   1.973
 1566SOL    HW2 5598   5.667   4.351   2.007
 1567SOL     OW 5599   6.418   5.290   5.491
 1567SOL    HW1 5600   6.487   5.362   5.483
 1567SOL    HW2 5601   6.446   5.211   5.436
 1568SOL     OW 5602   0.860   6.324   1.201
 1568SOL    HW1 5603   0.944   6.279   1.233
 1568SOL    HW2 5604   0.883   6.412   1.161
 1569SOL     OW 5605   3.973   5.524   4.923
 1569SOL    HW1 5606   3.980   5.560   4.830
 1569SOL    HW2 5607   3.975   5.599   4.989
 1570SOL     OW 5608   2.449   2.600   1.454
 1570SOL    HW1 5609   2.469   2.620   1.358
 1570SOL    HW2 5610   2.488   2.671   1.512
 1571SOL     OW 5611   0.334   3.007   6.296
 1571SOL    HW1 5612   0.383   3.083   6.254
 1571SOL    HW2 5613   0.296   2.948   6.224
 1572SOL     OW 5614   0.512   5.813   4.685
 1572SOL    HW1 5615   0.478   5.907   4.686
 1572SOL    HW2 5616   0.460   5.759   4.619
 1573SOL     OW 5617   4.254   0.292   6.813
 1573SOL    HW1 5618   4.293   0.366   6.758
 1573SOL    HW2 5619   4.186   0.330   6.876
 1574SOL     OW 5620   4.906   3.226   2.399
 1574SOL    HW1 5621   4.884   3.184   2.311
 1574SOL    HW2 5622   4.855   3.312   2.409
 1575SOL     OW 5623   3.120   2.426   6.565
 1575SOL    HW1 5624   3.084   2.447   6.655
 1575SOL    HW2 5625   3.219   2.444   6.563
 1576SOL     OW 5626   5.505   5.576   3.345
 1576SOL    HW1 5627   5.480   5.495   3.398
 1576SOL    HW2 5628   5.560   5.549   3.266
 1577SOL     OW 5629   2.081   0.890   1.019
 1577SOL    HW1 5630   2.005   0.833   0.988
 1577SOL    HW2 5631   2.053   0.942   1.100
 1578SOL     OW 5632   5.905   6.491   5.338
 1578SOL    HW1 5633   5.906   6.583   5.378
 1578SOL    HW2 5634   5.906   6.498   5.238
 1579SOL     OW 5635   6.127   1.754   3.489
 1579SOL    HW1 5636   6.096   1.663   3.463
 1579SOL    HW2 5637   6.211   1.747   3.543
 1580SOL     OW 5638   3.007   3.797   5.814
 1580SOL    HW1 5639   3.005   3.894   5.836
 1580SOL    HW2 5640   3.102   3.765   5.813
 1581SOL     OW 5641   5.453   3.022   3.929
 1581SOL    HW1 5642   5.511   2.975   3.996
 1581SOL    HW2 5643   5.377   2.963   3.903
 1582SOL     OW 5644   6.648   6.105   3.635
 1582SOL    HW1 5645   6.725   6.060   3.681
 1582SOL    HW2 5646   6.679   6.193   3.599
 1583SOL     OW 5647   2.814   2.988   1.148
 1583SOL    HW1 5648   2.745   2.921   1.176
 1583SOL    HW2 5649   2.770   3.074   1.125
 1584SOL     OW 5650   1.658   6.720   6.631
 1584SOL    HW1 5651   1.742   6.729   6.686
 1584SOL    HW2 5652   1.681   6.690   6.539
 1585SOL     OW 5653   5.969   1.576   5.880
 1585SOL    HW1 5654   5.886   1.582   5.824
 1585SOL    HW2 5655   5.953   1.515   5.957
 1586SOL     OW 5656   3.878   3.123   3.019
 1586SOL    HW1 5657   3.821   3.078   3.087
 1586SOL    HW2 5658   3.877   3.071   2.934
 1587SOL     OW 5659   1.766   0.288   5.412
 1587SOL    HW1 5660   1.832   0.213   5.399
 1587SOL    HW2 5661   1.673   0.251   5.414
 1588SOL     OW 5662   0.240   3.780   0.321
 1588SOL    HW1 5663   0.211   3.836   0.399
 1588SOL    HW2 5664   0.194   3.811   0.238
 1589SOL     OW 5665   5.470   4.874   2.123
 1589SOL    HW1 5666   5.428   4.923   2.046
 1589SOL    HW2 5667   5.441   4.779   2.121
 1590SOL     OW 5668   2.565   6.374   5.006
 1590SOL    HW1 5669   2.504   6.438   5.053
 1590SOL    HW2 5670   2.573   6.290   5.061
 1591SOL     OW 5671   2.083   3.775   6.881
 1591SOL    HW1 5672   2.015   3.703   6.891
 1591SOL    HW2 5673   2.144   3.775   6.960
 1592SOL     OW 5674   3.473   3.863   4.434
 1592SOL    HW1 5675   3.451   3.775   4.476
 1592SOL    HW2 5676   3.548   3.906   4.485
 1593SOL     OW 5677   1.088   4.276   3.830
 1593SOL    HW1 5678   1.106   4.210   3.757
 1593SOL    HW2 5679   0.991   4.273   3.854
 1594SOL     OW 5680   0.536   5.442   2.899
 1594SOL    HW1 5681   0.470   5.429   2.824
 1594SOL    HW2 5682   0.492   5.494   2.972
 1595SOL     OW 5683   6.503   3.259   5.554
 1595SOL    HW1 5684   6.568   3.203   5.606
 1595SOL    HW2 5685   6.479   3.211   5.469
 1596SOL     OW 5686   3.819   5.019   6.429
 1596SOL    HW1 5687   3.746   5.087   6.420
 1596SOL    HW2 5688   3.805   4.966   6.512
 1597SOL     OW 5689   2.211   6.721   1.347
 1597SOL    HW1 5690   2.180   6.626   1.352
 1597SOL    HW2 5691   2.311   6.723   1.345
 1598SOL     OW 5692   0.074   5.425   2.276
 1598SOL    HW1 5693   0.067   5.336   2.321
 1598SOL    HW2 5694   7.008   5.465   2.267
 1599SOL     OW 5695   3.300   5.336   6.812
 1599SOL    HW1 5696   3.340   5.397   6.743
 1599SOL    HW2 5697   3.325   5.241   6.792
 1600SOL     OW 5698   3.760   1.003   5.257
 1600SOL    HW1 5699   3.679   0.987   5.312
 1600SOL    HW2 5700   3.833   1.041   5.315
 1601SOL     OW 5701   1.705   5.461   4.887
 1601SOL    HW1 5702   1.657   5.375   4.869
 1601SOL    HW2 5703   1.802   5.443   4.903
 1602SOL     OW 5704   0.284   3.100   1.630
 1602SOL    HW1 5705   0.318   3.180   1.678
 1602SOL    HW2 5706   0.187   3.087   1.650
 1603SOL     OW 5707   5.990   0.304   1.615
 1603SOL    HW1 5708   5.966   0.218   1.661
 1603SOL    HW2 5709   6.086   0.301   1.588
 1604SOL     OW 5710   1.144   5.251   3.567
 1604SOL    HW1 5711   1.127   5.311   3.488
 1604SOL    HW2 5712   1.111   5.159   3.547
 1605SOL     OW 5713   4.984   5.128   2.471
 1605SOL    HW1 5714   4.936   5.042   2.489
 1605SOL    HW2 5715   5.044   5.150   2.548
 1606SOL     OW 5716   6.558   4.829   4.617
 1606SOL    HW1 5717   6.640   4.869   4.576
 1606SOL    HW2 5718   6.575   4.811   4.714
 1607SOL     OW 5719   6.242   3.750   1.729
 1607SOL    HW1 5720   6.268   3.844   1.750
 1607SOL    HW2 5721   6.220   3.701   1.813
 1608SOL     OW 5722   2.157   6.421   1.420
 1608SOL    HW1 5723   2.106   6.337   1.435
 1608SOL    HW2 5724   2.228   6.406   1.351
 1609SOL     OW 5725   5.800   2.347   5.732
 1609SOL    HW1 5726   5.846   2.328   5.819
 1609SOL    HW2 5727   5.736   2.422   5.744
 1610SOL     OW 5728   4.207   0.344   3.311
 1610SOL    HW1 5729   4.116   0.343   3.269
 1610SOL    HW2 5730   4.266   0.407   3.262
 1611SOL     OW 5731   4.208   4.032   1.749
 1611SOL    HW1 5732   4.252   3.943   1.759
 1611SOL    HW2 5733   4.277   4.104   1.758
 1612SOL     OW 5734   3.500   0.253   4.318
 1612SOL    HW1 5735   3.491   0.157   4.345
 1612SOL    HW2 5736   3.593   0.285   4.339
 1613SOL     OW 5737   2.690   6.939   1.583
 1613SOL    HW1 5738   2.675   6.845   1.614
 1613SOL    HW2 5739   2.623   6.961   1.511
 1614SOL     OW 5740   6.290   2.406   6.223
 1614SOL    HW1 5741   6.343   2.423   6.140
 1614SOL    HW2 5742   6.206   2.458   6.221
 1615SOL     OW 5743   6.910   5.471   4.870
 1615SOL    HW1 5744   6.983   5.464   4.938
 1615SOL    HW2 5745   6.858   5.555   4.885
 1616SOL     OW 5746   1.981   2.489   4.769
 1616SOL    HW1 5747   2.004   2.565   4.830
 1616SOL    HW2 5748   2.010   2.511   4.676
 1617SOL     OW 5749   3.005   0.392   2.449
 1617SOL    HW1 5750   2.994   0.294   2.463
 1617SOL    HW2 5751   3.034   0.410   2.355
 1618SOL     OW 5752   5.250   2.674   1.242
 1618SOL    HW1 5753   5.191   2.594   1.230
 1618SOL    HW2 5754   5.293   2.670   1.332
 1619SOL     OW 5755   1.589   2.886   4.812
 1619SOL    HW1 5756   1.583   2.793   4.776
 1619SOL    HW2 5757   1.660   2.937   4.763
 1620SOL     OW 5758   3.234   5.612   0.925
 1620SOL    HW1 5759   3.199   5.590   0.834
 1620SOL    HW2 5760   3.220   5.535   0.987
 1621SOL     OW 5761   2.125   2.693   1.472
 1621SOL    HW1 5762   2.211   2.643   1.482
 1621SOL    HW2 5763   2.123   2.768   1.538
 1622SOL     OW 5764   2.522   2.788   5.576
 1622SOL    HW1 5765   2.453   2.835   5.521
 1622SOL    HW2 5766   2.595   2.852   5.599
 1623SOL     OW 5767   2.434   2.179   4.265
 1623SOL    HW1 5768   2.472   2.160   4.175
 1623SOL    HW2 5769   2.453   2.274   4.290
 1624SOL     OW 5770   2.068   0.801   0.239
 1624SOL    HW1 5771   2.126   0.739   0.292
 1624SOL    HW2 5772   1.974   0.797   0.274
 1625SOL     OW 5773   1.883   0.064   0.854
 1625SOL    HW1 5774   1.819   0.115   0.911
 1625SOL    HW2 5775   1.869   0.089   0.759
 1626SOL     OW 5776   2.756   3.778   5.752
 1626SOL    HW1 5777   2.740   3.872   5.722
 1626SOL    HW2 5778   2.852   3.767   5.777
 1627SOL     OW 5779   4.884   4.551   2.588
 1627SOL    HW1 5780   4.912   4.625   2.528
 1627SOL    HW2 5781   4.902   4.463   2.543
 1628SOL     OW 5782   3.901   3.330   0.371
 1628SOL    HW1 5783   3.972   3.273   0.411
 1628SOL    HW2 5784   3.888   3.412   0.427
 1629SOL     OW 5785   1.832   2.587   3.215
 1629SOL    HW1 5786   1.834   2.611   3.119
 1629SOL    HW2 5787   1.748   2.623   3.257
 1630SOL     OW 5788   5.613   4.354   3.667
 1630SOL    HW1 5789   5.656   4.430   3.716
 1630SOL    HW2 5790   5.681   4.309   3.609
 1631SOL     OW 5791   0.768   1.093   5.129
 1631SOL    HW1 5792   0.696   1.107   5.060
 1631SOL    HW2 5793   0.832   1.169   5.126
 1632SOL     OW 5794   3.877   6.436   6.465
 1632SOL    HW1 5795   3.891   6.394   6.554
 1632SOL    HW2 5796   3.811   6.511   6.473
 1633SOL     OW 5797   6.748   3.933   2.675
 1633SOL    HW1 5798   6.814   3.895   2.611
 1633SOL    HW2 5799   6.670   3.870   2.685
 1634SOL     OW 5800   3.828   0.580   0.542
 1634SOL    HW1 5801   3.787   0.669   0.559
 1634SOL    HW2 5802   3.791   0.513   0.606
 1635SOL     OW 5803   2.279   4.056   3.733
 1635SOL    HW1 5804   2.343   4.094   3.666
 1635SOL    HW2 5805   2.294   4.098   3.822
 1636SOL     OW 5806   2.145   6.976   1.008
 1636SOL    HW1 5807   2.056   7.006   0.975
 1636SOL    HW2 5808   2.218   0.000   0.960
 1637SOL     OW 5809   0.662   2.478   1.911
 1637SOL    HW1 5810   0.670   2.565   1.959
 1637SOL    HW2 5811   0.754   2.445   1.887
 1638SOL     OW 5812   0.474   2.639   5.694
 1638SOL    HW1 5813   0.568   2.631   5.660
 1638SOL    HW2 5814   0.476   2.652   5.793
 1639SOL     OW 5815   3.451   5.390   3.277
 1639SOL    HW1 5816   3.354   5.383   3.254
 1639SOL    HW2 5817   3.493   5.466   3.228
 1640SOL     OW 5818   5.929   0.238   1.260
 1640SOL    HW1 5819   5.952   0.323   1.213
 1640SOL    HW2 5820   5.913   0.166   1.193
 1641SOL     OW 5821   6.373   2.544   4.516
 1641SOL    HW1 5822   6.377   2.626   4.460
 1641SOL    HW2 5823   6.300   2.484   4.484
 1642SOL     OW 5824   0.051   2.268   1.292
 1642SOL    HW1 5825   0.015   2.182   1.329
 1642SOL    HW2 5826   7.012   2.306   1.226
 1643SOL     OW 5827   4.767   0.146   5.106
 1643SOL    HW1 5828   4.726   0.233   5.078
 1643SOL    HW2 5829   4.694   0.080   5.122
 1644SOL     OW 5830   3.971   1.594   1.174
 1644SOL    HW1 5831   3.978   1.594   1.075
 1644SOL    HW2 5832   3.975   1.500   1.208
 1645SOL     OW 5833   2.312   5.328   5.493
 1645SOL    HW1 5834   2.304   5.423   5.465
 1645SOL    HW2 5835   2.236   5.304   5.554
 1646SOL     OW 5836   3.111   3.303   0.363
 1646SOL    HW1 5837   3.123   3.293   0.462
 1646SOL    HW2 5838   3.070   3.220   0.326
 1647SOL     OW 5839   6.314   2.876   2.036
 1647SOL    HW1 5840   6.318   2.786   1.991
 1647SOL    HW2 5841   6.370   2.874   2.119
 1648SOL     OW 5842   2.534   0.685   3.645
 1648SOL    HW1 5843   2.545   0.588   3.664
 1648SOL    HW2 5844   2.624   0.726   3.626
 1649SOL     OW 5845   3.016   0.525   4.301
 1649SOL    HW1 5846   2.995   0.559   4.392
 1649SOL    HW2 5847   3.000   0.426   4.298
 1650SOL     OW 5848   2.569   6.519   4.276
 1650SOL    HW1 5849   2.535   6.555   4.189
 1650SOL    HW2 5850   2.645   6.456   4.258
 1651SOL     OW 5851   1.350   6.535   2.561
 1651SOL    HW1 5852   1.333   6.607   2.629
 1651SOL    HW2 5853   1.420   6.566   2.497
 1652SOL     OW 5854   3.888   3.607   1.169
 1652SOL    HW1 5855   3.815   3.593   1.102
 1652SOL    HW2 5856   3.868   3.554   1.251
 1653SOL     OW 5857   1.293   4.053   0.841
 1653SOL    HW1 5858   1.284   4.054   0.741
 1653SOL    HW2 5859   1.202   4.046   0.882
 1654SOL     OW 5860   0.517   2.503   3.959
 1654SOL    HW1 5861   0.444   2.512   4.026
 1654SOL    HW2 5862   0.575   2.425   3.982
 1655SOL     OW 5863   4.196   4.367   5.369
 1655SOL    HW1 5864   4.220   4.459   5.399
 1655SOL    HW2 5865   4.236   4.350   5.279
 1656SOL     OW 5866   6.780   3.221   2.637
 1656SOL    HW1 5867   6.744   3.143   2.586
 1656SOL    HW2 5868   6.739   3.223   2.728
 1657SOL     OW 5869   0.566   0.388   5.739
 1657SOL    HW1 5870   0.522   0.452   5.677
 1657SOL    HW2 5871   0.570   0.297   5.696
 1658SOL     OW 5872   5.994   6.529   3.462
 1658SOL    HW1 5873   6.016   6.620   3.498
 1658SOL    HW2 5874   5.924   6.537   3.392
 1659SOL     OW 5875   6.323   3.141   6.467
 1659SOL    HW1 5876   6.351   3.045   6.464
 1659SOL    HW2 5877   6.401   3.198   6.492
 1660SOL     OW 5878   2.122   5.837   3.956
 1660SOL    HW1 5879   2.170   5.919   3.926
 1660SOL    HW2 5880   2.160   5.757   3.911
 1661SOL     OW 5881   2.246   1.117   3.578
 1661SOL    HW1 5882   2.210   1.047   3.640
 1661SOL    HW2 5883   2.214   1.207   3.607
 1662SOL     OW 5884   0.702   1.629   3.804
 1662SOL    HW1 5885   0.736   1.619   3.711
 1662SOL    HW2 5886   0.608   1.595   3.810
 1663SOL     OW 5887   1.200   0.104   2.884
 1663SOL    HW1 5888   1.236   0.192   2.914
 1663SOL    HW2 5889   1.179   0.108   2.786
 1664SOL     OW 5890   1.987   5.884   4.436
 1664SOL    HW1 5891   1.996   5.933   4.349
 1664SOL    HW2 5892   1.940   5.797   4.420
 1665SOL     OW 5893   0.097   1.156   3.850
 1665SOL    HW1 5894   0.195   1.175   3.841
 1665SOL    HW2 5895   0.051   1.181   3.765
 1666SOL     OW 5896   5.987   2.354   0.018
 1666SOL    HW1 5897   6.076   2.317   7.015
 1666SOL    HW2 5898   6.000   2.447   0.054
 1667SOL     OW 5899   6.479   7.009   0.908
 1667SOL    HW1 5900   6.399   6.958   0.940
 1667SOL    HW2 5901   6.481   7.010   0.808
 1668SOL     OW 5902   2.265   0.168   5.079
 1668SOL    HW1 5903   2.199   0.236   5.109
 1668SOL    HW2 5904   2.218   0.081   5.061
 1669SOL     OW 5905   5.404   5.669   6.654
 1669SOL    HW1 5906   5.384   5.599   6.722
 1669SOL    HW2 5907   5.495   5.708   6.672
 1670SOL     OW 5908   6.687   3.851   6.997
 1670SOL    HW1 5909   6.620   3.842   6.923
 1670SOL    HW2 5910   6.686   3.944   0.007
 1671SOL     OW 5911   6.243   4.175   1.642
 1671SOL    HW1 5912   6.326   4.133   1.606
 1671SOL    HW2 5913   6.171   4.105   1.648
 1672SOL     OW 5914   2.280   4.172   3.414
 1672SOL    HW1 5915   2.246   4.086   3.376
 1672SOL    HW2 5916   2.217   4.205   3.484
 1673SOL     OW 5917   6.744   3.794   3.225
 1673SOL    HW1 5918   6.791   3.719   3.271
 1673SOL    HW2 5919   6.714   3.764   3.134
 1674SOL     OW 5920   2.272   6.225   0.324
 1674SOL    HW1 5921   2.359   6.181   0.303
 1674SOL    HW2 5922   2.279   6.323   0.304
 1675SOL     OW 5923   4.743   2.272   6.306
 1675SOL    HW1 5924   4.660   2.313   6.343
 1675SOL    HW2 5925   4.773   2.197   6.366
 1676SOL     OW 5926   2.717   1.109   3.084
 1676SOL    HW1 5927   2.781   1.185   3.073
 1676SOL    HW2 5928   2.624   1.146   3.093
 1677SOL     OW 5929   5.334   6.611   5.630
 1677SOL    HW1 5930   5.386   6.532   5.663
 1677SOL    HW2 5931   5.236   6.596   5.647
 1678SOL     OW 5932   4.229   6.428   1.903
 1678SOL    HW1 5933   4.286   6.362   1.953
 1678SOL    HW2 5934   4.263   6.436   1.809
 1679SOL     OW 5935   6.822   4.605   0.100
 1679SOL    HW1 5936   6.892   4.549   0.056
 1679SOL    HW2 5937   6.747   4.622   0.037
 1680SOL     OW 5938   6.775   1.881   5.461
 1680SOL    HW1 5939   6.820   1.831   5.387
 1680SOL    HW2 5940   6.760   1.820   5.539
 1681SOL     OW 5941   4.060   5.363   1.235
 1681SOL    HW1 5942   4.007   5.281   1.257
 1681SOL    HW2 5943   4.118   5.346   1.156
 1682SOL     OW 5944   0.916   3.865   6.117
 1682SOL    HW1 5945   0.963   3.809   6.185
 1682SOL    HW2 5946   0.981   3.890   6.045
 1683SOL     OW 5947   6.270   5.657   5.630
 1683SOL    HW1 5948   6.285   5.566   5.593
 1683SOL    HW2 5949   6.274   5.654   5.730
 1684SOL     OW 5950   0.600   6.956   4.513
 1684SOL    HW1 5951   0.513   7.005   4.506
 1684SOL    HW2 5952   0.672   7.019   4.543
 1685SOL     OW 5953   1.223   1.983   6.935
 1685SOL    HW1 5954   1.194   2.048   6.864
 1685SOL    HW2 5955   1.142   1.952   6.986
 1686SOL     OW 5956   1.424   0.387   6.390
 1686SOL    HW1 5957   1.433   0.290   6.415
 1686SOL    HW2 5958   1.513   0.432   6.399
 1687SOL     OW 5959   2.659   0.195   2.480
 1687SOL    HW1 5960   2.706   0.149   2.405
 1687SOL    HW2 5961   2.594   0.132   2.522
 1688SOL     OW 5962   6.652   1.520   3.189
 1688SOL    HW1 5963   6.747   1.492   3.204
 1688SOL    HW2 5964   6.645   1.569   3.102
 1689SOL     OW 5965   2.090   2.069   1.896
 1689SOL    HW1 5966   2.118   1.974   1.879
 1689SOL    HW2 5967   2.162   2.131   1.866
 1690SOL     OW 5968   1.349   1.725   6.909
 1690SOL    HW1 5969   1.307   1.640   6.881
 1690SOL    HW2 5970   1.279   1.794   6.925
 1691SOL     OW 5971   4.912   4.369   3.997
 1691SOL    HW1 5972   4.840   4.397   3.934
 1691SOL    HW2 5973   4.931   4.443   4.061
 1692SOL     OW 5974   0.862   6.165   4.055
 1692SOL    HW1 5975   0.764   6.174   4.043
 1692SOL    HW2 5976   0.903   6.126   3.973
 1693SOL     OW 5977   3.805   1.896   4.137
 1693SOL    HW1 5978   3.904   1.908   4.147
 1693SOL    HW2 5979   3.782   1.889   4.040
 1694SOL     OW 5980   6.553   6.258   5.312
 1694SOL    HW1 5981   6.506   6.219   5.390
 1694SOL    HW2 5982   6.532   6.356   5.305
 1695SOL     OW 5983   3.896   1.557   6.297
 1695SOL    HW1 5984   3.839   1.530   6.375
 1695SOL    HW2 5985   3.847   1.535   6.212
 1696SOL     OW 5986   3.957   6.012   2.032
 1696SOL    HW1 5987   3.877   5.956   2.008
 1696SOL    HW2 5988   3.996   5.980   2.118
 1697SOL     OW 5989   1.666   1.555   1.939
 1697SOL    HW1 5990   1.700   1.536   1.847
 1697SOL    HW2 5991   1.610   1.478   1.971
 1698SOL     OW 5992   5.347   1.682   0.077
 1698SOL    HW1 5993   5.425   1.707   0.020
 1698SOL    HW2 5994   5.320   1.588   0.057
 1699SOL     OW 5995   2.299   5.098   1.890
 1699SOL    HW1 5996   2.351   5.171   1.935
 1699SOL    HW2 5997   2.351   5.013   1.895
 1700SOL     OW 5998   5.889   3.365   4.810
 1700SOL    HW1 5999   5.977   3.335   4.772
 1700SOL    HW2 6000   5.903   3.401   4.902
 1701SOL     OW 6001   5.531   2.792   4.569
 1701SOL    HW1 6002   5.499   2.824   4.658
 1701SOL    HW2 6003   5.453   2.783   4.507
 1702SOL     OW 6004   5.406   2.070   1.686
 1702SOL    HW1 6005   5.325   2.060   1.628
 1702SOL    HW2 6006   5.405   1.999   1.756
 1703SOL     OW 6007   1.884   3.724   1.453
 1703SOL    HW1 6008   1.853   3.804   1.503
 1703SOL    HW2 6009   1.968   3.747   1.402
 1704SOL     OW 6010   6.306   2.336   2.151
 1704SOL    HW1 6011   6.247   2.353   2.072
 1704SOL    HW2 6012   6.393   2.384   2.139
 1705SOL     OW 6013   3.376   2.522   1.746
 1705SOL    HW1 6014   3.358   2.424   1.738
 1705SOL    HW2 6015   3.294   2.573   1.721
 1706SOL     OW 6016   2.930   0.625   6.154
 1706SOL    HW1 6017   2.854   0.610   6.092
 1706SOL    HW2 6018   3.016   0.620   6.103
 1707SOL     OW 6019   5.162   1.692   2.290
 1707SOL    HW1 6020   5.261   1.688   2.277
 1707SOL    HW2 6021   5.118   1.623   2.233
 1708SOL     OW 6022   0.118   3.555   0.931
 1708SOL    HW1 6023   0.136   3.567   0.834
 1708SOL    HW2 6024   0.085   3.461   0.947
 1709SOL     OW 6025   3.819   5.177   3.658
 1709SOL    HW1 6026   3.855   5.196   3.567
 1709SOL    HW2 6027   3.730   5.223   3.668
 1710SOL     OW 6028   6.256   3.958   4.617
 1710SOL    HW1 6029   6.312   3.988   4.540
 1710SOL    HW2 6030   6.225   3.864   4.603
 1711SOL     OW 6031   0.727   4.674   6.174
 1711SOL    HW1 6032   0.811   4.713   6.137
 1711SOL    HW2 6033   0.699   4.726   6.255
 1712SOL     OW 6034   1.778   4.528   2.223
 1712SOL    HW1 6035   1.714   4.503   2.296
 1712SOL    HW2 6036   1.783   4.454   2.156
 1713SOL     OW 6037   2.326   3.540   1.042
 1713SOL    HW1 6038   2.246   3.601   1.044
 1713SOL    HW2 6039   2.409   3.595   1.040
 1714SOL     OW 6040   5.045   0.712   0.689
 1714SOL    HW1 6041   5.012   0.683   0.599
 1714SOL    HW2 6042   4.973   0.698   0.757
 1715SOL     OW 6043   1.666   3.634   3.448
 1715SOL    HW1 6044   1.635   3.586   3.530
 1715SOL    HW2 6045   1.635   3.583   3.367
 1716SOL     OW 6046   0.156   0.365   0.433
 1716SOL    HW1 6047   0.104   0.369   0.348
 1716SOL    HW2 6048   0.219   0.442   0.438
 1717SOL     OW 6049   3.416   0.635   0.384
 1717SOL    HW1 6050   3.434   0.654   0.288
 1717SOL    HW2 6051   3.329   0.675   0.411
 1718SOL     OW 6052   1.722   3.818   5.561
 1718SOL    HW1 6053   1.774   3.793   5.643
 1718SOL    HW2 6054   1.730   3.916   5.545
 1719SOL     OW 6055   2.230   2.033   0.803
 1719SOL    HW1 6056   2.147   2.079   0.771
 1719SOL    HW2 6057   2.303   2.101   0.813
 1720SOL     OW 6058   6.757   2.245   2.361
 1720SOL    HW1 6059   6.766   2.229   2.459
 1720SOL    HW2 6060   6.730   2.160   2.315
 1721SOL     OW 6061   1.186   5.988   4.430
 1721SOL    HW1 6062   1.165   6.061   4.365
 1721SOL    HW2 6063   1.163   6.018   4.522
 1722SOL     OW 6064   4.310   0.479   1.596
 1722SOL    HW1 6065   4.364   0.549   1.550
 1722SOL    HW2 6066   4.351   0.389   1.581
 1723SOL     OW 6067   5.612   1.304   3.570
 1723SOL    HW1 6068   5.627   1.231   3.503
 1723SOL    HW2 6069   5.693   1.314   3.627
 1724SOL     OW 6070   5.898   6.636   0.016
 1724SOL    HW1 6071   5.965   6.677   0.077
 1724SOL    HW2 6072   5.857   6.707   6.984
 1725SOL     OW 6073   4.764   5.240   1.819
 1725SOL    HW1 6074   4.849   5.221   1.771
 1725SOL    HW2 6075   4.765   5.333   1.855
 1726SOL     OW 6076   6.268   4.877   5.264
 1726SOL    HW1 6077   6.273   4.811   5.189
 1726SOL    HW2 6078   6.177   4.917   5.267
 1727SOL     OW 6079   2.337   4.659   5.989
 1727SOL    HW1 6080   2.314   4.695   5.898
 1727SOL    HW2 6081   2.257   4.664   6.048
 1728SOL     OW 6082   5.072   6.583   3.153
 1728SOL    HW1 6083   5.107   6.677   3.146
 1728SOL    HW2 6084   5.109   6.529   3.078
 1729SOL     OW 6085   0.153   3.444   4.031
 1729SOL    HW1 6086   0.106   3.531   4.018
 1729SOL    HW2 6087   0.222   3.453   4.103
 1730SOL     OW 6088   4.830   2.295   5.040
 1730SOL    HW1 6089   4.873   2.238   4.971
 1730SOL    HW2 6090   4.758   2.244   5.087
 1731SOL     OW 6091   1.037   6.655   6.293
 1731SOL    HW1 6092   0.967   6.585   6.303
 1731SOL    HW2 6093   1.015   6.734   6.350
 1732SOL     OW 6094   1.377   4.659   6.748
 1732SOL    HW1 6095   1.459   4.711   6.724
 1732SOL    HW2 6096   1.346   4.687   6.839
 1733SOL     OW 6097   1.754   4.111   6.127
 1733SOL    HW1 6098   1.804   4.093   6.042
 1733SOL    HW2 6099   1.779   4.044   6.196
 1734SOL     OW 6100   5.025   4.137   0.623
 1734SOL    HW1 6101   5.092   4.189   0.676
 1734SOL    HW2 6102   4.932   4.160   0.654
 1735SOL     OW 6103   4.788   4.660   0.134
 1735SOL    HW1 6104   4.691   4.641   0.115
 1735SOL    HW2 6105   4.798   4.752   0.170
 1736SOL     OW 6106   3.897   3.397   0.681
 1736SOL    HW1 6107   3.797   3.397   0.687
 1736SOL    HW2 6108   3.931   3.305   0.701
 1737SOL     OW 6109   0.762   6.538   2.662
 1737SOL    HW1 6110   0.756   6.605   2.735
 1737SOL    HW2 6111   0.857   6.529   2.632
 1738SOL     OW 6112   0.071   1.294   2.774
 1738SOL    HW1 6113   0.013   1.354   2.829
 1738SOL    HW2 6114   0.016   1.250   2.704
 1739SOL     OW 6115   3.815   1.723   6.634
 1739SOL    HW1 6116   3.846   1.733   6.729
 1739SOL    HW2 6117   3.881   1.763   6.572
 1740SOL     OW 6118   0.760   1.618   6.529
 1740SOL    HW1 6119   0.802   1.689   6.584
 1740SOL    HW2 6120   0.661   1.621   6.541
 1741SOL     OW 6121   0.554   0.404   2.573
 1741SOL    HW1 6122   0.502   0.409   2.488
 1741SOL    HW2 6123   0.640   0.454   2.562
 1742SOL     OW 6124   6.088   5.793   3.624
 1742SOL    HW1 6125   6.112   5.861   3.692
 1742SOL    HW2 6126   5.991   5.800   3.602
 1743SOL     OW 6127   4.071   1.534   6.908
 1743SOL    HW1 6128   4.109   1.503   6.821
 1743SOL    HW2 6129   4.047   1.631   6.901
 1744SOL     OW 6130   4.665   6.607   1.400
 1744SOL    HW1 6131   4.722   6.566   1.329
 1744SOL    HW2 6132   4.572   6.618   1.364
 1745SOL     OW 6133   0.714   1.581   4.944
 1745SOL    HW1 6134   0.693   1.615   5.035
 1745SOL    HW2 6135   0.759   1.653   4.891
 1746SOL     OW 6136   2.885   1.227   0.478
 1746SOL    HW1 6137   2.836   1.314   0.476
 1746SOL    HW2 6138   2.842   1.162   0.415
 1747SOL     OW 6139   4.060   0.245   4.336
 1747SOL    HW1 6140   4.091   0.317   4.273
 1747SOL    HW2 6141   3.961   0.239   4.334
 1748SOL     OW 6142   5.622   0.911   0.988
 1748SOL    HW1 6143   5.614   0.858   1.073
 1748SOL    HW2 6144   5.715   0.947   0.980
 1749SOL     OW 6145   5.655   0.001   6.165
 1749SOL    HW1 6146   5.592   6.988   6.097
 1749SOL    HW2 6147   5.721   0.060   6.118
 1750SOL     OW 6148   3.810   1.147   2.950
 1750SOL    HW1 6149   3.808   1.064   2.894
 1750SOL    HW2 6150   3.805   1.227   2.890
 1751SOL     OW 6151   2.815   5.587   4.577
 1751SOL    HW1 6152   2.898   5.582   4.631
 1751SOL    HW2 6153   2.837   5.574   4.480
 1752SOL     OW 6154   6.732   2.409   5.856
 1752SOL    HW1 6155   6.700   2.358   5.776
 1752SOL    HW2 6156   6.793   2.482   5.826
 1753SOL     OW 6157   1.115   0.084   2.287
 1753SOL    HW1 6158   1.213   0.095   2.307
 1753SOL    HW2 6159   1.079   0.006   2.337
 1754SOL     OW 6160   2.951   3.752   3.152
 1754SOL    HW1 6161   2.963   3.750   3.053
 1754SOL    HW2 6162   2.942   3.658   3.186
 1755SOL     OW 6163   0.202   4.346   0.046
 1755SOL    HW1 6164   0.257   4.406   0.105
 1755SOL    HW2 6165   0.247   4.258   0.037
 1756SOL     OW 6166   5.218   5.596   6.131
 1756SOL    HW1 6167   5.240   5.551   6.044
 1756SOL    HW2 6168   5.164   5.533   6.187
 1757SOL     OW 6169   3.691   0.315   4.756
 1757SOL    HW1 6170   3.624   0.243   4.734
 1757SOL    HW2 6171   3.653   0.374   4.828
 1758SOL     OW 6172   1.815   0.301   2.910
 1758SOL    HW1 6173   1.750   0.355   2.855
 1758SOL    HW2 6174   1.880   0.256   2.849
 1759SOL     OW 6175   6.538   5.478   6.194
 1759SOL    HW1 6176   6.520   5.551   6.260
 1759SOL    HW2 6177   6.527   5.389   6.239
 1760SOL     OW 6178   4.841   6.658   3.271
 1760SOL    HW1 6179   4.806   6.571   3.305
 1760SOL    HW2 6180   4.930   6.642   3.228
 1761SOL     OW 6181   6.083   3.029   1.079
 1761SOL    HW1 6182   5.988   3.060   1.086
 1761SOL    HW2 6183   6.115   3.000   1.169
 1762SOL     OW 6184   5.747   2.446   0.139
 1762SOL    HW1 6185   5.661   2.397   0.125
 1762SOL    HW2 6186   5.819   2.404   0.083
 1763SOL     OW 6187   2.522   2.444   4.257
 1763SOL    HW1 6188   2.567   2.468   4.171
 1763SOL    HW2 6189   2.485   2.526   4.300
 1764SOL     OW 6190   6.952   4.743   3.486
 1764SOL    HW1 6191   6.943   4.811   3.559
 1764SOL    HW2 6192   6.911   4.657   3.515
 1765SOL     OW 6193   2.550   2.764   6.270
 1765SOL    HW1 6194   2.496   2.825   6.212
 1765SOL    HW2 6195   2.492   2.691   6.305
 1766SOL     OW 6196   5.892   4.573   6.167
 1766SOL    HW1 6197   5.864   4.484   6.202
 1766SOL    HW2 6198   5.893   4.571   6.067
 1767SOL     OW 6199   6.577   4.490   1.652
 1767SOL    HW1 6200   6.533   4.404   1.678
 1767SOL    HW2 6201   6.674   4.486   1.674
 1768SOL     OW 6202   5.844   0.055   3.195
 1768SOL    HW1 6203   5.875   0.021   3.284
 1768SOL    HW2 6204   5.832   7.004   3.132
 1769SOL     OW 6205   4.373   0.919   4.271
 1769SOL    HW1 6206   4.435   0.972   4.214
 1769SOL    HW2 6207   4.416   0.832   4.295
 1770SOL     OW 6208   3.754   5.625   5.692
 1770SOL    HW1 6209   3.706   5.683   5.759
 1770SOL    HW2 6210   3.853   5.632   5.708
 1771SOL     OW 6211   5.421   5.496   7.013
 1771SOL    HW1 6212   5.390   5.457   6.926
 1771SOL    HW2 6213   5.342   5.524   0.042
 1772SOL     OW 6214   2.481   5.846   2.123
 1772SOL    HW1 6215   2.540   5.926   2.134
 1772SOL    HW2 6216   2.450   5.815   2.213
 1773SOL     OW 6217   1.858   6.769   0.419
 1773SOL    HW1 6218   1.758   6.774   0.425
 1773SOL    HW2 6219   1.897   6.851   0.462
 1774SOL     OW 6220   2.730   5.559   1.277
 1774SOL    HW1 6221   2.781   5.632   1.323
 1774SOL    HW2 6222   2.646   5.598   1.239
 1775SOL     OW 6223   0.734   5.216   0.201
 1775SOL    HW1 6224   0.693   5.126   0.219
 1775SOL    HW2 6225   0.833   5.209   0.209
 1776SOL     OW 6226   3.313   6.265   5.251
 1776SOL    HW1 6227   3.237   6.301   5.196
 1776SOL    HW2 6228   3.282   6.252   5.346
 1777SOL     OW 6229   4.675   6.947   6.297
 1777SOL    HW1 6230   4.711   6.898   6.377
 1777SOL    HW2 6231   4.751   6.989   6.247
 1778SOL     OW 6232   0.700   3.385   6.151
 1778SOL    HW1 6233   0.693   3.347   6.243
 1778SOL    HW2 6234   0.636   3.462   6.142
 1779SOL     OW 6235   4.386   5.400   4.919
 1779SOL    HW1 6236   4.393   5.442   5.010
 1779SOL    HW2 6237   4.293   5.367   4.904
 1780SOL     OW 6238   3.779   2.131   6.577
 1780SOL    HW1 6239   3.853   2.086   6.527
 1780SOL    HW2 6240   3.790   2.115   6.675
 1781SOL     OW 6241   2.448   6.638   4.043
 1781SOL    HW1 6242   2.510   6.714   4.022
 1781SOL    HW2 6243   2.358   6.674   4.066
 1782SOL     OW 6244   3.487   1.267   5.069
 1782SOL    HW1 6245   3.486   1.182   5.121
 1782SOL    HW2 6246   3.460   1.249   4.974
 1783SOL     OW 6247   2.191   5.488   6.717
 1783SOL    HW1 6248   2.238   5.461   6.633
 1783SOL    HW2 6249   2.094   5.467   6.709
 1784SOL     OW 6250   1.374   6.728   6.287
 1784SOL    HW1 6251   1.348   6.764   6.376
 1784SOL    HW2 6252   1.297   6.736   6.224
 1785SOL     OW 6253   0.174   4.915   2.429
 1785SOL    HW1 6254   0.190   4.919   2.528
 1785SOL    HW2 6255   0.198   4.825   2.394
 1786SOL     OW 6256   4.503   2.542   1.648
 1786SOL    HW1 6257   4.523   2.448   1.619
 1786SOL    HW2 6258   4.578   2.576   1.704
 1787SOL     OW 6259   4.482   0.379   5.478
 1787SOL    HW1 6260   4.428   0.399   5.397
 1787SOL    HW2 6261   4.579   0.369   5.453
 1788SOL     OW 6262   1.741   4.992   5.292
 1788SOL    HW1 6263   1.736   5.050   5.211
 1788SOL    HW2 6264   1.719   4.898   5.267
 1789SOL     OW 6265   5.148   5.968   0.652
 1789SOL    HW1 6266   5.136   5.880   0.698
 1789SOL    HW2 6267   5.079   5.977   0.580
 1790SOL     OW 6268   2.209   6.844   3.136
 1790SOL    HW1 6269   2.158   6.908   3.193
 1790SOL    HW2 6270   2.235   6.764   3.191
 1791SOL     OW 6271   0.429   6.936   2.681
 1791SOL    HW1 6272   0.504   6.922   2.616
 1791SOL    HW2 6273   0.350   6.974   2.634
 1792SOL     OW 6274   0.829   4.270   3.925
 1792SOL    HW1 6275   0.759   4.334   3.893
 1792SOL    HW2 6276   0.785   4.198   3.980
 1793SOL     OW 6277   0.526   0.581   3.853
 1793SOL    HW1 6278   0.611   0.549   3.812
 1793SOL    HW2 6279   0.462   0.505   3.861
 1794SOL     OW 6280   4.256   6.634   6.539
 1794SOL    HW1 6281   4.234   6.684   6.455
 1794SOL    HW2 6282   4.338   6.579   6.525
 1795SOL     OW 6283   0.832   2.850   6.993
 1795SOL    HW1 6284   0.797   2.909   0.040
 1795SOL    HW2 6285   0.913   2.801   0.001
 1796SOL     OW 6286   4.529   0.711   5.358
 1796SOL    HW1 6287   4.449   0.712   5.297
 1796SOL    HW2 6288   4.498   0.713   5.453
 1797SOL     OW 6289   6.950   0.501   2.566
 1797SOL    HW1 6290   6.988   0.522   2.476
 1797SOL    HW2 6291   6.982   0.411   2.596
 1798SOL     OW 6292   6.294   2.393   3.449
 1798SOL    HW1 6293   6.313   2.441   3.534
 1798SOL    HW2 6294   6.356   2.315   3.440
 1799SOL     OW 6295   2.842   6.414   1.682
 1799SOL    HW1 6296   2.928   6.419   1.733
 1799SOL    HW2 6297   2.851   6.466   1.597
 1800SOL     OW 6298   2.869   4.847   2.002
 1800SOL    HW1 6299   2.939   4.868   1.934
 1800SOL    HW2 6300   2.838   4.752   1.991
 1801SOL     OW 6301   5.663   5.982   0.480
 1801SOL    HW1 6302   5.729   5.949   0.548
 1801SOL    HW2 6303   5.570   5.964   0.513
 1802SOL     OW 6304   5.580   5.181   4.539
 1802SOL    HW1 6305   5.622   5.200   4.450
 1802SOL    HW2 6306   5.493   5.135   4.526
 1803SOL     OW 6307   6.174   4.879   0.588
 1803SOL    HW1 6308   6.161   4.821   0.668
 1803SOL    HW2 6309   6.271   4.898   0.575
 1804SOL     OW 6310   2.999   3.794   6.209
 1804SOL    HW1 6311   3.064   3.784   6.134
 1804SOL    HW2 6312   2.911   3.753   6.183
 1805SOL     OW 6313   6.613   2.354   6.867
 1805SOL    HW1 6314   6.540   2.376   6.932
 1805SOL    HW2 6315   6.687   2.421   6.876
 1806SOL     OW 6316   6.817   6.541   0.527
 1806SOL    HW1 6317   6.888   6.588   0.580
 1806SOL    HW2 6318   6.834   6.554   0.429
 1807SOL     OW 6319   6.725   1.741   5.676
 1807SOL    HW1 6320   6.739   1.654   5.628
 1807SOL    HW2 6321   6.686   1.723   5.767
 1808SOL     OW 6322   2.124   4.830   4.910
 1808SOL    HW1 6323   2.068   4.788   4.839
 1808SOL    HW2 6324   2.218   4.840   4.876
 1809SOL     OW 6325   4.025   0.363   5.632
 1809SOL    HW1 6326   4.033   0.461   5.652
 1809SOL    HW2 6327   4.006   0.350   5.535
 1810SOL     OW 6328   4.348   6.392   3.596
 1810SOL    HW1 6329   4.368   6.483   3.558
 1810SOL    HW2 6330   4.381   6.388   3.690
 1811SOL     OW 6331   4.286   4.638   2.951
 1811SOL    HW1 6332   4.277   4.634   2.851
 1811SOL    HW2 6333   4.382   4.632   2.976
 1812SOL     OW 6334   4.709   4.527   4.947
 1812SOL    HW1 6335   4.766   4.609   4.939
 1812SOL    HW2 6336   4.749   4.454   4.891
 1813SOL     OW 6337   0.217   6.441   5.071
 1813SOL    HW1 6338   0.130   6.489   5.080
 1813SOL    HW2 6339   0.269   6.448   5.156
 1814SOL     OW 6340   4.172   6.724   2.715
 1814SOL    HW1 6341   4.242   6.696   2.780
 1814SOL    HW2 6342   4.085   6.683   2.740
 1815SOL     OW 6343   0.266   1.093   2.729
 1815SOL    HW1 6344   0.208   1.167   2.762
 1815SOL    HW2 6345   0.303   1.118   2.639
 1816SOL     OW 6346   1.671   5.260   0.983
 1816SOL    HW1 6347   1.669   5.322   0.904
 1816SOL    HW2 6348   1.592   5.199   0.979
 1817SOL     OW 6349   1.029   4.080   1.596
 1817SOL    HW1 6350   1.092   4.127   1.658
 1817SOL    HW2 6351   0.938   4.120   1.605
 1818SOL     OW 6352   0.478   2.215   2.877
 1818SOL    HW1 6353   0.447   2.163   2.956
 1818SOL    HW2 6354   0.554   2.167   2.833
 1819SOL     OW 6355   1.930   3.871   2.258
 1819SOL    HW1 6356   2.028   3.892   2.250
 1819SOL    HW2 6357   1.886   3.939   2.316
 1820SOL     OW 6358   5.698   6.875   2.395
 1820SOL    HW1 6359   5.729   6.782   2.372
 1820SOL    HW2 6360   5.673   6.923   2.311
 1821SOL     OW 6361   1.835   1.828   3.420
 1821SOL    HW1 6362   1.768   1.896   3.393
 1821SOL    HW2 6363   1.805   1.783   3.504
 1822SOL     OW 6364   3.549   3.561   2.561
 1822SOL    HW1 6365   3.641   3.530   2.538
 1822SOL    HW2 6366   3.554   3.644   2.617
 1823SOL     OW 6367   3.575   6.762   2.637
 1823SOL    HW1 6368   3.670   6.792   2.635
 1823SOL    HW2 6369   3.534   6.773   2.547
 1824SOL     OW 6370   4.956   1.334   1.719
 1824SOL    HW1 6371   4.968   1.293   1.810
 1824SOL    HW2 6372   5.022   1.294   1.656
 1825SOL     OW 6373   0.586   0.158   0.894
 1825SOL    HW1 6374   0.588   0.193   0.988
 1825SOL    HW2 6375   0.583   0.058   0.896
 1826SOL     OW 6376   2.703   5.159   6.133
 1826SOL    HW1 6377   2.633   5.090   6.115
 1826SOL    HW2 6378   2.679   5.244   6.086
 1827SOL     OW 6379   5.339   0.476   0.950
 1827SOL    HW1 6380   5.391   0.415   0.890
 1827SOL    HW2 6381   5.251   0.433   0.971
 1828SOL     OW 6382   3.206   2.888   6.919
 1828SOL    HW1 6383   3.226   2.981   6.885
 1828SOL    HW2 6384   3.198   2.890   7.018
 1829SOL     OW 6385   5.593   5.514   2.757
 1829SOL    HW1 6386   5.543   5.572   2.822
 1829SOL    HW2 6387   5.632   5.435   2.805
 1830SOL     OW 6388   4.640   0.595   4.603
 1830SOL    HW1 6389   4.577   0.641   4.541
 1830SOL    HW2 6390   4.651   0.499   4.575
 1831SOL     OW 6391   4.628   0.805   2.905
 1831SOL    HW1 6392   4.665   0.898   2.899
 1831SOL    HW2 6393   4.535   0.803   2.870
 1832SOL     OW 6394   6.062   2.546   6.309
 1832SOL    HW1 6395   6.058   2.646   6.306
 1832SOL    HW2 6396   6.051   2.515   6.404
 1833SOL     OW 6397   5.605   2.095   6.340
 1833SOL    HW1 6398   5.673   2.166   6.356
 1833SOL    HW2 6399   5.556   2.115   6.255
 1834SOL     OW 6400   2.248   4.613   0.149
 1834SOL    HW1 6401   2.338   4.646   0.119
 1834SOL    HW2 6402   2.226   4.529   0.099
 1835SOL     OW 6403   1.896   4.605   6.923
 1835SOL    HW1 6404   1.874   4.513   6.956
 1835SOL    HW2 6405   1.811   4.654   6.904
 1836SOL     OW 6406   0.573   6.398   0.678
 1836SOL    HW1 6407   0.519   6.314   0.666
 1836SOL    HW2 6408   0.540   6.468   0.616
 1837SOL     OW 6409   6.811   3.478   4.244
 1837SOL    HW1 6410   6.847   3.564   4.279
 1837SOL    HW2 6411   6.866   3.402   4.278
 1838SOL     OW 6412   1.103   3.423   4.459
 1838SOL    HW1 6413   1.018   3.372   4.469
 1838SOL    HW2 6414   1.180   3.360   4.473
 1839SOL     OW 6415   1.914   1.870   6.812
 1839SOL    HW1 6416   1.988   1.894   6.749
 1839SOL    HW2 6417   1.931   1.780   6.851
 1840SOL     OW 6418   1.843   5.830   1.532
 1840SOL    HW1 6419   1.775   5.787   1.590
 1840SOL    HW2 6420   1.807   5.917   1.497
 1841SOL     OW 6421   2.126   2.528   3.878
 1841SOL    HW1 6422   2.147   2.431   3.862
 1841SOL    HW2 6423   2.210   2.576   3.902
 1842SOL     OW 6424   2.006   5.637   6.534
 1842SOL    HW1 6425   1.975   5.548   6.568
 1842SOL    HW2 6426   1.948   5.709   6.572
 1843SOL     OW 6427   5.440   1.834   5.606
 1843SOL    HW1 6428   5.483   1.757   5.557
 1843SOL    HW2 6429   5.343   1.838   5.582
 1844SOL     OW 6430   5.939   5.270   3.848
 1844SOL    HW1 6431   5.984   5.228   3.927
 1844SOL    HW2 6432   5.976   5.231   3.764
 1845SOL     OW 6433   5.456   6.002   1.277
 1845SOL    HW1 6434   5.516   6.080   1.291
 1845SOL    HW2 6435   5.411   6.010   1.188
 1846SOL     OW 6436   3.919   0.710   5.837
 1846SOL    HW1 6437   3.909   0.800   5.878
 1846SOL    HW2 6438   3.831   0.663   5.837
 1847SOL     OW 6439   1.431   5.737   6.140
 1847SOL    HW1 6440   1.497   5.696   6.077
 1847SOL    HW2 6441   1.352   5.769   6.089
 1848SOL     OW 6442   2.033   1.583   4.070
 1848SOL    HW1 6443   2.125   1.579   4.108
 1848SOL    HW2 6444   2.030   1.652   3.997
 1849SOL     OW 6445   3.274   1.430   5.149
 1849SOL    HW1 6446   3.192   1.404   5.099
 1849SOL    HW2 6447   3.351   1.376   5.117
 1850SOL     OW 6448   4.637   2.557   1.171
 1850SOL    HW1 6449   4.693   2.588   1.249
 1850SOL    HW2 6450   4.553   2.514   1.205
 1851SOL     OW 6451   6.200   4.436   2.633
 1851SOL    HW1 6452   6.146   4.423   2.549
 1851SOL    HW2 6453   6.253   4.353   2.652
 1852SOL     OW 6454   5.260   2.236   6.459
 1852SOL    HW1 6455   5.231   2.327   6.429
 1852SOL    HW2 6456   5.323   2.244   6.536
 1853SOL     OW 6457   1.695   5.058   0.191
 1853SOL    HW1 6458   1.760   5.093   0.124
 1853SOL    HW2 6459   1.723   4.968   0.223
 1854SOL     OW 6460   2.866   5.227   4.433
 1854SOL    HW1 6461   2.803   5.224   4.511
 1854SOL    HW2 6462   2.920   5.311   4.437
 1855SOL     OW 6463   6.521   4.654   1.868
 1855SOL    HW1 6464   6.427   4.646   1.902
 1855SOL    HW2 6465   6.539   4.580   1.803
 1856SOL     OW 6466   5.132   3.033   0.142
 1856SOL    HW1 6467   5.041   2.992   0.139
 1856SOL    HW2 6468   5.127   3.128   0.110
 1857SOL     OW 6469   5.452   1.932   3.508
 1857SOL    HW1 6470   5.394   1.858   3.473
 1857SOL    HW2 6471   5.472   1.915   3.605
 1858SOL     OW 6472   5.705   3.547   2.345
 1858SOL    HW1 6473   5.698   3.572   2.442
 1858SOL    HW2 6474   5.683   3.627   2.289
 1859SOL     OW 6475   6.029   2.051   4.380
 1859SOL    HW1 6476   6.010   2.085   4.288
 1859SOL    HW2 6477   5.993   2.115   4.448
 1860SOL     OW 6478   3.833   2.056   4.843
 1860SOL    HW1 6479   3.760   2.091   4.785
 1860SOL    HW2 6480   3.802   1.972   4.889
 1861SOL     OW 6481   4.518   6.997   1.702
 1861SOL    HW1 6482   4.559   6.966   1.788
 1861SOL    HW2 6483   4.452   6.930   1.670
 1862SOL     OW 6484   2.884   2.708   1.505
 1862SOL    HW1 6485   2.934   2.689   1.590
 1862SOL    HW2 6486   2.942   2.764   1.445
 1863SOL     OW 6487   1.849   1.756   1.560
 1863SOL    HW1 6488   1.905   1.768   1.642
 1863SOL    HW2 6489   1.908   1.744   1.480
 1864SOL     OW 6490   6.733   6.385   3.097
 1864SOL    HW1 6491   6.805   6.373   3.166
 1864SOL    HW2 6492   6.658   6.321   3.116
 1865SOL     OW 6493   6.145   3.406   0.114
 1865SOL    HW1 6494   6.054   3.408   0.156
 1865SOL    HW2 6495   6.141   3.443   0.022
 1866SOL     OW 6496   6.566   5.993   1.528
 1866SOL    HW1 6497   6.469   6.007   1.508
 1866SOL    HW2 6498   6.621   6.020   1.449
 1867SOL     OW 6499   1.749   3.893   6.799
 1867SOL    HW1 6500   1.689   3.939   6.733
 1867SOL    HW2 6501   1.709   3.901   6.891
 1868SOL     OW 6502   6.815   4.269   5.541
 1868SOL    HW1 6503   6.818   4.354   5.595
 1868SOL    HW2 6504   6.853   4.194   5.595
 1869SOL     OW 6505   5.813   1.394   4.826
 1869SOL    HW1 6506   5.758   1.339   4.763
 1869SOL    HW2 6507   5.910   1.386   4.800
 1870SOL     OW 6508   1.528   3.669   5.680
 1870SOL    HW1 6509   1.591   3.745   5.662
 1870SOL    HW2 6510   1.436   3.695   5.650
 1871SOL     OW 6511   1.850   1.444   0.734
 1871SOL    HW1 6512   1.762   1.399   0.751
 1871SOL    HW2 6513   1.924   1.387   0.768
 1872SOL     OW 6514   1.577   5.289   6.340
 1872SOL    HW1 6515   1.568   5.262   6.245
 1872SOL    HW2 6516   1.639   5.227   6.388
 1873SOL     OW 6517   5.906   6.260   6.308
 1873SOL    HW1 6518   5.927   6.167   6.278
 1873SOL    HW2 6519   5.989   6.301   6.347
 1874SOL     OW 6520   1.156   4.101   2.775
 1874SOL    HW1 6521   1.184   4.017   2.821
 1874SOL    HW2 6522   1.066   4.129   2.810
 1875SOL     OW 6523   0.236   0.201   2.457
 1875SOL    HW1 6524   0.163   0.255   2.415
 1875SOL    HW2 6525   0.203   0.109   2.474
 1876SOL     OW 6526   2.277   6.381   4.286
 1876SOL    HW1 6527   2.367   6.402   4.250
 1876SOL    HW2 6528   2.253   6.287   4.264
 1877SOL     OW 6529   0.148   0.283   4.625
 1877SOL    HW1 6530   0.234   0.288   4.676
 1877SOL    HW2 6531   0.165   0.311   4.530
 1878SOL     OW 6532   6.229   3.199   5.154
 1878SOL    HW1 6533   6.316   3.242   5.177
 1878SOL    HW2 6534   6.226   3.179   5.056
 1879SOL     OW 6535   2.131   5.579   5.170
 1879SOL    HW1 6536   2.138   5.670   5.212
 1879SOL    HW2 6537   2.044   5.537   5.197
 1880SOL     OW 6538   0.114   0.633   3.901
 1880SOL    HW1 6539   0.093   0.614   3.806
 1880SOL    HW2 6540   0.208   0.667   3.908
 1881SOL     OW 6541   0.768   2.193   6.801
 1881SOL    HW1 6542   0.766   2.190   6.701
 1881SOL    HW2 6543   0.764   2.288   6.831
 1882SOL     OW 6544   0.605   5.699   0.283
 1882SOL    HW1 6545   0.524   5.752   0.261
 1882SOL    HW2 6546   0.684   5.760   0.292
 1883SOL     OW 6547   6.833   2.826   4.349
 1883SOL    HW1 6548   6.841   2.728   4.332
 1883SOL    HW2 6549   6.883   2.850   4.432
 1884SOL     OW 6550   6.025   1.360   0.390
 1884SOL    HW1 6551   5.947   1.312   0.351
 1884SOL    HW2 6552   6.097   1.294   0.413
 1885SOL     OW 6553   3.388   1.201   4.818
 1885SOL    HW1 6554   3.294   1.223   4.791
 1885SOL    HW2 6555   3.450   1.219   4.741
 1886SOL     OW 6556   1.005   6.817   3.558
 1886SOL    HW1 6557   0.985   6.914   3.568
 1886SOL    HW2 6558   1.025   6.777   3.647
 1887SOL     OW 6559   2.644   5.143   6.383
 1887SOL    HW1 6560   2.660   5.151   6.284
 1887SOL    HW2 6561   2.546   5.143   6.400
 1888SOL     OW 6562   2.018   6.878   3.631
 1888SOL    HW1 6563   1.975   6.854   3.544
 1888SOL    HW2 6564   2.116   6.892   3.616
 1889SOL     OW 6565   0.526   3.833   2.770
 1889SOL    HW1 6566   0.593   3.766   2.802
 1889SOL    HW2 6567   0.565   3.887   2.696
 1890SOL     OW 6568   2.546   5.637   4.531
 1890SOL    HW1 6569   2.643   5.630   4.554
 1890SOL    HW2 6570   2.514   5.550   4.493
 1891SOL     OW 6571   3.895   3.222   4.732
 1891SOL    HW1 6572   3.821   3.166   4.695
 1891SOL    HW2 6573   3.965   3.235   4.662
 1892SOL     OW 6574   6.401   0.853   2.790
 1892SOL    HW1 6575   6.488   0.823   2.830
 1892SOL    HW2 6576   6.351   0.774   2.758
 1893SOL     OW 6577   3.345   3.912   3.554
 1893SOL    HW1 6578   3.294   3.832   3.522
 1893SOL    HW2 6579   3.354   3.978   3.479
 1894SOL     OW 6580   2.399   2.874   5.886
 1894SOL    HW1 6581   2.469   2.802   5.881
 1894SOL    HW2 6582   2.435   2.953   5.935
 1895SOL     OW 6583   0.939   6.373   1.687
 1895SOL    HW1 6584   0.956   6.285   1.732
 1895SOL    HW2 6585   0.993   6.444   1.732
 1896SOL     OW 6586   6.527   2.685   0.808
 1896SOL    HW1 6587   6.617   2.643   0.800
 1896SOL    HW2 6588   6.458   2.614   0.822
 1897SOL     OW 6589   2.696   4.630   2.978
 1897SOL    HW1 6590   2.637   4.677   2.912
 1897SOL    HW2 6591   2.788   4.668   2.973
 1898SOL     OW 6592   1.845   5.809   2.026
 1898SOL    HW1 6593   1.865   5.887   1.967
 1898SOL    HW2 6594   1.844   5.725   1.972
 1899SOL     OW 6595   0.024   0.816   2.154
 1899SOL    HW1 6596   0.039   0.737   2.095
 1899SOL    HW2 6597   6.982   0.793   2.224
 1900SOL     OW 6598   3.146   5.933   6.109
 1900SOL    HW1 6599   3.128   5.860   6.176
 1900SOL    HW2 6600   3.136   5.897   6.017
 1901SOL     OW 6601   4.028   3.089   2.543
 1901SOL    HW1 6602   3.991   3.176   2.509
 1901SOL    HW2 6603   4.118   3.074   2.503
 1902SOL     OW 6604   1.396   6.918   5.383
 1902SOL    HW1 6605   1.434   6.853   5.317
 1902SOL    HW2 6606   1.458   6.924   5.462
 1903SOL     OW 6607   0.123   2.603   4.525
 1903SOL    HW1 6608   0.049   2.642   4.579
 1903SOL    HW2 6609   0.121   2.503   4.532
 1904SOL     OW 6610   5.839   6.017   2.358
 1904SOL    HW1 6611   5.877   6.013   2.266
 1904SOL    HW2 6612   5.757   5.960   2.362
 1905SOL     OW 6613   0.650   2.581   3.039
 1905SOL    HW1 6614   0.732   2.535   3.073
 1905SOL    HW2 6615   0.666   2.680   3.037
 1906SOL     OW 6616   0.656   6.234   3.485
 1906SOL    HW1 6617   0.608   6.319   3.464
 1906SOL    HW2 6618   0.663   6.223   3.584
 1907SOL     OW 6619   6.491   2.890   0.564
 1907SOL    HW1 6620   6.414   2.933   0.610
 1907SOL    HW2 6621   6.512   2.803   0.608
 1908SOL     OW 6622   4.476   0.659   1.463
 1908SOL    HW1 6623   4.427   0.743   1.485
 1908SOL    HW2 6624   4.560   0.682   1.415
 1909SOL     OW 6625   6.422   5.660   4.835
 1909SOL    HW1 6626   6.329   5.652   4.869
 1909SOL    HW2 6627   6.420   5.700   4.743
 1910SOL     OW 6628   0.335   6.562   4.461
 1910SOL    HW1 6629   0.353   6.625   4.385
 1910SOL    HW2 6630   0.306   6.614   4.541
 1911SOL     OW 6631   5.517   6.286   4.240
 1911SOL    HW1 6632   5.526   6.211   4.174
 1911SOL    HW2 6633   5.584   6.274   4.313
 1912SOL     OW 6634   3.809   4.812   2.287
 1912SOL    HW1 6635   3.748   4.877   2.331
 1912SOL    HW2 6636   3.865   4.766   2.357
 1913SOL     OW 6637   2.902   4.711   6.807
 1913SOL    HW1 6638   2.867   4.624   6.772
 1913SOL    HW2 6639   2.839   4.784   6.782
 1914SOL     OW 6640   4.159   4.811   0.468
 1914SOL    HW1 6641   4.206   4.824   0.556
 1914SOL    HW2 6642   4.212   4.854   0.395
 1915SOL     OW 6643   4.435   1.266   6.729
 1915SOL    HW1 6644   4.390   1.263   6.818
 1915SOL    HW2 6645   4.475   1.356   6.714
 1916SOL     OW 6646   3.725   1.441   3.286
 1916SOL    HW1 6647   3.631   1.410   3.301
 1916SOL    HW2 6648   3.767   1.466   3.373
 1917SOL     OW 6649   2.507   4.190   1.813
 1917SOL    HW1 6650   2.591   4.160   1.768
 1917SOL    HW2 6651   2.439   4.216   1.743
 1918SOL     OW 6652   4.891   3.666   4.245
 1918SOL    HW1 6653   4.938   3.715   4.171
 1918SOL    HW2 6654   4.848   3.584   4.208
 1919SOL     OW 6655   6.519   0.227   6.981
 1919SOL    HW1 6656   6.461   0.297   7.023
 1919SOL    HW2 6657   6.613   0.240   7.010
 1920SOL     OW 6658   4.556   3.397   0.640
 1920SOL    HW1 6659   4.633   3.459   0.656
 1920SOL    HW2 6660   4.588   3.302   0.643
 1921SOL     OW 6661   2.619   2.020   0.083
 1921SOL    HW1 6662   2.554   2.095   0.070
 1921SOL    HW2 6663   2.573   1.933   0.064
 1922SOL     OW 6664   3.995   3.943   4.463
 1922SOL    HW1 6665   4.039   3.903   4.383
 1922SOL    HW2 6666   4.041   3.909   4.546
 1923SOL     OW 6667   3.228   0.046   4.316
 1923SOL    HW1 6668   3.167   0.123   4.300
 1923SOL    HW2 6669   3.252   0.004   4.228
 1924SOL     OW 6670   4.944   1.756   1.033
 1924SOL    HW1 6671   5.023   1.712   1.076
 1924SOL    HW2 6672   4.861   1.726   1.080
 1925SOL     OW 6673   1.225   4.012   0.574
 1925SOL    HW1 6674   1.313   3.966   0.581
 1925SOL    HW2 6675   1.236   4.101   0.531
 1926SOL     OW 6676   2.666   6.693   1.654
 1926SOL    HW1 6677   2.617   6.655   1.732
 1926SOL    HW2 6678   2.663   6.629   1.578
 1927SOL     OW 6679   1.962   4.867   1.493
 1927SOL    HW1 6680   2.020   4.933   1.445
 1927SOL    HW2 6681   1.913   4.811   1.426
 1928SOL     OW 6682   1.403   4.196   2.326
 1928SOL    HW1 6683   1.494   4.206   2.286
 1928SOL    HW2 6684   1.400   4.246   2.413
 1929SOL     OW 6685   3.181   0.660   3.544
 1929SOL    HW1 6686   3.194   0.690   3.638
 1929SOL    HW2 6687   3.159   0.739   3.486
 1930SOL     OW 6688   3.266   3.859   0.098
 1930SOL    HW1 6689   3.172   3.866   0.132
 1930SOL    HW2 6690   3.316   3.792   0.153
 1931SOL     OW 6691   5.720   3.623   3.378
 1931SOL    HW1 6692   5.727   3.721   3.358
 1931SOL    HW2 6693   5.796   3.575   3.335
 1932SOL     OW 6694   4.693   1.154   1.890
 1932SOL    HW1 6695   4.657   1.231   1.837
 1932SOL    HW2 6696   4.791   1.166   1.904
 1933SOL     OW 6697   1.750   1.165   0.600
 1933SOL    HW1 6698   1.728   1.122   0.687
 1933SOL    HW2 6699   1.666   1.188   0.552
 1934SOL     OW 6700   6.268   0.605   0.363
 1934SOL    HW1 6701   6.263   0.611   0.263
 1934SOL    HW2 6702   6.362   0.590   0.391
 1935SOL     OW 6703   5.254   5.396   3.183
 1935SOL    HW1 6704   5.252   5.486   3.140
 1935SOL    HW2 6705   5.254   5.406   3.283
 1936SOL     OW 6706   5.957   2.804   6.327
 1936SOL    HW1 6707   5.859   2.787   6.338
 1936SOL    HW2 6708   5.978   2.898   6.355
 1937SOL     OW 6709   0.908   5.690   6.838
 1937SOL    HW1 6710   1.005   5.668   6.824
 1937SOL    HW2 6711   0.899   5.789   6.852
 1938SOL     OW 6712   6.586   0.980   6.720
 1938SOL    HW1 6713   6.506   1.018   6.766
 1938SOL    HW2 6714   6.580   0.999   6.622
 1939SOL     OW 6715   0.478   0.403   4.151
 1939SOL    HW1 6716   0.564   0.444   4.123
 1939SOL    HW2 6717   0.432   0.463   4.217
 1940SOL     OW 6718   1.006   5.563   2.674
 1940SOL    HW1 6719   0.935   5.510   2.721
 1940SOL    HW2 6720   1.095   5.541   2.713
 1941SOL     OW 6721   6.258   1.263   3.687
 1941SOL    HW1 6722   6.265   1.361   3.705
 1941SOL    HW2 6723   6.162   1.236   3.686
 1942SOL     OW 6724   1.096   6.506   1.323
 1942SOL    HW1 6725   1.059   6.414   1.313
 1942SOL    HW2 6726   1.159   6.509   1.401
 1943SOL     OW 6727   0.995   3.973   3.139
 1943SOL    HW1 6728   0.979   3.902   3.071
 1943SOL    HW2 6729   1.092   3.976   3.162
 1944SOL     OW 6730   0.026   3.705   4.098
 1944SOL    HW1 6731   0.068   3.781   4.148
 1944SOL    HW2 6732   6.972   3.739   4.047
 1945SOL     OW 6733   4.926   2.120   2.055
 1945SOL    HW1 6734   4.892   2.204   2.013
 1945SOL    HW2 6735   5.026   2.120   2.053
 1946SOL     OW 6736   6.380   4.834   6.309
 1946SOL    HW1 6737   6.372   4.736   6.290
 1946SOL    HW2 6738   6.298   4.866   6.356
 1947SOL     OW 6739   5.305   6.362   2.430
 1947SOL    HW1 6740   5.384   6.301   2.430
 1947SOL    HW2 6741   5.296   6.404   2.340
 1948SOL     OW 6742   5.125   2.566   2.732
 1948SOL    HW1 6743   5.059   2.579   2.658
 1948SOL    HW2 6744   5.203   2.513   2.698
 1949SOL     OW 6745   3.227   4.268   6.304
 1949SOL    HW1 6746   3.229   4.315   6.393
 1949SOL    HW2 6747   3.165   4.190   6.310
 1950SOL     OW 6748   3.710   3.199   4.381
 1950SOL    HW1 6749   3.685   3.166   4.290
 1950SOL    HW2 6750   3.663   3.145   4.451
 1951SOL     OW 6751   1.297   5.249   5.904
 1951SOL    HW1 6752   1.277   5.291   5.816
 1951SOL    HW2 6753   1.284   5.317   5.977
 1952SOL     OW 6754   5.697   3.839   0.177
 1952SOL    HW1 6755   5.786   3.864   0.215
 1952SOL    HW2 6756   5.706   3.817   0.080
 1953SOL     OW 6757   6.978   0.954   6.303
 1953SOL    HW1 6758   6.914   0.973   6.229
 1953SOL    HW2 6759   7.003   1.039   6.349
 1954SOL     OW 6760   4.242   6.343   3.230
 1954SOL    HW1 6761   4.335   6.347   3.196
 1954SOL    HW2 6762   4.226   6.419   3.293
 1955SOL     OW 6763   0.756   3.307   4.032
 1955SOL    HW1 6764   0.797   3.396   4.055
 1955SOL    HW2 6765   0.691   3.319   3.957
 1956SOL     OW 6766   4.438   1.408   1.249
 1956SOL    HW1 6767   4.444   1.507   1.265
 1956SOL    HW2 6768   4.519   1.378   1.198
 1957SOL     OW 6769   0.676   3.453   4.661
 1957SOL    HW1 6770   0.720   3.392   4.728
 1957SOL    HW2 6771   0.724   3.541   4.661
 1958SOL     OW 6772   5.445   1.570   0.551
 1958SOL    HW1 6773   5.442   1.632   0.473
 1958SOL    HW2 6774   5.461   1.477   0.518
 1959SOL     OW 6775   2.232   1.184   6.570
 1959SOL    HW1 6776   2.204   1.099   6.526
 1959SOL    HW2 6777   2.211   1.180   6.668
 1960SOL     OW 6778   4.699   4.236   2.197
 1960SOL    HW1 6779   4.627   4.240   2.128
 1960SOL    HW2 6780   4.781   4.194   2.158
 1961SOL     OW 6781   6.454   3.733   4.302
 1961SOL    HW1 6782   6.386   3.668   4.335
 1961SOL    HW2 6783   6.539   3.722   4.354
 1962SOL     OW 6784   0.471   0.172   2.335
 1962SOL    HW1 6785   0.395   0.191   2.397
 1962SOL    HW2 6786   0.465   0.077   2.303
 1963SOL     OW 6787   0.873   1.212   6.411
 1963SOL    HW1 6788   0.889   1.216   6.510
 1963SOL    HW2 6789   0.778   1.186   6.394
 1964SOL     OW 6790   5.476   3.066   0.948
 1964SOL    HW1 6791   5.454   3.106   0.860
 1964SOL    HW2 6792   5.573   3.039   0.950
 1965SOL     OW 6793   5.681   5.090   5.001
 1965SOL    HW1 6794   5.781   5.092   5.002
 1965SOL    HW2 6795   5.648   5.021   5.065
 1966SOL     OW 6796   1.370   5.069   6.953
 1966SOL    HW1 6797   1.443   5.107   6.897
 1966SOL    HW2 6798   1.283   5.113   6.929
 1967SOL     OW 6799   6.008   2.860   3.956
 1967SOL    HW1 6800   6.078   2.930   3.972
 1967SOL    HW2 6801   6.050   2.781   3.913
 1968SOL     OW 6802   2.945   1.558   5.472
 1968SOL    HW1 6803   3.020   1.585   5.411
 1968SOL    HW2 6804   2.930   1.630   5.540
 1969SOL     OW 6805   0.586   6.491   1.866
 1969SOL    HW1 6806   0.650   6.528   1.933
 1969SOL    HW2 6807   0.594   6.392   1.864
 1970SOL     OW 6808   5.300   4.147   2.505
 1970SOL    HW1 6809   5.264   4.199   2.428
 1970SOL    HW2 6810   5.318   4.053   2.475
 1971SOL     OW 6811   1.056   6.166   4.628
 1971SOL    HW1 6812   1.051   6.230   4.552
 1971SOL    HW2 6813   1.076   6.216   4.712
 1972SOL     OW 6814   4.991   2.022   3.474
 1972SOL    HW1 6815   5.028   1.972   3.396
 1972SOL    HW2 6816   5.062   2.083   3.511
 1973SOL     OW 6817   4.760   2.705   6.969
 1973SOL    HW1 6818   4.840   2.672   7.018
 1973SOL    HW2 6819   4.706   2.627   6.937
 1974SOL     OW 6820   2.334   6.054   4.745
 1974SOL    HW1 6821   2.240   6.055   4.711
 1974SOL    HW2 6822   2.379   6.140   4.720
 1975SOL     OW 6823   1.627   2.018   2.518
 1975SOL    HW1 6824   1.562   1.952   2.480
 1975SOL    HW2 6825   1.719   1.981   2.512
 1976SOL     OW 6826   2.462   0.191   4.643
 1976SOL    HW1 6827   2.515   0.197   4.728
 1976SOL    HW2 6828   2.374   0.146   4.662
 1977SOL     OW 6829   1.285   4.488   0.317
 1977SOL    HW1 6830   1.349   4.499   0.393
 1977SOL    HW2 6831   1.194   4.521   0.345
 1978SOL     OW 6832   2.898   0.759   1.737
 1978SOL    HW1 6833   2.865   0.673   1.699
 1978SOL    HW2 6834   2.885   0.833   1.672
 1979SOL     OW 6835   5.480   2.894   6.970
 1979SOL    HW1 6836   5.456   2.934   6.882
 1979SOL    HW2 6837   5.541   2.956   7.020
 1980SOL     OW 6838   4.420   6.826   1.074
 1980SOL    HW1 6839   4.511   6.791   1.096
 1980SOL    HW2 6840   4.393   6.894   1.142
 1981SOL     OW 6841   4.366   2.751   1.532
 1981SOL    HW1 6842   4.369   2.845   1.565
 1981SOL    HW2 6843   4.444   2.700   1.569
 1982SOL     OW 6844   3.046   1.834   6.301
 1982SOL    HW1 6845   3.133   1.855   6.257
 1982SOL    HW2 6846   3.017   1.912   6.357
 1983SOL     OW 6847   7.019   2.344   0.260
 1983SOL    HW1 6848   0.045   2.260   0.242
 1983SOL    HW2 6849   6.950   2.327   0.331
 1984SOL     OW 6850   4.859   3.281   5.944
 1984SOL    HW1 6851   4.829   3.374   5.920
 1984SOL    HW2 6852   4.787   3.236   5.996
 1985SOL     OW 6853   5.125   5.644   5.198
 1985SOL    HW1 6854   5.132   5.651   5.098
 1985SOL    HW2 6855   5.058   5.574   5.222
 1986SOL     OW 6856   3.371   3.149   3.182
 1986SOL    HW1 6857   3.441   3.092   3.138
 1986SOL    HW2 6858   3.388   3.245   3.161
 1987SOL     OW 6859   1.408   2.280   1.935
 1987SOL    HW1 6860   1.426   2.200   1.878
 1987SOL    HW2 6861   1.463   2.357   1.903
 1988SOL     OW 6862   0.754   0.929   2.135
 1988SOL    HW1 6863   0.723   1.023   2.120
 1988SOL    HW2 6864   0.695   0.885   2.203
 1989SOL     OW 6865   3.256   5.014   3.315
 1989SOL    HW1 6866   3.315   4.992   3.392
 1989SOL    HW2 6867   3.252   5.113   3.303
 1990SOL     OW 6868   4.931   0.095   0.389
 1990SOL    HW1 6869   4.837   0.120   0.363
 1990SOL    HW2 6870   4.928   0.018   0.453
 1991SOL     OW 6871   2.922   5.104   2.410
 1991SOL    HW1 6872   2.856   5.143   2.475
 1991SOL    HW2 6873   2.914   5.151   2.322
 1992SOL     OW 6874   0.455   1.041   2.914
 1992SOL    HW1 6875   0.427   0.964   2.973
 1992SOL    HW2 6876   0.379   1.065   2.853
 1993SOL     OW 6877   1.499   0.791   0.827
 1993SOL    HW1 6878   1.597   0.805   0.835
 1993SOL    HW2 6879   1.459   0.782   0.919
 1994SOL     OW 6880   2.829   3.398   2.030
 1994SOL    HW1 6881   2.769   3.322   2.057
 1994SOL    HW2 6882   2.857   3.448   2.111
 1995SOL     OW 6883   6.361   0.582   4.189
 1995SOL    HW1 6884   6.328   0.489   4.206
 1995SOL    HW2 6885   6.440   0.579   4.127
 1996SOL     OW 6886   4.528   0.150   1.058
 1996SOL    HW1 6887   4.543   0.246   1.079
 1996SOL    HW2 6888   4.548   0.094   1.139
 1997SOL     OW 6889   2.996   2.020   2.738
 1997SOL    HW1 6890   3.025   1.925   2.748
 1997SOL    HW2 6891   3.075   2.077   2.714
 1998SOL     OW 6892   2.358   3.630   0.747
 1998SOL    HW1 6893   2.434   3.691   0.726
 1998SOL    HW2 6894   2.324   3.649   0.839
 1999SOL     OW 6895   0.743   6.954   5.388
 1999SOL    HW1 6896   0.843   6.947   5.391
 1999SOL    HW2 6897   0.707   6.957   5.482
 2000SOL     OW 6898   3.871   3.862   6.472
 2000SOL    HW1 6899   3.848   3.959   6.485
 2000SOL    HW2 6900   3.790   3.812   6.442
 2001SOL     OW 6901   1.084   1.231   0.473
 2001SOL    HW1 6902   1.012   1.213   0.405
 2001SOL    HW2 6903   1.066   1.318   0.518
 2002SOL     OW 6904   5.292   5.441   6.787
 2002SOL    HW1 6905   5.362   5.379   6.751
 2002SOL    HW2 6906   5.202   5.410   6.758
 2003SOL     OW 6907   6.909   5.533   1.778
 2003SOL    HW1 6908   6.993   5.580   1.752
 2003SOL    HW2 6909   6.928   5.436   1.795
 2004SOL     OW 6910   3.267   1.119   2.799
 2004SOL    HW1 6911   3.174   1.146   2.776
 2004SOL    HW2 6912   3.290   1.152   2.891
 2005SOL     OW 6913   1.259   6.430   6.698
 2005SOL    HW1 6914   1.302   6.340   6.700
 2005SOL    HW2 6915   1.241   6.456   6.603
 2006SOL     OW 6916   6.398   0.478   2.481
 2006SOL    HW1 6917   6.366   0.400   2.428
 2006SOL    HW2 6918   6.492   0.501   2.454
 2007SOL     OW 6919   5.341   4.840   5.764
 2007SOL    HW1 6920   5.354   4.937   5.785
 2007SOL    HW2 6921   5.249   4.812   5.795
 2008SOL     OW 6922   1.554   2.460   3.079
 2008SOL    HW1 6923   1.515   2.543   3.040
 2008SOL    HW2 6924   1.630   2.429   3.023
 2009SOL     OW 6925   5.917   0.337   3.691
 2009SOL    HW1 6926   5.997   0.316   3.747
 2009SOL    HW2 6927   5.896   0.434   3.698
 2010SOL     OW 6928   6.492   1.112   1.586
 2010SOL    HW1 6929   6.429   1.110   1.664
 2010SOL    HW2 6930   6.486   1.202   1.541
 2011SOL     OW 6931   0.767   0.101   5.175
 2011SOL    HW1 6932   0.733   0.043   5.249
 2011SOL    HW2 6933   0.692   0.126   5.115
 2012SOL     OW 6934   0.404   2.560   0.459
 2012SOL    HW1 6935   0.502   2.580   0.454
 2012SOL    HW2 6936   0.387   2.488   0.526
 2013SOL     OW 6937   0.652   2.197   1.972
 2013SOL    HW1 6938   0.623   2.236   2.060
 2013SOL    HW2 6939   0.644   2.266   1.901
 2014SOL     OW 6940   4.531   2.123   2.947
 2014SOL    HW1 6941   4.459   2.175   2.992
 2014SOL    HW2 6942   4.517   2.025   2.964
 2015SOL     OW 6943   3.877   5.883   0.776
 2015SOL    HW1 6944   3.780   5.904   0.783
 2015SOL    HW2 6945   3.889   5.785   0.758
 2016SOL     OW 6946   2.544   0.538   4.242
 2016SOL    HW1 6947   2.447   0.524   4.260
 2016SOL    HW2 6948   2.586   0.585   4.319
 2017SOL     OW 6949   0.945   6.808   4.655
 2017SOL    HW1 6950   0.859   6.757   4.651
 2017SOL    HW2 6951   0.937   6.890   4.599
 2018SOL     OW 6952   0.560   1.412   4.810
 2018SOL    HW1 6953   0.587   1.330   4.860
 2018SOL    HW2 6954   0.616   1.489   4.838
 2019SOL     OW 6955   1.016   4.566   0.280
 2019SOL    HW1 6956   0.952   4.630   0.238
 2019SOL    HW2 6957   0.986   4.472   0.261
 2020SOL     OW 6958   2.072   0.064   1.546
 2020SOL    HW1 6959   2.028   0.095   1.462
 2020SOL    HW2 6960   2.139   7.018   1.525
 2021SOL     OW 6961   6.671   5.202   3.985
 2021SOL    HW1 6962   6.617   5.151   4.051
 2021SOL    HW2 6963   6.763   5.163   3.980
 2022SOL     OW 6964   2.116   3.114   4.143
 2022SOL    HW1 6965   2.176   3.034   4.142
 2022SOL    HW2 6966   2.032   3.093   4.093
 2023SOL     OW 6967   1.595   5.656   5.944
 2023SOL    HW1 6968   1.659   5.697   5.879
 2023SOL    HW2 6969   1.606   5.557   5.945
 2024SOL     OW 6970   6.062   5.101   3.145
 2024SOL    HW1 6971   6.028   5.166   3.077
 2024SOL    HW2 6972   6.159   5.084   3.129
 2025SOL     OW 6973   2.188   0.350   4.810
 2025SOL    HW1 6974   2.092   0.379   4.809
 2025SOL    HW2 6975   2.196   0.259   4.770
 2026SOL     OW 6976   1.748   6.502   5.799
 2026SOL    HW1 6977   1.663   6.542   5.766
 2026SOL    HW2 6978   1.826   6.552   5.761
 2027SOL     OW 6979   5.620   6.693   2.979
 2027SOL    HW1 6980   5.527   6.669   3.009
 2027SOL    HW2 6981   5.634   6.660   2.886
 2028SOL     OW 6982   2.660   5.792   4.916
 2028SOL    HW1 6983   2.582   5.854   4.926
 2028SOL    HW2 6984   2.703   5.807   4.827
 2029SOL     OW 6985   6.779   1.751   6.534
 2029SOL    HW1 6986   6.739   1.825   6.587
 2029SOL    HW2 6987   6.866   1.781   6.496
 2030SOL     OW 6988   1.273   6.050   2.575
 2030SOL    HW1 6989   1.199   5.985   2.591
 2030SOL    HW2 6990   1.329   6.019   2.498
 2031SOL     OW 6991   0.077   0.991   3.506
 2031SOL    HW1 6992   7.014   0.955   3.478
 2031SOL    HW2 6993   0.064   1.069   3.568
 2032SOL     OW 6994   2.821   2.951   5.967
 2032SOL    HW1 6995   2.778   2.869   6.005
 2032SOL    HW2 6996   2.918   2.933   5.952
 2033SOL     OW 6997   3.592   0.317   1.298
 2033SOL    HW1 6998   3.650   0.377   1.242
 2033SOL    HW2 6999   3.498   0.318   1.262
 2034SOL     OW 7000   0.790   3.974   5.707
 2034SOL    HW1 7001   0.888   3.984   5.726
 2034SOL    HW2 7002   0.779   3.923   5.621
 2035SOL     OW 7003   4.797   6.429   2.805
 2035SOL    HW1 7004   4.760   6.479   2.883
 2035SOL    HW2 7005   4.726   6.370   2.766
 2036SOL     OW 7006   6.901   4.074   5.707
 2036SOL    HW1 7007   6.931   4.082   5.802
 2036SOL    HW2 7008   6.855   3.987   5.693
 2037SOL     OW 7009   0.764   2.217   6.504
 2037SOL    HW1 7010   0.789   2.190   6.411
 2037SOL    HW2 7011   0.679   2.269   6.502
 2038SOL     OW 7012   2.391   1.086   5.975
 2038SOL    HW1 7013   2.455   1.021   6.015
 2038SOL    HW2 7014   2.341   1.133   6.048
 2039SOL     OW 7015   4.751   6.111   4.519
 2039SOL    HW1 7016   4.784   6.195   4.477
 2039SOL    HW2 7017   4.828   6.051   4.538
 2040SOL     OW 7018   3.087   1.452   0.938
 2040SOL    HW1 7019   3.182   1.443   0.966
 2040SOL    HW2 7020   3.035   1.498   1.011
 2041SOL     OW 7021   2.223   6.896   6.555
 2041SOL    HW1 7022   2.310   6.894   6.603
 2041SOL    HW2 7023   2.203   6.990   6.526
 2042SOL     OW 7024   0.155   0.509   5.672
 2042SOL    HW1 7025   0.105   0.557   5.601
 2042SOL    HW2 7026   0.097   0.439   5.713
 2043SOL     OW 7027   1.639   2.763   0.864
 2043SOL    HW1 7028   1.709   2.817   0.817
 2043SOL    HW2 7029   1.683   2.691   0.918
 2044SOL     OW 7030   2.873   1.304   1.605
 2044SOL    HW1 7031   2.856   1.266   1.696
 2044SOL    HW2 7032   2.798   1.280   1.544
 2045SOL     OW 7033   1.839   6.458   4.002
 2045SOL    HW1 7034   1.823   6.547   3.960
 2045SOL    HW2 7035   1.924   6.460   4.055
 2046SOL     OW 7036   6.733   2.117   5.325
 2046SOL    HW1 7037   6.747   2.031   5.374
 2046SOL    HW2 7038   6.725   2.192   5.390
 2047SOL     OW 7039   6.667   0.144   1.942
 2047SOL    HW1 7040   6.710   0.065   1.985
 2047SOL    HW2 7041   6.570   0.147   1.966
 2048SOL     OW 7042   2.091   0.927   3.701
 2048SOL    HW1 7043   2.018   0.941   3.768
 2048SOL    HW2 7044   2.077   0.839   3.655
 2049SOL     OW 7045   4.469   2.568   5.027
 2049SOL    HW1 7046   4.394   2.599   5.086
 2049SOL    HW2 7047   4.555   2.573   5.077
 2050SOL     OW 7048   6.788   1.205   3.135
 2050SOL    HW1 7049   6.886   1.223   3.144
 2050SOL    HW2 7050   6.761   1.215   3.039
 2051SOL     OW 7051   3.654   6.948   6.398
 2051SOL    HW1 7052   3.563   6.988   6.410
 2051SOL    HW2 7053   3.685   6.963   6.305
 2052SOL     OW 7054   0.379   3.969   1.096
 2052SOL    HW1 7055   0.337   4.059   1.108
 2052SOL    HW2 7056   0.308   3.901   1.079
 2053SOL     OW 7057   4.555   4.831   1.701
 2053SOL    HW1 7058   4.508   4.785   1.776
 2053SOL    HW2 7059   4.653   4.833   1.720
 2054SOL     OW 7060   3.359   3.537   3.960
 2054SOL    HW1 7061   3.403   3.559   4.048
 2054SOL    HW2 7062   3.350   3.620   3.906
 2055SOL     OW 7063   2.753   2.981   5.688
 2055SOL    HW1 7064   2.744   3.078   5.665
 2055SOL    HW2 7065   2.802   2.971   5.775
 2056SOL     OW 7066   3.030   5.194   0.951
 2056SOL    HW1 7067   2.985   5.258   1.013
 2056SOL    HW2 7068   3.066   5.243   0.872
 2057SOL     OW 7069   6.033   3.235   4.440
 2057SOL    HW1 7070   6.078   3.266   4.356
 2057SOL    HW2 7071   5.985   3.149   4.423
 2058SOL     OW 7072   4.894   1.512   2.678
 2058SOL    HW1 7073   4.829   1.572   2.630
 2058SOL    HW2 7074   4.986   1.529   2.644
 2059SOL     OW 7075   2.395   2.071   5.672
 2059SOL    HW1 7076   2.313   2.039   5.625
 2059SOL    HW2 7077   2.475   2.024   5.636
 2060SOL     OW 7078   1.395   2.408   5.759
 2060SOL    HW1 7079   1.431   2.450   5.842
 2060SOL    HW2 7080   1.327   2.468   5.717
 2061SOL     OW 7081   2.779   2.324   3.370
 2061SOL    HW1 7082   2.749   2.240   3.324
 2061SOL    HW2 7083   2.855   2.303   3.431
 2062SOL     OW 7084   4.469   5.013   4.118
 2062SOL    HW1 7085   4.501   4.920   4.136
 2062SOL    HW2 7086   4.369   5.014   4.118
 2063SOL     OW 7087   1.339   1.443   4.072
 2063SOL    HW1 7088   1.278   1.521   4.085
 2063SOL    HW2 7089   1.418   1.472   4.016
 2064SOL     OW 7090   0.650   4.132   4.679
 2064SOL    HW1 7091   0.664   4.095   4.771
 2064SOL    HW2 7092   0.559   4.172   4.672
 2065SOL     OW 7093   2.931   3.137   5.410
 2065SOL    HW1 7094   2.977   3.053   5.383
 2065SOL    HW2 7095   2.832   3.121   5.415
 2066SOL     OW 7096   2.672   2.208   4.973
 2066SOL    HW1 7097   2.755   2.154   4.977
 2066SOL    HW2 7098   2.609   2.168   4.907
 2067SOL     OW 7099   5.772   4.754   3.115
 2067SOL    HW1 7100   5.785   4.827   3.048
 2067SOL    HW2 7101   5.675   4.741   3.133
 2068SOL     OW 7102   2.572   6.874   3.942
 2068SOL    HW1 7103   2.522   6.922   3.871
 2068SOL    HW2 7104   2.641   6.815   3.900
 2069SOL     OW 7105   5.444   1.542   2.622
 2069SOL    HW1 7106   5.470   1.509   2.713
 2069SOL    HW2 7107   5.422   1.639   2.627
 2070SOL     OW 7108   0.638   6.009   2.015
 2070SOL    HW1 7109   0.630   6.100   1.973
 2070SOL    HW2 7110   0.728   6.001   2.059
 2071SOL     OW 7111   6.693   2.532   3.710
 2071SOL    HW1 7112   6.754   2.553   3.786
 2071SOL    HW2 7113   6.709   2.438   3.679
 2072SOL     OW 7114   5.160   2.756   6.196
 2072SOL    HW1 7115   5.065   2.727   6.189
 2072SOL    HW2 7116   5.209   2.695   6.258
 2073SOL     OW 7117   3.196   5.857   6.526
 2073SOL    HW1 7118   3.147   5.794   6.466
 2073SOL    HW2 7119   3.248   5.922   6.471
 2074SOL     OW 7120   3.327   4.399   5.805
 2074SOL    HW1 7121   3.399   4.454   5.762
 2074SOL    HW2 7122   3.352   4.303   5.801
 2075SOL     OW 7123   4.930   0.748   0.998
 2075SOL    HW1 7124   5.030   0.749   1.002
 2075SOL    HW2 7125   4.893   0.793   1.080
 2076SOL     OW 7126   6.236   0.360   3.318
 2076SOL    HW1 7127   6.163   0.293   3.307
 2076SOL    HW2 7128   6.218   0.439   3.258
 2077SOL     OW 7129   0.877   4.324   1.684
 2077SOL    HW1 7130   0.964   4.345   1.728
 2077SOL    HW2 7131   0.877   4.362   1.591
 2078SOL     OW 7132   0.278   2.854   0.575
 2078SOL    HW1 7133   0.282   2.950   0.547
 2078SOL    HW2 7134   0.364   2.808   0.553
 2079SOL     OW 7135   4.878   1.694   4.046
 2079SOL    HW1 7136   4.944   1.620   4.054
 2079SOL    HW2 7137   4.888   1.740   3.958
 2080SOL     OW 7138   2.263   2.887   4.107
 2080SOL    HW1 7139   2.303   2.849   4.023
 2080SOL    HW2 7140   2.333   2.890   4.178
 2081SOL     OW 7141   0.323   6.378   2.931
 2081SOL    HW1 7142   0.235   6.391   2.978
 2081SOL    HW2 7143   0.352   6.283   2.942
 2082SOL     OW 7144   6.483   6.629   3.689
 2082SOL    HW1 7145   6.559   6.668   3.637
 2082SOL    HW2 7146   6.463   6.537   3.655
 2083SOL     OW 7147   1.179   5.907   2.902
 2083SOL    HW1 7148   1.127   5.897   2.817
 2083SOL    HW2 7149   1.131   5.971   2.962
 2084SOL     OW 7150   6.369   2.063   1.219
 2084SOL    HW1 7151   6.405   2.153   1.191
 2084SOL    HW2 7152   6.354   2.007   1.138
 2085SOL     OW 7153   6.947   5.310   6.575
 2085SOL    HW1 7154   7.005   5.235   6.545
 2085SOL    HW2 7155   6.871   5.322   6.511
 2086SOL     OW 7156   5.130   1.469   5.346
 2086SOL    HW1 7157   5.156   1.479   5.442
 2086SOL    HW2 7158   5.155   1.552   5.296
 2087SOL     OW 7159   4.691   1.232   6.003
 2087SOL    HW1 7160   4.738   1.153   5.964
 2087SOL    HW2 7161   4.637   1.203   6.082
 2088SOL     OW 7162   1.076   3.955   5.918
 2088SOL    HW1 7163   1.096   4.022   5.847
 2088SOL    HW2 7164   1.158   3.903   5.939
 2089SOL     OW 7165   3.019   5.074   3.755
 2089SOL    HW1 7166   2.971   5.102   3.838
 2089SOL    HW2 7167   3.086   5.003   3.777
 2090SOL     OW 7168   5.715   2.745   5.995
 2090SOL    HW1 7169   5.763   2.667   6.036
 2090SOL    HW2 7170   5.646   2.779   6.059
 2091SOL     OW 7171   5.573   0.136   0.754
 2091SOL    HW1 7172   5.672   0.151   0.766
 2091SOL    HW2 7173   5.529   0.224   0.739
 2092SOL     OW 7174   3.421   3.251   2.585
 2092SOL    HW1 7175   3.501   3.293   2.542
 2092SOL    HW2 7176   3.390   3.173   2.530
 2093SOL     OW 7177   6.172   6.933   6.250
 2093SOL    HW1 7178   6.198   6.865   6.320
 2093SOL    HW2 7179   6.092   6.900   6.200
 2094SOL     OW 7180   4.587   3.040   0.956
 2094SOL    HW1 7181   4.549   3.047   0.864
 2094SOL    HW2 7182   4.685   3.060   0.953
 2095SOL     OW 7183   3.955   5.951   4.600
 2095SOL    HW1 7184   3.903   6.036   4.590
 2095SOL    HW2 7185   3.966   5.929   4.696
 2096SOL     OW 7186   3.267   0.621   3.215
 2096SOL    HW1 7187   3.278   0.539   3.273
 2096SOL    HW2 7188   3.230   0.594   3.126
 2097SOL     OW 7189   2.798   5.648   5.930
 2097SOL    HW1 7190   2.786   5.747   5.939
 2097SOL    HW2 7191   2.862   5.629   5.856
 2098SOL     OW 7192   1.521   0.125   4.247
 2098SOL    HW1 7193   1.448   0.171   4.196
 2098SOL    HW2 7194   1.481   0.054   4.305
 2099SOL     OW 7195   4.492   1.571   6.636
 2099SOL    HW1 7196   4.590   1.592   6.642
 2099SOL    HW2 7197   4.458   1.593   6.545
 2100SOL     OW 7198   4.921   6.933   0.699
 2100SOL    HW1 7199   4.924   6.890   0.608
 2100SOL    HW2 7200   4.908   0.006   0.688
 2101SOL     OW 7201   0.637   0.349   3.229
 2101SOL    HW1 7202   0.666   0.258   3.258
 2101SOL    HW2 7203   0.537   0.353   3.227
 2102SOL     OW 7204   3.560   2.909   2.568
 2102SOL    HW1 7205   3.592   2.873   2.480
 2102SOL    HW2 7206   3.475   2.959   2.554
 2103SOL     OW 7207   1.389   0.308   0.838
 2103SOL    HW1 7208   1.315   0.367   0.805
 2103SOL    HW2 7209   1.414   0.335   0.931
 2104SOL     OW 7210   0.852   4.692   2.678
 2104SOL    HW1 7211   0.918   4.717   2.748
 2104SOL    HW2 7212   0.900   4.665   2.594
 2105SOL     OW 7213   5.747   6.460   5.698
 2105SOL    HW1 7214   5.842   6.426   5.695
 2105SOL    HW2 7215   5.702   6.440   5.611
 2106SOL     OW 7216   3.175   3.976   1.097
 2106SOL    HW1 7217   3.217   4.020   1.176
 2106SOL    HW2 7218   3.077   3.966   1.113
 2107SOL     OW 7219   5.854   3.875   4.255
 2107SOL    HW1 7220   5.810   3.947   4.201
 2107SOL    HW2 7221   5.928   3.834   4.201
 2108SOL     OW 7222   3.793   6.649   5.195
 2108SOL    HW1 7223   3.792   6.620   5.291
 2108SOL    HW2 7224   3.702   6.681   5.169
 2109SOL     OW 7225   2.477   6.609   2.614
 2109SOL    HW1 7226   2.501   6.704   2.596
 2109SOL    HW2 7227   2.383   6.592   2.583
 2110SOL     OW 7228   3.992   6.021   0.552
 2110SOL    HW1 7229   3.971   6.003   0.648
 2110SOL    HW2 7230   3.931   5.966   0.494
 2111SOL     OW 7231   0.683   2.590   0.398
 2111SOL    HW1 7232   0.763   2.550   0.353
 2111SOL    HW2 7233   0.681   2.688   0.382
 2112SOL     OW 7234   0.333   0.344   6.203
 2112SOL    HW1 7235   0.405   0.293   6.156
 2112SOL    HW2 7236   0.244   0.323   6.162
 2113SOL     OW 7237   0.062   1.718   4.269
 2113SOL    HW1 7238   0.069   1.695   4.172
 2113SOL    HW2 7239   0.068   1.817   4.280
 2114SOL     OW 7240   2.353   0.707   5.457
 2114SOL    HW1 7241   2.435   0.702   5.515
 2114SOL    HW2 7242   2.380   0.714   5.361
 2115SOL     OW 7243   0.184   0.369   4.311
 2115SOL    HW1 7244   0.279   0.401   4.321
 2115SOL    HW2 7245   0.128   0.443   4.276
 2116SOL     OW 7246   2.867   6.494   6.924
 2116SOL    HW1 7247   2.904   6.417   6.871
 2116SOL    HW2 7248   2.888   6.481   7.021
 2117SOL     OW 7249   0.022   2.821   1.295
 2117SOL    HW1 7250   0.075   2.826   1.380
 2117SOL    HW2 7251   6.956   2.785   1.315
 2118SOL     OW 7252   0.240   3.880   2.749
 2118SOL    HW1 7253   0.215   3.819   2.674
 2118SOL    HW2 7254   0.334   3.861   2.777
 2119SOL     OW 7255   1.620   2.345   6.912
 2119SOL    HW1 7256   1.696   2.376   6.855
 2119SOL    HW2 7257   1.548   2.305   6.855
 2120SOL     OW 7258   6.034   1.473   0.655
 2120SOL    HW1 7259   6.016   1.408   0.580
 2120SOL    HW2 7260   5.947   1.500   0.697
 2121SOL     OW 7261   2.554   6.242   2.397
 2121SOL    HW1 7262   2.496   6.281   2.326
 2121SOL    HW2 7263   2.561   6.143   2.383
 2122SOL     OW 7264   0.163   2.519   5.176
 2122SOL    HW1 7265   0.254   2.527   5.136
 2122SOL    HW2 7266   0.126   2.611   5.193
 2123SOL     OW 7267   1.009   4.421   2.870
 2123SOL    HW1 7268   0.923   4.374   2.850
 2123SOL    HW2 7269   1.024   4.420   2.969
 2124SOL     OW 7270   5.964   3.870   6.621
 2124SOL    HW1 7271   6.034   3.940   6.633
 2124SOL    HW2 7272   5.970   3.832   6.528
 2125SOL     OW 7273   2.680   5.401   5.949
 2125SOL    HW1 7274   2.600   5.409   5.890
 2125SOL    HW2 7275   2.722   5.491   5.960
 2126SOL     OW 7276   2.244   5.973   2.127
 2126SOL    HW1 7277   2.327   5.920   2.111
 2126SOL    HW2 7278   2.260   6.068   2.099
 2127SOL     OW 7279   1.794   3.282   4.175
 2127SOL    HW1 7280   1.792   3.295   4.274
 2127SOL    HW2 7281   1.835   3.193   4.154
 2128SOL     OW 7282   5.529   2.876   1.213
 2128SOL    HW1 7283   5.446   2.831   1.178
 2128SOL    HW2 7284   5.589   2.898   1.136
 2129SOL     OW 7285   5.493   4.882   4.351
 2129SOL    HW1 7286   5.570   4.825   4.382
 2129SOL    HW2 7287   5.529   4.964   4.306
 2130SOL     OW 7288   2.445   0.273   2.706
 2130SOL    HW1 7289   2.457   0.240   2.799
 2130SOL    HW2 7290   2.427   0.371   2.707
 2131SOL     OW 7291   5.767   7.006   5.824
 2131SOL    HW1 7292   5.847   7.004   5.884
 2131SOL    HW2 7293   5.687   6.973   5.875
 2132SOL     OW 7294   3.061   1.840   0.884
 2132SOL    HW1 7295   2.966   1.813   0.891
 2132SOL    HW2 7296   3.113   1.801   0.960
 2133SOL     OW 7297   3.848   3.126   2.098
 2133SOL    HW1 7298   3.943   3.152   2.117
 2133SOL    HW2 7299   3.796   3.124   2.183
 2134SOL     OW 7300   2.380   6.946   4.910
 2134SOL    HW1 7301   2.286   6.952   4.942
 2134SOL    HW2 7302   2.438   7.008   4.963
 2135SOL     OW 7303   6.851   5.518   4.034
 2135SOL    HW1 7304   6.756   5.503   4.007
 2135SOL    HW2 7305   6.865   5.616   4.051
 2136SOL     OW 7306   0.191   4.619   3.769
 2136SOL    HW1 7307   0.202   4.599   3.671
 2136SOL    HW2 7308   0.269   4.674   3.800
 2137SOL     OW 7309   6.931   0.206   4.315
 2137SOL    HW1 7310   6.913   0.111   4.290
 2137SOL    HW2 7311   6.946   0.213   4.414
 2138SOL     OW 7312   0.633   1.892   0.186
 2138SOL    HW1 7313   0.583   1.956   0.244
 2138SOL    HW2 7314   0.701   1.941   0.132
 2139SOL     OW 7315   4.033   6.231   4.538
 2139SOL    HW1 7316   3.981   6.213   4.455
 2139SOL    HW2 7317   4.122   6.271   4.515
 2140SOL     OW 7318   1.354   5.957   3.681
 2140SOL    HW1 7319   1.444   5.934   3.645
 2140SOL    HW2 7320   1.349   5.929   3.777
 2141SOL     OW 7321   0.085   0.554   6.911
 2141SOL    HW1 7322   0.000   0.547   6.858
 2141SOL    HW2 7323   0.136   0.634   6.880
 2142SOL     OW 7324   3.981   1.469   2.609
 2142SOL    HW1 7325   4.046   1.511   2.673
 2142SOL    HW2 7326   3.964   1.375   2.637
 2143SOL     OW 7327   3.439   5.100   6.823
 2143SOL    HW1 7328   3.441   5.025   6.756
 2143SOL    HW2 7329   3.514   5.088   6.888
 2144SOL     OW 7330   0.810   1.311   1.821
 2144SOL    HW1 7331   0.713   1.287   1.809
 2144SOL    HW2 7332   0.855   1.241   1.876
 2145SOL     OW 7333   2.426   6.170   3.328
 2145SOL    HW1 7334   2.355   6.164   3.399
 2145SOL    HW2 7335   2.488   6.092   3.335
 2146SOL     OW 7336   2.354   1.965   1.597
 2146SOL    HW1 7337   2.287   1.910   1.646
 2146SOL    HW2 7338   2.310   2.046   1.558
 2147SOL     OW 7339   6.829   0.571   3.959
 2147SOL    HW1 7340   6.835   0.487   4.014
 2147SOL    HW2 7341   6.872   0.646   4.009
 2148SOL     OW 7342   6.789   4.937   3.783
 2148SOL    HW1 7343   6.785   4.892   3.872
 2148SOL    HW2 7344   6.881   4.928   3.745
 2149SOL     OW 7345   1.862   1.659   2.134
 2149SOL    HW1 7346   1.795   1.615   2.074
 2149SOL    HW2 7347   1.834   1.753   2.153
 2150SOL     OW 7348   5.586   1.116   3.354
 2150SOL    HW1 7349   5.551   1.140   3.263
 2150SOL    HW2 7350   5.591   1.017   3.363
 2151SOL     OW 7351   5.153   4.695   5.252
 2151SOL    HW1 7352   5.202   4.706   5.166
 2151SOL    HW2 7353   5.146   4.597   5.274
 2152SOL     OW 7354   6.824   6.189   2.791
 2152SOL    HW1 7355   6.797   6.243   2.871
 2152SOL    HW2 7356   6.912   6.144   2.810
 2153SOL     OW 7357   4.159   2.293   3.368
 2153SOL    HW1 7358   4.180   2.200   3.396
 2153SOL    HW2 7359   4.198   2.357   3.434
 2154SOL     OW 7360   4.493   0.551   3.838
 2154SOL    HW1 7361   4.530   0.623   3.779
 2154SOL    HW2 7362   4.545   0.467   3.824
 2155SOL     OW 7363   5.944   3.584   1.196
 2155SOL    HW1 7364   5.881   3.628   1.261
 2155SOL    HW2 7365   5.948   3.637   1.112
 2156SOL     OW 7366   6.190   5.639   2.912
 2156SOL    HW1 7367   6.172   5.710   2.980
 2156SOL    HW2 7368   6.289   5.623   2.907
 2157SOL     OW 7369   4.983   1.500   4.421
 2157SOL    HW1 7370   5.004   1.550   4.504
 2157SOL    HW2 7371   4.897   1.533   4.382
 2158SOL     OW 7372   4.737   1.092   3.170
 2158SOL    HW1 7373   4.836   1.092   3.152
 2158SOL    HW2 7374   4.706   0.998   3.185
 2159SOL     OW 7375   2.351   1.730   4.488
 2159SOL    HW1 7376   2.276   1.776   4.534
 2159SOL    HW2 7377   2.427   1.717   4.552
 2160SOL     OW 7378   2.048   4.262   1.147
 2160SOL    HW1 7379   1.957   4.300   1.163
 2160SOL    HW2 7380   2.040   4.176   1.096
 2161SOL     OW 7381   4.641   2.537   1.913
 2161SOL    HW1 7382   4.561   2.503   1.962
 2161SOL    HW2 7383   4.723   2.488   1.945
 2162SOL     OW 7384   1.572   1.236   2.346
 2162SOL    HW1 7385   1.630   1.309   2.383
 2162SOL    HW2 7386   1.595   1.149   2.389
 2163SOL     OW 7387   5.016   1.669   0.782
 2163SOL    HW1 7388   4.942   1.678   0.715
 2163SOL    HW2 7389   4.986   1.707   0.869
 2164SOL     OW 7390   6.293   0.266   2.384
 2164SOL    HW1 7391   6.283   0.168   2.399
 2164SOL    HW2 7392   6.205   0.312   2.398
 2165SOL     OW 7393   1.676   6.741   2.155
 2165SOL    HW1 7394   1.638   6.738   2.248
 2165SOL    HW2 7395   1.610   6.703   2.090
 2166SOL     OW 7396   6.018   2.415   5.563
 2166SOL    HW1 7397   5.943   2.371   5.612
 2166SOL    HW2 7398   5.982   2.481   5.497
 2167SOL     OW 7399   3.462   1.377   1.729
 2167SOL    HW1 7400   3.417   1.452   1.681
 2167SOL    HW2 7401   3.413   1.291   1.710
 2168SOL     OW 7402   5.029   6.025   4.557
 2168SOL    HW1 7403   5.076   6.076   4.629
 2168SOL    HW2 7404   5.089   5.952   4.524
 2169SOL     OW 7405   5.145   3.165   5.372
 2169SOL    HW1 7406   5.057   3.181   5.418
 2169SOL    HW2 7407   5.170   3.069   5.381
 2170SOL     OW 7408   5.061   5.391   4.570
 2170SOL    HW1 7409   4.971   5.415   4.607
 2170SOL    HW2 7410   5.054   5.377   4.472
 2171SOL     OW 7411   0.469   2.963   0.075
 2171SOL    HW1 7412   0.409   3.036   0.107
 2171SOL    HW2 7413   0.415   2.888   0.038
 2172SOL     OW 7414   2.165   0.407   3.403
 2172SOL    HW1 7415   2.251   0.371   3.368
 2172SOL    HW2 7416   2.124   0.469   3.335
 2173SOL     OW 7417   4.245   1.915   4.681
 2173SOL    HW1 7418   4.192   1.831   4.667
 2173SOL    HW2 7419   4.183   1.992   4.693
 2174SOL     OW 7420   1.301   5.503   5.203
 2174SOL    HW1 7421   1.317   5.503   5.302
 2174SOL    HW2 7422   1.259   5.590   5.176
 2175SOL     OW 7423   0.378   0.599   6.686
 2175SOL    HW1 7424   0.450   0.539   6.651
 2175SOL    HW2 7425   0.348   0.661   6.614
 2176SOL     OW 7426   1.866   1.761   2.973
 2176SOL    HW1 7427   1.770   1.780   2.955
 2176SOL    HW2 7428   1.909   1.725   2.891
 2177SOL     OW 7429   1.014   1.634   2.111
 2177SOL    HW1 7430   1.030   1.726   2.074
 2177SOL    HW2 7431   1.056   1.566   2.050
 2178SOL     OW 7432   6.608   5.529   0.177
 2178SOL    HW1 7433   6.631   5.485   0.090
 2178SOL    HW2 7434   6.675   5.504   0.246
 2179SOL     OW 7435   2.046   3.543   3.916
 2179SOL    HW1 7436   2.077   3.470   3.976
 2179SOL    HW2 7437   2.086   3.531   3.825
 2180SOL     OW 7438   3.053   3.150   2.580
 2180SOL    HW1 7439   3.111   3.082   2.535
 2180SOL    HW2 7440   3.071   3.149   2.678
 2181SOL     OW 7441   3.906   6.061   1.270
 2181SOL    HW1 7442   3.985   6.048   1.329
 2181SOL    HW2 7443   3.896   6.158   1.247
 2182SOL     OW 7444   4.638   3.824   6.967
 2182SOL    HW1 7445   4.601   3.863   0.026
 2182SOL    HW2 7446   4.601   3.873   6.888
 2183SOL     OW 7447   4.507   2.209   1.804
 2183SOL    HW1 7448   4.427   2.263   1.830
 2183SOL    HW2 7449   4.539   2.239   1.714
 2184SOL     OW 7450   3.985   2.601   6.096
 2184SOL    HW1 7451   4.073   2.626   6.057
 2184SOL    HW2 7452   3.983   2.624   6.193
 2185SOL     OW 7453   6.767   6.965   2.108
 2185SOL    HW1 7454   6.850   6.934   2.061
 2185SOL    HW2 7455   6.721   6.886   2.148
 2186SOL     OW 7456   6.503   4.523   2.994
 2186SOL    HW1 7457   6.527   4.564   3.082
 2186SOL    HW2 7458   6.555   4.568   2.921
 2187SOL     OW 7459   6.816   0.074   0.029
 2187SOL    HW1 7460   6.903   0.033   0.001
 2187SOL    HW2 7461   6.784   0.032   0.114
 2188SOL     OW 7462   4.573   2.317   3.875
 2188SOL    HW1 7463   4.514   2.258   3.820
 2188SOL    HW2 7464   4.654   2.266   3.905
 2189SOL     OW 7465   3.350   0.710   6.083
 2189SOL    HW1 7466   3.399   0.796   6.095
 2189SOL    HW2 7467   3.303   0.686   6.169
 2190SOL     OW 7468   6.047   3.244   1.598
 2190SOL    HW1 7469   6.040   3.226   1.500
 2190SOL    HW2 7470   6.141   3.268   1.621
 2191SOL     OW 7471   3.319   0.390   0.031
 2191SOL    HW1 7472   3.240   0.394   6.994
 2191SOL    HW2 7473   3.307   0.313   0.094
 2192SOL     OW 7474   4.355   6.386   2.404
 2192SOL    HW1 7475   4.276   6.324   2.405
 2192SOL    HW2 7476   4.326   6.476   2.436
 2193SOL     OW 7477   0.129   6.400   4.315
 2193SOL    HW1 7478   0.072   6.363   4.388
 2193SOL    HW2 7479   0.203   6.454   4.355
 2194SOL     OW 7480   2.475   6.937   3.127
 2194SOL    HW1 7481   2.499   6.858   3.071
 2194SOL    HW2 7482   2.377   6.935   3.147
 2195SOL     OW 7483   0.416   4.662   2.676
 2195SOL    HW1 7484   0.494   4.705   2.632
 2195SOL    HW2 7485   0.446   4.607   2.753
 2196SOL     OW 7486   4.372   4.023   6.429
 2196SOL    HW1 7487   4.414   3.932   6.423
 2196SOL    HW2 7488   4.299   4.021   6.497
 2197SOL     OW 7489   4.754   3.568   0.693
 2197SOL    HW1 7490   4.837   3.601   0.649
 2197SOL    HW2 7491   4.777   3.527   0.781
 2198SOL     OW 7492   1.028   4.783   6.851
 2198SOL    HW1 7493   0.949   4.839   6.826
 2198SOL    HW2 7494   1.007   4.687   6.836
 2199SOL     OW 7495   3.339   1.868   4.190
 2199SOL    HW1 7496   3.383   1.838   4.275
 2199SOL    HW2 7497   3.405   1.863   4.115
 2200SOL     OW 7498   4.723   0.834   4.001
 2200SOL    HW1 7499   4.707   0.893   3.922
 2200SOL    HW2 7500   4.778   0.883   4.069
 2201SOL     OW 7501   4.884   5.642   4.131
 2201SOL    HW1 7502   4.881   5.706   4.053
 2201SOL    HW2 7503   4.824   5.565   4.113
 2202SOL     OW 7504   4.840   6.013   4.066
 2202SOL    HW1 7505   4.807   5.947   3.999
 2202SOL    HW2 7506   4.861   5.966   4.152
 2203SOL     OW 7507   2.467   2.263   3.197
 2203SOL    HW1 7508   2.374   2.243   3.228
 2203SOL    HW2 7509   2.515   2.177   3.179
 2204SOL     OW 7510   4.364   2.026   0.464
 2204SOL    HW1 7511   4.337   2.016   0.560
 2204SOL    HW2 7512   4.310   1.964   0.408
 2205SOL     OW 7513   3.458   0.160   2.642
 2205SOL    HW1 7514   3.511   0.216   2.578
 2205SOL    HW2 7515   3.392   0.104   2.591
 2206SOL     OW 7516   1.764   4.819   0.290
 2206SOL    HW1 7517   1.793   4.826   0.386
 2206SOL    HW2 7518   1.746   4.724   0.267
 2207SOL     OW 7519   6.687   3.109   5.220
 2207SOL    HW1 7520   6.639   3.129   5.134
 2207SOL    HW2 7521   6.722   3.194   5.259
 2208SOL     OW 7522   0.322   5.503   2.479
 2208SOL    HW1 7523   0.416   5.486   2.448
 2208SOL    HW2 7524   0.257   5.468   2.411
 2209SOL     OW 7525   6.471   6.996   2.277
 2209SOL    HW1 7526   6.554   0.009   2.237
 2209SOL    HW2 7527   6.477   6.999   2.377
 2210SOL     OW 7528   2.588   4.693   3.276
 2210SOL    HW1 7529   2.630   4.726   3.192
 2210SOL    HW2 7530   2.659   4.670   3.342
 2211SOL     OW 7531   5.624   0.989   5.382
 2211SOL    HW1 7532   5.533   0.964   5.416
 2211SOL    HW2 7533   5.679   0.906   5.370
 2212SOL     OW 7534   2.569   5.937   5.991
 2212SOL    HW1 7535   2.494   5.901   6.047
 2212SOL    HW2 7536   2.536   6.014   5.936
 2213SOL     OW 7537   4.238   1.202   2.899
 2213SOL    HW1 7538   4.319   1.173   2.950
 2213SOL    HW2 7539   4.266   1.252   2.817
 2214SOL     OW 7540   4.077   6.872   3.598
 2214SOL    HW1 7541   4.032   6.808   3.661
 2214SOL    HW2 7542   4.100   6.825   3.513
 2215SOL     OW 7543   5.766   2.982   6.795
 2215SOL    HW1 7544   5.713   3.013   6.874
 2215SOL    HW2 7545   5.711   2.989   6.712
 2216SOL     OW 7546   2.980   0.829   2.140
 2216SOL    HW1 7547   2.907   0.835   2.071
 2216SOL    HW2 7548   2.979   0.912   2.196
 2217SOL     OW 7549   3.346   6.788   1.368
 2217SOL    HW1 7550   3.356   6.801   1.466
 2217SOL    HW2 7551   3.368   6.874   1.320
 2218SOL     OW 7552   5.863   1.216   2.000
 2218SOL    HW1 7553   5.788   1.165   1.959
 2218SOL    HW2 7554   5.883   1.178   2.091
 2219SOL     OW 7555   1.780   2.596   3.614
 2219SOL    HW1 7556   1.784   2.696   3.608
 2219SOL    HW2 7557   1.686   2.565   3.600
 2220SOL     OW 7558   2.111   6.470   4.082
 2220SOL    HW1 7559   2.140   6.564   4.064
 2220SOL    HW2 7560   2.144   6.443   4.173
 2221SOL     OW 7561   6.787   0.113   4.677
 2221SOL    HW1 7562   6.808   0.209   4.657
 2221SOL    HW2 7563   6.707   0.084   4.623
 2222SOL     OW 7564   4.830   6.161   3.226
 2222SOL    HW1 7565   4.861   6.088   3.165
 2222SOL    HW2 7566   4.826   6.127   3.320
 2223SOL     OW 7567   5.810   6.841   1.820
 2223SOL    HW1 7568   5.788   6.840   1.917
 2223SOL    HW2 7569   5.894   6.790   1.804
 2224SOL     OW 7570   0.442   5.961   1.386
 2224SOL    HW1 7571   0.500   5.887   1.353
 2224SOL    HW2 7572   0.395   5.932   1.470
 2225SOL     OW 7573   0.642   5.146   1.674
 2225SOL    HW1 7574   0.560   5.124   1.726
 2225SOL    HW2 7575   0.651   5.245   1.667
 2226SOL     OW 7576   3.389   4.179   3.375
 2226SOL    HW1 7577   3.486   4.157   3.378
 2226SOL    HW2 7578   3.376   4.278   3.381
 2227SOL     OW 7579   1.772   1.675   5.353
 2227SOL    HW1 7580   1.759   1.602   5.285
 2227SOL    HW2 7581   1.723   1.757   5.323
 2228SOL     OW 7582   1.510   4.149   4.112
 2228SOL    HW1 7583   1.449   4.093   4.055
 2228SOL    HW2 7584   1.458   4.187   4.189
 2229SOL     OW 7585   5.721   5.528   2.228
 2229SOL    HW1 7586   5.640   5.469   2.229
 2229SOL    HW2 7587   5.773   5.512   2.144
 2230SOL     OW 7588   1.899   5.423   2.892
 2230SOL    HW1 7589   1.967   5.497   2.892
 2230SOL    HW2 7590   1.844   5.429   2.808
 2231SOL     OW 7591   1.968   6.356   0.613
 2231SOL    HW1 7592   2.043   6.399   0.662
 2231SOL    HW2 7593   1.911   6.426   0.569
 2232SOL     OW 7594   6.401   3.277   3.519
 2232SOL    HW1 7595   6.391   3.311   3.426
 2232SOL    HW2 7596   6.329   3.210   3.538
 2233SOL     OW 7597   3.822   2.046   0.358
 2233SOL    HW1 7598   3.797   2.047   0.261
 2233SOL    HW2 7599   3.908   2.096   0.371
 2234SOL     OW 7600   4.318   2.716   1.271
 2234SOL    HW1 7601   4.333   2.728   1.369
 2234SOL    HW2 7602   4.274   2.628   1.254
 2235SOL     OW 7603   2.077   3.744   1.956
 2235SOL    HW1 7604   2.138   3.811   2.000
 2235SOL    HW2 7605   2.006   3.792   1.906
 2236SOL     OW 7606   1.472   3.721   5.040
 2236SOL    HW1 7607   1.498   3.776   5.120
 2236SOL    HW2 7608   1.420   3.642   5.070
 2237SOL     OW 7609   5.991   2.384   3.399
 2237SOL    HW1 7610   6.074   2.336   3.426
 2237SOL    HW2 7611   5.970   2.363   3.303
 2238SOL     OW 7612   4.873   5.907   6.330
 2238SOL    HW1 7613   4.858   5.822   6.279
 2238SOL    HW2 7614   4.826   5.982   6.283
 2239SOL     OW 7615   6.781   5.496   1.467
 2239SOL    HW1 7616   6.771   5.546   1.553
 2239SOL    HW2 7617   6.845   5.545   1.407
 2240SOL     OW 7618   0.804   3.834   1.632
 2240SOL    HW1 7619   0.824   3.855   1.728
 2240SOL    HW2 7620   0.844   3.745   1.608
 2241SOL     OW 7621   0.154   0.220   3.504
 2241SOL    HW1 7622   0.099   0.244   3.424
 2241SOL    HW2 7623   0.190   0.127   3.493
 2242SOL     OW 7624   2.280   1.355   3.355
 2242SOL    HW1 7625   2.200   1.400   3.314
 2242SOL    HW2 7626   2.273   1.359   3.454
 2243SOL     OW 7627   1.520   0.476   4.114
 2243SOL    HW1 7628   1.426   0.484   4.081
 2243SOL    HW2 7629   1.580   0.454   4.037
 2244SOL     OW 7630   3.214   0.743   3.837
 2244SOL    HW1 7631   3.191   0.667   3.897
 2244SOL    HW2 7632   3.305   0.777   3.860
 2245SOL     OW 7633   6.775   1.448   1.036
 2245SOL    HW1 7634   6.862   1.496   1.029
 2245SOL    HW2 7635   6.742   1.453   1.131
 2246SOL     OW 7636   0.781   4.451   4.667
 2246SOL    HW1 7637   0.878   4.463   4.649
 2246SOL    HW2 7638   0.769   4.388   4.744
 2247SOL     OW 7639   1.940   2.182   4.063
 2247SOL    HW1 7640   1.893   2.237   4.132
 2247SOL    HW2 7641   1.929   2.226   3.974
 2248SOL     OW 7642   5.413   4.361   5.789
 2248SOL    HW1 7643   5.407   4.398   5.697
 2248SOL    HW2 7644   5.438   4.264   5.785
 2249SOL     OW 7645   5.603   6.133   5.544
 2249SOL    HW1 7646   5.618   6.230   5.525
 2249SOL    HW2 7647   5.577   6.122   5.639
 2250SOL     OW 7648   4.303   5.040   2.575
 2250SOL    HW1 7649   4.383   5.075   2.624
 2250SOL    HW2 7650   4.220   5.061   2.627
 2251SOL     OW 7651   0.366   1.839   5.507
 2251SOL    HW1 7652   0.419   1.916   5.543
 2251SOL    HW2 7653   0.270   1.864   5.501
 2252SOL     OW 7654   4.533   1.130   6.183
 2252SOL    HW1 7655   4.458   1.073   6.150
 2252SOL    HW2 7656   4.498   1.196   6.250
 2253SOL     OW 7657   0.197   3.871   1.473
 2253SOL    HW1 7658   0.279   3.814   1.474
 2253SOL    HW2 7659   0.131   3.834   1.540
 2254SOL     OW 7660   1.633   5.793   5.439
 2254SOL    HW1 7661   1.642   5.738   5.356
 2254SOL    HW2 7662   1.556   5.760   5.493
 2255SOL     OW 7663   6.769   4.183   6.848
 2255SOL    HW1 7664   6.838   4.208   6.779
 2255SOL    HW2 7665   6.706   4.116   6.809
 2256SOL     OW 7666   3.094   5.858   3.030
 2256SOL    HW1 7667   3.083   5.843   2.932
 2256SOL    HW2 7668   3.091   5.956   3.049
 2257SOL     OW 7669   0.881   5.423   6.241
 2257SOL    HW1 7670   0.795   5.411   6.290
 2257SOL    HW2 7671   0.865   5.480   6.160
 2258SOL     OW 7672   1.669   6.767   5.970
 2258SOL    HW1 7673   1.760   6.730   5.952
 2258SOL    HW2 7674   1.677   6.858   6.010
 2259SOL     OW 7675   5.542   1.911   6.517
 2259SOL    HW1 7676   5.558   1.974   6.440
 2259SOL    HW2 7677   5.502   1.960   6.593
 2260SOL     OW 7678   4.577   3.289   1.714
 2260SOL    HW1 7679   4.482   3.320   1.718
 2260SOL    HW2 7680   4.583   3.196   1.749
 2261SOL     OW 7681   2.047   6.274   5.469
 2261SOL    HW1 7682   2.014   6.313   5.383
 2261SOL    HW2 7683   1.975   6.217   5.509
 2262SOL     OW 7684   2.590   1.716   4.647
 2262SOL    HW1 7685   2.609   1.618   4.642
 2262SOL    HW2 7686   2.670   1.768   4.617
 2263SOL     OW 7687   0.590   4.735   6.626
 2263SOL    HW1 7688   0.646   4.667   6.674
 2263SOL    HW2 7689   0.569   4.811   6.689
 2264SOL     OW 7690   3.214   3.331   4.080
 2264SOL    HW1 7691   3.286   3.297   4.141
 2264SOL    HW2 7692   3.246   3.415   4.036
 2265SOL     OW 7693   7.023   6.406   4.056
 2265SOL    HW1 7694   0.021   6.329   3.998
 2265SOL    HW2 7695   0.055   6.405   4.138
 2266SOL     OW 7696   0.006   0.011   4.734
 2266SOL    HW1 7697   0.075   7.004   4.669
 2266SOL    HW2 7698   6.947   0.032   4.685
 2267SOL     OW 7699   6.497   1.723   5.094
 2267SOL    HW1 7700   6.595   1.741   5.106
 2267SOL    HW2 7701   6.453   1.802   5.052
 2268SOL     OW 7702   0.836   0.170   0.310
 2268SOL    HW1 7703   0.786   0.251   0.280
 2268SOL    HW2 7704   0.923   0.166   0.262
 2269SOL     OW 7705   6.799   5.895   2.789
 2269SOL    HW1 7706   6.773   5.988   2.811
 2269SOL    HW2 7707   6.724   5.849   2.742
 2270SOL     OW 7708   3.037   3.519   3.451
 2270SOL    HW1 7709   3.132   3.502   3.425
 2270SOL    HW2 7710   3.034   3.596   3.515
 2271SOL     OW 7711   1.508   3.762   2.187
 2271SOL    HW1 7712   1.578   3.741   2.256
 2271SOL    HW2 7713   1.552   3.801   2.106
 2272SOL     OW 7714   4.562   0.379   5.847
 2272SOL    HW1 7715   4.484   0.368   5.786
 2272SOL    HW2 7716   4.601   0.471   5.836
 2273SOL     OW 7717   6.682   1.256   1.950
 2273SOL    HW1 7718   6.704   1.216   1.861
 2273SOL    HW2 7719   6.626   1.191   2.002
 2274SOL     OW 7720   6.364   4.990   3.740
 2274SOL    HW1 7721   6.314   4.907   3.716
 2274SOL    HW2 7722   6.450   4.994   3.688
 2275SOL     OW 7723   3.976   6.718   3.785
 2275SOL    HW1 7724   4.026   6.634   3.809
 2275SOL    HW2 7725   3.962   6.772   3.868
 2276SOL     OW 7726   4.073   6.200   3.845
 2276SOL    HW1 7727   4.023   6.115   3.830
 2276SOL    HW2 7728   4.167   6.189   3.813
 2277SOL     OW 7729   3.283   2.970   2.566
 2277SOL    HW1 7730   3.238   2.908   2.630
 2277SOL    HW2 7731   3.280   2.931   2.474
 2278SOL     OW 7732   4.001   5.291   1.953
 2278SOL    HW1 7733   4.070   5.228   1.918
 2278SOL    HW2 7734   3.943   5.322   1.878
 2279SOL     OW 7735   6.312   4.610   5.481
 2279SOL    HW1 7736   6.281   4.698   5.517
 2279SOL    HW2 7737   6.379   4.626   5.408
 2280SOL     OW 7738   6.093   0.883   5.464
 2280SOL    HW1 7739   6.037   0.964   5.480
 2280SOL    HW2 7740   6.186   0.899   5.497
 2281SOL     OW 7741   2.235   0.187   0.381
 2281SOL    HW1 7742   2.287   0.145   0.456
 2281SOL    HW2 7743   2.237   0.127   0.301
 2282SOL     OW 7744   3.323   7.004   2.409
 2282SOL    HW1 7745   3.260   7.022   2.334
 2282SOL    HW2 7746   3.361   6.912   2.399
 2283SOL     OW 7747   0.934   2.989   0.725
 2283SOL    HW1 7748   0.901   2.897   0.710
 2283SOL    HW2 7749   0.981   3.022   0.643
 2284SOL     OW 7750   1.227   2.788   0.975
 2284SOL    HW1 7751   1.222   2.739   0.888
 2284SOL    HW2 7752   1.317   2.831   0.984
 2285SOL     OW 7753   2.846   2.959   0.312
 2285SOL    HW1 7754   2.793   2.945   0.228
 2285SOL    HW2 7755   2.934   2.913   0.303
 2286SOL     OW 7756   6.061   5.252   4.136
 2286SOL    HW1 7757   5.972   5.297   4.149
 2286SOL    HW2 7758   6.089   5.209   4.221
 2287SOL     OW 7759   2.717   2.172   1.146
 2287SOL    HW1 7760   2.733   2.270   1.145
 2287SOL    HW2 7761   2.619   2.154   1.155
 2288SOL     OW 7762   3.169   5.531   4.185
 2288SOL    HW1 7763   3.207   5.469   4.117
 2288SOL    HW2 7764   3.234   5.544   4.259
 2289SOL     OW 7765   3.713   0.120   5.084
 2289SOL    HW1 7766   3.633   0.181   5.081
 2289SOL    HW2 7767   3.795   0.171   5.060
 2290SOL     OW 7768   2.145   4.363   6.541
 2290SOL    HW1 7769   2.072   4.330   6.482
 2290SOL    HW2 7770   2.147   4.309   6.625
 2291SOL     OW 7771   3.498   2.189   0.551
 2291SOL    HW1 7772   3.590   2.225   0.567
 2291SOL    HW2 7773   3.432   2.238   0.608
 2292SOL     OW 7774   5.292   2.135   2.264
 2292SOL    HW1 7775   5.205   2.183   2.280
 2292SOL    HW2 7776   5.345   2.183   2.194
 2293SOL     OW 7777   6.661   1.032   6.435
 2293SOL    HW1 7778   6.597   1.007   6.362
 2293SOL    HW2 7779   6.747   0.982   6.422
 2294SOL     OW 7780   6.982   3.013   5.408
 2294SOL    HW1 7781   0.057   3.012   5.404
 2294SOL    HW2 7782   6.952   2.983   5.498
 2295SOL     OW 7783   5.743   5.449   0.495
 2295SOL    HW1 7784   5.653   5.477   0.462
 2295SOL    HW2 7785   5.733   5.400   0.582
 2296SOL     OW 7786   3.982   5.742   5.095
 2296SOL    HW1 7787   3.923   5.729   5.175
 2296SOL    HW2 7788   4.067   5.786   5.124
 2297SOL     OW 7789   6.365   2.661   0.312
 2297SOL    HW1 7790   6.370   2.688   0.216
 2297SOL    HW2 7791   6.456   2.637   0.345
 2298SOL     OW 7792   2.119   3.885   4.908
 2298SOL    HW1 7793   2.190   3.918   4.971
 2298SOL    HW2 7794   2.083   3.798   4.941
 2299SOL     OW 7795   6.330   3.866   4.086
 2299SOL    HW1 7796   6.393   3.872   4.163
 2299SOL    HW2 7797   6.376   3.900   4.004
 2300SOL     OW 7798   3.889   0.930   2.199
 2300SOL    HW1 7799   3.859   0.863   2.131
 2300SOL    HW2 7800   3.821   0.935   2.273
 2301SOL     OW 7801   4.641   3.119   5.726
 2301SOL    HW1 7802   4.733   3.118   5.764
 2301SOL    HW2 7803   4.582   3.060   5.780
 2302SOL     OW 7804   0.497   3.780   4.684
 2302SOL    HW1 7805   0.451   3.697   4.716
 2302SOL    HW2 7806   0.596   3.771   4.697
 2303SOL     OW 7807   1.884   2.436   6.817
 2303SOL    HW1 7808   1.922   2.372   6.750
 2303SOL    HW2 7809   1.951   2.452   6.889
 2304SOL     OW 7810   3.676   0.265   3.230
 2304SOL    HW1 7811   3.655   0.189   3.168
 2304SOL    HW2 7812   3.706   0.228   3.318
 2305SOL     OW 7813   3.471   5.641   4.635
 2305SOL    HW1 7814   3.394   5.680   4.686
 2305SOL    HW2 7815   3.486   5.547   4.664
 2306SOL     OW 7816   1.013   5.261   5.505
 2306SOL    HW1 7817   1.003   5.320   5.425
 2306SOL    HW2 7818   1.029   5.317   5.586
 2307SOL     OW 7819   6.758   3.651   5.446
 2307SOL    HW1 7820   6.696   3.596   5.501
 2307SOL    HW2 7821   6.705   3.705   5.380
 2308SOL     OW 7822   6.983   5.886   3.170
 2308SOL    HW1 7823   0.030   5.955   3.162
 2308SOL    HW2 7824   6.956   5.855   3.079
 2309SOL     OW 7825   1.629   1.069   4.835
 2309SOL    HW1 7826   1.543   1.055   4.884
 2309SOL    HW2 7827   1.610   1.107   4.745
 2310SOL     OW 7828   4.702   5.877   0.472
 2310SOL    HW1 7829   4.733   5.836   0.557
 2310SOL    HW2 7830   4.749   5.834   0.395
 2311SOL     OW 7831   2.393   5.862   0.078
 2311SOL    HW1 7832   2.317   5.831   0.021
 2311SOL    HW2 7833   2.475   5.808   0.056
 2312SOL     OW 7834   3.068   5.135   1.712
 2312SOL    HW1 7835   3.078   5.229   1.747
 2312SOL    HW2 7836   3.100   5.070   1.782
 2313SOL     OW 7837   4.665   5.062   1.135
 2313SOL    HW1 7838   4.670   5.001   1.056
 2313SOL    HW2 7839   4.745   5.047   1.194
 2314SOL     OW 7840   2.314   4.255   2.865
 2314SOL    HW1 7841   2.281   4.349   2.862
 2314SOL    HW2 7842   2.327   4.226   2.960
 2315SOL     OW 7843   3.353   2.073   6.762
 2315SOL    HW1 7844   3.308   2.116   6.684
 2315SOL    HW2 7845   3.448   2.103   6.766
 2316SOL     OW 7846   5.611   3.997   1.185
 2316SOL    HW1 7847   5.611   3.984   1.086
 2316SOL    HW2 7848   5.660   3.922   1.228
 2317SOL     OW 7849   0.369   0.327   3.777
 2317SOL    HW1 7850   0.430   0.343   3.699
 2317SOL    HW2 7851   0.397   0.245   3.825
 2318SOL     OW 7852   6.464   2.215   3.523
 2318SOL    HW1 7853   6.554   2.201   3.483
 2318SOL    HW2 7854   6.411   2.130   3.517
 2319SOL     OW 7855   0.979   6.018   3.805
 2319SOL    HW1 7856   1.013   5.926   3.784
 2319SOL    HW2 7857   1.047   6.086   3.779
 2320SOL     OW 7858   0.289   4.974   3.782
 2320SOL    HW1 7859   0.304   4.878   3.804
 2320SOL    HW2 7860   0.316   5.031   3.859
 2321SOL     OW 7861   2.835   4.849   3.704
 2321SOL    HW1 7862   2.903   4.920   3.719
 2321SOL    HW2 7863   2.816   4.801   3.790
 2322SOL     OW 7864   2.209   2.079   5.027
 2322SOL    HW1 7865   2.238   2.038   5.113
 2322SOL    HW2 7866   2.131   2.028   4.990
 2323SOL     OW 7867   5.811   4.149   1.725
 2323SOL    HW1 7868   5.846   4.236   1.760
 2323SOL    HW2 7869   5.736   4.118   1.783
 2324SOL     OW 7870   0.298   5.412   4.738
 2324SOL    HW1 7871   0.241   5.331   4.750
 2324SOL    HW2 7872   0.241   5.494   4.745
 2325SOL     OW 7873   6.785   1.771   0.836
 2325SOL    HW1 7874   6.745   1.701   0.777
 2325SOL    HW2 7875   6.874   1.798   0.800
 2326SOL     OW 7876   0.912   5.248   0.482
 2326SOL    HW1 7877   0.818   5.237   0.513
 2326SOL    HW2 7878   0.940   5.167   0.431
 2327SOL     OW 7879   4.565   1.134   2.471
 2327SOL    HW1 7880   4.612   1.182   2.546
 2327SOL    HW2 7881   4.590   1.176   2.384
 2328SOL     OW 7882   6.287   5.611   3.650
 2328SOL    HW1 7883   6.237   5.527   3.629
 2328SOL    HW2 7884   6.227   5.690   3.639
 2329SOL     OW 7885   1.436   6.542   3.287
 2329SOL    HW1 7886   1.343   6.571   3.309
 2329SOL    HW2 7887   1.464   6.467   3.347
 2330SOL     OW 7888   1.416   3.616   6.625
 2330SOL    HW1 7889   1.374   3.706   6.623
 2330SOL    HW2 7890   1.515   3.625   6.618
 2331SOL     OW 7891   1.797   4.450   5.132
 2331SOL    HW1 7892   1.849   4.535   5.126
 2331SOL    HW2 7893   1.809   4.397   5.048
 2332SOL     OW 7894   6.260   3.964   6.670
 2332SOL    HW1 7895   6.229   3.946   6.577
 2332SOL    HW2 7896   6.356   3.937   6.679
 2333SOL     OW 7897   2.588   5.070   3.871
 2333SOL    HW1 7898   2.547   4.992   3.823
 2333SOL    HW2 7899   2.584   5.054   3.970
 2334SOL     OW 7900   2.320   0.414   6.140
 2334SOL    HW1 7901   2.416   0.408   6.112
 2334SOL    HW2 7902   2.270   0.473   6.076
 2335SOL     OW 7903   5.328   4.192   5.015
 2335SOL    HW1 7904   5.256   4.259   4.997
 2335SOL    HW2 7905   5.349   4.142   4.931
 2336SOL     OW 7906   4.783   0.999   5.916
 2336SOL    HW1 7907   4.772   0.964   5.823
 2336SOL    HW2 7908   4.816   0.925   5.976
 2337SOL     OW 7909   6.004   0.759   4.917
 2337SOL    HW1 7910   6.001   0.739   5.014
 2337SOL    HW2 7911   5.965   0.850   4.900
 2338SOL     OW 7912   1.204   6.653   0.557
 2338SOL    HW1 7913   1.147   6.706   0.495
 2338SOL    HW2 7914   1.151   6.627   0.638
 2339SOL     OW 7915   3.053   4.400   5.879
 2339SOL    HW1 7916   3.012   4.489   5.896
 2339SOL    HW2 7917   3.141   4.412   5.833
 2340SOL     OW 7918   4.477   5.624   3.499
 2340SOL    HW1 7919   4.554   5.597   3.442
 2340SOL    HW2 7920   4.392   5.586   3.462
 2341SOL     OW 7921   1.150   3.859   6.301
 2341SOL    HW1 7922   1.196   3.906   6.377
 2341SOL    HW2 7923   1.216   3.844   6.227
 2342SOL     OW 7924   4.675   1.106   5.349
 2342SOL    HW1 7925   4.705   1.010   5.351
 2342SOL    HW2 7926   4.589   1.113   5.297
 2343SOL     OW 7927   0.541   6.229   1.847
 2343SOL    HW1 7928   0.446   6.195   1.847
 2343SOL    HW2 7929   0.588   6.195   1.765
 2344SOL     OW 7930   1.710   0.198   3.164
 2344SOL    HW1 7931   1.734   0.208   3.067
 2344SOL    HW2 7932   1.633   0.136   3.173
 2345SOL     OW 7933   0.952   2.706   1.648
 2345SOL    HW1 7934   1.039   2.706   1.698
 2345SOL    HW2 7935   0.880   2.740   1.708
 2346SOL     OW 7936   5.382   2.814   4.797
 2346SOL    HW1 7937   5.346   2.906   4.814
 2346SOL    HW2 7938   5.314   2.746   4.823
 2347SOL     OW 7939   1.091   4.300   1.406
 2347SOL    HW1 7940   1.095   4.213   1.457
 2347SOL    HW2 7941   1.029   4.290   1.329
 2348SOL     OW 7942   2.932   6.776   1.778
 2348SOL    HW1 7943   2.848   6.740   1.739
 2348SOL    HW2 7944   2.918   6.871   1.806
 2349SOL     OW 7945   5.350   2.837   0.172
 2349SOL    HW1 7946   5.262   2.884   0.172
 2349SOL    HW2 7947   5.396   2.852   0.085
 2350SOL     OW 7948   2.455   5.446   5.148
 2350SOL    HW1 7949   2.461   5.541   5.179
 2350SOL    HW2 7950   2.425   5.444   5.053
 2351SOL     OW 7951   1.639   5.675   3.419
 2351SOL    HW1 7952   1.623   5.657   3.322
 2351SOL    HW2 7953   1.577   5.619   3.474
 2352SOL     OW 7954   5.763   5.879   6.238
 2352SOL    HW1 7955   5.696   5.842   6.173
 2352SOL    HW2 7956   5.729   5.967   6.274
 2353SOL     OW 7957   3.030   2.941   6.620
 2353SOL    HW1 7958   3.064   2.868   6.561
 2353SOL    HW2 7959   2.964   2.997   6.570
 2354SOL     OW 7960   3.356   1.498   2.477
 2354SOL    HW1 7961   3.357   1.443   2.394
 2354SOL    HW2 7962   3.406   1.450   2.549
 2355SOL     OW 7963   6.443   1.162   2.231
 2355SOL    HW1 7964   6.417   1.131   2.139
 2355SOL    HW2 7965   6.486   1.086   2.280
 2356SOL     OW 7966   4.184   5.065   3.501
 2356SOL    HW1 7967   4.128   5.065   3.584
 2356SOL    HW2 7968   4.275   5.031   3.522
 2357SOL     OW 7969   0.348   5.626   1.148
 2357SOL    HW1 7970   0.433   5.590   1.187
 2357SOL    HW2 7971   0.346   5.606   1.050
 2358SOL     OW 7972   2.153   0.800   4.622
 2358SOL    HW1 7973   2.124   0.833   4.712
 2358SOL    HW2 7974   2.237   0.747   4.632
 2359SOL     OW 7975   3.518   2.576   5.786
 2359SOL    HW1 7976   3.441   2.532   5.740
 2359SOL    HW2 7977   3.516   2.555   5.883
 2360SOL     OW 7978   3.524   4.828   1.650
 2360SOL    HW1 7979   3.601   4.851   1.590
 2360SOL    HW2 7980   3.552   4.754   1.712
 2361SOL     OW 7981   3.396   4.702   0.682
 2361SOL    HW1 7982   3.394   4.626   0.747
 2361SOL    HW2 7983   3.449   4.778   0.720
 2362SOL     OW 7984   3.758   4.961   4.642
 2362SOL    HW1 7985   3.680   4.951   4.703
 2362SOL    HW2 7986   3.842   4.971   4.697
 2363SOL     OW 7987   2.293   4.241   1.634
 2363SOL    HW1 7988   2.327   4.169   1.574
 2363SOL    HW2 7989   2.195   4.254   1.619
 2364SOL     OW 7990   4.305   1.098   2.264
 2364SOL    HW1 7991   4.339   1.146   2.344
 2364SOL    HW2 7992   4.349   1.009   2.256
 2365SOL     OW 7993   5.428   3.619   2.681
 2365SOL    HW1 7994   5.426   3.652   2.775
 2365SOL    HW2 7995   5.365   3.542   2.671
 2366SOL     OW 7996   4.772   5.091   4.888
 2366SOL    HW1 7997   4.704   5.029   4.851
 2366SOL    HW2 7998   4.726   5.169   4.931
 2367SOL     OW 7999   6.172   4.801   5.615
 2367SOL    HW1 8000   6.224   4.858   5.678
 2367SOL    HW2 8001   6.092   4.763   5.663
 2368SOL     OW 8002   5.068   1.474   5.010
 2368SOL    HW1 8003   5.029   1.488   4.919
 2368SOL    HW2 8004   5.128   1.551   5.033
 2369SOL     OW 8005   4.399   2.054   4.147
 2369SOL    HW1 8006   4.369   2.148   4.159
 2369SOL    HW2 8007   4.417   2.012   4.236
 2370SOL     OW 8008   3.957   2.434   0.579
 2370SOL    HW1 8009   3.960   2.417   0.677
 2370SOL    HW2 8010   4.004   2.520   0.559
 2371SOL     OW 8011   1.763   6.418   3.287
 2371SOL    HW1 8012   1.752   6.503   3.338
 2371SOL    HW2 8013   1.821   6.356   3.340
 2372SOL     OW 8014   5.579   6.470   6.849
 2372SOL    HW1 8015   5.508   6.420   6.800
 2372SOL    HW2 8016   5.668   6.425   6.833
 2373SOL     OW 8017   6.616   4.742   6.125
 2373SOL    HW1 8018   6.558   4.683   6.181
 2373SOL    HW2 8019   6.712   4.716   6.139
 2374SOL     OW 8020   0.593   5.184   2.942
 2374SOL    HW1 8021   0.583   5.280   2.915
 2374SOL    HW2 8022   0.683   5.151   2.913
 2375SOL     OW 8023   2.321   0.460   3.798
 2375SOL    HW1 8024   2.370   0.515   3.866
 2375SOL    HW2 8025   2.252   0.517   3.752
 2376SOL     OW 8026   5.966   2.943   4.479
 2376SOL    HW1 8027   6.010   2.886   4.549
 2376SOL    HW2 8028   5.879   2.977   4.514
 2377SOL     OW 8029   3.497   5.058   5.822
 2377SOL    HW1 8030   3.552   4.988   5.776
 2377SOL    HW2 8031   3.403   5.025   5.830
 2378SOL     OW 8032   0.926   0.256   0.999
 2378SOL    HW1 8033   0.918   0.181   0.934
 2378SOL    HW2 8034   0.989   0.325   0.963
 2379SOL     OW 8035   0.963   4.240   3.153
 2379SOL    HW1 8036   0.980   4.142   3.143
 2379SOL    HW2 8037   0.895   4.269   3.086
 2380SOL     OW 8038   4.566   5.457   5.769
 2380SOL    HW1 8039   4.648   5.489   5.817
 2380SOL    HW2 8040   4.591   5.386   5.703
 2381SOL     OW 8041   2.494   4.888   3.678
 2381SOL    HW1 8042   2.540   4.822   3.618
 2381SOL    HW2 8043   2.426   4.939   3.626
 2382SOL     OW 8044   6.222   5.784   2.321
 2382SOL    HW1 8045   6.299   5.839   2.287
 2382SOL    HW2 8046   6.153   5.844   2.361
 2383SOL     OW 8047   4.638   3.223   6.079
 2383SOL    HW1 8048   4.652   3.228   6.177
 2383SOL    HW2 8049   4.544   3.194   6.060
 2384SOL     OW 8050   0.999   2.486   3.433
 2384SOL    HW1 8051   0.902   2.474   3.457
 2384SOL    HW2 8052   1.049   2.402   3.455
 2385SOL     OW 8053   0.660   0.236   1.381
 2385SOL    HW1 8054   0.744   0.287   1.398
 2385SOL    HW2 8055   0.618   0.212   1.469
 2386SOL     OW 8056   0.309   5.213   6.927
 2386SOL    HW1 8057   0.299   5.312   6.911
 2386SOL    HW2 8058   0.302   5.164   6.840
 2387SOL     OW 8059   6.285   0.496   2.979
 2387SOL    HW1 8060   6.321   0.447   2.900
 2387SOL    HW2 8061   6.189   0.519   2.964
 2388SOL     OW 8062   2.070   5.052   3.851
 2388SOL    HW1 8063   2.074   5.059   3.751
 2388SOL    HW2 8064   2.058   5.143   3.890
 2389SOL     OW 8065   3.422   6.341   3.158
 2389SOL    HW1 8066   3.337   6.339   3.211
 2389SOL    HW2 8067   3.482   6.413   3.194
 2390SOL     OW 8068   4.910   3.574   4.730
 2390SOL    HW1 8069   4.966   3.588   4.648
 2390SOL    HW2 8070   4.829   3.632   4.726
 2391SOL     OW 8071   2.252   4.369   0.048
 2391SOL    HW1 8072   2.327   4.355   0.113
 2391SOL    HW2 8073   2.199   4.285   0.040
 2392SOL     OW 8074   3.904   4.975   5.482
 2392SOL    HW1 8075   3.938   5.025   5.403
 2392SOL    HW2 8076   3.919   5.029   5.565
 2393SOL     OW 8077   5.039   4.476   0.988
 2393SOL    HW1 8078   5.009   4.441   1.077
 2393SOL    HW2 8079   5.129   4.438   0.966
 2394SOL     OW 8080   0.003   2.307   3.173
 2394SOL    HW1 8081   0.050   2.259   3.099
 2394SOL    HW2 8082   7.013   2.402   3.147
 2395SOL     OW 8083   0.836   3.123   2.953
 2395SOL    HW1 8084   0.773   3.065   3.003
 2395SOL    HW2 8085   0.921   3.073   2.935
 2396SOL     OW 8086   0.514   6.884   4.842
 2396SOL    HW1 8087   0.455   6.819   4.889
 2396SOL    HW2 8088   0.480   6.977   4.857
 2397SOL     OW 8089   2.788   4.905   5.682
 2397SOL    HW1 8090   2.837   4.918   5.595
 2397SOL    HW2 8091   2.776   4.993   5.727
 2398SOL     OW 8092   3.802   6.369   5.124
 2398SOL    HW1 8093   3.804   6.345   5.027
 2398SOL    HW2 8094   3.837   6.462   5.136
 2399SOL     OW 8095   3.082   1.450   1.636
 2399SOL    HW1 8096   3.000   1.394   1.625
 2399SOL    HW2 8097   3.063   1.544   1.607
 2400SOL     OW 8098   0.898   2.151   6.214
 2400SOL    HW1 8099   0.856   2.065   6.186
 2400SOL    HW2 8100   0.970   2.175   6.149
 2401SOL     OW 8101   1.955   6.509   0.383
 2401SOL    HW1 8102   1.929   6.600   0.416
 2401SOL    HW2 8103   2.055   6.501   0.385
 2402SOL     OW 8104   0.691   3.162   1.594
 2402SOL    HW1 8105   0.790   3.152   1.586
 2402SOL    HW2 8106   0.651   3.178   1.504
 2403SOL     OW 8107   3.228   4.168   5.124
 2403SOL    HW1 8108   3.323   4.192   5.145
 2403SOL    HW2 8109   3.167   4.242   5.153
 2404SOL     OW 8110   6.844   2.357   1.565
 2404SOL    HW1 8111   6.940   2.382   1.566
 2404SOL    HW2 8112   6.834   2.262   1.596
 2405SOL     OW 8113   2.514   3.476   0.396
 2405SOL    HW1 8114   2.544   3.393   0.443
 2405SOL    HW2 8115   2.557   3.481   0.306
 2406SOL     OW 8116   4.811   5.527   5.878
 2406SOL    HW1 8117   4.874   5.454   5.905
 2406SOL    HW2 8118   4.853   5.615   5.898
 2407SOL     OW 8119   2.542   2.294   3.821
 2407SOL    HW1 8120   2.460   2.320   3.771
 2407SOL    HW2 8121   2.623   2.322   3.771
 2408SOL     OW 8122   4.573   6.817   5.764
 2408SOL    HW1 8123   4.514   6.888   5.727
 2408SOL    HW2 8124   4.653   6.805   5.706
 2409SOL     OW 8125   2.030   2.225   0.159
 2409SOL    HW1 8126   1.933   2.200   0.167
 2409SOL    HW2 8127   2.084   2.142   0.147
 2410SOL     OW 8128   0.137   3.677   4.470
 2410SOL    HW1 8129   0.198   3.647   4.397
 2410SOL    HW2 8130   0.043   3.680   4.437
 2411SOL     OW 8131   3.299   0.788   1.015
 2411SOL    HW1 8132   3.211   0.812   1.056
 2411SOL    HW2 8133   3.309   0.688   1.012
 2412SOL     OW 8134   2.895   2.363   0.573
 2412SOL    HW1 8135   2.810   2.315   0.592
 2412SOL    HW2 8136   2.967   2.296   0.555
 2413SOL     OW 8137   0.852   4.207   6.801
 2413SOL    HW1 8138   0.901   4.232   6.885
 2413SOL    HW2 8139   0.754   4.205   6.819
 2414SOL     OW 8140   6.114   2.129   5.233
 2414SOL    HW1 8141   6.035   2.100   5.288
 2414SOL    HW2 8142   6.195   2.133   5.292
 2415SOL     OW 8143   3.167   4.050   5.565
 2415SOL    HW1 8144   3.178   4.054   5.664
 2415SOL    HW2 8145   3.213   3.968   5.529
 2416SOL     OW 8146   6.727   3.320   3.420
 2416SOL    HW1 8147   6.628   3.307   3.414
 2416SOL    HW2 8148   6.765   3.259   3.489
 2417SOL     OW 8149   2.698   2.568   1.716
 2417SOL    HW1 8150   2.795   2.558   1.693
 2417SOL    HW2 8151   2.674   2.506   1.791
 2418SOL     OW 8152   6.518   3.761   6.448
 2418SOL    HW1 8153   6.428   3.785   6.412
 2418SOL    HW2 8154   6.586   3.825   6.412
 2419SOL     OW 8155   2.690   1.458   2.823
 2419SOL    HW1 8156   2.618   1.495   2.882
 2419SOL    HW2 8157   2.752   1.532   2.795
 2420SOL     OW 8158   0.480   2.864   1.183
 2420SOL    HW1 8159   0.529   2.777   1.185
 2420SOL    HW2 8160   0.431   2.873   1.097
 2421SOL     OW 8161   2.531   0.803   3.325
 2421SOL    HW1 8162   2.493   0.894   3.313
 2421SOL    HW2 8163   2.457   0.736   3.325
 2422SOL     OW 8164   3.864   0.060   0.209
 2422SOL    HW1 8165   3.957   0.061   0.174
 2422SOL    HW2 8166   3.853   0.132   0.277
 2423SOL     OW 8167   3.857   4.902   5.064
 2423SOL    HW1 8168   3.880   4.945   5.151
 2423SOL    HW2 8169   3.760   4.918   5.044
 2424SOL     OW 8170   5.591   0.061   6.556
 2424SOL    HW1 8171   5.611   0.155   6.583
 2424SOL    HW2 8172   5.513   0.027   6.609
 2425SOL     OW 8173   5.162   5.329   4.855
 2425SOL    HW1 8174   5.085   5.376   4.899
 2425SOL    HW2 8175   5.172   5.362   4.761
 2426SOL     OW 8176   2.985   2.059   5.290
 2426SOL    HW1 8177   3.085   2.071   5.286
 2426SOL    HW2 8178   2.941   2.142   5.256
 2427SOL     OW 8179   3.925   3.059   6.658
 2427SOL    HW1 8180   3.953   3.146   6.698
 2427SOL    HW2 8181   3.895   3.074   6.563
 2428SOL     OW 8182   1.520   1.354   2.099
 2428SOL    HW1 8183   1.437   1.315   2.058
 2428SOL    HW2 8184   1.544   1.303   2.182
 2429SOL     OW 8185   4.720   5.217   1.455
 2429SOL    HW1 8186   4.703   5.281   1.380
 2429SOL    HW2 8187   4.795   5.156   1.430
 2430SOL     OW 8188   0.086   6.297   6.599
 2430SOL    HW1 8189   0.038   6.304   6.687
 2430SOL    HW2 8190   0.172   6.348   6.604
 2431SOL     OW 8191   1.812   3.417   1.662
 2431SOL    HW1 8192   1.897   3.469   1.656
 2431SOL    HW2 8193   1.833   3.322   1.684
 2432SOL     OW 8194   2.999   5.396   2.799
 2432SOL    HW1 8195   3.098   5.398   2.787
 2432SOL    HW2 8196   2.974   5.319   2.859
 2433SOL     OW 8197   0.726   4.028   4.087
 2433SOL    HW1 8198   0.648   4.056   4.143
 2433SOL    HW2 8199   0.693   3.987   4.002
 2434SOL     OW 8200   3.469   2.040   3.110
 2434SOL    HW1 8201   3.555   2.080   3.143
 2434SOL    HW2 8202   3.485   1.994   3.022
 2435SOL     OW 8203   5.505   6.406   5.779
 2435SOL    HW1 8204   5.588   6.445   5.739
 2435SOL    HW2 8205   5.484   6.453   5.865
 2436SOL     OW 8206   6.980   3.443   7.011
 2436SOL    HW1 8207   0.047   3.424   0.020
 2436SOL    HW2 8208   6.942   3.522   0.033
 2437SOL     OW 8209   1.337   4.809   0.894
 2437SOL    HW1 8210   1.394   4.812   0.977
 2437SOL    HW2 8211   1.396   4.815   0.814
 2438SOL     OW 8212   3.762   1.310   4.797
 2438SOL    HW1 8213   3.666   1.303   4.770
 2438SOL    HW2 8214   3.820   1.289   4.719
 2439SOL     OW 8215   0.994   5.917   6.299
 2439SOL    HW1 8216   1.032   5.874   6.381
 2439SOL    HW2 8217   0.900   5.946   6.317
 2440SOL     OW 8218   0.084   2.479   5.440
 2440SOL    HW1 8219   7.009   2.477   5.441
 2440SOL    HW2 8220   0.116   2.486   5.346
 2441SOL     OW 8221   6.637   6.911   6.930
 2441SOL    HW1 8222   6.601   6.971   6.859
 2441SOL    HW2 8223   6.664   6.966   7.009
 2442SOL     OW 8224   5.808   3.087   3.472
 2442SOL    HW1 8225   5.865   3.169   3.465
 2442SOL    HW2 8226   5.838   3.032   3.550
 2443SOL     OW 8227   1.044   3.326   1.278
 2443SOL    HW1 8228   1.138   3.360   1.273
 2443SOL    HW2 8229   1.032   3.251   1.213
 2444SOL     OW 8230   3.650   5.071   2.437
 2444SOL    HW1 8231   3.675   5.098   2.344
 2444SOL    HW2 8232   3.713   5.114   2.502
 2445SOL     OW 8233   0.393   1.148   1.324
 2445SOL    HW1 8234   0.356   1.224   1.271
 2445SOL    HW2 8235   0.325   1.118   1.391
 2446SOL     OW 8236   6.775   5.492   0.378
 2446SOL    HW1 8237   6.805   5.571   0.432
 2446SOL    HW2 8238   6.798   5.408   0.426
 2447SOL     OW 8239   1.959   0.453   6.752
 2447SOL    HW1 8240   1.924   0.544   6.776
 2447SOL    HW2 8241   2.058   0.458   6.738
 2448SOL     OW 8242   5.201   1.097   4.636
 2448SOL    HW1 8243   5.108   1.062   4.626
 2448SOL    HW2 8244   5.203   1.194   4.608
 2449SOL     OW 8245   1.743   3.968   1.247
 2449SOL    HW1 8246   1.840   3.954   1.269
 2449SOL    HW2 8247   1.691   3.984   1.331
 2450SOL     OW 8248   6.855   6.384   6.114
 2450SOL    HW1 8249   6.933   6.401   6.055
 2450SOL    HW2 8250   6.882   6.324   6.190
 2451SOL     OW 8251   1.142   0.476   0.296
 2451SOL    HW1 8252   1.135   0.543   0.370
 2451SOL    HW2 8253   1.178   0.390   0.332
 2452SOL     OW 8254   1.110   2.758   4.001
 2452SOL    HW1 8255   1.042   2.687   3.983
 2452SOL    HW2 8256   1.096   2.796   4.092
 2453SOL     OW 8257   0.407   2.111   6.710
 2453SOL    HW1 8258   0.313   2.083   6.688
 2453SOL    HW2 8259   0.411   2.141   6.806
 2454SOL     OW 8260   2.401   6.154   1.927
 2454SOL    HW1 8261   2.418   6.058   1.903
 2454SOL    HW2 8262   2.489   6.201   1.937
 2455SOL     OW 8263   4.873   2.073   6.440
 2455SOL    HW1 8264   4.819   2.032   6.515
 2455SOL    HW2 8265   4.970   2.068   6.463
 2456SOL     OW 8266   1.366   2.862   5.966
 2456SOL    HW1 8267   1.271   2.838   5.987
 2456SOL    HW2 8268   1.370   2.952   5.924
 2457SOL     OW 8269   5.786   1.717   6.282
 2457SOL    HW1 8270   5.688   1.727   6.298
 2457SOL    HW2 8271   5.826   1.806   6.260
 2458SOL     OW 8272   1.351   0.068   0.967
 2458SOL    HW1 8273   1.362   0.145   0.905
 2458SOL    HW2 8274   1.271   0.082   1.025
 2459SOL     OW 8275   1.934   0.551   1.539
 2459SOL    HW1 8276   1.892   0.620   1.480
 2459SOL    HW2 8277   2.010   0.507   1.490
 2460SOL     OW 8278   0.623   1.383   4.138
 2460SOL    HW1 8279   0.651   1.292   4.108
 2460SOL    HW2 8280   0.603   1.381   4.236
 2461SOL     OW 8281   2.252   2.045   3.115
 2461SOL    HW1 8282   2.207   2.081   3.034
 2461SOL    HW2 8283   2.185   1.999   3.173
 2462SOL     OW 8284   0.324   5.564   0.872
 2462SOL    HW1 8285   0.271   5.487   0.836
 2462SOL    HW2 8286   0.321   5.640   0.808
 2463SOL     OW 8287   6.499   6.015   0.061
 2463SOL    HW1 8288   6.567   6.011   0.134
 2463SOL    HW2 8289   6.408   5.995   0.098
 2464SOL     OW 8290   1.000   2.887   4.963
 2464SOL    HW1 8291   1.097   2.911   4.959
 2464SOL    HW2 8292   0.979   2.824   4.888
 2465SOL     OW 8293   6.898   1.261   6.668
 2465SOL    HW1 8294   6.829   1.326   6.635
 2465SOL    HW2 8295   6.911   1.273   6.766
 2466SOL     OW 8296   0.908   1.748   1.125
 2466SOL    HW1 8297   0.830   1.685   1.125
 2466SOL    HW2 8298   0.967   1.728   1.203
 2467SOL     OW 8299   4.874   3.281   4.725
 2467SOL    HW1 8300   4.909   3.298   4.633
 2467SOL    HW2 8301   4.828   3.192   4.727
 2468SOL     OW 8302   3.649   6.115   4.392
 2468SOL    HW1 8303   3.641   6.067   4.480
 2468SOL    HW2 8304   3.742   6.104   4.356
 2469SOL     OW 8305   2.649   2.101   6.266
 2469SOL    HW1 8306   2.577   2.079   6.333
 2469SOL    HW2 8307   2.653   2.029   6.198
 2470SOL     OW 8308   1.983   5.197   6.495
 2470SOL    HW1 8309   2.055   5.225   6.432
 2470SOL    HW2 8310   1.922   5.133   6.449
 2471SOL     OW 8311   2.331   5.782   2.374
 2471SOL    HW1 8312   2.242   5.827   2.381
 2471SOL    HW2 8313   2.332   5.700   2.431
 2472SOL     OW 8314   4.940   0.581   1.884
 2472SOL    HW1 8315   4.924   0.521   1.962
 2472SOL    HW2 8316   4.874   0.656   1.884
 2473SOL     OW 8317   0.733   4.030   5.093
 2473SOL    HW1 8318   0.635   4.050   5.082
 2473SOL    HW2 8319   0.755   4.027   5.190
 2474SOL     OW 8320   2.038   0.390   0.808
 2474SOL    HW1 8321   2.016   0.347   0.895
 2474SOL    HW2 8322   2.134   0.418   0.808
 2475SOL     OW 8323   5.725   1.849   0.171
 2475SOL    HW1 8324   5.683   1.853   0.080
 2475SOL    HW2 8325   5.657   1.815   0.236
 2476SOL     OW 8326   3.794   7.010   6.984
 2476SOL    HW1 8327   3.717   0.030   6.940
 2476SOL    HW2 8328   3.793   0.005   0.057
 2477SOL     OW 8329   4.225   1.634   4.280
 2477SOL    HW1 8330   4.319   1.603   4.268
 2477SOL    HW2 8331   4.217   1.682   4.368
 2478SOL     OW 8332   3.009   0.346   3.727
 2478SOL    HW1 8333   2.994   0.416   3.797
 2478SOL    HW2 8334   3.022   0.390   3.639
 2479SOL     OW 8335   5.878   3.946   2.538
 2479SOL    HW1 8336   5.795   3.994   2.510
 2479SOL    HW2 8337   5.941   3.941   2.461
 2480SOL     OW 8338   2.669   1.951   1.830
 2480SOL    HW1 8339   2.696   1.960   1.926
 2480SOL    HW2 8340   2.574   1.982   1.820
 2481SOL     OW 8341   3.444   7.009   2.094
 2481SOL    HW1 8342   3.524   6.959   2.060
 2481SOL    HW2 8343   3.473   0.045   2.168
 2482SOL     OW 8344   6.764   3.298   6.967
 2482SOL    HW1 8345   6.761   3.263   6.873
 2482SOL    HW2 8346   6.853   3.339   6.985
 2483SOL     OW 8347   2.779   1.974   1.350
 2483SOL    HW1 8348   2.742   2.031   1.277
 2483SOL    HW2 8349   2.707   1.952   1.415
 2484SOL     OW 8350   4.280   1.470   5.933
 2484SOL    HW1 8351   4.353   1.404   5.913
 2484SOL    HW2 8352   4.216   1.471   5.856
 2485SOL     OW 8353   0.173   1.387   6.592
 2485SOL    HW1 8354   0.084   1.392   6.548
 2485SOL    HW2 8355   0.166   1.336   6.678
 2486SOL     OW 8356   6.658   5.430   2.651
 2486SOL    HW1 8357   6.696   5.457   2.562
 2486SOL    HW2 8358   6.559   5.423   2.643
 2487SOL     OW 8359   3.717   6.031   6.603
 2487SOL    HW1 8360   3.680   6.117   6.640
 2487SOL    HW2 8361   3.713   5.960   6.673
 2488SOL     OW 8362   0.465   3.503   0.855
 2488SOL    HW1 8363   0.524   3.431   0.818
 2488SOL    HW2 8364   0.414   3.467   0.933
 2489SOL     OW 8365   6.089   5.890   4.600
 2489SOL    HW1 8366   6.117   5.931   4.686
 2489SOL    HW2 8367   6.118   5.794   4.597
 2490SOL     OW 8368   3.254   6.074   2.692
 2490SOL    HW1 8369   3.218   6.154   2.738
 2490SOL    HW2 8370   3.353   6.070   2.704
 2491SOL     OW 8371   3.830   4.057   1.490
 2491SOL    HW1 8372   3.780   3.971   1.478
 2491SOL    HW2 8373   3.778   4.133   1.451
 2492SOL     OW 8374   0.168   4.456   2.261
 2492SOL    HW1 8375   0.214   4.532   2.305
 2492SOL    HW2 8376   0.071   4.478   2.248
 2493SOL     OW 8377   6.055   5.925   0.853
 2493SOL    HW1 8378   6.084   6.021   0.854
 2493SOL    HW2 8379   6.134   5.866   0.836
 2494SOL     OW 8380   6.841   3.016   1.575
 2494SOL    HW1 8381   6.881   3.053   1.492
 2494SOL    HW2 8382   6.755   3.063   1.594
 2495SOL     OW 8383   6.858   2.846   2.128
 2495SOL    HW1 8384   6.819   2.859   2.037
 2495SOL    HW2 8385   6.785   2.856   2.197
 2496SOL     OW 8386   5.614   3.837   6.136
 2496SOL    HW1 8387   5.611   3.761   6.071
 2496SOL    HW2 8388   5.585   3.921   6.090
 2497SOL     OW 8389   0.986   0.359   3.963
 2497SOL    HW1 8390   0.887   0.341   3.968
 2497SOL    HW2 8391   1.019   0.385   4.054
 2498SOL     OW 8392   2.124   2.691   4.591
 2498SOL    HW1 8393   2.139   2.735   4.503
 2498SOL    HW2 8394   2.208   2.696   4.646
 2499SOL     OW 8395   6.163   2.565   0.602
 2499SOL    HW1 8396   6.182   2.471   0.574
 2499SOL    HW2 8397   6.179   2.626   0.525
 2500SOL     OW 8398   4.034   3.700   2.935
 2500SOL    HW1 8399   4.044   3.753   2.851
 2500SOL    HW2 8400   4.083   3.614   2.927
 2501SOL     OW 8401   6.039   4.975   4.087
 2501SOL    HW1 8402   6.082   5.061   4.062
 2501SOL    HW2 8403   6.051   4.959   4.185
 2502SOL     OW 8404   2.266   5.909   3.666
 2502SOL    HW1 8405   2.277   6.003   3.698
 2502SOL    HW2 8406   2.197   5.905   3.594
 2503SOL     OW 8407   2.167   0.265   5.472
 2503SOL    HW1 8408   2.257   0.278   5.433
 2503SOL    HW2 8409   2.140   0.169   5.463
 2504SOL     OW 8410   4.666   1.233   2.208
 2504SOL    HW1 8411   4.679   1.207   2.112
 2504SOL    HW2 8412   4.712   1.319   2.226
 2505SOL     OW 8413   5.637   4.231   4.002
 2505SOL    HW1 8414   5.588   4.287   4.068
 2505SOL    HW2 8415   5.579   4.215   3.922
 2506SOL     OW 8416   5.825   5.126   6.513
 2506SOL    HW1 8417   5.806   5.033   6.546
 2506SOL    HW2 8418   5.752   5.156   6.452
 2507SOL     OW 8419   6.058   3.483   3.622
 2507SOL    HW1 8420   6.010   3.571   3.612
 2507SOL    HW2 8421   6.132   3.493   3.688
 2508SOL     OW 8422   5.526   1.013   4.245
 2508SOL    HW1 8423   5.592   1.053   4.182
 2508SOL    HW2 8424   5.504   0.920   4.216
 2509SOL     OW 8425   0.139   3.889   6.216
 2509SOL    HW1 8426   0.080   3.968   6.197
 2509SOL    HW2 8427   0.231   3.907   6.179
 2510SOL     OW 8428   3.369   3.707   2.070
 2510SOL    HW1 8429   3.425   3.638   2.114
 2510SOL    HW2 8430   3.332   3.770   2.139
 2511SOL     OW 8431   2.008   1.275   4.985
 2511SOL    HW1 8432   2.012   1.186   5.031
 2511SOL    HW2 8433   2.024   1.348   5.051
 2512SOL     OW 8434   2.720   4.946   3.453
 2512SOL    HW1 8435   2.710   5.044   3.435
 2512SOL    HW2 8436   2.721   4.931   3.552
 2513SOL     OW 8437   2.124   5.318   6.314
 2513SOL    HW1 8438   2.185   5.266   6.254
 2513SOL    HW2 8439   2.102   5.406   6.272
 2514SOL     OW 8440   1.412   2.439   2.310
 2514SOL    HW1 8441   1.365   2.445   2.222
 2514SOL    HW2 8442   1.421   2.343   2.337
 2515SOL     OW 8443   0.001   1.604   1.008
 2515SOL    HW1 8444   0.092   1.622   0.971
 2515SOL    HW2 8445   6.993   1.686   1.054
 2516SOL     OW 8446   6.704   2.424   4.926
 2516SOL    HW1 8447   6.640   2.364   4.878
 2516SOL    HW2 8448   6.673   2.519   4.917
 2517SOL     OW 8449   0.455   1.767   4.133
 2517SOL    HW1 8450   0.370   1.817   4.146
 2517SOL    HW2 8451   0.437   1.669   4.133
 2518SOL     OW 8452   3.318   3.431   1.087
 2518SOL    HW1 8453   3.286   3.436   0.992
 2518SOL    HW2 8454   3.362   3.518   1.111
 2519SOL     OW 8455   1.458   0.705   0.390
 2519SOL    HW1 8456   1.423   0.767   0.459
 2519SOL    HW2 8457   1.429   0.736   0.299
 2520SOL     OW 8458   2.416   3.011   1.255
 2520SOL    HW1 8459   2.352   3.069   1.305
 2520SOL    HW2 8460   2.489   2.981   1.316
 2521SOL     OW 8461   5.826   1.322   5.087
 2521SOL    HW1 8462   5.815   1.331   4.988
 2521SOL    HW2 8463   5.736   1.317   5.130
 2522SOL     OW 8464   1.317   2.110   0.239
 2522SOL    HW1 8465   1.322   2.060   0.152
 2522SOL    HW2 8466   1.396   2.170   0.247
 2523SOL     OW 8467   1.156   5.243   4.745
 2523SOL    HW1 8468   1.232   5.250   4.679
 2523SOL    HW2 8469   1.114   5.333   4.757
 2524SOL     OW 8470   0.930   2.010   4.764
 2524SOL    HW1 8471   0.943   2.028   4.862
 2524SOL    HW2 8472   1.016   1.981   4.723
 2525SOL     OW 8473   6.900   3.637   6.521
 2525SOL    HW1 8474   6.920   3.735   6.528
 2525SOL    HW2 8475   6.941   3.601   6.438
 2526SOL     OW 8476   2.542   1.057   1.195
 2526SOL    HW1 8477   2.552   1.116   1.114
 2526SOL    HW2 8478   2.460   1.084   1.246
 2527SOL     OW 8479   3.856   5.085   0.171
 2527SOL    HW1 8480   3.891   4.992   0.155
 2527SOL    HW2 8481   3.814   5.089   0.262
 2528SOL     OW 8482   4.250   5.636   6.449
 2528SOL    HW1 8483   4.233   5.612   6.353
 2528SOL    HW2 8484   4.286   5.556   6.498
 2529SOL     OW 8485   6.983   6.204   5.835
 2529SOL    HW1 8486   7.024   6.289   5.868
 2529SOL    HW2 8487   6.976   6.138   5.910
 2530SOL     OW 8488   2.284   6.149   6.070
 2530SOL    HW1 8489   2.319   6.216   6.136
 2530SOL    HW2 8490   2.350   6.138   5.996
 2531SOL     OW 8491   0.284   4.304   6.390
 2531SOL    HW1 8492   0.331   4.391   6.377
 2531SOL    HW2 8493   0.316   4.262   6.474
 2532SOL     OW 8494   5.286   6.951   2.856
 2532SOL    HW1 8495   5.305   6.859   2.820
 2532SOL    HW2 8496   5.256   7.010   2.781
 2533SOL     OW 8497   4.702   0.286   3.779
 2533SOL    HW1 8498   4.764   0.208   3.769
 2533SOL    HW2 8499   4.709   0.321   3.873
 2534SOL     OW 8500   4.743   2.219   2.313
 2534SOL    HW1 8501   4.729   2.120   2.301
 2534SOL    HW2 8502   4.660   2.267   2.288
 2535SOL     OW 8503   4.075   3.226   5.802
 2535SOL    HW1 8504   4.130   3.299   5.842
 2535SOL    HW2 8505   4.099   3.215   5.705
 2536SOL     OW 8506   0.853   0.572   1.196
 2536SOL    HW1 8507   0.861   0.493   1.257
 2536SOL    HW2 8508   0.914   0.560   1.118
 2537SOL     OW 8509   4.310   6.899   5.136
 2537SOL    HW1 8510   4.293   6.918   5.039
 2537SOL    HW2 8511   4.310   6.985   5.187
 2538SOL     OW 8512   6.411   4.263   3.841
 2538SOL    HW1 8513   6.435   4.312   3.925
 2538SOL    HW2 8514   6.344   4.315   3.789
 2539SOL     OW 8515   4.748   1.916   4.862
 2539SOL    HW1 8516   4.744   1.961   4.952
 2539SOL    HW2 8517   4.737   1.817   4.874
 2540SOL     OW 8518   2.503   2.265   1.781
 2540SOL    HW1 8519   2.571   2.327   1.821
 2540SOL    HW2 8520   2.422   2.261   1.839
 2541SOL     OW 8521   3.088   6.776   4.290
 2541SOL    HW1 8522   3.034   6.694   4.308
 2541SOL    HW2 8523   3.036   6.857   4.315
 2542SOL     OW 8524   1.557   5.334   5.155
 2542SOL    HW1 8525   1.526   5.370   5.067
 2542SOL    HW2 8526   1.483   5.283   5.198
 2543SOL     OW 8527   0.937   1.338   3.427
 2543SOL    HW1 8528   1.031   1.360   3.403
 2543SOL    HW2 8529   0.875   1.379   3.359
 2544SOL     OW 8530   1.204   5.838   5.888
 2544SOL    HW1 8531   1.229   5.930   5.918
 2544SOL    HW2 8532   1.124   5.806   5.939
 2545SOL     OW 8533   3.137   6.375   2.619
 2545SOL    HW1 8534   3.235   6.373   2.636
 2545SOL    HW2 8535   3.110   6.292   2.569
 2546SOL     OW 8536   6.951   1.042   2.800
 2546SOL    HW1 8537   0.012   1.093   2.808
 2546SOL    HW2 8538   6.876   1.098   2.836
 2547SOL     OW 8539   0.368   3.942   4.855
 2547SOL    HW1 8540   0.422   3.883   4.796
 2547SOL    HW2 8541   0.279   3.899   4.873
 2548SOL     OW 8542   6.848   0.698   5.261
 2548SOL    HW1 8543   6.859   0.673   5.165
 2548SOL    HW2 8544   6.850   0.798   5.270
 2549SOL     OW 8545   5.704   2.366   3.548
 2549SOL    HW1 8546   5.724   2.424   3.468
 2549SOL    HW2 8547   5.722   2.270   3.524
 2550SOL     OW 8548   5.970   5.039   0.454
 2550SOL    HW1 8549   5.988   5.116   0.394
 2550SOL    HW2 8550   6.056   4.991   0.474
 2551SOL     OW 8551   0.913   4.948   6.335
 2551SOL    HW1 8552   0.938   5.023   6.274
 2551SOL    HW2 8553   0.862   4.984   6.413
 2552SOL     OW 8554   1.647   5.988   3.277
 2552SOL    HW1 8555   1.668   5.993   3.375
 2552SOL    HW2 8556   1.723   5.946   3.228
 2553SOL     OW 8557   4.468   2.832   0.203
 2553SOL    HW1 8558   4.416   2.814   0.120
 2553SOL    HW2 8559   4.467   2.930   0.222
 2554SOL     OW 8560   0.766   1.731   0.404
 2554SOL    HW1 8561   0.689   1.769   0.352
 2554SOL    HW2 8562   0.775   1.780   0.491
 2555SOL     OW 8563   0.493   0.188   5.473
 2555SOL    HW1 8564   0.578   0.175   5.523
 2555SOL    HW2 8565   0.464   0.284   5.480
 2556SOL     OW 8566   4.174   4.510   0.009
 2556SOL    HW1 8567   4.090   4.541   0.054
 2556SOL    HW2 8568   4.214   4.434   0.061
 2557SOL     OW 8569   2.370   5.088   6.447
 2557SOL    HW1 8570   2.341   5.036   6.366
 2557SOL    HW2 8571   2.299   5.084   6.517
 2558SOL     OW 8572   4.252   0.750   5.303
 2558SOL    HW1 8573   4.182   0.781   5.239
 2558SOL    HW2 8574   4.271   0.823   5.369
 2559SOL     OW 8575   6.842   5.004   4.921
 2559SOL    HW1 8576   6.747   4.972   4.916
 2559SOL    HW2 8577   6.903   4.928   4.897
 2560SOL     OW 8578   6.357   0.016   0.163
 2560SOL    HW1 8579   6.412   0.084   0.115
 2560SOL    HW2 8580   6.345   6.961   0.104
 2561SOL     OW 8581   3.436   6.413   3.845
 2561SOL    HW1 8582   3.388   6.352   3.908
 2561SOL    HW2 8583   3.385   6.499   3.836
 2562SOL     OW 8584   1.759   4.158   0.155
 2562SOL    HW1 8585   1.726   4.104   0.232
 2562SOL    HW2 8586   1.814   4.100   0.095
 2563SOL     OW 8587   1.448   0.411   1.949
 2563SOL    HW1 8588   1.447   0.465   2.032
 2563SOL    HW2 8589   1.354   0.390   1.921
 2564SOL     OW 8590   0.761   6.256   2.732
 2564SOL    HW1 8591   0.786   6.251   2.828
 2564SOL    HW2 8592   0.732   6.349   2.710
 2565SOL     OW 8593   1.100   1.210   0.849
 2565SOL    HW1 8594   1.073   1.231   0.943
 2565SOL    HW2 8595   1.056   1.274   0.786
 2566SOL     OW 8596   2.637   6.661   5.161
 2566SOL    HW1 8597   2.589   6.597   5.221
 2566SOL    HW2 8598   2.569   6.717   5.112
 2567SOL     OW 8599   1.132   0.688   0.491
 2567SOL    HW1 8600   1.080   0.759   0.441
 2567SOL    HW2 8601   1.198   0.732   0.551
 2568SOL     OW 8602   5.848   3.129   0.633
 2568SOL    HW1 8603   5.902   3.092   0.709
 2568SOL    HW2 8604   5.909   3.171   0.567
 2569SOL     OW 8605   2.320   0.950   2.504
 2569SOL    HW1 8606   2.301   1.000   2.589
 2569SOL    HW2 8607   2.407   0.980   2.466
 2570SOL     OW 8608   6.324   2.733   6.007
 2570SOL    HW1 8609   6.363   2.733   6.099
 2570SOL    HW2 8610   6.242   2.791   6.006
 2571SOL     OW 8611   1.581   4.399   3.936
 2571SOL    HW1 8612   1.570   4.332   4.008
 2571SOL    HW2 8613   1.523   4.375   3.858
 2572SOL     OW 8614   1.568   4.801   3.037
 2572SOL    HW1 8615   1.587   4.891   2.996
 2572SOL    HW2 8616   1.469   4.789   3.045
 2573SOL     OW 8617   1.155   0.063   0.588
 2573SOL    HW1 8618   1.242   0.042   0.634
 2573SOL    HW2 8619   1.152   0.015   0.500
 2574SOL     OW 8620   6.415   3.340   1.499
 2574SOL    HW1 8621   6.408   3.436   1.473
 2574SOL    HW2 8622   6.364   3.325   1.584
 2575SOL     OW 8623   1.022   0.429   4.898
 2575SOL    HW1 8624   1.040   0.527   4.889
 2575SOL    HW2 8625   1.092   0.378   4.847
 2576SOL     OW 8626   4.779   6.620   5.186
 2576SOL    HW1 8627   4.853   6.687   5.174
 2576SOL    HW2 8628   4.739   6.600   5.097
 2577SOL     OW 8629   2.216   3.909   2.153
 2577SOL    HW1 8630   2.277   3.830   2.157
 2577SOL    HW2 8631   2.215   3.955   2.242
 2578SOL     OW 8632   3.815   1.899   1.645
 2578SOL    HW1 8633   3.849   1.816   1.601
 2578SOL    HW2 8634   3.863   1.979   1.608
 2579SOL     OW 8635   0.287   6.623   3.266
 2579SOL    HW1 8636   0.315   6.690   3.198
 2579SOL    HW2 8637   0.366   6.595   3.320
 2580SOL     OW 8638   2.958   2.004   5.610
 2580SOL    HW1 8639   2.931   2.029   5.703
 2580SOL    HW2 8640   2.915   2.068   5.545
 2581SOL     OW 8641   3.649   0.762   6.149
 2581SOL    HW1 8642   3.598   0.709   6.217
 2581SOL    HW2 8643   3.670   0.704   6.070
 2582SOL     OW 8644   0.090   3.334   0.259
 2582SOL    HW1 8645   0.120   3.376   0.345
 2582SOL    HW2 8646   0.000   3.292   0.272
 2583SOL     OW 8647   4.955   1.206   0.892
 2583SOL    HW1 8648   4.928   1.278   0.828
 2583SOL    HW2 8649   4.928   1.117   0.856
 2584SOL     OW 8650   2.818   4.078   6.936
 2584SOL    HW1 8651   2.864   3.992   6.956
 2584SOL    HW2 8652   2.795   4.082   6.839
 2585SOL     OW 8653   1.967   4.998   6.859
 2585SOL    HW1 8654   1.914   5.066   6.909
 2585SOL    HW2 8655   2.002   4.930   6.923
 2586SOL     OW 8656   2.109   1.501   2.557
 2586SOL    HW1 8657   2.061   1.484   2.472
 2586SOL    HW2 8658   2.207   1.483   2.545
 2587SOL     OW 8659   5.893   1.382   3.920
 2587SOL    HW1 8660   5.943   1.389   4.007
 2587SOL    HW2 8661   5.795   1.369   3.939
 2588SOL     OW 8662   5.038   1.718   6.408
 2588SOL    HW1 8663   5.016   1.734   6.504
 2588SOL    HW2 8664   5.044   1.620   6.391
 2589SOL     OW 8665   1.451   6.282   0.284
 2589SOL    HW1 8666   1.514   6.228   0.341
 2589SOL    HW2 8667   1.491   6.372   0.266
 2590SOL     OW 8668   3.075   4.127   0.675
 2590SOL    HW1 8669   2.992   4.072   0.663
 2590SOL    HW2 8670   3.050   4.217   0.710
 2591SOL     OW 8671   4.869   6.618   2.609
 2591SOL    HW1 8672   4.876   6.530   2.656
 2591SOL    HW2 8673   4.773   6.647   2.607
 2592SOL     OW 8674   3.130   3.633   1.176
 2592SOL    HW1 8675   3.165   3.541   1.161
 2592SOL    HW2 8676   3.204   3.692   1.208
 2593SOL     OW 8677   2.492   4.883   6.587
 2593SOL    HW1 8678   2.497   4.820   6.510
 2593SOL    HW2 8679   2.451   4.970   6.557
 2594SOL     OW 8680   2.198   2.575   3.108
 2594SOL    HW1 8681   2.135   2.626   3.166
 2594SOL    HW2 8682   2.152   2.493   3.074
 2595SOL     OW 8683   1.323   0.780   2.346
 2595SOL    HW1 8684   1.319   0.880   2.354
 2595SOL    HW2 8685   1.233   0.742   2.362
 2596SOL     OW 8686   6.819   0.890   0.226
 2596SOL    HW1 8687   6.888   0.866   0.157
 2596SOL    HW2 8688   6.837   0.837   0.309
 2597SOL     OW 8689   5.855   5.846   0.331
 2597SOL    HW1 8690   5.797   5.904   0.389
 2597SOL    HW2 8691   5.914   5.790   0.389
 2598SOL     OW 8692   4.995   2.648   1.941
 2598SOL    HW1 8693   5.025   2.598   1.860
 2598SOL    HW2 8694   4.929   2.718   1.915
 2599SOL     OW 8695   2.174   5.338   1.703
 2599SOL    HW1 8696   2.164   5.399   1.781
 2599SOL    HW2 8697   2.130   5.250   1.724
 2600SOL     OW 8698   5.833   5.742   4.606
 2600SOL    HW1 8699   5.837   5.698   4.697
 2600SOL    HW2 8700   5.915   5.798   4.593
 2601SOL     OW 8701   0.016   1.229   3.239
 2601SOL    HW1 8702   0.016   1.140   3.283
 2601SOL    HW2 8703   0.108   1.269   3.243
 2602SOL     OW 8704   2.171   4.655   3.369
 2602SOL    HW1 8705   2.178   4.595   3.448
 2602SOL    HW2 8706   2.080   4.697   3.367
 2603SOL     OW 8707   1.892   6.148   1.988
 2603SOL    HW1 8708   1.886   6.084   1.912
 2603SOL    HW2 8709   1.802   6.159   2.030
 2604SOL     OW 8710   5.029   2.918   2.692
 2604SOL    HW1 8711   5.048   2.860   2.771
 2604SOL    HW2 8712   4.941   2.964   2.704
 2605SOL     OW 8713   0.961   2.337   0.761
 2605SOL    HW1 8714   0.875   2.354   0.713
 2605SOL    HW2 8715   1.033   2.317   0.694
 2606SOL     OW 8716   5.113   3.674   1.046
 2606SOL    HW1 8717   5.090   3.627   1.132
 2606SOL    HW2 8718   5.052   3.752   1.033
 2607SOL     OW 8719   2.213   2.802   1.926
 2607SOL    HW1 8720   2.294   2.747   1.947
 2607SOL    HW2 8721   2.130   2.748   1.944
 2608SOL     OW 8722   3.401   4.906   5.188
 2608SOL    HW1 8723   3.475   4.871   5.245
 2608SOL    HW2 8724   3.318   4.854   5.205
 2609SOL     OW 8725   0.101   1.825   2.590
 2609SOL    HW1 8726   0.017   1.879   2.600
 2609SOL    HW2 8727   0.077   1.731   2.564
 2610SOL     OW 8728   1.380   4.701   5.237
 2610SOL    HW1 8729   1.402   4.779   5.178
 2610SOL    HW2 8730   1.362   4.734   5.330
 2611SOL     OW 8731   4.983   2.070   5.507
 2611SOL    HW1 8732   4.884   2.082   5.505
 2611SOL    HW2 8733   5.025   2.143   5.561
 2612SOL     OW 8734   6.220   5.883   0.140
 2612SOL    HW1 8735   6.124   5.865   0.162
 2612SOL    HW2 8736   6.241   5.850   0.048
 2613SOL     OW 8737   1.814   0.185   0.441
 2613SOL    HW1 8738   1.819   0.284   0.431
 2613SOL    HW2 8739   1.749   0.148   0.374
 2614SOL     OW 8740   6.450   1.808   0.708
 2614SOL    HW1 8741   6.368   1.787   0.761
 2614SOL    HW2 8742   6.490   1.893   0.741
 2615SOL     OW 8743   1.743   3.073   0.212
 2615SOL    HW1 8744   1.678   3.149   0.216
 2615SOL    HW2 8745   1.767   3.055   0.117
 2616SOL     OW 8746   1.120   1.307   5.081
 2616SOL    HW1 8747   1.020   1.313   5.075
 2616SOL    HW2 8748   1.159   1.396   5.059
 2617SOL     OW 8749   6.489   0.054   6.753
 2617SOL    HW1 8750   6.407   0.062   6.696
 2617SOL    HW2 8751   6.496   0.133   6.814
 2618SOL     OW 8752   1.969   6.995   0.530
 2618SOL    HW1 8753   1.944   0.053   0.480
 2618SOL    HW2 8754   2.057   7.008   0.575
 2619SOL     OW 8755   3.935   1.200   2.620
 2619SOL    HW1 8756   3.859   1.145   2.656
 2619SOL    HW2 8757   3.928   1.205   2.520
 2620SOL     OW 8758   5.746   2.610   2.014
 2620SOL    HW1 8759   5.770   2.703   2.038
 2620SOL    HW2 8760   5.648   2.595   2.030
 2621SOL     OW 8761   2.255   6.064   1.051
 2621SOL    HW1 8762   2.254   6.113   0.965
 2621SOL    HW2 8763   2.219   5.971   1.037
 2622SOL     OW 8764   2.455   3.227   0.031
 2622SOL    HW1 8765   2.358   3.250   0.039
 2622SOL    HW2 8766   2.510   3.303   0.065
 2623SOL     OW 8767   0.664   1.846   3.955
 2623SOL    HW1 8768   0.672   1.775   3.886
 2623SOL    HW2 8769   0.582   1.830   4.011
 2624SOL     OW 8770   1.277   1.157   5.698
 2624SOL    HW1 8771   1.235   1.146   5.788
 2624SOL    HW2 8772   1.267   1.072   5.647
 2625SOL     OW 8773   3.003   5.618   5.744
 2625SOL    HW1 8774   3.083   5.561   5.762
 2625SOL    HW2 8775   2.979   5.613   5.647
 2626SOL     OW 8776   0.149   0.074   0.463
 2626SOL    HW1 8777   0.179   0.071   0.367
 2626SOL    HW2 8778   0.193   0.150   0.510
 2627SOL     OW 8779   3.008   0.371   5.101
 2627SOL    HW1 8780   2.918   0.402   5.130
 2627SOL    HW2 8781   3.074   0.446   5.110
 2628SOL     OW 8782   6.686   5.789   2.222
 2628SOL    HW1 8783   6.626   5.748   2.290
 2628SOL    HW2 8784   6.751   5.850   2.267
 2629SOL     OW 8785   3.399   3.198   2.285
 2629SOL    HW1 8786   3.382   3.284   2.334
 2629SOL    HW2 8787   3.341   3.194   2.204
 2630SOL     OW 8788   3.259   1.424   4.538
 2630SOL    HW1 8789   3.263   1.424   4.638
 2630SOL    HW2 8790   3.205   1.502   4.506
 2631SOL     OW 8791   5.067   5.534   0.352
 2631SOL    HW1 8792   5.088   5.534   0.450
 2631SOL    HW2 8793   5.097   5.449   0.311
 2632SOL     OW 8794   4.053   5.758   2.154
 2632SOL    HW1 8795   4.039   5.746   2.253
 2632SOL    HW2 8796   4.089   5.674   2.115
 2633SOL     OW 8797   6.540   3.080   6.228
 2633SOL    HW1 8798   6.486   3.020   6.287
 2633SOL    HW2 8799   6.589   3.146   6.284
 2634SOL     OW 8800   2.107   1.696   6.140
 2634SOL    HW1 8801   2.051   1.618   6.110
 2634SOL    HW2 8802   2.048   1.776   6.152
 2635SOL     OW 8803   4.280   5.510   3.387
 2635SOL    HW1 8804   4.238   5.486   3.300
 2635SOL    HW2 8805   4.232   5.463   3.461
 2636SOL     OW 8806   3.278   6.899   6.193
 2636SOL    HW1 8807   3.324   6.950   6.266
 2636SOL    HW2 8808   3.270   6.803   6.219
 2637SOL     OW 8809   6.096   1.306   3.072
 2637SOL    HW1 8810   6.165   1.316   3.143
 2637SOL    HW2 8811   6.058   1.396   3.050
 2638SOL     OW 8812   0.218   6.099   4.520
 2638SOL    HW1 8813   0.278   6.179   4.524
 2638SOL    HW2 8814   0.273   6.016   4.510
 2639SOL     OW 8815   4.965   5.514   4.898
 2639SOL    HW1 8816   4.895   5.508   4.968
 2639SOL    HW2 8817   4.942   5.588   4.834
 2640SOL     OW 8818   1.706   1.113   2.951
 2640SOL    HW1 8819   1.796   1.156   2.939
 2640SOL    HW2 8820   1.683   1.109   3.048
 2641SOL     OW 8821   4.757   2.338   1.053
 2641SOL    HW1 8822   4.698   2.418   1.046
 2641SOL    HW2 8823   4.715   2.262   1.003
 2642SOL     OW 8824   0.387   0.342   3.040
 2642SOL    HW1 8825   0.313   0.312   2.980
 2642SOL    HW2 8826   0.475   0.318   3.000
 2643SOL     OW 8827   1.729   5.056   4.852
 2643SOL    HW1 8828   1.812   5.038   4.905
 2643SOL    HW2 8829   1.678   4.971   4.840
 2644SOL     OW 8830   5.754   5.713   3.970
 2644SOL    HW1 8831   5.762   5.731   4.068
 2644SOL    HW2 8832   5.824   5.648   3.942
 2645SOL     OW 8833   4.329   5.624   2.277
 2645SOL    HW1 8834   4.420   5.667   2.282
 2645SOL    HW2 8835   4.329   5.552   2.209
 2646SOL     OW 8836   1.442   1.468   6.592
 2646SOL    HW1 8837   1.397   1.474   6.681
 2646SOL    HW2 8838   1.498   1.386   6.589
 2647SOL     OW 8839   4.234   0.473   2.777
 2647SOL    HW1 8840   4.182   0.410   2.835
 2647SOL    HW2 8841   4.190   0.563   2.779
 2648SOL     OW 8842   1.747   0.377   6.348
 2648SOL    HW1 8843   1.813   0.423   6.289
 2648SOL    HW2 8844   1.784   0.370   6.440
 2649SOL     OW 8845   5.854   2.059   3.598
 2649SOL    HW1 8846   5.795   2.096   3.527
 2649SOL    HW2 8847   5.833   1.962   3.612
 2650SOL     OW 8848   1.661   6.799   4.437
 2650SOL    HW1 8849   1.640   6.702   4.427
 2650SOL    HW2 8850   1.715   6.829   4.359
 2651SOL     OW 8851   2.427   1.869   2.799
 2651SOL    HW1 8852   2.440   1.770   2.786
 2651SOL    HW2 8853   2.346   1.899   2.749
 2652SOL     OW 8854   4.063   3.699   6.553
 2652SOL    HW1 8855   4.034   3.607   6.527
 2652SOL    HW2 8856   3.996   3.765   6.517
 2653SOL     OW 8857   2.918   6.795   1.170
 2653SOL    HW1 8858   2.986   6.743   1.118
 2653SOL    HW2 8859   2.827   6.774   1.136
 2654SOL     OW 8860   6.371   0.174   1.991
 2654SOL    HW1 8861   6.342   0.122   1.910
 2654SOL    HW2 8862   6.293   0.222   2.029
 2655SOL     OW 8863   5.825   6.930   4.471
 2655SOL    HW1 8864   5.912   6.978   4.460
 2655SOL    HW2 8865   5.767   6.949   4.392
 2656SOL     OW 8866   5.489   0.054   4.544
 2656SOL    HW1 8867   5.536   0.086   4.626
 2656SOL    HW2 8868   5.556   0.016   4.480
 2657SOL     OW 8869   2.153   3.469   5.904
 2657SOL    HW1 8870   2.178   3.431   5.815
 2657SOL    HW2 8871   2.054   3.483   5.908
 2658SOL     OW 8872   3.417   4.250   0.824
 2658SOL    HW1 8873   3.389   4.158   0.796
 2658SOL    HW2 8874   3.385   4.267   0.917
 2659SOL     OW 8875   0.421   2.522   5.071
 2659SOL    HW1 8876   0.444   2.581   4.994
 2659SOL    HW2 8877   0.438   2.427   5.048
 2660SOL     OW 8878   0.621   0.984   0.099
 2660SOL    HW1 8879   0.572   0.903   0.067
 2660SOL    HW2 8880   0.560   1.041   0.153
 2661SOL     OW 8881   1.489   1.228   1.419
 2661SOL    HW1 8882   1.495   1.311   1.475
 2661SOL    HW2 8883   1.443   1.249   1.333
 2662SOL     OW 8884   2.860   1.686   1.371
 2662SOL    HW1 8885   2.840   1.783   1.358
 2662SOL    HW2 8886   2.932   1.675   1.440
 2663SOL     OW 8887   3.823   0.066   0.826
 2663SOL    HW1 8888   3.788   0.069   0.920
 2663SOL    HW2 8889   3.923   0.066   0.827
 2664SOL     OW 8890   4.806   3.310   5.228
 2664SOL    HW1 8891   4.850   3.245   5.166
 2664SOL    HW2 8892   4.782   3.393   5.179
 2665SOL     OW 8893   1.596   3.469   4.349
 2665SOL    HW1 8894   1.635   3.468   4.441
 2665SOL    HW2 8895   1.551   3.557   4.333
 2666SOL     OW 8896   1.891   3.326   2.016
 2666SOL    HW1 8897   1.949   3.280   2.082
 2666SOL    HW2 8898   1.802   3.280   2.012
 2667SOL     OW 8899   6.388   2.373   4.078
 2667SOL    HW1 8900   6.391   2.357   3.980
 2667SOL    HW2 8901   6.335   2.456   4.097
 2668SOL     OW 8902   5.782   0.955   3.162
 2668SOL    HW1 8903   5.714   0.972   3.090
 2668SOL    HW2 8904   5.872   0.981   3.129
 2669SOL     OW 8905   2.477   1.905   2.244
 2669SOL    HW1 8906   2.488   2.002   2.221
 2669SOL    HW2 8907   2.407   1.865   2.184
 2670SOL     OW 8908   0.812   6.608   1.218
 2670SOL    HW1 8909   0.885   6.670   1.189
 2670SOL    HW2 8910   0.811   6.603   1.318
 2671SOL     OW 8911   5.140   4.378   6.409
 2671SOL    HW1 8912   5.213   4.321   6.370
 2671SOL    HW2 8913   5.166   4.405   6.502
 2672SOL     OW 8914   1.278   0.569   2.791
 2672SOL    HW1 8915   1.254   0.666   2.788
 2672SOL    HW2 8916   1.266   0.529   2.700
 2673SOL     OW 8917   3.162   0.949   3.527
 2673SOL    HW1 8918   3.139   0.949   3.624
 2673SOL    HW2 8919   3.183   1.043   3.498
 2674SOL     OW 8920   5.558   5.886   2.648
 2674SOL    HW1 8921   5.607   5.822   2.707
 2674SOL    HW2 8922   5.524   5.963   2.703
 2675SOL     OW 8923   4.654   1.171   3.491
 2675SOL    HW1 8924   4.701   1.209   3.412
 2675SOL    HW2 8925   4.624   1.244   3.552
 2676SOL     OW 8926   3.827   3.425   5.946
 2676SOL    HW1 8927   3.888   3.428   5.867
 2676SOL    HW2 8928   3.741   3.470   5.924
 2677SOL     OW 8929   1.588   5.224   1.397
 2677SOL    HW1 8930   1.534   5.264   1.323
 2677SOL    HW2 8931   1.658   5.290   1.425
 2678SOL     OW 8932   3.556   1.809   1.687
 2678SOL    HW1 8933   3.646   1.846   1.663
 2678SOL    HW2 8934   3.563   1.760   1.774
 2679SOL     OW 8935   2.419   4.729   2.452
 2679SOL    HW1 8936   2.457   4.658   2.511
 2679SOL    HW2 8937   2.490   4.795   2.429
 2680SOL     OW 8938   6.174   1.855   6.467
 2680SOL    HW1 8939   6.109   1.780   6.484
 2680SOL    HW2 8940   6.261   1.816   6.438
 2681SOL     OW 8941   2.506   2.609   2.935
 2681SOL    HW1 8942   2.468   2.698   2.960
 2681SOL    HW2 8943   2.552   2.570   3.015
 2682SOL     OW 8944   4.134   3.449   2.898
 2682SOL    HW1 8945   4.090   3.446   2.987
 2682SOL    HW2 8946   4.121   3.361   2.852
 2683SOL     OW 8947   2.170   3.665   1.375
 2683SOL    HW1 8948   2.219   3.594   1.425
 2683SOL    HW2 8949   2.235   3.719   1.322
 2684SOL     OW 8950   5.529   0.861   3.716
 2684SOL    HW1 8951   5.487   0.919   3.646
 2684SOL    HW2 8952   5.573   0.783   3.672
 2685SOL     OW 8953   1.990   0.226   6.159
 2685SOL    HW1 8954   1.891   0.236   6.151
 2685SOL    HW2 8955   2.034   0.266   6.078
 2686SOL     OW 8956   2.173   2.103   5.930
 2686SOL    HW1 8957   2.266   2.089   5.897
 2686SOL    HW2 8958   2.108   2.072   5.861
 2687SOL     OW 8959   3.639   2.547   1.751
 2687SOL    HW1 8960   3.544   2.541   1.721
 2687SOL    HW2 8961   3.663   2.464   1.802
 2688SOL     OW 8962   4.562   2.425   0.401
 2688SOL    HW1 8963   4.516   2.344   0.364
 2688SOL    HW2 8964   4.511   2.460   0.479
 2689SOL     OW 8965   0.706   3.603   2.509
 2689SOL    HW1 8966   0.720   3.658   2.591
 2689SOL    HW2 8967   0.728   3.657   2.428
 2690SOL     OW 8968   5.268   1.094   3.924
 2690SOL    HW1 8969   5.306   1.001   3.925
 2690SOL    HW2 8970   5.316   1.148   3.854
 2691SOL     OW 8971   5.721   3.763   3.873
 2691SOL    HW1 8972   5.728   3.779   3.775
 2691SOL    HW2 8973   5.758   3.673   3.896
 2692SOL     OW 8974   1.693   6.076   1.491
 2692SOL    HW1 8975   1.749   6.123   1.422
 2692SOL    HW2 8976   1.717   6.110   1.582
 2693SOL     OW 8977   0.537   6.050   2.952
 2693SOL    HW1 8978   0.544   5.951   2.966
 2693SOL    HW2 8979   0.459   6.070   2.892
 2694SOL     OW 8980   2.777   0.866   1.965
 2694SOL    HW1 8981   2.686   0.828   1.983
 2694SOL    HW2 8982   2.810   0.833   1.876
 2695SOL     OW 8983   6.526   5.500   3.078
 2695SOL    HW1 8984   6.583   5.418   3.076
 2695SOL    HW2 8985   6.576   5.574   3.123
 2696SOL     OW 8986   3.996   4.495   6.111
 2696SOL    HW1 8987   3.924   4.564   6.101
 2696SOL    HW2 8988   4.021   4.486   6.207
 2697SOL     OW 8989   4.697   3.364   6.930
 2697SOL    HW1 8990   4.772   3.302   6.906
 2697SOL    HW2 8991   4.625   3.313   6.977
 2698SOL     OW 8992   2.160   5.408   0.683
 2698SOL    HW1 8993   2.111   5.491   0.658
 2698SOL    HW2 8994   2.104   5.328   0.662
 2699SOL     OW 8995   2.765   6.875   2.675
 2699SOL    HW1 8996   2.698   6.863   2.602
 2699SOL    HW2 8997   2.808   6.965   2.666
 2700SOL     OW 8998   4.630   2.529   0.778
 2700SOL    HW1 8999   4.544   2.487   0.750
 2700SOL    HW2 9000   4.616   2.626   0.797
 2701SOL     OW 9001   5.205   4.116   5.624
 2701SOL    HW1 9002   5.268   4.047   5.659
 2701SOL    HW2 9003   5.143   4.074   5.558
 2702SOL     OW 9004   1.766   2.133   5.056
 2702SOL    HW1 9005   1.823   2.185   4.993
 2702SOL    HW2 9006   1.707   2.070   5.005
 2703SOL     OW 9007   2.294   6.241   1.277
 2703SOL    HW1 9008   2.286   6.201   1.186
 2703SOL    HW2 9009   2.253   6.179   1.344
 2704SOL     OW 9010   4.597   0.868   3.246
 2704SOL    HW1 9011   4.627   0.782   3.287
 2704SOL    HW2 9012   4.508   0.856   3.203
 2705SOL     OW 9013   0.819   0.811   5.054
 2705SOL    HW1 9014   0.911   0.792   5.019
 2705SOL    HW2 9015   0.805   0.910   5.059
 2706SOL     OW 9016   0.836   4.360   4.933
 2706SOL    HW1 9017   0.887   4.287   4.887
 2706SOL    HW2 9018   0.887   4.392   5.013
 2707SOL     OW 9019   3.770   0.753   2.603
 2707SOL    HW1 9020   3.784   0.710   2.514
 2707SOL    HW2 9021   3.749   0.683   2.671
 2708SOL     OW 9022   5.191   2.886   5.305
 2708SOL    HW1 9023   5.137   2.876   5.221
 2708SOL    HW2 9024   5.137   2.854   5.383
 2709SOL     OW 9025   5.162   1.125   5.332
 2709SOL    HW1 9026   5.073   1.092   5.362
 2709SOL    HW2 9027   5.155   1.222   5.309
 2710SOL     OW 9028   0.811   2.966   4.301
 2710SOL    HW1 9029   0.807   2.944   4.399
 2710SOL    HW2 9030   0.743   2.911   4.252
 2711SOL     OW 9031   4.718   0.596   1.225
 2711SOL    HW1 9032   4.723   0.561   1.131
 2711SOL    HW2 9033   4.776   0.676   1.234
 2712SOL     OW 9034   4.631   6.232   1.643
 2712SOL    HW1 9035   4.602   6.309   1.586
 2712SOL    HW2 9036   4.572   6.153   1.625
 2713SOL     OW 9037   3.918   4.278   5.313
 2713SOL    HW1 9038   3.936   4.206   5.246
 2713SOL    HW2 9039   4.005   4.309   5.352
 2714SOL     OW 9040   3.132   4.188   6.046
 2714SOL    HW1 9041   3.164   4.221   6.135
 2714SOL    HW2 9042   3.124   4.266   5.983
 2715SOL     OW 9043   4.786   6.649   0.214
 2715SOL    HW1 9044   4.778   6.613   0.307
 2715SOL    HW2 9045   4.737   6.735   0.207
 2716SOL     OW 9046   4.098   0.758   2.301
 2716SOL    HW1 9047   4.065   0.848   2.272
 2716SOL    HW2 9048   4.114   0.701   2.220
 2717SOL     OW 9049   6.835   1.754   1.985
 2717SOL    HW1 9050   6.850   1.812   2.065
 2717SOL    HW2 9051   6.831   1.810   1.903
 2718SOL     OW 9052   5.997   1.140   6.590
 2718SOL    HW1 9053   6.093   1.169   6.588
 2718SOL    HW2 9054   5.992   1.042   6.573
 2719SOL     OW 9055   1.316   4.771   4.607
 2719SOL    HW1 9056   1.247   4.755   4.678
 2719SOL    HW2 9057   1.403   4.730   4.634
 2720SOL     OW 9058   1.837   4.730   6.038
 2720SOL    HW1 9059   1.780   4.706   5.960
 2720SOL    HW2 9060   1.799   4.809   6.084
 2721SOL     OW 9061   2.382   6.130   3.856
 2721SOL    HW1 9062   2.436   6.208   3.823
 2721SOL    HW2 9063   2.293   6.163   3.887
 2722SOL     OW 9064   3.390   4.669   6.614
 2722SOL    HW1 9065   3.312   4.683   6.675
 2722SOL    HW2 9066   3.415   4.572   6.613
 2723SOL     OW 9067   4.507   4.990   0.265
 2723SOL    HW1 9068   4.534   4.894   0.257
 2723SOL    HW2 9069   4.550   5.043   0.193
 2724SOL     OW 9070   0.176   6.335   0.777
 2724SOL    HW1 9071   0.258   6.391   0.789
 2724SOL    HW2 9072   0.097   6.381   0.818
 2725SOL     OW 9073   6.339   4.209   2.741
 2725SOL    HW1 9074   6.270   4.137   2.734
 2725SOL    HW2 9075   6.362   4.224   2.837
 2726SOL     OW 9076   6.320   2.087   2.687
 2726SOL    HW1 9077   6.349   2.115   2.596
 2726SOL    HW2 9078   6.224   2.059   2.685
 2727SOL     OW 9079   1.372   4.549   3.563
 2727SOL    HW1 9080   1.399   4.643   3.585
 2727SOL    HW2 9081   1.381   4.492   3.644
 2728SOL     OW 9082   4.194   4.257   6.444
 2728SOL    HW1 9083   4.121   4.324   6.430
 2728SOL    HW2 9084   4.156   4.165   6.447
 2729SOL     OW 9085   0.529   0.533   1.046
 2729SOL    HW1 9086   0.591   0.456   1.062
 2729SOL    HW2 9087   0.558   0.611   1.101
 2730SOL     OW 9088   1.292   5.353   2.959
 2730SOL    HW1 9089   1.385   5.376   2.988
 2730SOL    HW2 9090   1.236   5.331   3.040
 2731SOL     OW 9091   3.932   3.924   5.420
 2731SOL    HW1 9092   3.833   3.910   5.425
 2731SOL    HW2 9093   3.964   3.898   5.329
 2732SOL     OW 9094   4.203   0.788   1.979
 2732SOL    HW1 9095   4.127   0.819   1.922
 2732SOL    HW2 9096   4.278   0.757   1.921
 2733SOL     OW 9097   0.273   0.605   0.079
 2733SOL    HW1 9098   0.312   0.516   0.103
 2733SOL    HW2 9099   0.206   0.593   0.006
 2734SOL     OW 9100   3.505   0.040   1.765
 2734SOL    HW1 9101   3.494   0.110   1.695
 2734SOL    HW2 9102   3.423   7.008   1.769
 2735SOL     OW 9103   0.957   2.938   2.563
 2735SOL    HW1 9104   0.962   2.990   2.648
 2735SOL    HW2 9105   1.038   2.958   2.507
 2736SOL     OW 9106   5.205   4.490   1.963
 2736SOL    HW1 9107   5.130   4.425   1.977
 2736SOL    HW2 9108   5.184   4.549   1.885
 2737SOL     OW 9109   2.906   0.208   6.352
 2737SOL    HW1 9110   2.941   0.140   6.417
 2737SOL    HW2 9111   2.965   0.211   6.271
 2738SOL     OW 9112   4.754   5.412   1.239
 2738SOL    HW1 9113   4.713   5.497   1.273
 2738SOL    HW2 9114   4.776   5.422   1.142
 2739SOL     OW 9115   0.489   5.849   2.179
 2739SOL    HW1 9116   0.556   5.912   2.140
 2739SOL    HW2 9117   0.462   5.880   2.270
 2740SOL     OW 9118   6.233   5.861   5.448
 2740SOL    HW1 9119   6.229   5.799   5.526
 2740SOL    HW2 9120   6.195   5.950   5.475
 2741SOL     OW 9121   0.029   6.987   7.001
 2741SOL    HW1 9122   0.006   6.891   7.011
 2741SOL    HW2 9123   0.101   6.997   6.932
 2742SOL     OW 9124   2.746   4.766   1.476
 2742SOL    HW1 9125   2.786   4.857   1.467
 2742SOL    HW2 9126   2.651   4.767   1.445
 2743SOL     OW 9127   4.792   2.174   3.945
 2743SOL    HW1 9128   4.783   2.110   4.021
 2743SOL    HW2 9129   4.790   2.125   3.858
 2744SOL     OW 9130   3.291   3.547   3.351
 2744SOL    HW1 9131   3.283   3.629   3.295
 2744SOL    HW2 9132   3.326   3.572   3.442
 2745SOL     OW 9133   1.032   6.154   6.521
 2745SOL    HW1 9134   0.938   6.165   6.488
 2745SOL    HW2 9135   1.095   6.151   6.444
 2746SOL     OW 9136   2.374   1.351   4.247
 2746SOL    HW1 9137   2.331   1.431   4.288
 2746SOL    HW2 9138   2.304   1.290   4.210
 2747SOL     OW 9139   5.307   5.147   0.777
 2747SOL    HW1 9140   5.339   5.135   0.682
 2747SOL    HW2 9141   5.221   5.197   0.776
 2748SOL     OW 9142   5.070   0.601   0.108
 2748SOL    HW1 9143   5.048   0.504   0.106
 2748SOL    HW2 9144   4.996   0.651   0.153
 2749SOL     OW 9145   5.020   0.636   6.868
 2749SOL    HW1 9146   4.921   0.638   6.859
 2749SOL    HW2 9147   5.045   0.633   6.965
 2750SOL     OW 9148   2.142   6.274   2.047
 2750SOL    HW1 9149   2.049   6.250   2.018
 2750SOL    HW2 9150   2.142   6.292   2.146
 2751SOL     OW 9151   6.470   5.235   2.379
 2751SOL    HW1 9152   6.463   5.161   2.312
 2751SOL    HW2 9153   6.502   5.318   2.333
 2752SOL     OW 9154   3.633   5.410   6.177
 2752SOL    HW1 9155   3.689   5.365   6.108
 2752SOL    HW2 9156   3.562   5.464   6.132
 2753SOL     OW 9157   4.588   5.324   4.759
 2753SOL    HW1 9158   4.561   5.244   4.705
 2753SOL    HW2 9159   4.510   5.357   4.812
 2754SOL     OW 9160   0.983   0.970   4.053
 2754SOL    HW1 9161   1.072   1.016   4.051
 2754SOL    HW2 9162   0.971   0.919   3.968
 2755SOL     OW 9163   3.449   0.787   2.341
 2755SOL    HW1 9164   3.538   0.827   2.363
 2755SOL    HW2 9165   3.447   0.691   2.369
 2756SOL     OW 9166   4.132   5.864   6.158
 2756SOL    HW1 9167   4.048   5.826   6.118
 2756SOL    HW2 9168   4.111   5.905   6.246
 2757SOL     OW 9169   1.448   4.790   0.617
 2757SOL    HW1 9170   1.540   4.773   0.653
 2757SOL    HW2 9171   1.455   4.848   0.536
 2758SOL     OW 9172   5.734   0.032   5.208
 2758SOL    HW1 9173   5.637   0.012   5.191
 2758SOL    HW2 9174   5.790   7.012   5.139
 2759SOL     OW 9175   4.091   5.031   2.765
 2759SOL    HW1 9176   4.081   4.936   2.735
 2759SOL    HW2 9177   4.117   5.033   2.862
 2760SOL     OW 9178   0.052   6.984   3.280
 2760SOL    HW1 9179   0.072   0.038   3.223
 2760SOL    HW2 9180   7.020   7.012   3.357
 2761SOL     OW 9181   2.584   4.744   5.010
 2761SOL    HW1 9182   2.669   4.694   5.026
 2761SOL    HW2 9183   2.592   4.836   5.049
 2762SOL     OW 9184   1.577   2.575   5.397
 2762SOL    HW1 9185   1.528   2.662   5.407
 2762SOL    HW2 9186   1.675   2.594   5.385
 2763SOL     OW 9187   5.854   0.420   1.832
 2763SOL    HW1 9188   5.781   0.352   1.841
 2763SOL    HW2 9189   5.907   0.402   1.749
 2764SOL     OW 9190   6.397   0.288   1.272
 2764SOL    HW1 9191   6.444   0.242   1.347
 2764SOL    HW2 9192   6.436   0.257   1.185
 2765SOL     OW 9193   5.186   1.910   3.138
 2765SOL    HW1 9194   5.217   1.863   3.221
 2765SOL    HW2 9195   5.114   1.857   3.094
 2766SOL     OW 9196   5.304   6.858   1.904
 2766SOL    HW1 9197   5.272   6.924   1.836
 2766SOL    HW2 9198   5.292   6.765   1.868
 2767SOL     OW 9199   6.898   4.516   5.686
 2767SOL    HW1 9200   6.899   4.491   5.783
 2767SOL    HW2 9201   6.991   4.540   5.657
 2768SOL     OW 9202   5.803   0.395   5.897
 2768SOL    HW1 9203   5.752   0.312   5.874
 2768SOL    HW2 9204   5.852   0.427   5.815
 2769SOL     OW 9205   0.729   4.156   1.860
 2769SOL    HW1 9206   0.762   4.216   1.788
 2769SOL    HW2 9207   0.794   4.082   1.875
 2770SOL     OW 9208   4.369   6.640   2.183
 2770SOL    HW1 9209   4.312   6.597   2.252
 2770SOL    HW2 9210   4.466   6.625   2.204
 2771SOL     OW 9211   4.322   0.786   0.953
 2771SOL    HW1 9212   4.348   0.696   0.919
 2771SOL    HW2 9213   4.306   0.781   1.052
 2772SOL     OW 9214   4.098   0.565   0.730
 2772SOL    HW1 9215   4.072   0.496   0.797
 2772SOL    HW2 9216   4.038   0.645   0.740
 2773SOL     OW 9217   3.385   5.125   1.357
 2773SOL    HW1 9218   3.350   5.067   1.282
 2773SOL    HW2 9219   3.367   5.221   1.335
 2774SOL     OW 9220   4.869   3.141   1.824
 2774SOL    HW1 9221   4.896   3.103   1.912
 2774SOL    HW2 9222   4.777   3.110   1.801
 2775SOL     OW 9223   0.943   6.844   1.206
 2775SOL    HW1 9224   0.876   6.916   1.225
 2775SOL    HW2 9225   0.973   6.851   1.111
 2776SOL     OW 9226   2.558   5.628   0.047
 2776SOL    HW1 9227   2.579   5.592   6.981
 2776SOL    HW2 9228   2.554   5.552   0.112
 2777SOL     OW 9229   0.608   2.556   4.354
 2777SOL    HW1 9230   0.659   2.596   4.278
 2777SOL    HW2 9231   0.544   2.488   4.319
 2778SOL     OW 9232   3.435   2.377   5.356
 2778SOL    HW1 9233   3.370   2.402   5.285
 2778SOL    HW2 9234   3.520   2.343   5.314
 2779SOL     OW 9235   6.121   0.217   0.537
 2779SOL    HW1 9236   6.199   0.168   0.575
 2779SOL    HW2 9237   6.086   0.282   0.605
 2780SOL     OW 9238   2.987   6.171   6.060
 2780SOL    HW1 9239   3.062   6.236   6.059
 2780SOL    HW2 9240   2.994   6.113   6.141
 2781SOL     OW 9241   5.750   3.567   6.701
 2781SOL    HW1 9242   5.731   3.520   6.615
 2781SOL    HW2 9243   5.668   3.618   6.729
 2782SOL     OW 9244   3.661   0.583   5.867
 2782SOL    HW1 9245   3.572   0.627   5.858
 2782SOL    HW2 9246   3.687   0.544   5.779
 2783SOL     OW 9247   0.527   3.893   5.671
 2783SOL    HW1 9248   0.623   3.919   5.682
 2783SOL    HW2 9249   0.497   3.917   5.578
 2784SOL     OW 9250   2.692   1.723   1.683
 2784SOL    HW1 9251   2.681   1.803   1.741
 2784SOL    HW2 9252   2.786   1.690   1.688
 2785SOL     OW 9253   5.468   3.388   2.371
 2785SOL    HW1 9254   5.488   3.297   2.335
 2785SOL    HW2 9255   5.554   3.438   2.384
 2786SOL     OW 9256   4.365   0.499   0.961
 2786SOL    HW1 9257   4.380   0.460   1.051
 2786SOL    HW2 9258   4.270   0.485   0.934
 2787SOL     OW 9259   1.218   4.397   5.446
 2787SOL    HW1 9260   1.316   4.409   5.455
 2787SOL    HW2 9261   1.199   4.326   5.377
 2788SOL     OW 9262   1.533   2.015   1.040
 2788SOL    HW1 9263   1.496   2.108   1.029
 2788SOL    HW2 9264   1.459   1.952   1.060
 2789SOL     OW 9265   6.854   3.555   3.344
 2789SOL    HW1 9266   6.865   3.608   3.429
 2789SOL    HW2 9267   6.810   3.468   3.366
 2790SOL     OW 9268   3.346   6.452   4.847
 2790SOL    HW1 9269   3.408   6.439   4.923
 2790SOL    HW2 9270   3.366   6.539   4.801
 2791SOL     OW 9271   1.997   3.573   2.209
 2791SOL    HW1 9272   2.084   3.528   2.189
 2791SOL    HW2 9273   2.009   3.672   2.207
 2792SOL     OW 9274   0.278   2.037   5.761
 2792SOL    HW1 9275   0.189   2.013   5.799
 2792SOL    HW2 9276   0.342   2.057   5.835
 2793SOL     OW 9277   5.636   0.376   5.136
 2793SOL    HW1 9278   5.736   0.373   5.141
 2793SOL    HW2 9279   5.597   0.332   5.217
 2794SOL     OW 9280   0.317   1.485   2.573
 2794SOL    HW1 9281   0.312   1.492   2.672
 2794SOL    HW2 9282   0.314   1.389   2.545
 2795SOL     OW 9283   1.028   3.365   0.804
 2795SOL    HW1 9284   0.974   3.448   0.814
 2795SOL    HW2 9285   0.981   3.289   0.850
 2796SOL     OW 9286   3.987   5.420   2.277
 2796SOL    HW1 9287   3.906   5.418   2.336
 2796SOL    HW2 9288   3.963   5.459   2.188
 2797SOL     OW 9289   5.349   4.459   5.542
 2797SOL    HW1 9290   5.269   4.516   5.524
 2797SOL    HW2 9291   5.374   4.411   5.458
 2798SOL     OW 9292   1.898   3.979   3.057
 2798SOL    HW1 9293   1.933   4.060   3.103
 2798SOL    HW2 9294   1.974   3.918   3.032
 2799SOL     OW 9295   0.509   6.083   0.258
 2799SOL    HW1 9296   0.598   6.079   0.304
 2799SOL    HW2 9297   0.486   5.993   0.220
 2800SOL     OW 9298   2.649   0.907   6.279
 2800SOL    HW1 9299   2.620   0.811   6.278
 2800SOL    HW2 9300   2.740   0.913   6.320
 2801SOL     OW 9301   3.927   5.854   1.532
 2801SOL    HW1 9302   3.989   5.777   1.517
 2801SOL    HW2 9303   3.973   5.939   1.506
 2802SOL     OW 9304   6.220   0.104   6.656
 2802SOL    HW1 9305   6.142   0.046   6.679
 2802SOL    HW2 9306   6.224   0.117   6.557
 2803SOL     OW 9307   3.557   5.915   4.605
 2803SOL    HW1 9308   3.463   5.944   4.589
 2803SOL    HW2 9309   3.560   5.815   4.610
 2804SOL     OW 9310   0.574   5.044   2.477
 2804SOL    HW1 9311   0.631   5.105   2.533
 2804SOL    HW2 9312   0.510   5.098   2.423
 2805SOL     OW 9313   6.928   4.543   6.617
 2805SOL    HW1 9314   7.018   4.512   6.586
 2805SOL    HW2 9315   6.938   4.597   6.700
 2806SOL     OW 9316   5.527   4.046   2.175
 2806SOL    HW1 9317   5.506   4.143   2.188
 2806SOL    HW2 9318   5.445   3.992   2.194
 2807SOL     OW 9319   3.856   5.118   4.051
 2807SOL    HW1 9320   3.851   5.151   3.957
 2807SOL    HW2 9321   3.949   5.087   4.071
 2808SOL     OW 9322   4.227   0.647   3.942
 2808SOL    HW1 9323   4.219   0.739   3.978
 2808SOL    HW2 9324   4.316   0.636   3.897
 2809SOL     OW 9325   5.383   2.005   0.627
 2809SOL    HW1 9326   5.326   1.925   0.610
 2809SOL    HW2 9327   5.344   2.084   0.580
 2810SOL     OW 9328   2.631   0.935   6.024
 2810SOL    HW1 9329   2.716   0.887   6.003
 2810SOL    HW2 9330   2.623   0.948   6.123
 2811SOL     OW 9331   0.281   0.838   4.263
 2811SOL    HW1 9332   0.186   0.862   4.242
 2811SOL    HW2 9333   0.341   0.875   4.193
 2812SOL     OW 9334   4.543   4.521   2.500
 2812SOL    HW1 9335   4.497   4.524   2.412
 2812SOL    HW2 9336   4.591   4.434   2.509
 2813SOL     OW 9337   6.308   1.921   5.994
 2813SOL    HW1 9338   6.220   1.883   5.964
 2813SOL    HW2 9339   6.294   1.980   6.074
 2814SOL     OW 9340   5.777   4.766   5.550
 2814SOL    HW1 9341   5.810   4.794   5.640
 2814SOL    HW2 9342   5.680   4.742   5.555
 2815SOL     OW 9343   1.430   1.772   4.427
 2815SOL    HW1 9344   1.458   1.807   4.338
 2815SOL    HW2 9345   1.349   1.822   4.459
 2816SOL     OW 9346   4.116   6.502   3.463
 2816SOL    HW1 9347   4.187   6.497   3.533
 2816SOL    HW2 9348   4.097   6.597   3.441
 2817SOL     OW 9349   1.356   1.241   1.128
 2817SOL    HW1 9350   1.311   1.330   1.138
 2817SOL    HW2 9351   1.396   1.234   1.036
 2818SOL     OW 9352   1.273   2.387   6.369
 2818SOL    HW1 9353   1.317   2.475   6.385
 2818SOL    HW2 9354   1.332   2.329   6.313
 2819SOL     OW 9355   6.463   3.405   2.779
 2819SOL    HW1 9356   6.420   3.458   2.705
 2819SOL    HW2 9357   6.557   3.437   2.792
 2820SOL     OW 9358   5.223   3.256   4.026
 2820SOL    HW1 9359   5.313   3.299   4.019
 2820SOL    HW2 9360   5.194   3.258   4.122
 2821SOL     OW 9361   1.243   3.283   2.900
 2821SOL    HW1 9362   1.184   3.329   2.967
 2821SOL    HW2 9363   1.213   3.306   2.807
 2822SOL     OW 9364   3.065   2.154   0.543
 2822SOL    HW1 9365   3.101   2.133   0.634
 2822SOL    HW2 9366   3.016   2.075   0.507
 2823SOL     OW 9367   1.858   1.118   4.321
 2823SOL    HW1 9368   1.853   1.031   4.369
 2823SOL    HW2 9369   1.840   1.104   4.223
 2824SOL     OW 9370   3.069   2.885   5.886
 2824SOL    HW1 9371   3.113   2.839   5.809
 2824SOL    HW2 9372   3.077   2.984   5.874
 2825SOL     OW 9373   5.828   6.025   1.196
 2825SOL    HW1 9374   5.926   6.009   1.207
 2825SOL    HW2 9375   5.778   5.970   1.263
 2826SOL     OW 9376   5.998   4.000   4.803
 2826SOL    HW1 9377   5.944   4.061   4.746
 2826SOL    HW2 9378   6.049   3.936   4.745
 2827SOL     OW 9379   0.549   0.218   6.078
 2827SOL    HW1 9380   0.596   0.306   6.074
 2827SOL    HW2 9381   0.543   0.180   5.985
 2828SOL     OW 9382   3.590   2.522   6.335
 2828SOL    HW1 9383   3.665   2.518   6.270
 2828SOL    HW2 9384   3.623   2.501   6.427
 2829SOL     OW 9385   3.172   1.252   0.406
 2829SOL    HW1 9386   3.077   1.252   0.438
 2829SOL    HW2 9387   3.208   1.345   0.412
 2830SOL     OW 9388   2.799   4.098   0.196
 2830SOL    HW1 9389   2.806   4.196   0.215
 2830SOL    HW2 9390   2.802   4.083   0.097
 2831SOL     OW 9391   6.158   6.638   4.102
 2831SOL    HW1 9392   6.115   6.699   4.035
 2831SOL    HW2 9393   6.254   6.624   4.078
 2832SOL     OW 9394   0.432   0.673   2.179
 2832SOL    HW1 9395   0.349   0.704   2.132
 2832SOL    HW2 9396   0.406   0.619   2.259
 2833SOL     OW 9397   5.258   3.316   1.934
 2833SOL    HW1 9398   5.231   3.337   2.028
 2833SOL    HW2 9399   5.182   3.336   1.872
 2834SOL     OW 9400   4.898   0.565   5.170
 2834SOL    HW1 9401   4.940   0.616   5.096
 2834SOL    HW2 9402   4.950   0.579   5.254
 2835SOL     OW 9403   6.122   6.177   3.051
 2835SOL    HW1 9404   6.132   6.221   2.962
 2835SOL    HW2 9405   6.059   6.230   3.108
 2836SOL     OW 9406   6.650   6.657   1.166
 2836SOL    HW1 9407   6.650   6.757   1.175
 2836SOL    HW2 9408   6.555   6.624   1.162
 2837SOL     OW 9409   5.738   2.157   3.881
 2837SOL    HW1 9410   5.786   2.101   3.813
 2837SOL    HW2 9411   5.795   2.237   3.903
 2838SOL     OW 9412   2.173   4.655   3.847
 2838SOL    HW1 9413   2.201   4.567   3.885
 2838SOL    HW2 9414   2.139   4.713   3.920
 2839SOL     OW 9415   4.706   3.124   1.514
 2839SOL    HW1 9416   4.767   3.152   1.440
 2839SOL    HW2 9417   4.708   3.192   1.587
 2840SOL     OW 9418   1.055   2.700   4.705
 2840SOL    HW1 9419   1.148   2.671   4.686
 2840SOL    HW2 9420   1.001   2.622   4.736
 2841SOL     OW 9421   0.382   5.828   0.193
 2841SOL    HW1 9422   0.342   5.818   0.102
 2841SOL    HW2 9423   0.309   5.829   0.261
 2842SOL     OW 9424   5.100   3.696   2.282
 2842SOL    HW1 9425   5.177   3.751   2.250
 2842SOL    HW2 9426   5.131   3.631   2.350
 2843SOL     OW 9427   3.791   0.619   3.792
 2843SOL    HW1 9428   3.888   0.621   3.769
 2843SOL    HW2 9429   3.739   0.584   3.714
 2844SOL     OW 9430   1.230   4.012   4.454
 2844SOL    HW1 9431   1.278   3.985   4.538
 2844SOL    HW2 9432   1.160   3.944   4.433
 2845SOL     OW 9433   1.235   3.966   6.550
 2845SOL    HW1 9434   1.273   3.930   6.636
 2845SOL    HW2 9435   1.174   4.043   6.570
 2846SOL     OW 9436   5.895   1.146   5.724
 2846SOL    HW1 9437   5.827   1.218   5.737
 2846SOL    HW2 9438   5.898   1.119   5.628
 2847SOL     OW 9439   4.135   5.300   4.916
 2847SOL    HW1 9440   4.084   5.383   4.940
 2847SOL    HW2 9441   4.107   5.270   4.825
 2848SOL     OW 9442   2.769   6.711   6.307
 2848SOL    HW1 9443   2.806   6.685   6.217
 2848SOL    HW2 9444   2.788   6.638   6.373
 2849SOL     OW 9445   1.838   2.183   1.106
 2849SOL    HW1 9446   1.788   2.197   1.021
 2849SOL    HW2 9447   1.777   2.144   1.175
 2850SOL     OW 9448   4.677   0.911   0.249
 2850SOL    HW1 9449   4.697   0.814   0.236
 2850SOL    HW2 9450   4.615   0.942   0.176
 2851SOL     OW 9451   3.318   6.678   5.292
 2851SOL    HW1 9452   3.254   6.681   5.215
 2851SOL    HW2 9453   3.271   6.643   5.373
 2852SOL     OW 9454   0.123   2.186   6.184
 2852SOL    HW1 9455   0.180   2.237   6.119
 2852SOL    HW2 9456   0.027   2.193   6.157
 2853SOL     OW 9457   3.653   3.061   1.211
 2853SOL    HW1 9458   3.595   3.016   1.280
 2853SOL    HW2 9459   3.714   3.126   1.256
 2854SOL     OW 9460   0.961   1.305   4.078
 2854SOL    HW1 9461   0.941   1.403   4.074
 2854SOL    HW2 9462   0.875   1.253   4.068
 2855SOL     OW 9463   3.167   1.645   3.473
 2855SOL    HW1 9464   3.135   1.586   3.400
 2855SOL    HW2 9465   3.266   1.632   3.487
 2856SOL     OW 9466   3.992   1.544   5.150
 2856SOL    HW1 9467   4.043   1.602   5.087
 2856SOL    HW2 9468   3.924   1.491   5.099
 2857SOL     OW 9469   3.233   3.635   5.255
 2857SOL    HW1 9470   3.153   3.596   5.302
 2857SOL    HW2 9471   3.212   3.728   5.225
 2858SOL     OW 9472   5.645   2.948   3.208
 2858SOL    HW1 9473   5.557   2.988   3.236
 2858SOL    HW2 9474   5.666   2.976   3.114
 2859SOL     OW 9475   6.926   5.090   0.018
 2859SOL    HW1 9476   6.967   5.083   0.108
 2859SOL    HW2 9477   6.953   5.177   7.001
 2860SOL     OW 9478   4.109   2.647   0.570
 2860SOL    HW1 9479   4.175   2.635   0.496
 2860SOL    HW2 9480   4.157   2.659   0.657
 2861SOL     OW 9481   4.469   3.774   5.987
 2861SOL    HW1 9482   4.383   3.807   5.947
 2861SOL    HW2 9483   4.490   3.683   5.950
 2862SOL     OW 9484   6.761   6.389   3.690
 2862SOL    HW1 9485   6.717   6.341   3.765
 2862SOL    HW2 9486   6.859   6.366   3.688
 2863SOL     OW 9487   6.422   6.286   6.551
 2863SOL    HW1 9488   6.458   6.229   6.624
 2863SOL    HW2 9489   6.347   6.237   6.505
 2864SOL     OW 9490   4.462   2.213   0.284
 2864SOL    HW1 9491   4.436   2.147   0.355
 2864SOL    HW2 9492   4.503   2.164   0.207
 2865SOL     OW 9493   4.970   4.316   5.177
 2865SOL    HW1 9494   4.939   4.223   5.155
 2865SOL    HW2 9495   4.953   4.376   5.099
 2866SOL     OW 9496   0.858   6.998   6.113
 2866SOL    HW1 9497   0.939   0.030   6.100
 2866SOL    HW2 9498   0.860   6.956   6.204
 2867SOL     OW 9499   6.334   4.108   4.374
 2867SOL    HW1 9500   6.289   4.105   4.284
 2867SOL    HW2 9501   6.287   4.173   4.433
 2868SOL     OW 9502   1.935   4.743   4.717
 2868SOL    HW1 9503   1.928   4.841   4.697
 2868SOL    HW2 9504   1.924   4.691   4.632
 2869SOL     OW 9505   5.816   2.096   2.683
 2869SOL    HW1 9506   5.763   2.043   2.749
 2869SOL    HW2 9507   5.828   2.042   2.600
 2870SOL     OW 9508   3.657   1.748   1.382
 2870SOL    HW1 9509   3.744   1.718   1.422
 2870SOL    HW2 9510   3.626   1.680   1.315
 2871SOL     OW 9511   1.157   1.159   5.935
 2871SOL    HW1 9512   1.059   1.145   5.925
 2871SOL    HW2 9513   1.174   1.247   5.980
 2872SOL     OW 9514   1.732   0.257   4.413
 2872SOL    HW1 9515   1.758   0.337   4.359
 2872SOL    HW2 9516   1.665   0.203   4.363
 2873SOL     OW 9517   6.602   4.758   2.450
 2873SOL    HW1 9518   6.545   4.726   2.375
 2873SOL    HW2 9519   6.560   4.837   2.493
 2874SOL     OW 9520   5.114   1.784   1.669
 2874SOL    HW1 9521   5.041   1.758   1.607
 2874SOL    HW2 9522   5.075   1.832   1.748
 2875SOL     OW 9523   2.709   5.095   0.255
 2875SOL    HW1 9524   2.634   5.032   0.231
 2875SOL    HW2 9525   2.689   5.135   0.345
 2876SOL     OW 9526   5.961   2.035   1.267
 2876SOL    HW1 9527   5.918   1.955   1.226
 2876SOL    HW2 9528   5.966   2.109   1.200
 2877SOL     OW 9529   1.032   3.154   6.071
 2877SOL    HW1 9530   1.112   3.127   6.016
 2877SOL    HW2 9531   1.063   3.187   6.160
 2878SOL     OW 9532   4.962   4.847   0.600
 2878SOL    HW1 9533   5.060   4.864   0.598
 2878SOL    HW2 9534   4.938   4.799   0.684
 2879SOL     OW 9535   5.464   4.860   6.925
 2879SOL    HW1 9536   5.504   4.774   6.957
 2879SOL    HW2 9537   5.510   4.890   6.841
 2880SOL     OW 9538   1.645   0.987   3.867
 2880SOL    HW1 9539   1.690   0.916   3.813
 2880SOL    HW2 9540   1.547   0.984   3.850
 2881SOL     OW 9541   0.156   0.300   6.876
 2881SOL    HW1 9542   0.091   0.249   6.819
 2881SOL    HW2 9543   0.135   0.398   6.871
 2882SOL     OW 9544   6.240   4.957   3.391
 2882SOL    HW1 9545   6.162   4.938   3.332
 2882SOL    HW2 9546   6.228   4.909   3.478
 2883SOL     OW 9547   3.195   6.638   2.471
 2883SOL    HW1 9548   3.184   6.578   2.550
 2883SOL    HW2 9549   3.105   6.658   2.432
 2884SOL     OW 9550   2.169   5.016   2.809
 2884SOL    HW1 9551   2.095   4.990   2.870
 2884SOL    HW2 9552   2.132   5.040   2.719
 2885SOL     OW 9553   0.968   2.102   3.957
 2885SOL    HW1 9554   0.929   2.100   3.865
 2885SOL    HW2 9555   1.067   2.094   3.951
 2886SOL     OW 9556   2.241   2.079   6.234
 2886SOL    HW1 9557   2.286   1.991   6.219
 2886SOL    HW2 9558   2.186   2.102   6.153
 2887SOL     OW 9559   2.607   0.064   5.853
 2887SOL    HW1 9560   2.566   0.095   5.938
 2887SOL    HW2 9561   2.651   0.141   5.806
 2888SOL     OW 9562   0.346   5.510   6.861
 2888SOL    HW1 9563   0.328   5.564   6.779
 2888SOL    HW2 9564   0.440   5.475   6.857
 2889SOL     OW 9565   0.776   1.198   0.418
 2889SOL    HW1 9566   0.795   1.242   0.506
 2889SOL    HW2 9567   0.785   1.099   0.429
 2890SOL     OW 9568   2.193   0.589   0.374
 2890SOL    HW1 9569   2.193   0.532   0.293
 2890SOL    HW2 9570   2.166   0.535   0.454
 2891SOL     OW 9571   3.212   4.675   5.233
 2891SOL    HW1 9572   3.121   4.695   5.195
 2891SOL    HW2 9573   3.206   4.598   5.295
 2892SOL     OW 9574   3.976   4.102   5.113
 2892SOL    HW1 9575   3.930   4.124   5.027
 2892SOL    HW2 9576   4.009   4.008   5.109
 2893SOL     OW 9577   3.073   0.823   4.878
 2893SOL    HW1 9578   3.157   0.810   4.825
 2893SOL    HW2 9579   3.007   0.753   4.855
 2894SOL     OW 9580   3.341   2.887   2.322
 2894SOL    HW1 9581   3.438   2.882   2.301
 2894SOL    HW2 9582   3.288   2.873   2.238
 2895SOL     OW 9583   3.550   2.851   0.089
 2895SOL    HW1 9584   3.641   2.885   0.115
 2895SOL    HW2 9585   3.545   2.841   7.015
 2896SOL     OW 9586   1.498   4.924   0.397
 2896SOL    HW1 9587   1.421   4.935   0.334
 2896SOL    HW2 9588   1.574   4.880   0.350
 2897SOL     OW 9589   0.045   0.586   3.179
 2897SOL    HW1 9590   0.046   0.628   3.269
 2897SOL    HW2 9591   0.004   0.649   3.113
 2898SOL     OW 9592   1.770   4.688   2.903
 2898SOL    HW1 9593   1.706   4.736   2.963
 2898SOL    HW2 9594   1.761   4.590   2.916
 2899SOL     OW 9595   5.236   1.262   0.885
 2899SOL    HW1 9596   5.256   1.357   0.864
 2899SOL    HW2 9597   5.137   1.251   0.899
 2900SOL     OW 9598   2.070   5.582   6.251
 2900SOL    HW1 9599   2.012   5.632   6.187
 2900SOL    HW2 9600   2.046   5.608   6.345
 2901SOL     OW 9601   2.968   0.161   1.322
 2901SOL    HW1 9602   2.995   0.249   1.361
 2901SOL    HW2 9603   2.992   0.088   1.386
 2902SOL     OW 9604   4.108   5.137   1.445
 2902SOL    HW1 9605   4.061   5.105   1.363
 2902SOL    HW2 9606   4.206   5.143   1.427
 2903SOL     OW 9607   3.027   2.588   1.747
 2903SOL    HW1 9608   2.980   2.541   1.821
 2903SOL    HW2 9609   3.082   2.523   1.695
 2904SOL     OW 9610   3.079   2.191   4.515
 2904SOL    HW1 9611   2.980   2.199   4.512
 2904SOL    HW2 9612   3.109   2.177   4.609
 2905SOL     OW 9613   0.840   2.064   2.199
 2905SOL    HW1 9614   0.776   1.997   2.238
 2905SOL    HW2 9615   0.795   2.153   2.194
 2906SOL     OW 9616   5.510   4.942   2.704
 2906SOL    HW1 9617   5.450   4.908   2.632
 2906SOL    HW2 9618   5.512   4.875   2.779
 2907SOL     OW 9619   6.462   0.291   4.087
 2907SOL    HW1 9620   6.365   0.284   4.063
 2907SOL    HW2 9621   6.516   0.238   4.022
 2908SOL     OW 9622   4.641   5.709   4.674
 2908SOL    HW1 9623   4.548   5.688   4.702
 2908SOL    HW2 9624   4.645   5.717   4.575
 2909SOL     OW 9625   1.985   6.141   6.148
 2909SOL    HW1 9626   1.914   6.209   6.134
 2909SOL    HW2 9627   2.058   6.154   6.080
 2910SOL     OW 9628   4.195   5.503   5.517
 2910SOL    HW1 9629   4.243   5.590   5.505
 2910SOL    HW2 9630   4.125   5.494   5.447
 2911SOL     OW 9631   2.693   5.084   2.768
 2911SOL    HW1 9632   2.600   5.065   2.799
 2911SOL    HW2 9633   2.736   4.998   2.740
 2912SOL     OW 9634   3.111   5.506   0.642
 2912SOL    HW1 9635   3.090   5.514   0.544
 2912SOL    HW2 9636   3.150   5.416   0.660
 2913SOL     OW 9637   0.254   1.655   1.348
 2913SOL    HW1 9638   0.242   1.653   1.248
 2913SOL    HW2 9639   0.167   1.677   1.391
 2914SOL     OW 9640   4.920   4.487   6.314
 2914SOL    HW1 9641   4.915   4.571   6.368
 2914SOL    HW2 9642   4.997   4.431   6.347
 2915SOL     OW 9643   4.441   0.511   3.189
 2915SOL    HW1 9644   4.519   0.544   3.242
 2915SOL    HW2 9645   4.414   0.580   3.123
 2916SOL     OW 9646   5.474   0.766   4.141
 2916SOL    HW1 9647   5.548   0.712   4.103
 2916SOL    HW2 9648   5.409   0.789   4.069
 2917SOL     OW 9649   3.751   0.384   1.900
 2917SOL    HW1 9650   3.830   0.439   1.928
 2917SOL    HW2 9651   3.673   0.406   1.959
 2918SOL     OW 9652   1.125   3.121   4.625
 2918SOL    HW1 9653   1.119   3.078   4.535
 2918SOL    HW2 9654   1.184   3.067   4.684
 2919SOL     OW 9655   6.218   5.222   0.413
 2919SOL    HW1 9656   6.198   5.246   0.508
 2919SOL    HW2 9657   6.137   5.237   0.356
 2920SOL     OW 9658   4.617   1.510   2.981
 2920SOL    HW1 9659   4.619   1.450   2.901
 2920SOL    HW2 9660   4.533   1.494   3.033
 2921SOL     OW 9661   6.304   0.706   7.019
 2921SOL    HW1 9662   6.253   0.633   6.976
 2921SOL    HW2 9663   6.389   0.670   0.033
 2922SOL     OW 9664   4.565   0.709   3.615
 2922SOL    HW1 9665   4.657   0.670   3.608
 2922SOL    HW2 9666   4.565   0.800   3.574
 2923SOL     OW 9667   6.702   3.759   0.906
 2923SOL    HW1 9668   6.724   3.777   0.810
 2923SOL    HW2 9669   6.786   3.743   0.957
 2924SOL     OW 9670   6.479   6.992   6.344
 2924SOL    HW1 9671   6.475   0.056   6.389
 2924SOL    HW2 9672   6.395   6.941   6.364
 2925SOL     OW 9673   6.473   4.648   0.943
 2925SOL    HW1 9674   6.398   4.680   0.885
 2925SOL    HW2 9675   6.443   4.648   1.038
 2926SOL     OW 9676   6.634   1.269   3.357
 2926SOL    HW1 9677   6.579   1.352   3.356
 2926SOL    HW2 9678   6.680   1.258   3.269
 2927SOL     OW 9679   6.844   3.082   3.274
 2927SOL    HW1 9680   6.753   3.117   3.249
 2927SOL    HW2 9681   6.914   3.132   3.222
 2928SOL     OW 9682   5.661   5.691   0.818
 2928SOL    HW1 9683   5.727   5.737   0.876
 2928SOL    HW2 9684   5.615   5.758   0.760
 2929SOL     OW 9685   0.026   0.346   5.855
 2929SOL    HW1 9686   0.064   0.306   5.938
 2929SOL    HW2 9687   6.951   0.346   5.860
 2930SOL     OW 9688   2.440   0.119   4.351
 2930SOL    HW1 9689   2.461   0.098   4.447
 2930SOL    HW2 9690   2.523   0.150   4.305
 2931SOL     OW 9691   4.990   4.852   6.737
 2931SOL    HW1 9692   5.065   4.864   6.803
 2931SOL    HW2 9693   4.977   4.754   6.719
 2932SOL     OW 9694   0.819   5.472   1.503
 2932SOL    HW1 9695   0.833   5.386   1.551
 2932SOL    HW2 9696   0.884   5.478   1.426
 2933SOL     OW 9697   4.021   2.226   3.096
 2933SOL    HW1 9698   4.063   2.250   3.184
 2933SOL    HW2 9699   4.079   2.260   3.022
 2934SOL     OW 9700   1.662   0.988   1.130
 2934SOL    HW1 9701   1.755   0.952   1.140
 2934SOL    HW2 9702   1.599   0.912   1.113
 2935SOL     OW 9703   6.569   1.256   1.016
 2935SOL    HW1 9704   6.666   1.274   1.030
 2935SOL    HW2 9705   6.524   1.338   0.981
 2936SOL     OW 9706   4.203   4.295   1.407
 2936SOL    HW1 9707   4.262   4.283   1.487
 2936SOL    HW2 9708   4.172   4.389   1.402
 2937SOL     OW 9709   2.558   4.040   0.711
 2937SOL    HW1 9710   2.555   4.054   0.810
 2937SOL    HW2 9711   2.569   4.128   0.665
 2938SOL     OW 9712   4.757   5.697   6.728
 2938SOL    HW1 9713   4.689   5.670   6.796
 2938SOL    HW2 9714   4.714   5.754   6.658
 2939SOL     OW 9715   6.923   6.756   0.065
 2939SOL    HW1 9716   6.825   6.740   0.060
 2939SOL    HW2 9717   6.969   6.701   7.021
 2940SOL     OW 9718   3.577   7.011   5.727
 2940SOL    HW1 9719   3.580   6.986   5.824
 2940SOL    HW2 9720   3.658   6.975   5.681
 2941SOL     OW 9721   3.865   0.960   5.939
 2941SOL    HW1 9722   3.774   0.964   5.898
 2941SOL    HW2 9723   3.874   1.032   6.007
 2942SOL     OW 9724   3.065   6.300   3.841
 2942SOL    HW1 9725   3.143   6.294   3.902
 2942SOL    HW2 9726   3.085   6.251   3.756
 2943SOL     OW 9727   5.507   4.746   3.160
 2943SOL    HW1 9728   5.407   4.748   3.164
 2943SOL    HW2 9729   5.544   4.754   3.252
 2944SOL     OW 9730   5.271   5.483   0.637
 2944SOL    HW1 9731   5.357   5.491   0.587
 2944SOL    HW2 9732   5.277   5.407   0.702
 2945SOL     OW 9733   3.036   3.939   4.288
 2945SOL    HW1 9734   3.120   3.988   4.265
 2945SOL    HW2 9735   3.039   3.910   4.383
 2946SOL     OW 9736   1.469   6.480   5.426
 2946SOL    HW1 9737   1.389   6.435   5.464
 2946SOL    HW2 9738   1.457   6.491   5.327
 2947SOL     OW 9739   0.339   5.156   0.199
 2947SOL    HW1 9740   0.366   5.233   0.258
 2947SOL    HW2 9741   0.301   5.192   0.114
 2948SOL     OW 9742   6.865   3.002   4.902
 2948SOL    HW1 9743   6.811   2.995   4.818
 2948SOL    HW2 9744   6.811   3.050   4.972
 2949SOL     OW 9745   0.794   6.829   0.878
 2949SOL    HW1 9746   0.892   6.848   0.883
 2949SOL    HW2 9747   0.778   6.748   0.822
 2950SOL     OW 9748   5.421   3.981   5.254
 2950SOL    HW1 9749   5.443   3.888   5.283
 2950SOL    HW2 9750   5.351   3.979   5.183
 2951SOL     OW 9751   6.879   0.500   6.748
 2951SOL    HW1 9752   6.826   0.585   6.742
 2951SOL    HW2 9753   6.886   0.459   6.657
 2952SOL     OW 9754   0.598   3.427   1.605
 2952SOL    HW1 9755   0.645   3.338   1.607
 2952SOL    HW2 9756   0.614   3.471   1.517
 2953SOL     OW 9757   5.978   1.641   1.801
 2953SOL    HW1 9758   6.078   1.638   1.801
 2953SOL    HW2 9759   5.948   1.735   1.784
 2954SOL     OW 9760   4.981   6.310   2.244
 2954SOL    HW1 9761   5.071   6.314   2.202
 2954SOL    HW2 9762   4.952   6.401   2.272
 2955SOL     OW 9763   5.710   1.785   1.451
 2955SOL    HW1 9764   5.652   1.794   1.370
 2955SOL    HW2 9765   5.796   1.740   1.427
 2956SOL     OW 9766   4.570   5.777   2.710
 2956SOL    HW1 9767   4.521   5.706   2.660
 2956SOL    HW2 9768   4.542   5.775   2.806
 2957SOL     OW 9769   0.973   5.100   1.428
 2957SOL    HW1 9770   1.061   5.113   1.383
 2957SOL    HW2 9771   0.978   5.129   1.523
 2958SOL     OW 9772   1.726   4.532   6.305
 2958SOL    HW1 9773   1.669   4.614   6.296
 2958SOL    HW2 9774   1.765   4.509   6.217
 2959SOL     OW 9775   2.964   6.001   6.571
 2959SOL    HW1 9776   3.052   5.955   6.559
 2959SOL    HW2 9777   2.898   5.936   6.609
 2960SOL     OW 9778   3.335   1.064   0.061
 2960SOL    HW1 9779   3.289   1.106   7.009
 2960SOL    HW2 9780   3.410   1.122   0.092
 2961SOL     OW 9781   6.006   1.203   3.747
 2961SOL    HW1 9782   5.990   1.112   3.784
 2961SOL    HW2 9783   5.965   1.271   3.808
 2962SOL     OW 9784   4.337   0.115   2.239
 2962SOL    HW1 9785   4.242   0.144   2.249
 2962SOL    HW2 9786   4.387   0.182   2.184
 2963SOL     OW 9787   2.512   2.537   4.854
 2963SOL    HW1 9788   2.591   2.486   4.890
 2963SOL    HW2 9789   2.472   2.591   4.928
 2964SOL     OW 9790   2.113   5.835   7.017
 2964SOL    HW1 9791   2.159   5.793   6.939
 2964SOL    HW2 9792   2.101   5.933   7.000
 2965SOL     OW 9793   0.754   3.066   5.483
 2965SOL    HW1 9794   0.667   3.113   5.501
 2965SOL    HW2 9795   0.816   3.081   5.560
 2966SOL     OW 9796   4.394   5.394   2.149
 2966SOL    HW1 9797   4.477   5.421   2.198
 2966SOL    HW2 9798   4.419   5.346   2.065
 2967SOL     OW 9799   5.304   3.190   4.858
 2967SOL    HW1 9800   5.301   3.286   4.829
 2967SOL    HW2 9801   5.245   3.178   4.938
 2968SOL     OW 9802   6.530   4.311   4.336
 2968SOL    HW1 9803   6.561   4.361   4.418
 2968SOL    HW2 9804   6.474   4.233   4.364
 2969SOL     OW 9805   3.895   1.286   5.324
 2969SOL    HW1 9806   3.971   1.349   5.340
 2969SOL    HW2 9807   3.852   1.308   5.236
 2970SOL     OW 9808   1.137   4.390   6.302
 2970SOL    HW1 9809   1.131   4.353   6.395
 2970SOL    HW2 9810   1.166   4.318   6.239
 2971SOL     OW 9811   6.087   2.720   1.771
 2971SOL    HW1 9812   6.028   2.801   1.772
 2971SOL    HW2 9813   6.033   2.639   1.792
 2972SOL     OW 9814   0.925   4.517   4.320
 2972SOL    HW1 9815   0.831   4.533   4.289
 2972SOL    HW2 9816   0.932   4.425   4.360
 2973SOL     OW 9817   6.221   0.297   4.298
 2973SOL    HW1 9818   6.161   0.334   4.369
 2973SOL    HW2 9819   6.223   0.197   4.305
 2974SOL     OW 9820   6.170   4.415   1.005
 2974SOL    HW1 9821   6.260   4.380   1.031
 2974SOL    HW2 9822   6.162   4.510   1.036
 2975SOL     OW 9823   6.346   2.023   4.053
 2975SOL    HW1 9824   6.401   2.092   4.100
 2975SOL    HW2 9825   6.351   2.038   3.955
 2976SOL     OW 9826   2.359   5.459   1.284
 2976SOL    HW1 9827   2.424   5.508   1.226
 2976SOL    HW2 9828   2.408   5.395   1.343
 2977SOL     OW 9829   1.931   6.701   3.835
 2977SOL    HW1 9830   1.889   6.771   3.894
 2977SOL    HW2 9831   1.980   6.745   3.760
 2978SOL     OW 9832   2.478   0.121   6.522
 2978SOL    HW1 9833   2.418   0.106   6.601
 2978SOL    HW2 9834   2.423   0.125   6.439
 2979SOL     OW 9835   1.632   0.934   2.760
 2979SOL    HW1 9836   1.564   0.870   2.796
 2979SOL    HW2 9837   1.646   1.008   2.825
 2980SOL     OW 9838   5.699   0.428   3.260
 2980SOL    HW1 9839   5.660   0.505   3.211
 2980SOL    HW2 9840   5.777   0.459   3.314
 2981SOL     OW 9841   0.879   1.086   5.926
 2981SOL    HW1 9842   0.796   1.042   5.961
 2981SOL    HW2 9843   0.858   1.132   5.840
 2982SOL     OW 9844   4.771   6.221   2.404
 2982SOL    HW1 9845   4.835   6.241   2.330
 2982SOL    HW2 9846   4.724   6.135   2.385
 2983SOL     OW 9847   0.704   1.529   2.733
 2983SOL    HW1 9848   0.641   1.604   2.754
 2983SOL    HW2 9849   0.655   1.442   2.739
 2984SOL     OW 9850   6.260   4.347   1.984
 2984SOL    HW1 9851   6.261   4.437   1.939
 2984SOL    HW2 9852   6.338   4.341   2.047
 2985SOL     OW 9853   6.218   2.335   3.162
 2985SOL    HW1 9854   6.233   2.240   3.191
 2985SOL    HW2 9855   6.232   2.397   3.239
 2986SOL     OW 9856   1.581   3.510   4.848
 2986SOL    HW1 9857   1.573   3.582   4.917
 2986SOL    HW2 9858   1.578   3.421   4.894
 2987SOL     OW 9859   4.713   1.648   4.802
 2987SOL    HW1 9860   4.650   1.649   4.725
 2987SOL    HW2 9861   4.801   1.610   4.774
 2988SOL     OW 9862   6.870   0.964   3.243
 2988SOL    HW1 9863   6.811   0.925   3.314
 2988SOL    HW2 9864   6.821   1.038   3.196
 2989SOL     OW 9865   0.152   5.206   1.022
 2989SOL    HW1 9866   0.204   5.244   1.098
 2989SOL    HW2 9867   0.207   5.213   0.938
 2990SOL     OW 9868   2.895   1.177   0.753
 2990SOL    HW1 9869   2.940   1.260   0.719
 2990SOL    HW2 9870   2.826   1.147   0.688
 2991SOL     OW 9871   5.842   4.346   0.056
 2991SOL    HW1 9872   5.835   4.324   0.154
 2991SOL    HW2 9873   5.861   4.444   0.046
 2992SOL     OW 9874   3.922   4.956   6.182
 2992SOL    HW1 9875   3.892   4.969   6.277
 2992SOL    HW2 9876   3.864   5.010   6.121
 2993SOL     OW 9877   0.707   3.769   0.057
 2993SOL    HW1 9878   0.770   3.770   0.135
 2993SOL    HW2 9879   0.710   3.679   0.013
 2994SOL     OW 9880   4.174   0.080   6.362
 2994SOL    HW1 9881   4.151   0.073   6.459
 2994SOL    HW2 9882   4.181   0.176   6.337
 2995SOL     OW 9883   2.413   0.726   5.159
 2995SOL    HW1 9884   2.362   0.640   5.155
 2995SOL    HW2 9885   2.400   0.776   5.073
 2996SOL     OW 9886   4.271   6.710   5.988
 2996SOL    HW1 9887   4.342   6.771   6.024
 2996SOL    HW2 9888   4.185   6.761   5.981
 2997SOL     OW 9889   3.698   5.867   7.011
 2997SOL    HW1 9890   3.618   5.918   6.979
 2997SOL    HW2 9891   3.754   5.842   6.933
 2998SOL     OW 9892   6.676   3.953   6.346
 2998SOL    HW1 9893   6.653   4.049   6.358
 2998SOL    HW2 9894   6.709   3.937   6.253
 2999SOL     OW 9895   2.961   1.223   0.999
 2999SOL    HW1 9896   2.929   1.205   0.905
 2999SOL    HW2 9897   3.026   1.299   0.997
 3000SOL     OW 9898   1.567   2.339   5.549
 3000SOL    HW1 9899   1.510   2.352   5.631
 3000SOL    HW2 9900   1.560   2.419   5.490
 3001SOL     OW 9901   4.621   5.878   6.053
 3001SOL    HW1 9902   4.641   5.826   5.969
 3001SOL    HW2 9903   4.679   5.845   6.127
 3002SOL     OW 9904   3.704   0.606   5.120
 3002SOL    HW1 9905   3.683   0.669   5.195
 3002SOL    HW2 9906   3.794   0.566   5.134
 3003SOL     OW 9907   1.592   0.604   5.477
 3003SOL    HW1 9908   1.531   0.554   5.416
 3003SOL    HW2 9909   1.630   0.683   5.428
 3004SOL     OW 9910   0.124   3.869   6.530
 3004SOL    HW1 9911   0.109   3.965   6.558
 3004SOL    HW2 9912   0.149   3.866   6.433
 3005SOL     OW 9913   4.429   2.701   0.999
 3005SOL    HW1 9914   4.384   2.683   1.086
 3005SOL    HW2 9915   4.510   2.642   0.990
 3006SOL     OW 9916   4.275   6.009   2.422
 3006SOL    HW1 9917   4.267   5.924   2.473
 3006SOL    HW2 9918   4.323   5.992   2.336
 3007SOL     OW 9919   5.478   5.307   1.994
 3007SOL    HW1 9920   5.463   5.398   1.957
 3007SOL    HW2 9921   5.452   5.305   2.091
 3008SOL     OW 9922   4.827   4.662   5.502
 3008SOL    HW1 9923   4.835   4.564   5.486
 3008SOL    HW2 9924   4.806   4.679   5.598
 3009SOL     OW 9925   1.671   0.523   2.141
 3009SOL    HW1 9926   1.638   0.464   2.215
 3009SOL    HW2 9927   1.724   0.468   2.076
 3010SOL     OW 9928   3.715   0.915   4.282
 3010SOL    HW1 9929   3.662   0.841   4.240
 3010SOL    HW2 9930   3.776   0.877   4.352
 3011SOL     OW 9931   5.780   6.909   0.566
 3011SOL    HW1 9932   5.803   6.834   0.504
 3011SOL    HW2 9933   5.681   6.926   0.562
 3012SOL     OW 9934   0.227   5.185   1.588
 3012SOL    HW1 9935   0.320   5.167   1.555
 3012SOL    HW2 9936   0.228   5.196   1.687
 3013SOL     OW 9937   5.425   4.720   1.506
 3013SOL    HW1 9938   5.441   4.818   1.494
 3013SOL    HW2 9939   5.400   4.679   1.418
 3014SOL     OW 9940   5.371   5.524   5.204
 3014SOL    HW1 9941   5.362   5.434   5.246
 3014SOL    HW2 9942   5.286   5.575   5.216
 3015SOL     OW 9943   3.521   1.286   0.440
 3015SOL    HW1 9944   3.451   1.216   0.449
 3015SOL    HW2 9945   3.496   1.349   0.366
 3016SOL     OW 9946   4.287   6.319   4.440
 3016SOL    HW1 9947   4.244   6.354   4.357
 3016SOL    HW2 9948   4.369   6.267   4.417
 3017SOL     OW 9949   0.486   6.450   2.682
 3017SOL    HW1 9950   0.566   6.497   2.646
 3017SOL    HW2 9951   0.455   6.495   2.765
 3018SOL     OW 9952   4.493   7.024   5.982
 3018SOL    HW1 9953   4.517   6.929   6.003
 3018SOL    HW2 9954   4.443   0.002   5.896
 3019SOL     OW 9955   5.048   0.915   1.831
 3019SOL    HW1 9956   5.108   0.847   1.875
 3019SOL    HW2 9957   5.097   0.957   1.754
 3020SOL     OW 9958   2.006   0.081   2.048
 3020SOL    HW1 9959   2.032   0.040   1.960
 3020SOL    HW2 9960   1.934   0.026   2.090
 3021SOL     OW 9961   4.415   0.168   6.471
 3021SOL    HW1 9962   4.347   0.242   6.477
 3021SOL    HW2 9963   4.462   0.174   6.383
 3022SOL     OW 9964   6.610   0.379   3.392
 3022SOL    HW1 9965   6.542   0.364   3.320
 3022SOL    HW2 9966   6.605   0.303   3.458
 3023SOL     OW 9967   5.612   0.538   2.021
 3023SOL    HW1 9968   5.689   0.564   1.964
 3023SOL    HW2 9969   5.638   0.461   2.080
 3024SOL     OW 9970   1.952   6.781   0.142
 3024SOL    HW1 9971   1.938   6.791   0.241
 3024SOL    HW2 9972   1.866   6.755   0.099
 3025SOL     OW 9973   1.806   2.405   2.157
 3025SOL    HW1 9974   1.760   2.392   2.244
 3025SOL    HW2 9975   1.844   2.318   2.125
 3026SOL     OW 9976   2.699   5.426   0.459
 3026SOL    HW1 9977   2.705   5.382   0.370
 3026SOL    HW2 9978   2.647   5.368   0.521
 3027SOL     OW 9979   0.665   2.286   4.037
 3027SOL    HW1 9980   0.622   2.214   4.091
 3027SOL    HW2 9981   0.680   2.254   3.944
 3028SOL     OW 9982   1.545   0.856   4.169
 3028SOL    HW1 9983   1.641   0.848   4.142
 3028SOL    HW2 9984   1.541   0.881   4.266
 3029SOL     OW 9985   6.456   5.213   5.781
 3029SOL    HW1 9986   6.546   5.247   5.808
 3029SOL    HW2 9987   6.455   5.194   5.683
 3030SOL     OW 9988   0.535   1.629   5.599
 3030SOL    HW1 9989   0.508   1.718   5.563
 3030SOL    HW2 9990   0.466   1.597   5.664
 3031SOL     OW 9991   0.243   5.046   6.028
 3031SOL    HW1 9992   0.237   5.057   6.127
 3031SOL    HW2 9993   0.252   5.135   5.984
 3032SOL     OW 9994   3.607   0.269   5.370
 3032SOL    HW1 9995   3.676   0.289   5.301
 3032SOL    HW2 9996   3.626   0.180   5.411
 3033SOL     OW 9997   5.317   4.037   6.048
 3033SOL    HW1 9998   5.294   3.953   6.097
 3033SOL    HW2 9999   5.232   4.081   6.017
 3034SOL     OW10000   3.060   6.696   4.711
 3034SOL    HW110001   3.061   6.611   4.764
 3034SOL    HW210002   3.153   6.732   4.704
 3035SOL     OW10003   5.560   5.942   6.915
 3035SOL    HW110004   5.620   5.871   6.878
 3035SOL    HW210005   5.615   6.010   6.963
 3036SOL     OW10006   0.043   4.774   5.199
 3036SOL    HW110007   7.009   4.719   5.139
 3036SOL    HW210008   7.015   4.848   5.240
 3037SOL     OW10009   5.315   6.347   6.392
 3037SOL    HW110010   5.338   6.407   6.469
 3037SOL    HW210011   5.227   6.375   6.353
 3038SOL     OW10012   5.827   5.423   5.423
 3038SOL    HW110013   5.825   5.492   5.351
 3038SOL    HW210014   5.739   5.376   5.427
 3039SOL     OW10015   0.569   4.518   0.502
 3039SOL    HW110016   0.614   4.438   0.542
 3039SOL    HW210017   0.478   4.528   0.541
 3040SOL     OW10018   2.453   1.023   0.597
 3040SOL    HW110019   2.367   1.006   0.645
 3040SOL    HW210020   2.468   0.951   0.529
 3041SOL     OW10021   1.791   1.546   6.222
 3041SOL    HW110022   1.846   1.560   6.140
 3041SOL    HW210023   1.768   1.450   6.231
 3042SOL     OW10024   5.129   0.323   1.075
 3042SOL    HW110025   5.140   0.288   1.168
 3042SOL    HW210026   5.044   0.376   1.070
 3043SOL     OW10027   0.103   4.592   0.275
 3043SOL    HW110028   0.091   4.498   0.306
 3043SOL    HW210029   0.120   4.651   0.355
 3044SOL     OW10030   2.631   2.903   0.135
 3044SOL    HW110031   2.639   2.856   0.048
 3044SOL    HW210032   2.546   2.955   0.138
 3045SOL     OW10033   4.427   2.492   4.755
 3045SOL    HW110034   4.393   2.397   4.753
 3045SOL    HW210035   4.410   2.531   4.846
 3046SOL     OW10036   2.564   2.625   5.795
 3046SOL    HW110037   2.565   2.684   5.714
 3046SOL    HW210038   2.471   2.614   5.828
 3047SOL     OW10039   6.468   5.108   2.115
 3047SOL    HW110040   6.538   5.114   2.043
 3047SOL    HW210041   6.451   5.012   2.137
 3048SOL     OW10042   3.228   2.917   2.067
 3048SOL    HW110043   3.169   2.901   1.988
 3048SOL    HW210044   3.322   2.893   2.044
 3049SOL     OW10045   0.604   0.696   1.237
 3049SOL    HW110046   0.604   0.794   1.259
 3049SOL    HW210047   0.697   0.660   1.248
 3050SOL     OW10048   1.390   0.216   4.492
 3050SOL    HW110049   1.479   0.240   4.531
 3050SOL    HW210050   1.395   0.124   4.453
 3051SOL     OW10051   2.299   5.253   5.245
 3051SOL    HW110052   2.278   5.265   5.342
 3051SOL    HW210053   2.361   5.326   5.214
 3052SOL     OW10054   4.930   6.554   2.355
 3052SOL    HW110055   4.931   6.586   2.450
 3052SOL    HW210056   4.928   6.632   2.293
 3053SOL     OW10057   3.441   5.945   1.511
 3053SOL    HW110058   3.450   5.931   1.610
 3053SOL    HW210059   3.451   6.043   1.491
 3054SOL     OW10060   1.674   4.030   5.031
 3054SOL    HW110061   1.698   3.957   4.967
 3054SOL    HW210062   1.752   4.048   5.091
 3055SOL     OW10063   5.892   6.888   2.612
 3055SOL    HW110064   5.883   6.956   2.686
 3055SOL    HW210065   5.819   6.901   2.546
 3056SOL     OW10066   4.957   1.101   2.231
 3056SOL    HW110067   4.864   1.064   2.242
 3056SOL    HW210068   4.975   1.167   2.304
 3057SOL     OW10069   0.385   4.407   2.817
 3057SOL    HW110070   0.342   4.435   2.731
 3057SOL    HW210071   0.442   4.327   2.801
 3058SOL     OW10072   5.795   0.117   1.451
 3058SOL    HW110073   5.861   0.105   1.525
 3058SOL    HW210074   5.839   0.165   1.375
 3059SOL     OW10075   2.382   2.520   0.195
 3059SOL    HW110076   2.470   2.545   0.236
 3059SOL    HW210077   2.398   2.469   0.110
 3060SOL     OW10078   0.838   5.997   6.810
 3060SOL    HW110079   0.755   5.952   6.775
 3060SOL    HW210080   0.830   6.009   6.909
 3061SOL     OW10081   6.778   0.552   5.473
 3061SOL    HW110082   6.679   0.567   5.483
 3061SOL    HW210083   6.810   0.601   5.391
 3062SOL     OW10084   3.763   5.963   6.056
 3062SOL    HW110085   3.766   5.980   6.155
 3062SOL    HW210086   3.814   6.035   6.008
 3063SOL     OW10087   3.089   6.153   1.135
 3063SOL    HW110088   3.147   6.233   1.122
 3063SOL    HW210089   3.045   6.158   1.225
 3064SOL     OW10090   6.235   4.551   3.042
 3064SOL    HW110091   6.247   4.649   3.027
 3064SOL    HW210092   6.321   4.504   3.022
 3065SOL     OW10093   3.384   1.602   1.600
 3065SOL    HW110094   3.437   1.686   1.597
 3065SOL    HW210095   3.319   1.600   1.524
 3066SOL     OW10096   5.811   5.430   0.992
 3066SOL    HW110097   5.732   5.410   0.934
 3066SOL    HW210098   5.895   5.420   0.939
 3067SOL     OW10099   3.805   6.888   2.873
 3067SOL    HW110100   3.758   6.800   2.861
 3067SOL    HW210101   3.862   6.906   2.793
 3068SOL     OW10102   6.696   4.961   6.619
 3068SOL    HW110103   6.633   4.897   6.663
 3068SOL    HW210104   6.693   4.948   6.520
 3069SOL     OW10105   1.073   5.738   3.754
 3069SOL    HW110106   1.073   5.730   3.654
 3069SOL    HW210107   1.051   5.649   3.795
 3070SOL     OW10108   4.488   2.265   4.424
 3070SOL    HW110109   4.392   2.265   4.451
 3070SOL    HW210110   4.529   2.353   4.446
 3071SOL     OW10111   5.324   0.864   3.136
 3071SOL    HW110112   5.393   0.793   3.147
 3071SOL    HW210113   5.256   0.834   3.069
 3072SOL     OW10114   6.871   0.468   1.243
 3072SOL    HW110115   6.880   0.568   1.250
 3072SOL    HW210116   6.957   0.429   1.210
 3073SOL     OW10117   1.784   1.373   4.371
 3073SOL    HW110118   1.720   1.361   4.295
 3073SOL    HW210119   1.850   1.298   4.371
 3074SOL     OW10120   4.565   3.365   5.667
 3074SOL    HW110121   4.601   3.275   5.690
 3074SOL    HW210122   4.561   3.375   5.567
 3075SOL     OW10123   0.215   5.404   1.451
 3075SOL    HW110124   0.124   5.411   1.411
 3075SOL    HW210125   0.217   5.330   1.518
 3076SOL     OW10126   0.293   1.584   5.754
 3076SOL    HW110127   0.279   1.594   5.853
 3076SOL    HW210128   0.214   1.537   5.715
 3077SOL     OW10129   4.601   4.445   3.717
 3077SOL    HW110130   4.638   4.525   3.766
 3077SOL    HW210131   4.630   4.362   3.764
 3078SOL     OW10132   2.386   3.134   0.614
 3078SOL    HW110133   2.473   3.180   0.592
 3078SOL    HW210134   2.346   3.177   0.694
 3079SOL     OW10135   5.487   2.768   6.215
 3079SOL    HW110136   5.435   2.798   6.135
 3079SOL    HW210137   5.442   2.801   6.298
 3080SOL     OW10138   6.230   6.571   2.525
 3080SOL    HW110139   6.226   6.498   2.457
 3080SOL    HW210140   6.137   6.601   2.547
 3081SOL     OW10141   0.950   5.324   5.952
 3081SOL    HW110142   1.017   5.319   6.026
 3081SOL    HW210143   0.920   5.231   5.928
 3082SOL     OW10144   2.970   6.150   2.406
 3082SOL    HW110145   2.979   6.223   2.338
 3082SOL    HW210146   2.899   6.175   2.472
 3083SOL     OW10147   3.382   6.587   2.804
 3083SOL    HW110148   3.452   6.631   2.748
 3083SOL    HW210149   3.292   6.622   2.778
 3084SOL     OW10150   4.844   0.553   3.943
 3084SOL    HW110151   4.843   0.618   4.019
 3084SOL    HW210152   4.839   0.602   3.857
 3085SOL     OW10153   0.902   4.867   2.275
 3085SOL    HW110154   0.901   4.799   2.349
 3085SOL    HW210155   0.812   4.910   2.269
 3086SOL     OW10156   6.178   1.577   5.050
 3086SOL    HW110157   6.230   1.505   5.005
 3086SOL    HW210158   6.217   1.595   5.141
 3087SOL     OW10159   5.902   3.728   0.952
 3087SOL    HW110160   5.931   3.782   1.031
 3087SOL    HW210161   5.983   3.703   0.897
 3088SOL     OW10162   2.931   3.774   6.895
 3088SOL    HW110163   3.021   3.735   6.876
 3088SOL    HW210164   2.888   3.725   6.971
 3089SOL     OW10165   3.139   2.022   2.153
 3089SOL    HW110166   3.103   2.112   2.180
 3089SOL    HW210167   3.125   2.009   2.055
 3090SOL     OW10168   6.416   1.364   1.392
 3090SOL    HW110169   6.364   1.438   1.348
 3090SOL    HW210170   6.410   1.282   1.335
 3091SOL     OW10171   2.233   6.404   6.557
 3091SOL    HW110172   2.156   6.407   6.493
 3091SOL    HW210173   2.200   6.424   6.649
 3092SOL     OW10174   4.647   5.415   6.411
 3092SOL    HW110175   4.628   5.444   6.317
 3092SOL    HW210176   4.560   5.392   6.456
 3093SOL     OW10177   4.340   6.592   2.896
 3093SOL    HW110178   4.267   6.606   2.963
 3093SOL    HW210179   4.357   6.494   2.885
 3094SOL     OW10180   4.331   5.029   4.466
 3094SOL    HW110181   4.355   4.932   4.473
 3094SOL    HW210182   4.285   5.046   4.379
 3095SOL     OW10183   1.913   4.994   4.633
 3095SOL    HW110184   1.836   5.057   4.626
 3095SOL    HW210185   1.998   5.043   4.613
 3096SOL     OW10186   0.293   2.191   5.555
 3096SOL    HW110187   0.300   2.134   5.637
 3096SOL    HW210188   0.215   2.161   5.500
 3097SOL     OW10189   1.979   0.378   7.013
 3097SOL    HW110190   1.985   0.359   6.915
 3097SOL    HW210191   1.953   0.473   0.002
 3098SOL     OW10192   3.521   3.594   0.751
 3098SOL    HW110193   3.562   3.512   0.712
 3098SOL    HW210194   3.588   3.668   0.750
 3099SOL     OW10195   1.211   5.975   5.032
 3099SOL    HW110196   1.311   5.978   5.039
 3099SOL    HW210197   1.174   6.066   5.048
 3100SOL     OW10198   6.312   6.514   5.978
 3100SOL    HW110199   6.325   6.510   5.878
 3100SOL    HW210200   6.280   6.425   6.010
 3101SOL     OW10201   2.408   0.743   1.203
 3101SOL    HW110202   2.486   0.734   1.265
 3101SOL    HW210203   2.347   0.815   1.235
 3102SOL     OW10204   1.101   6.019   1.068
 3102SOL    HW110205   1.189   6.047   1.106
 3102SOL    HW210206   1.105   6.021   0.968
 3103SOL     OW10207   4.290   4.460   1.706
 3103SOL    HW110208   4.339   4.373   1.699
 3103SOL    HW210209   4.270   4.494   1.614
 3104SOL     OW10210   5.772   5.951   3.009
 3104SOL    HW110211   5.859   5.936   2.960
 3104SOL    HW210212   5.774   5.902   3.096
 3105SOL     OW10213   5.981   6.010   3.846
 3105SOL    HW110214   6.009   6.085   3.787
 3105SOL    HW210215   5.884   5.992   3.834
 3106SOL     OW10216   0.920   3.133   4.127
 3106SOL    HW110217   0.858   3.196   4.081
 3106SOL    HW210218   0.868   3.074   4.188
 3107SOL     OW10219   2.711   0.263   4.269
 3107SOL    HW110220   2.676   0.348   4.229
 3107SOL    HW210221   2.726   0.196   4.197
 3108SOL     OW10222   1.984   6.509   3.003
 3108SOL    HW110223   1.979   6.554   3.092
 3108SOL    HW210224   1.908   6.445   2.993
 3109SOL     OW10225   4.951   5.006   4.002
 3109SOL    HW110226   5.035   5.031   4.051
 3109SOL    HW210227   4.884   4.970   4.066
 3110SOL     OW10228   0.486   2.910   1.711
 3110SOL    HW110229   0.560   2.976   1.702
 3110SOL    HW210230   0.403   2.946   1.670
 3111SOL     OW10231   0.707   4.086   2.185
 3111SOL    HW110232   0.654   4.161   2.147
 3111SOL    HW210233   0.764   4.045   2.114
 3112SOL     OW10234   3.339   2.983   5.985
 3112SOL    HW110235   3.247   2.951   6.009
 3112SOL    HW210236   3.347   2.990   5.886
 3113SOL     OW10237   4.149   0.364   3.582
 3113SOL    HW110238   4.101   0.277   3.592
 3113SOL    HW210239   4.167   0.381   3.485
 3114SOL     OW10240   5.100   5.341   0.830
 3114SOL    HW110241   5.006   5.345   0.864
 3114SOL    HW210242   5.162   5.380   0.899
 3115SOL     OW10243   3.537   3.270   2.878
 3115SOL    HW110244   3.549   3.263   2.779
 3115SOL    HW210245   3.480   3.349   2.899
 3116SOL     OW10246   0.202   1.681   6.359
 3116SOL    HW110247   0.300   1.667   6.340
 3116SOL    HW210248   0.148   1.625   6.297
 3117SOL     OW10249   3.086   4.605   6.238
 3117SOL    HW110250   3.084   4.618   6.338
 3117SOL    HW210251   2.992   4.604   6.203
 3118SOL     OW10252   6.079   5.018   6.729
 3118SOL    HW110253   6.144   4.986   6.798
 3118SOL    HW210254   5.988   5.026   6.769
 3119SOL     OW10255   2.390   4.327   6.797
 3119SOL    HW110256   2.300   4.305   6.834
 3119SOL    HW210257   2.425   4.247   6.746
 3120SOL     OW10258   2.690   5.517   6.543
 3120SOL    HW110259   2.633   5.440   6.572
 3120SOL    HW210260   2.730   5.498   6.453
 3121SOL     OW10261   6.754   6.454   4.135
 3121SOL    HW110262   6.852   6.450   4.113
 3121SOL    HW210263   6.724   6.550   4.134
 3122SOL     OW10264   3.149   5.701   1.211
 3122SOL    HW110265   3.240   5.688   1.251
 3122SOL    HW210266   3.096   5.763   1.269
 3123SOL     OW10267   2.820   6.672   4.117
 3123SOL    HW110268   2.782   6.584   4.088
 3123SOL    HW210269   2.857   6.663   4.210
 3124SOL     OW10270   4.127   0.367   4.665
 3124SOL    HW110271   4.181   0.406   4.741
 3124SOL    HW210272   4.158   0.406   4.579
 3125SOL     OW10273   6.701   2.266   5.595
 3125SOL    HW110274   6.776   2.209   5.628
 3125SOL    HW210275   6.620   2.209   5.581
 3126SOL     OW10276   3.826   5.571   6.406
 3126SOL    HW110277   3.820   5.494   6.344
 3126SOL    HW210278   3.780   5.650   6.366
 3127SOL     OW10279   1.013   1.168   4.301
 3127SOL    HW110280   0.975   1.213   4.220
 3127SOL    HW210281   0.946   1.103   4.337
 3128SOL     OW10282   2.081   1.029   1.269
 3128SOL    HW110283   2.171   1.069   1.280
 3128SOL    HW210284   2.061   0.969   1.346
 3129SOL     OW10285   1.756   3.399   2.609
 3129SOL    HW110286   1.670   3.451   2.601
 3129SOL    HW210287   1.777   3.355   2.522
 3130SOL     OW10288   3.102   5.844   2.735
 3130SOL    HW110289   3.145   5.932   2.755
 3130SOL    HW210290   3.168   5.783   2.691
 3131SOL     OW10291   1.215   3.486   3.555
 3131SOL    HW110292   1.129   3.434   3.563
 3131SOL    HW210293   1.259   3.490   3.645
 3132SOL     OW10294   5.134   3.433   5.587
 3132SOL    HW110295   5.177   3.491   5.518
 3132SOL    HW210296   5.133   3.480   5.675
 3133SOL     OW10297   1.999   1.034   3.351
 3133SOL    HW110298   2.038   1.041   3.443
 3133SOL    HW210299   1.922   1.098   3.343
 3134SOL     OW10300   5.849   1.906   1.817
 3134SOL    HW110301   5.772   1.894   1.755
 3134SOL    HW210302   5.842   1.996   1.861
 3135SOL     OW10303   1.228   2.245   3.231
 3135SOL    HW110304   1.151   2.203   3.183
 3135SOL    HW210305   1.208   2.250   3.329
 3136SOL     OW10306   7.001   1.250   4.573
 3136SOL    HW110307   0.052   1.281   4.629
 3136SOL    HW210308   6.955   1.329   4.532
 3137SOL     OW10309   0.644   2.139   4.279
 3137SOL    HW110310   0.693   2.080   4.215
 3137SOL    HW210311   0.699   2.152   4.361
 3138SOL     OW10312   6.425   2.892   5.002
 3138SOL    HW110313   6.372   2.847   4.931
 3138SOL    HW210314   6.490   2.955   4.959
 3139SOL     OW10315   5.465   5.538   5.605
 3139SOL    HW110316   5.553   5.524   5.649
 3139SOL    HW210317   5.394   5.550   5.675
 3140SOL     OW10318   6.954   6.001   6.042
 3140SOL    HW110319   6.897   5.968   6.118
 3140SOL    HW210320   0.021   6.018   6.074
 3141SOL     OW10321   1.389   6.985   1.791
 3141SOL    HW110322   1.291   6.983   1.807
 3141SOL    HW210323   1.409   0.017   1.711
 3142SOL     OW10324   3.757   6.716   1.411
 3142SOL    HW110325   3.733   6.622   1.436
 3142SOL    HW210326   3.856   6.723   1.397
 3143SOL     OW10327   0.270   2.164   0.354
 3143SOL    HW110328   0.271   2.263   0.370
 3143SOL    HW210329   0.228   2.145   0.265
 3144SOL     OW10330   2.826   3.476   0.274
 3144SOL    HW110331   2.914   3.507   0.311
 3144SOL    HW210332   2.815   3.378   0.292
 3145SOL     OW10333   2.010   4.715   2.705
 3145SOL    HW110334   1.978   4.778   2.775
 3145SOL    HW210335   2.085   4.756   2.654
 3146SOL     OW10336   2.276   6.658   4.669
 3146SOL    HW110337   2.231   6.624   4.586
 3146SOL    HW210338   2.372   6.677   4.650
 3147SOL     OW10339   4.177   4.562   0.699
 3147SOL    HW110340   4.157   4.546   0.602
 3147SOL    HW210341   4.098   4.538   0.754
 3148SOL     OW10342   3.335   5.537   4.399
 3148SOL    HW110343   3.406   5.476   4.363
 3148SOL    HW210344   3.375   5.597   4.468
 3149SOL     OW10345   1.613   6.006   5.260
 3149SOL    HW110346   1.687   6.057   5.303
 3149SOL    HW210347   1.581   5.935   5.322
 3150SOL     OW10348   6.532   0.691   4.805
 3150SOL    HW110349   6.435   0.671   4.814
 3150SOL    HW210350   6.554   0.776   4.853
 3151SOL     OW10351   3.484   6.381   1.234
 3151SOL    HW110352   3.460   6.472   1.201
 3151SOL    HW210353   3.453   6.312   1.168
 3152SOL     OW10354   1.118   4.969   5.806
 3152SOL    HW110355   1.135   4.877   5.771
 3152SOL    HW210356   1.121   5.034   5.730
 3153SOL     OW10357   0.321   4.006   3.220
 3153SOL    HW110358   0.247   3.941   3.206
 3153SOL    HW210359   0.396   3.986   3.157
 3154SOL     OW10360   6.093   3.141   6.915
 3154SOL    HW110361   6.101   3.055   6.863
 3154SOL    HW210362   6.037   3.205   6.863
 3155SOL     OW10363   3.905   6.026   0.195
 3155SOL    HW110364   4.002   6.020   0.175
 3155SOL    HW210365   3.854   5.965   0.134
 3156SOL     OW10366   3.309   3.629   3.623
 3156SOL    HW110367   3.350   3.697   3.683
 3156SOL    HW210368   3.341   3.538   3.650
 3157SOL     OW10369   2.417   2.132   4.835
 3157SOL    HW110370   2.354   2.095   4.903
 3157SOL    HW210371   2.378   2.121   4.744
 3158SOL     OW10372   4.829   6.480   1.178
 3158SOL    HW110373   4.918   6.462   1.136
 3158SOL    HW210374   4.775   6.396   1.182
 3159SOL     OW10375   5.550   4.615   0.209
 3159SOL    HW110376   5.507   4.580   0.292
 3159SOL    HW210377   5.627   4.673   0.233
 3160SOL     OW10378   6.250   4.697   0.783
 3160SOL    HW110379   6.330   4.717   0.726
 3160SOL    HW210380   6.216   4.606   0.761
 3161SOL     OW10381   0.098   2.342   4.239
 3161SOL    HW110382   0.157   2.375   4.312
 3161SOL    HW210383   0.035   2.273   4.275
 3162SOL     OW10384   0.337   0.543   5.874
 3162SOL    HW110385   0.275   0.541   5.797
 3162SOL    HW210386   0.414   0.481   5.857
 3163SOL     OW10387   1.521   4.121   5.652
 3163SOL    HW110388   1.456   4.072   5.594
 3163SOL    HW210389   1.614   4.092   5.629
 3164SOL     OW10390   6.333   5.272   6.004
 3164SOL    HW110391   6.388   5.244   5.925
 3164SOL    HW210392   6.307   5.192   6.057
 3165SOL     OW10393   0.092   2.413   1.523
 3165SOL    HW110394   0.075   2.363   1.438
 3165SOL    HW210395   0.182   2.455   1.520
 3166SOL     OW10396   3.814   3.145   6.402
 3166SOL    HW110397   3.735   3.182   6.354
 3166SOL    HW210398   3.849   3.066   6.352
 3167SOL     OW10399   6.998   4.921   1.727
 3167SOL    HW110400   0.069   4.898   1.740
 3167SOL    HW210401   6.991   4.995   1.659
 3168SOL     OW10402   6.447   3.429   0.927
 3168SOL    HW110403   6.353   3.396   0.934
 3168SOL    HW210404   6.483   3.450   1.018
 3169SOL     OW10405   3.387   1.751   5.481
 3169SOL    HW110406   3.330   1.831   5.461
 3169SOL    HW210407   3.357   1.710   5.568
 3170SOL     OW10408   3.257   0.660   4.304
 3170SOL    HW110409   3.272   0.744   4.251
 3170SOL    HW210410   3.179   0.611   4.267
 3171SOL     OW10411   6.228   5.389   2.410
 3171SOL    HW110412   6.318   5.345   2.406
 3171SOL    HW210413   6.226   5.453   2.486
 3172SOL     OW10414   5.460   6.429   4.643
 3172SOL    HW110415   5.449   6.526   4.623
 3172SOL    HW210416   5.376   6.393   4.684
 3173SOL     OW10417   1.548   0.528   1.394
 3173SOL    HW110418   1.487   0.581   1.453
 3173SOL    HW210419   1.611   0.475   1.451
 3174SOL     OW10420   2.314   2.923   0.436
 3174SOL    HW110421   2.349   2.939   0.344
 3174SOL    HW210422   2.340   3.000   0.495
 3175SOL     OW10423   0.281   5.902   0.665
 3175SOL    HW110424   0.361   5.882   0.721
 3175SOL    HW210425   0.271   6.001   0.655
 3176SOL     OW10426   1.079   5.221   0.117
 3176SOL    HW110427   1.080   5.188   0.023
 3176SOL    HW210428   1.094   5.320   0.119
 3177SOL     OW10429   1.249   0.501   3.657
 3177SOL    HW110430   1.310   0.526   3.582
 3177SOL    HW210431   1.198   0.418   3.632
 3178SOL     OW10432   3.581   3.463   0.193
 3178SOL    HW110433   3.668   3.439   0.150
 3178SOL    HW210434   3.520   3.384   0.192
 3179SOL     OW10435   1.065   2.877   4.234
 3179SOL    HW110436   0.970   2.905   4.248
 3179SOL    HW210437   1.125   2.956   4.245
 3180SOL     OW10438   6.749   1.469   6.554
 3180SOL    HW110439   6.702   1.422   6.479
 3180SOL    HW210440   6.753   1.567   6.534
 3181SOL     OW10441   6.393   1.680   2.011
 3181SOL    HW110442   6.336   1.653   2.088
 3181SOL    HW210443   6.440   1.599   1.974
 3182SOL     OW10444   1.174   6.625   5.862
 3182SOL    HW110445   1.274   6.633   5.856
 3182SOL    HW210446   1.141   6.679   5.939
 3183SOL     OW10447   4.791   3.451   0.960
 3183SOL    HW110448   4.862   3.443   1.030
 3183SOL    HW210449   4.800   3.375   0.895
 3184SOL     OW10450   6.852   1.787   2.723
 3184SOL    HW110451   6.823   1.742   2.639
 3184SOL    HW210452   6.794   1.866   2.740
 3185SOL     OW10453   0.510   6.374   0.158
 3185SOL    HW110454   0.600   6.402   0.126
 3185SOL    HW210455   0.514   6.280   0.193
 3186SOL     OW10456   3.782   0.677   0.939
 3186SOL    HW110457   3.763   0.770   0.907
 3186SOL    HW210458   3.827   0.681   1.029
 3187SOL     OW10459   3.666   4.549   0.994
 3187SOL    HW110460   3.580   4.525   0.948
 3187SOL    HW210461   3.721   4.606   0.934
 3188SOL     OW10462   3.429   0.542   4.060
 3188SOL    HW110463   3.487   0.522   3.981
 3188SOL    HW210464   3.354   0.476   4.064
 3189SOL     OW10465   5.103   5.883   1.565
 3189SOL    HW110466   5.163   5.822   1.616
 3189SOL    HW210467   5.035   5.922   1.627
 3190SOL     OW10468   0.553   0.866   2.413
 3190SOL    HW110469   0.472   0.825   2.372
 3190SOL    HW210470   0.620   0.795   2.434
 3191SOL     OW10471   3.537   1.468   0.935
 3191SOL    HW110472   3.459   1.521   0.966
 3191SOL    HW210473   3.543   1.473   0.836
 3192SOL     OW10474   5.656   3.172   4.349
 3192SOL    HW110475   5.703   3.134   4.269
 3192SOL    HW210476   5.618   3.261   4.326
 3193SOL     OW10477   5.512   4.443   1.949
 3193SOL    HW110478   5.419   4.472   1.972
 3193SOL    HW210479   5.531   4.467   1.854
 3194SOL     OW10480   3.204   5.314   4.540
 3194SOL    HW110481   3.266   5.235   4.538
 3194SOL    HW210482   3.232   5.380   4.470
 3195SOL     OW10483   0.073   4.259   4.325
 3195SOL    HW110484   0.072   4.253   4.225
 3195SOL    HW210485   7.023   4.317   4.355
 3196SOL     OW10486   0.099   6.057   0.078
 3196SOL    HW110487   0.136   5.986   0.138
 3196SOL    HW210488   0.175   6.104   0.032
 3197SOL     OW10489   0.780   4.225   5.953
 3197SOL    HW110490   0.753   4.241   5.859
 3197SOL    HW210491   0.741   4.296   6.012
 3198SOL     OW10492   5.694   0.302   1.014
 3198SOL    HW110493   5.683   0.347   0.926
 3198SOL    HW210494   5.705   0.203   1.000
 3199SOL     OW10495   2.997   2.205   3.810
 3199SOL    HW110496   2.950   2.132   3.860
 3199SOL    HW210497   3.096   2.191   3.817
 3200SOL     OW10498   6.608   1.601   0.251
 3200SOL    HW110499   6.538   1.533   0.230
 3200SOL    HW210500   6.569   1.671   0.311
 3201SOL     OW10501   4.162   5.828   3.813
 3201SOL    HW110502   4.103   5.795   3.886
 3201SOL    HW210503   4.131   5.791   3.726
 3202SOL     OW10504   1.112   4.989   2.179
 3202SOL    HW110505   1.193   4.979   2.237
 3202SOL    HW210506   1.036   4.939   2.221
 3203SOL     OW10507   5.073   6.699   0.786
 3203SOL    HW110508   5.144   6.717   0.854
 3203SOL    HW210509   5.030   6.786   0.760
 3204SOL     OW10510   6.248   6.448   2.235
 3204SOL    HW110511   6.250   6.547   2.217
 3204SOL    HW210512   6.154   6.419   2.255
 3205SOL     OW10513   2.015   4.204   4.545
 3205SOL    HW110514   1.993   4.252   4.460
 3205SOL    HW210515   2.093   4.143   4.529
 3206SOL     OW10516   2.204   6.600   0.514
 3206SOL    HW110517   2.297   6.609   0.549
 3206SOL    HW210518   2.142   6.654   0.570
 3207SOL     OW10519   1.491   1.236   2.661
 3207SOL    HW110520   1.577   1.255   2.707
 3207SOL    HW210521   1.495   1.272   2.568
 3208SOL     OW10522   6.278   5.986   6.125
 3208SOL    HW110523   6.299   5.905   6.070
 3208SOL    HW210524   6.358   6.046   6.127
 3209SOL     OW10525   1.002   6.892   2.947
 3209SOL    HW110526   1.086   6.945   2.959
 3209SOL    HW210527   0.928   6.934   3.000
 3210SOL     OW10528   0.428   6.199   2.175
 3210SOL    HW110529   0.329   6.186   2.170
 3210SOL    HW210530   0.474   6.117   2.140
 3211SOL     OW10531   0.419   4.723   3.831
 3211SOL    HW110532   0.469   4.710   3.745
 3211SOL    HW210533   0.477   4.697   3.908
 3212SOL     OW10534   4.621   2.274   4.698
 3212SOL    HW110535   4.567   2.192   4.717
 3212SOL    HW210536   4.562   2.355   4.702
 3213SOL     OW10537   5.649   0.346   2.201
 3213SOL    HW110538   5.722   0.286   2.167
 3213SOL    HW210539   5.589   0.295   2.262
 3214SOL     OW10540   4.369   3.625   0.946
 3214SOL    HW110541   4.428   3.569   1.004
 3214SOL    HW210542   4.275   3.590   0.949
 3215SOL     OW10543   6.595   1.704   6.914
 3215SOL    HW110544   6.621   1.613   6.881
 3215SOL    HW210545   6.497   1.705   6.936
 3216SOL     OW10546   5.436   6.858   5.705
 3216SOL    HW110547   5.431   6.759   5.689
 3216SOL    HW210548   5.466   6.904   5.621
 3217SOL     OW10549   6.957   4.703   6.818
 3217SOL    HW110550   7.008   4.684   6.902
 3217SOL    HW210551   6.980   4.793   6.784
 3218SOL     OW10552   4.186   2.478   1.241
 3218SOL    HW110553   4.125   2.425   1.300
 3218SOL    HW210554   4.134   2.519   1.166
 3219SOL     OW10555   0.793   2.477   2.663
 3219SOL    HW110556   0.878   2.523   2.689
 3219SOL    HW210557   0.715   2.530   2.697
 3220SOL     OW10558   6.905   2.760   6.337
 3220SOL    HW110559   6.967   2.790   6.409
 3220SOL    HW210560   6.866   2.840   6.291
 3221SOL     OW10561   3.777   0.974   0.894
 3221SOL    HW110562   3.748   1.065   0.862
 3221SOL    HW210563   3.876   0.969   0.895
 3222SOL     OW10564   6.001   3.557   2.407
 3222SOL    HW110565   6.071   3.628   2.416
 3222SOL    HW210566   5.914   3.599   2.381
 3223SOL     OW10567   1.078   4.484   5.665
 3223SOL    HW110568   0.980   4.498   5.648
 3223SOL    HW210569   1.125   4.465   5.579
 3224SOL     OW10570   2.849   7.021   1.837
 3224SOL    HW110571   2.810   0.051   1.910
 3224SOL    HW210572   2.780   7.006   1.766
 3225SOL     OW10573   1.109   1.586   0.005
 3225SOL    HW110574   1.134   1.491   7.014
 3225SOL    HW210575   1.028   1.609   6.976
 3226SOL     OW10576   6.834   1.494   3.527
 3226SOL    HW110577   6.844   1.483   3.428
 3226SOL    HW210578   6.810   1.589   3.547
 3227SOL     OW10579   2.289   1.802   4.939
 3227SOL    HW110580   2.387   1.823   4.940
 3227SOL    HW210581   2.244   1.848   5.016
 3228SOL     OW10582   5.239   3.483   4.809
 3228SOL    HW110583   5.328   3.499   4.853
 3228SOL    HW210584   5.166   3.501   4.875
 3229SOL     OW10585   4.564   1.569   4.565
 3229SOL    HW110586   4.608   1.479   4.555
 3229SOL    HW210587   4.481   1.560   4.620
 3230SOL     OW10588   1.111   6.795   4.309
 3230SOL    HW110589   1.081   6.886   4.280
 3230SOL    HW210590   1.104   6.788   4.409
 3231SOL     OW10591   4.080   4.543   0.422
 3231SOL    HW110592   3.993   4.557   0.376
 3231SOL    HW210593   4.134   4.627   0.417
 3232SOL     OW10594   1.656   4.019   3.316
 3232SOL    HW110595   1.710   3.999   3.398
 3232SOL    HW210596   1.561   4.035   3.342
 3233SOL     OW10597   2.916   3.907   1.141
 3233SOL    HW110598   2.877   3.943   1.056
 3233SOL    HW210599   2.897   3.809   1.146
 3234SOL     OW10600   6.918   2.569   4.339
 3234SOL    HW110601   6.985   2.496   4.328
 3234SOL    HW210602   6.858   2.548   4.416
 3235SOL     OW10603   6.509   0.651   2.160
 3235SOL    HW110604   6.491   0.564   2.114
 3235SOL    HW210605   6.481   0.727   2.100
 3236SOL     OW10606   0.498   1.434   0.934
 3236SOL    HW110607   0.575   1.474   0.984
 3236SOL    HW210608   0.518   1.434   0.836
 3237SOL     OW10609   2.972   5.175   5.055
 3237SOL    HW110610   2.874   5.196   5.059
 3237SOL    HW210611   2.984   5.079   5.028
 3238SOL     OW10612   0.758   6.223   6.438
 3238SOL    HW110613   0.667   6.244   6.402
 3238SOL    HW210614   0.776   6.125   6.427
 3239SOL     OW10615   2.291   6.686   6.429
 3239SOL    HW110616   2.261   6.782   6.432
 3239SOL    HW210617   2.214   6.627   6.407
 3240SOL     OW10618   0.875   2.520   4.418
 3240SOL    HW110619   0.883   2.442   4.356
 3240SOL    HW210620   0.780   2.552   4.419
 3241SOL     OW10621   3.990   6.049   5.427
 3241SOL    HW110622   3.912   6.107   5.404
 3241SOL    HW210623   4.029   6.011   5.343
 3242SOL     OW10624   3.274   1.319   0.729
 3242SOL    HW110625   3.249   1.308   0.825
 3242SOL    HW210626   3.235   1.243   0.676
 3243SOL     OW10627   3.427   6.338   2.558
 3243SOL    HW110628   3.469   6.250   2.581
 3243SOL    HW210629   3.484   6.412   2.592
 3244SOL     OW10630   1.676   0.927   5.090
 3244SOL    HW110631   1.663   0.849   5.029
 3244SOL    HW210632   1.707   1.006   5.037
 3245SOL     OW10633   3.946   2.188   6.218
 3245SOL    HW110634   3.892   2.105   6.233
 3245SOL    HW210635   3.903   2.264   6.266
 3246SOL     OW10636   6.287   6.977   1.507
 3246SOL    HW110637   6.242   6.929   1.582
 3246SOL    HW210638   6.375   6.933   1.487
 3247SOL     OW10639   6.021   2.765   4.687
 3247SOL    HW110640   5.996   2.826   4.762
 3247SOL    HW210641   5.939   2.721   4.651
 3248SOL     OW10642   4.969   3.518   2.875
 3248SOL    HW110643   4.988   3.611   2.844
 3248SOL    HW210644   4.929   3.521   2.967
 3249SOL     OW10645   3.812   4.611   5.766
 3249SOL    HW110646   3.833   4.706   5.791
 3249SOL    HW210647   3.883   4.576   5.706
 3250SOL     OW10648   3.918   4.916   0.517
 3250SOL    HW110649   3.846   4.849   0.533
 3250SOL    HW210650   4.003   4.870   0.494
 3251SOL     OW10651   2.186   1.308   2.784
 3251SOL    HW110652   2.175   1.388   2.843
 3251SOL    HW210653   2.243   1.332   2.705
 3252SOL     OW10654   3.513   1.986   2.848
 3252SOL    HW110655   3.460   1.901   2.852
 3252SOL    HW210656   3.497   2.031   2.760
 3253SOL     OW10657   5.224   4.362   2.295
 3253SOL    HW110658   5.320   4.376   2.271
 3253SOL    HW210659   5.199   4.425   2.368
 3254SOL     OW10660   6.344   3.935   3.093
 3254SOL    HW110661   6.419   3.956   3.030
 3254SOL    HW210662   6.303   4.021   3.126
 3255SOL     OW10663   2.793   4.655   0.721
 3255SOL    HW110664   2.764   4.575   0.669
 3255SOL    HW210665   2.754   4.737   0.679
 3256SOL     OW10666   6.274   6.230   5.985
 3256SOL    HW110667   6.256   6.134   6.006
 3256SOL    HW210668   6.342   6.236   5.912
 3257SOL     OW10669   2.470   0.514   1.696
 3257SOL    HW110670   2.438   0.573   1.621
 3257SOL    HW210671   2.434   0.421   1.683
 3258SOL     OW10672   4.654   6.920   1.945
 3258SOL    HW110673   4.736   6.964   1.983
 3258SOL    HW210674   4.576   6.937   2.006
 3259SOL     OW10675   5.907   6.234   4.298
 3259SOL    HW110676   5.861   6.297   4.237
 3259SOL    HW210677   5.985   6.280   4.341
 3260SOL     OW10678   1.693   1.293   1.081
 3260SOL    HW110679   1.648   1.364   1.026
 3260SOL    HW210680   1.633   1.266   1.156
 3261SOL     OW10681   4.839   6.604   4.264
 3261SOL    HW110682   4.785   6.583   4.345
 3261SOL    HW210683   4.791   6.573   4.182
 3262SOL     OW10684   4.821   2.669   3.686
 3262SOL    HW110685   4.915   2.697   3.665
 3262SOL    HW210686   4.813   2.570   3.680
 3263SOL     OW10687   3.184   4.883   2.931
 3263SOL    HW110688   3.256   4.871   3.000
 3263SOL    HW210689   3.223   4.916   2.846
 3264SOL     OW10690   4.970   3.800   6.015
 3264SOL    HW110691   4.901   3.859   6.057
 3264SOL    HW210692   5.048   3.791   6.077
 3265SOL     OW10693   5.795   6.896   5.570
 3265SOL    HW110694   5.851   6.970   5.533
 3265SOL    HW210695   5.787   6.907   5.669
 3266SOL     OW10696   1.702   2.409   5.956
 3266SOL    HW110697   1.789   2.443   5.920
 3266SOL    HW210698   1.719   2.334   6.020
 3267SOL     OW10699   5.313   4.063   0.332
 3267SOL    HW110700   5.352   4.045   0.422
 3267SOL    HW210701   5.246   4.137   0.339
 3268SOL     OW10702   2.622   5.528   0.748
 3268SOL    HW110703   2.700   5.544   0.810
 3268SOL    HW210704   2.656   5.504   0.657
 3269SOL     OW10705   4.539   3.671   1.678
 3269SOL    HW110706   4.460   3.622   1.641
 3269SOL    HW210707   4.593   3.707   1.602
 3270SOL     OW10708   5.936   6.366   3.174
 3270SOL    HW110709   5.852   6.343   3.124
 3270SOL    HW210710   5.925   6.341   3.270
 3271SOL     OW10711   4.721   6.928   0.207
 3271SOL    HW110712   4.787   6.932   0.132
 3271SOL    HW210713   4.665   7.010   0.207
 3272SOL     OW10714   4.296   6.790   6.787
 3272SOL    HW110715   4.262   6.723   6.721
 3272SOL    HW210716   4.314   6.876   6.741
 3273SOL     OW10717   6.450   1.025   3.128
 3273SOL    HW110718   6.539   1.015   3.084
 3273SOL    HW210719   6.421   1.121   3.126
 3274SOL     OW10720   3.307   0.123   1.364
 3274SOL    HW110721   3.226   0.156   1.314
 3274SOL    HW210722   3.300   0.149   1.460
 3275SOL     OW10723   4.859   0.484   6.312
 3275SOL    HW110724   4.769   0.517   6.342
 3275SOL    HW210725   4.876   0.394   6.353
 3276SOL     OW10726   1.796   5.371   1.612
 3276SOL    HW110727   1.843   5.346   1.527
 3276SOL    HW210728   1.743   5.292   1.645
 3277SOL     OW10729   1.175   6.028   7.002
 3277SOL    HW110730   1.177   6.121   0.012
 3277SOL    HW210731   1.166   6.030   6.903
 3278SOL     OW10732   1.008   6.565   0.021
 3278SOL    HW110733   1.029   6.504   6.970
 3278SOL    HW210734   0.941   6.634   7.016
 3279SOL     OW10735   1.846   6.414   2.250
 3279SOL    HW110736   1.786   6.430   2.329
 3279SOL    HW210737   1.932   6.374   2.281
 3280SOL     OW10738   3.135   5.446   3.592
 3280SOL    HW110739   3.099   5.411   3.679
 3280SOL    HW210740   3.200   5.380   3.554
 3281SOL     OW10741   1.517   0.173   1.410
 3281SOL    HW110742   1.608   0.194   1.447
 3281SOL    HW210743   1.505   0.073   1.407
 3282SOL     OW10744   1.187   4.550   2.280
 3282SOL    HW110745   1.150   4.458   2.270
 3282SOL    HW210746   1.283   4.546   2.305
 3283SOL     OW10747   1.614   0.754   3.578
 3283SOL    HW110748   1.632   0.701   3.661
 3283SOL    HW210749   1.701   0.774   3.532
 3284SOL     OW10750   2.493   6.770   6.005
 3284SOL    HW110751   2.479   6.710   6.083
 3284SOL    HW210752   2.587   6.805   6.006
 3285SOL     OW10753   1.126   3.573   4.232
 3285SOL    HW110754   1.111   3.664   4.271
 3285SOL    HW210755   1.144   3.508   4.306
 3286SOL     OW10756   4.828   5.016   0.398
 3286SOL    HW110757   4.769   5.076   0.453
 3286SOL    HW210758   4.894   4.971   0.458
 3287SOL     OW10759   0.267   1.629   0.989
 3287SOL    HW110760   0.314   1.718   0.985
 3287SOL    HW210761   0.325   1.560   0.946
 3288SOL     OW10762   1.581   6.454   0.957
 3288SOL    HW110763   1.485   6.434   0.979
 3288SOL    HW210764   1.587   6.541   0.910
 3289SOL     OW10765   1.402   0.756   3.939
 3289SOL    HW110766   1.460   0.781   4.016
 3289SOL    HW210767   1.383   0.837   3.884
 3290SOL     OW10768   0.167   4.323   4.741
 3290SOL    HW110769   0.161   4.396   4.809
 3290SOL    HW210770   0.080   4.274   4.737
 3291SOL     OW10771   1.850   1.191   1.774
 3291SOL    HW110772   1.841   1.237   1.862
 3291SOL    HW210773   1.759   1.169   1.738
 3292SOL     OW10774   1.491   6.657   3.947
 3292SOL    HW110775   1.533   6.620   3.864
 3292SOL    HW210776   1.527   6.748   3.965
 3293SOL     OW10777   5.520   1.717   3.238
 3293SOL    HW110778   5.508   1.778   3.159
 3293SOL    HW210779   5.442   1.727   3.299
 3294SOL     OW10780   6.995   6.491   1.549
 3294SOL    HW110781   6.970   6.479   1.453
 3294SOL    HW210782   0.015   6.408   1.583
 3295SOL     OW10783   2.763   2.843   6.417
 3295SOL    HW110784   2.814   2.768   6.459
 3295SOL    HW210785   2.689   2.806   6.361
 3296SOL     OW10786   1.270   6.296   1.906
 3296SOL    HW110787   1.324   6.272   1.987
 3296SOL    HW210788   1.324   6.278   1.824
 3297SOL     OW10789   3.561   0.469   4.934
 3297SOL    HW110790   3.608   0.532   4.995
 3297SOL    HW210791   3.464   0.493   4.929
 3298SOL     OW10792   6.714   5.300   3.366
 3298SOL    HW110793   6.764   5.380   3.332
 3298SOL    HW210794   6.645   5.329   3.432
 3299SOL     OW10795   2.619   1.439   5.007
 3299SOL    HW110796   2.592   1.352   4.965
 3299SOL    HW210797   2.653   1.501   4.937
 3300SOL     OW10798   0.703   6.991   4.147
 3300SOL    HW110799   0.702   0.051   4.200
 3300SOL    HW210800   0.636   6.928   4.184
 3301SOL     OW10801   6.477   4.644   2.261
 3301SOL    HW110802   6.468   4.544   2.264
 3301SOL    HW210803   6.551   4.669   2.200
 3302SOL     OW10804   1.754   6.220   5.378
 3302SOL    HW110805   1.745   6.302   5.321
 3302SOL    HW210806   1.716   6.238   5.468
 3303SOL     OW10807   3.493   3.622   5.316
 3303SOL    HW110808   3.545   3.687   5.261
 3303SOL    HW210809   3.397   3.624   5.289
 3304SOL     OW10810   2.448   1.134   3.859
 3304SOL    HW110811   2.370   1.173   3.908
 3304SOL    HW210812   2.420   1.050   3.814
 3305SOL     OW10813   1.460   2.219   0.869
 3305SOL    HW110814   1.558   2.235   0.880
 3305SOL    HW210815   1.415   2.305   0.845
 3306SOL     OW10816   0.963   1.628   0.837
 3306SOL    HW110817   1.036   1.672   0.890
 3306SOL    HW210818   0.888   1.693   0.824
 3307SOL     OW10819   0.496   6.542   0.444
 3307SOL    HW110820   0.512   6.483   0.365
 3307SOL    HW210821   0.517   6.636   0.419
 3308SOL     OW10822   5.437   5.068   0.536
 3308SOL    HW110823   5.533   5.094   0.545
 3308SOL    HW210824   5.422   5.025   0.447
 3309SOL     OW10825   0.477   3.775   2.112
 3309SOL    HW110826   0.393   3.804   2.065
 3309SOL    HW210827   0.495   3.836   2.189
 3310SOL     OW10828   2.034   0.438   2.701
 3310SOL    HW110829   1.946   0.409   2.664
 3310SOL    HW210830   2.108   0.408   2.639
 3311SOL     OW10831   3.947   5.328   0.633
 3311SOL    HW110832   3.971   5.238   0.670
 3311SOL    HW210833   3.926   5.320   0.536
 3312SOL     OW10834   1.944   2.444   5.815
 3312SOL    HW110835   1.948   2.400   5.725
 3312SOL    HW210836   1.941   2.543   5.803
 3313SOL     OW10837   5.266   6.112   5.446
 3313SOL    HW110838   5.202   6.040   5.418
 3313SOL    HW210839   5.305   6.155   5.364
 3314SOL     OW10840   0.510   4.499   6.981
 3314SOL    HW110841   0.462   4.515   0.041
 3314SOL    HW210842   0.599   4.545   6.983
 3315SOL     OW10843   0.105   3.677   3.725
 3315SOL    HW110844   0.195   3.721   3.718
 3315SOL    HW210845   0.070   3.687   3.818
 3316SOL     OW10846   3.679   0.111   6.611
 3316SOL    HW110847   3.686   0.035   6.546
 3316SOL    HW210848   3.763   0.165   6.609
 3317SOL     OW10849   6.481   2.275   1.100
 3317SOL    HW110850   6.404   2.279   1.036
 3317SOL    HW210851   6.495   2.365   1.141
 3318SOL     OW10852   2.252   5.154   6.108
 3318SOL    HW110853   2.257   5.182   6.012
 3318SOL    HW210854   2.201   5.068   6.115
 3319SOL     OW10855   1.682   6.323   6.155
 3319SOL    HW110856   1.713   6.313   6.060
 3319SOL    HW210857   1.633   6.410   6.165
 3320SOL     OW10858   1.755   0.853   0.825
 3320SOL    HW110859   1.689   0.927   0.840
 3320SOL    HW210860   1.806   0.836   0.909
 3321SOL     OW10861   4.148   3.444   4.795
 3321SOL    HW110862   4.143   3.441   4.695
 3321SOL    HW210863   4.163   3.352   4.831
 3322SOL     OW10864   5.498   3.135   2.861
 3322SOL    HW110865   5.510   3.163   2.766
 3322SOL    HW210866   5.443   3.203   2.909
 3323SOL     OW10867   1.985   3.660   0.730
 3323SOL    HW110868   2.025   3.733   0.675
 3323SOL    HW210869   1.890   3.646   0.703
 3324SOL     OW10870   6.412   2.973   1.485
 3324SOL    HW110871   6.467   3.056   1.492
 3324SOL    HW210872   6.388   2.941   1.577
 3325SOL     OW10873   1.527   5.054   5.444
 3325SOL    HW110874   1.616   5.040   5.403
 3325SOL    HW210875   1.484   4.966   5.461
 3326SOL     OW10876   3.810   0.027   2.167
 3326SOL    HW110877   3.782   6.963   2.202
 3326SOL    HW210878   3.758   0.048   2.084
 3327SOL     OW10879   4.956   6.809   2.252
 3327SOL    HW110880   4.904   6.842   2.330
 3327SOL    HW210881   4.933   6.862   2.171
 3328SOL     OW10882   6.396   5.906   3.347
 3328SOL    HW110883   6.334   5.827   3.349
 3328SOL    HW210884   6.401   5.942   3.254
 3329SOL     OW10885   6.038   0.004   5.526
 3329SOL    HW110886   6.113   7.000   5.468
 3329SOL    HW210887   6.033   6.971   5.607
 3330SOL     OW10888   5.217   1.130   3.437
 3330SOL    HW110889   5.256   1.209   3.486
 3330SOL    HW210890   5.250   1.131   3.342
 3331SOL     OW10891   0.395   3.254   2.784
 3331SOL    HW110892   0.468   3.193   2.754
 3331SOL    HW210893   0.335   3.205   2.847
 3332SOL     OW10894   4.051   4.840   1.285
 3332SOL    HW110895   4.026   4.810   1.377
 3332SOL    HW210896   4.147   4.867   1.283
 3333SOL     OW10897   2.028   3.947   1.265
 3333SOL    HW110898   2.083   3.964   1.183
 3333SOL    HW210899   2.064   4.002   1.340
 3334SOL     OW10900   2.006   2.661   2.028
 3334SOL    HW110901   1.916   2.658   1.985
 3334SOL    HW210902   2.011   2.588   2.097
 3335SOL     OW10903   4.311   4.051   6.796
 3335SOL    HW110904   4.286   4.021   6.888
 3335SOL    HW210905   4.390   3.998   6.765
 3336SOL     OW10906   3.590   6.355   6.401
 3336SOL    HW110907   3.569   6.370   6.498
 3336SOL    HW210908   3.684   6.324   6.392
 3337SOL     OW10909   2.946   3.882   4.573
 3337SOL    HW110910   2.855   3.921   4.588
 3337SOL    HW210911   2.948   3.789   4.609
 3338SOL     OW10912   3.363   2.960   1.744
 3338SOL    HW110913   3.269   2.942   1.772
 3338SOL    HW210914   3.365   3.035   1.678
 3339SOL     OW10915   0.810   6.861   5.655
 3339SOL    HW110916   0.884   6.864   5.587
 3339SOL    HW210917   0.848   6.879   5.745
 3340SOL     OW10918   4.130   2.378   6.366
 3340SOL    HW110919   4.042   2.365   6.413
 3340SOL    HW210920   4.145   2.476   6.351
 3341SOL     OW10921   1.271   3.937   1.230
 3341SOL    HW110922   1.236   3.903   1.318
 3341SOL    HW210923   1.309   3.861   1.178
 3342SOL     OW10924   5.617   0.587   3.638
 3342SOL    HW110925   5.538   0.596   3.578
 3342SOL    HW210926   5.594   0.529   3.716
 3343SOL     OW10927   2.906   5.221   0.048
 3343SOL    HW110928   2.954   5.303   0.082
 3343SOL    HW210929   2.973   5.148   0.033
 3344SOL     OW10930   2.523   3.764   0.023
 3344SOL    HW110931   2.510   3.819   0.105
 3344SOL    HW210932   2.503   3.819   6.967
 3345SOL     OW10933   4.160   5.449   0.364
 3345SOL    HW110934   4.144   5.532   0.417
 3345SOL    HW210935   4.075   5.422   0.318
 3346SOL     OW10936   0.675   0.711   0.314
 3346SOL    HW110937   0.686   0.773   0.391
 3346SOL    HW210938   0.580   0.713   0.283
 3347SOL     OW10939   1.361   3.194   6.343
 3347SOL    HW110940   1.397   3.249   6.418
 3347SOL    HW210941   1.273   3.155   6.370
 3348SOL     OW10942   2.834   4.273   5.749
 3348SOL    HW110943   2.770   4.326   5.805
 3348SOL    HW210944   2.925   4.278   5.790
 3349SOL     OW10945   2.739   5.307   1.674
 3349SOL    HW110946   2.742   5.228   1.735
 3349SOL    HW210947   2.672   5.373   1.708
 3350SOL     OW10948   3.465   5.176   4.509
 3350SOL    HW110949   3.499   5.255   4.459
 3350SOL    HW210950   3.492   5.092   4.462
 3351SOL     OW10951   4.114   6.684   1.834
 3351SOL    HW110952   4.128   6.618   1.908
 3351SOL    HW210953   4.201   6.728   1.811
 3352SOL     OW10954   5.837   0.538   0.540
 3352SOL    HW110955   5.807   0.631   0.522
 3352SOL    HW210956   5.916   0.516   0.483
 3353SOL     OW10957   5.103   7.008   6.025
 3353SOL    HW110958   5.004   7.001   6.041
 3353SOL    HW210959   5.149   0.013   6.108
 3354SOL     OW10960   3.721   1.782   0.455
 3354SOL    HW110961   3.688   1.747   0.543
 3354SOL    HW210962   3.728   1.882   0.460
 3355SOL     OW10963   0.977   2.080   5.560
 3355SOL    HW110964   1.045   2.090   5.633
 3355SOL    HW210965   0.947   1.985   5.555
 3356SOL     OW10966   2.943   0.670   5.451
 3356SOL    HW110967   3.030   0.700   5.490
 3356SOL    HW210968   2.911   0.739   5.385
 3357SOL     OW10969   3.006   3.406   4.246
 3357SOL    HW110970   2.997   3.341   4.321
 3357SOL    HW210971   3.046   3.361   4.166
 3358SOL     OW10972   0.429   1.958   1.732
 3358SOL    HW110973   0.373   1.947   1.651
 3358SOL    HW210974   0.523   1.978   1.705
 3359SOL     OW10975   0.099   0.155   3.089
 3359SOL    HW110976   0.063   0.225   3.150
 3359SOL    HW210977   0.141   0.199   3.009
 3360SOL     OW10978   1.478   5.783   4.650
 3360SOL    HW110979   1.474   5.786   4.550
 3360SOL    HW210980   1.386   5.785   4.688
 3361SOL     OW10981   0.874   0.028   4.507
 3361SOL    HW110982   0.911   0.025   4.414
 3361SOL    HW210983   0.845   0.122   4.528
 3362SOL     OW10984   4.306   0.475   5.290
 3362SOL    HW110985   4.251   0.438   5.215
 3362SOL    HW210986   4.285   0.572   5.302
 3363SOL     OW10987   4.311   3.531   0.467
 3363SOL    HW110988   4.404   3.495   0.477
 3363SOL    HW210989   4.277   3.563   0.555
 3364SOL     OW10990   2.552   3.671   1.155
 3364SOL    HW110991   2.602   3.690   1.071
 3364SOL    HW210992   2.597   3.598   1.206
 3365SOL     OW10993   0.361   3.515   2.756
 3365SOL    HW110994   0.372   3.415   2.761
 3365SOL    HW210995   0.394   3.547   2.667
 3366SOL     OW10996   5.380   2.454   3.411
 3366SOL    HW110997   5.416   2.370   3.452
 3366SOL    HW210998   5.451   2.525   3.412
 3367SOL     OW10999   3.435   4.106   3.010
 3367SOL    HW111000   3.382   4.111   3.094
 3367SOL    HW211001   3.374   4.090   2.933
 3368SOL     OW11002   1.167   1.031   3.724
 3368SOL    HW111003   1.079   0.988   3.747
 3368SOL    HW211004   1.161   1.071   3.633
 3369SOL     OW11005   6.259   2.990   0.629
 3369SOL    HW111006   6.230   3.067   0.572
 3369SOL    HW211007   6.246   3.014   0.726
 3370SOL     OW11008   0.415   6.027   3.622
 3370SOL    HW111009   0.387   5.931   3.619
 3370SOL    HW211010   0.335   6.085   3.634
 3371SOL     OW11011   2.538   2.603   1.162
 3371SOL    HW111012   2.552   2.582   1.065
 3371SOL    HW211013   2.623   2.588   1.212
 3372SOL     OW11014   5.561   2.864   3.689
 3372SOL    HW111015   5.549   2.933   3.618
 3372SOL    HW211016   5.550   2.907   3.779
 3373SOL     OW11017   0.697   4.498   1.256
 3373SOL    HW111018   0.685   4.594   1.283
 3373SOL    HW211019   0.669   4.438   1.331
 3374SOL     OW11020   1.168   5.251   4.416
 3374SOL    HW111021   1.147   5.190   4.340
 3374SOL    HW211022   1.239   5.209   4.473
 3375SOL     OW11023   0.195   6.721   5.619
 3375SOL    HW111024   0.246   6.735   5.534
 3375SOL    HW211025   0.217   6.795   5.683
 3376SOL     OW11026   3.595   3.706   4.704
 3376SOL    HW111027   3.668   3.723   4.771
 3376SOL    HW211028   3.609   3.763   4.624
 3377SOL     OW11029   5.839   5.776   4.965
 3377SOL    HW111030   5.921   5.720   4.974
 3377SOL    HW211031   5.760   5.717   4.946
 3378SOL     OW11032   0.730   5.552   6.655
 3378SOL    HW111033   0.737   5.456   6.685
 3378SOL    HW211034   0.794   5.608   6.708
 3379SOL     OW11035   5.848   4.488   3.422
 3379SOL    HW111036   5.828   4.394   3.450
 3379SOL    HW211037   5.899   4.487   3.336
 3380SOL     OW11038   1.098   4.391   1.808
 3380SOL    HW111039   1.135   4.471   1.855
 3380SOL    HW211040   1.168   4.351   1.748
 3381SOL     OW11041   2.769   4.751   0.135
 3381SOL    HW111042   2.776   4.837   0.086
 3381SOL    HW211043   2.827   4.682   0.091
 3382SOL     OW11044   0.227   3.439   0.047
 3382SOL    HW111045   0.184   3.413   0.133
 3382SOL    HW211046   0.285   3.519   0.062
 3383SOL     OW11047   3.552   5.884   6.457
 3383SOL    HW111048   3.613   5.950   6.501
 3383SOL    HW211049   3.508   5.827   6.526
 3384SOL     OW11050   2.947   2.671   6.551
 3384SOL    HW111051   2.968   2.588   6.604
 3384SOL    HW211052   3.015   2.683   6.479
 3385SOL     OW11053   6.716   1.636   4.292
 3385SOL    HW111054   6.773   1.718   4.282
 3385SOL    HW211055   6.629   1.650   4.246
 3386SOL     OW11056   6.592   4.525   5.608
 3386SOL    HW111057   6.661   4.586   5.569
 3386SOL    HW211058   6.611   4.509   5.705
 3387SOL     OW11059   5.517   1.532   2.913
 3387SOL    HW111060   5.511   1.550   3.011
 3387SOL    HW211061   5.612   1.519   2.887
 3388SOL     OW11062   1.010   4.163   1.161
 3388SOL    HW111063   1.061   4.090   1.208
 3388SOL    HW211064   0.912   4.147   1.170
 3389SOL     OW11065   6.059   5.314   6.807
 3389SOL    HW111066   6.152   5.346   6.827
 3389SOL    HW211067   6.064   5.229   6.754
 3390SOL     OW11068   3.305   4.388   0.607
 3390SOL    HW111069   3.369   4.369   0.681
 3390SOL    HW211070   3.211   4.372   0.638
 3391SOL     OW11071   6.157   4.358   5.864
 3391SOL    HW111072   6.070   4.407   5.872
 3391SOL    HW211073   6.224   4.417   5.820
 3392SOL     OW11074   4.940   5.338   5.992
 3392SOL    HW111075   4.987   5.254   5.964
 3392SOL    HW211076   4.947   5.348   6.091
 3393SOL     OW11077   3.299   0.811   0.732
 3393SOL    HW111078   3.299   0.811   0.832
 3393SOL    HW211079   3.223   0.867   0.699
 3394SOL     OW11080   3.727   5.707   2.241
 3394SOL    HW111081   3.765   5.647   2.171
 3394SOL    HW211082   3.799   5.735   2.304
 3395SOL     OW11083   1.453   5.909   2.941
 3395SOL    HW111084   1.362   5.924   2.904
 3395SOL    HW211085   1.464   5.960   3.026
 3396SOL     OW11086   3.817   0.246   3.593
 3396SOL    HW111087   3.911   0.212   3.591
 3396SOL    HW211088   3.788   0.259   3.688
 3397SOL     OW11089   3.089   6.353   2.277
 3397SOL    HW111090   3.160   6.369   2.346
 3397SOL    HW211091   3.132   6.321   2.192
 3398SOL     OW11092   6.526   0.216   1.043
 3398SOL    HW111093   6.622   0.244   1.045
 3398SOL    HW211094   6.517   0.131   0.991
 3399SOL     OW11095   5.725   6.581   2.761
 3399SOL    HW111096   5.705   6.484   2.745
 3399SOL    HW211097   5.817   6.601   2.725
 3400SOL     OW11098   3.059   3.300   5.610
 3400SOL    HW111099   3.026   3.375   5.668
 3400SOL    HW211100   2.989   3.278   5.542
 3401SOL     OW11101   6.572   4.407   3.355
 3401SOL    HW111102   6.537   4.317   3.331
 3401SOL    HW211103   6.661   4.398   3.400
 3402SOL     OW11104   6.802   3.788   0.564
 3402SOL    HW111105   6.888   3.743   0.583
 3402SOL    HW211106   6.815   3.887   0.567
 3403SOL     OW11107   5.690   6.968   3.821
 3403SOL    HW111108   5.726   0.014   3.761
 3403SOL    HW211109   5.766   6.927   3.872
 3404SOL     OW11110   5.044   4.534   2.811
 3404SOL    HW111111   5.009   4.530   2.717
 3404SOL    HW211112   4.972   4.564   2.873
 3405SOL     OW11113   5.086   0.301   0.213
 3405SOL    HW111114   5.058   0.237   0.284
 3405SOL    HW211115   5.155   0.363   0.249
 3406SOL     OW11116   4.807   4.246   0.734
 3406SOL    HW111117   4.793   4.342   0.709
 3406SOL    HW211118   4.814   4.239   0.834
 3407SOL     OW11119   2.254   1.831   1.022
 3407SOL    HW111120   2.156   1.809   1.014
 3407SOL    HW211121   2.282   1.885   0.942
 3408SOL     OW11122   3.298   6.860   4.490
 3408SOL    HW111123   3.232   6.858   4.415
 3408SOL    HW211124   3.366   6.931   4.474
 3409SOL     OW11125   5.204   1.934   0.368
 3409SOL    HW111126   5.242   2.018   0.406
 3409SOL    HW211127   5.125   1.906   0.422
 3410SOL     OW11128   6.369   2.198   2.417
 3410SOL    HW111129   6.402   2.172   2.326
 3410SOL    HW211130   6.374   2.297   2.427
 3411SOL     OW11131   5.015   2.733   6.772
 3411SOL    HW111132   4.918   2.726   6.749
 3411SOL    HW211133   5.044   2.829   6.764
 3412SOL     OW11134   4.880   3.120   2.929
 3412SOL    HW111135   4.899   3.179   2.851
 3412SOL    HW211136   4.959   3.062   2.946
 3413SOL     OW11137   1.495   1.940   0.059
 3413SOL    HW111138   1.575   1.993   0.030
 3413SOL    HW211139   1.426   1.942   7.012
 3414SOL     OW11140   3.119   3.414   2.034
 3414SOL    HW111141   3.029   3.372   2.021
 3414SOL    HW211142   3.188   3.342   2.048
 3415SOL     OW11143   2.600   1.259   0.182
 3415SOL    HW111144   2.544   1.301   0.253
 3415SOL    HW211145   2.680   1.317   0.163
 3416SOL     OW11146   5.190   5.831   6.993
 3416SOL    HW111147   5.289   5.849   6.985
 3416SOL    HW211148   5.144   5.860   6.909
 3417SOL     OW11149   5.187   0.280   2.575
 3417SOL    HW111150   5.095   0.277   2.612
 3417SOL    HW211151   5.232   0.365   2.604
 3418SOL     OW11152   4.375   6.280   1.441
 3418SOL    HW111153   4.354   6.271   1.344
 3418SOL    HW211154   4.415   6.195   1.474
 3419SOL     OW11155   2.441   4.520   5.083
 3419SOL    HW111156   2.498   4.601   5.076
 3419SOL    HW211157   2.475   4.461   5.156
 3420SOL     OW11158   4.879   7.017   2.088
 3420SOL    HW111159   4.945   0.038   2.028
 3420SOL    HW211160   4.840   0.057   2.152
 3421SOL     OW11161   0.880   0.862   4.601
 3421SOL    HW111162   0.969   0.906   4.614
 3421SOL    HW211163   0.850   0.821   4.687
 3422SOL     OW11164   3.055   4.991   1.292
 3422SOL    HW111165   3.133   4.933   1.318
 3422SOL    HW211166   3.025   5.043   1.371
 3423SOL     OW11167   1.781   5.863   5.872
 3423SOL    HW111168   1.859   5.819   5.826
 3423SOL    HW211169   1.800   5.870   5.970
 3424SOL     OW11170   6.457   4.889   2.680
 3424SOL    HW111171   6.427   4.793   2.684
 3424SOL    HW211172   6.379   4.948   2.699
 3425SOL     OW11173   6.241   3.653   6.025
 3425SOL    HW111174   6.314   3.620   6.086
 3425SOL    HW211175   6.222   3.584   5.956
 3426SOL     OW11176   6.936   4.864   6.371
 3426SOL    HW111177   6.836   4.866   6.374
 3426SOL    HW211178   6.966   4.782   6.322
 3427SOL     OW11179   2.094   0.966   6.474
 3427SOL    HW111180   2.112   0.871   6.502
 3427SOL    HW211181   1.996   0.979   6.460
 3428SOL     OW11182   4.014   0.806   4.083
 3428SOL    HW111183   4.055   0.876   4.142
 3428SOL    HW211184   3.975   0.849   4.002
 3429SOL     OW11185   6.392   5.452   0.334
 3429SOL    HW111186   6.480   5.469   0.289
 3429SOL    HW211187   6.369   5.355   0.325
 3430SOL     OW11188   2.234   4.638   0.412
 3430SOL    HW111189   2.225   4.627   0.313
 3430SOL    HW211190   2.188   4.721   0.441
 3431SOL     OW11191   1.585   3.564   1.676
 3431SOL    HW111192   1.617   3.653   1.709
 3431SOL    HW211193   1.662   3.501   1.671
 3432SOL     OW11194   0.237   5.761   7.003
 3432SOL    HW111195   0.246   5.685   6.939
 3432SOL    HW211196   0.180   5.833   6.962
 3433SOL     OW11197   0.222   1.203   0.111
 3433SOL    HW111198   0.314   1.218   0.146
 3433SOL    HW211199   0.201   1.105   0.115
 3434SOL     OW11200   3.909   2.807   1.510
 3434SOL    HW111201   3.828   2.802   1.568
 3434SOL    HW211202   3.990   2.819   1.568
 3435SOL     OW11203   2.997   2.858   1.317
 3435SOL    HW111204   3.090   2.883   1.290
 3435SOL    HW211205   2.934   2.928   1.284
 3436SOL     OW11206   4.804   5.458   4.636
 3436SOL    HW111207   4.794   5.552   4.668
 3436SOL    HW211208   4.755   5.396   4.697
 3437SOL     OW11209   3.122   5.849   0.289
 3437SOL    HW111210   3.043   5.890   0.243
 3437SOL    HW211211   3.107   5.751   0.299
 3438SOL     OW11212   2.289   4.091   0.840
 3438SOL    HW111213   2.386   4.077   0.819
 3438SOL    HW211214   2.274   4.081   0.938
 3439SOL     OW11215   3.116   5.420   1.095
 3439SOL    HW111216   3.113   5.497   1.158
 3439SOL    HW211217   3.159   5.342   1.140
 3440SOL     OW11218   4.053   4.520   5.643
 3440SOL    HW111219   4.137   4.505   5.591
 3440SOL    HW211220   4.030   4.437   5.693
 3441SOL     OW11221   0.696   5.857   5.264
 3441SOL    HW111222   0.785   5.827   5.230
 3441SOL    HW211223   0.670   5.942   5.218
 3442SOL     OW11224   1.861   2.038   6.425
 3442SOL    HW111225   1.820   2.052   6.515
 3442SOL    HW211226   1.871   2.126   6.378
 3443SOL     OW11227   6.949   6.419   2.006
 3443SOL    HW111228   0.018   6.424   1.973
 3443SOL    HW211229   6.887   6.406   1.929
 3444SOL     OW11230   1.540   3.706   5.945
 3444SOL    HW111231   1.590   3.792   5.935
 3444SOL    HW211232   1.537   3.660   5.856
 3445SOL     OW11233   6.164   4.129   3.279
 3445SOL    HW111234   6.119   4.204   3.232
 3445SOL    HW211235   6.108   4.047   3.274
 3446SOL     OW11236   5.872   1.219   6.840
 3446SOL    HW111237   5.839   1.313   6.844
 3446SOL    HW211238   5.885   1.192   6.745
 3447SOL     OW11239   5.326   1.602   6.567
 3447SOL    HW111240   5.306   1.631   6.474
 3447SOL    HW211241   5.266   1.527   6.593
 3448SOL     OW11242   1.076   5.514   4.578
 3448SOL    HW111243   0.991   5.493   4.628
 3448SOL    HW211244   1.105   5.433   4.527
 3449SOL     OW11245   0.971   4.271   4.431
 3449SOL    HW111246   0.882   4.227   4.435
 3449SOL    HW211247   1.010   4.259   4.340
 3450SOL     OW11248   2.523   6.760   3.381
 3450SOL    HW111249   2.502   6.675   3.332
 3450SOL    HW211250   2.452   6.828   3.362
 3451SOL     OW11251   2.249   1.835   1.321
 3451SOL    HW111252   2.264   1.924   1.365
 3451SOL    HW211253   2.281   1.839   1.227
 3452SOL     OW11254   4.964   0.724   4.969
 3452SOL    HW111255   4.887   0.705   4.909
 3452SOL    HW211256   4.986   0.822   4.965
 3453SOL     OW11257   4.620   6.330   5.987
 3453SOL    HW111258   4.641   6.422   6.019
 3453SOL    HW211259   4.639   6.324   5.889
 3454SOL     OW11260   1.750   3.360   3.805
 3454SOL    HW111261   1.711   3.280   3.850
 3454SOL    HW211262   1.840   3.379   3.844
 3455SOL     OW11263   2.081   3.841   5.879
 3455SOL    HW111264   2.170   3.885   5.892
 3455SOL    HW211265   2.081   3.790   5.793
 3456SOL     OW11266   4.906   4.963   2.805
 3456SOL    HW111267   4.920   4.961   2.904
 3456SOL    HW211268   4.954   5.041   2.766
 3457SOL     OW11269   4.429   4.458   0.351
 3457SOL    HW111270   4.374   4.415   0.280
 3457SOL    HW211271   4.516   4.410   0.360
 3458SOL     OW11272   4.315   1.858   1.161
 3458SOL    HW111273   4.311   1.848   1.062
 3458SOL    HW211274   4.348   1.949   1.185
 3459SOL     OW11275   6.063   1.424   2.393
 3459SOL    HW111276   5.987   1.453   2.334
 3459SOL    HW211277   6.094   1.333   2.365
 3460SOL     OW11278   5.212   1.682   5.183
 3460SOL    HW111279   5.184   1.760   5.239
 3460SOL    HW211280   5.282   1.711   5.117
 3461SOL     OW11281   5.212   4.414   5.281
 3461SOL    HW111282   5.300   4.375   5.254
 3461SOL    HW211283   5.138   4.358   5.244
 3462SOL     OW11284   1.049   3.454   6.795
 3462SOL    HW111285   1.011   3.403   6.718
 3462SOL    HW211286   1.034   3.552   6.780
 3463SOL     OW11287   6.201   3.531   6.878
 3463SOL    HW111288   6.291   3.576   6.886
 3463SOL    HW211289   6.135   3.595   6.839
 3464SOL     OW11290   0.962   4.704   4.818
 3464SOL    HW111291   0.998   4.714   4.726
 3464SOL    HW211292   0.892   4.633   4.820
 3465SOL     OW11293   0.966   2.658   0.498
 3465SOL    HW111294   1.003   2.745   0.467
 3465SOL    HW211295   0.883   2.674   0.552
 3466SOL     OW11296   4.865   3.525   3.206
 3466SOL    HW111297   4.773   3.508   3.240
 3466SOL    HW211298   4.932   3.483   3.267
 3467SOL     OW11299   1.835   1.080   6.395
 3467SOL    HW111300   1.819   1.157   6.457
 3467SOL    HW211301   1.882   1.112   6.313
 3468SOL     OW11302   5.673   4.954   1.801
 3468SOL    HW111303   5.695   5.024   1.732
 3468SOL    HW211304   5.728   4.969   1.883
 3469SOL     OW11305   5.815   3.098   1.185
 3469SOL    HW111306   5.746   3.045   1.135
 3469SOL    HW211307   5.800   3.196   1.169
 3470SOL     OW11308   6.000   5.774   6.303
 3470SOL    HW111309   6.022   5.755   6.399
 3470SOL    HW211310   5.902   5.793   6.295
 3471SOL     OW11311   4.046   6.824   4.402
 3471SOL    HW111312   3.989   6.906   4.410
 3471SOL    HW211313   4.011   6.765   4.330
 3472SOL     OW11314   3.556   0.784   4.076
 3472SOL    HW111315   3.573   0.791   3.978
 3472SOL    HW211316   3.506   0.700   4.096
 3473SOL     OW11317   4.280   0.084   3.339
 3473SOL    HW111318   4.275   0.184   3.332
 3473SOL    HW211319   4.369   0.057   3.376
 3474SOL     OW11320   6.365   5.454   1.460
 3474SOL    HW111321   6.414   5.367   1.456
 3474SOL    HW211322   6.288   5.453   1.397
 3475SOL     OW11323   2.458   5.965   4.993
 3475SOL    HW111324   2.378   5.963   5.052
 3475SOL    HW211325   2.438   6.022   4.913
 3476SOL     OW11326   1.854   2.217   2.892
 3476SOL    HW111327   1.803   2.171   2.965
 3476SOL    HW211328   1.793   2.279   2.843
 3477SOL     OW11329   5.090   5.440   2.131
 3477SOL    HW111330   4.999   5.448   2.171
 3477SOL    HW211331   5.129   5.351   2.155
 3478SOL     OW11332   3.855   4.655   6.876
 3478SOL    HW111333   3.823   4.713   6.800
 3478SOL    HW211334   3.902   4.712   6.943
 3479SOL     OW11335   1.782   1.461   0.296
 3479SOL    HW111336   1.812   1.445   0.390
 3479SOL    HW211337   1.758   1.558   0.285
 3480SOL     OW11338   2.423   0.083   5.509
 3480SOL    HW111339   2.508   0.041   5.540
 3480SOL    HW211340   2.442   0.149   5.436
 3481SOL     OW11341   1.505   4.314   0.029
 3481SOL    HW111342   1.590   4.311   0.081
 3481SOL    HW211343   1.461   4.403   0.042
 3482SOL     OW11344   0.384   1.854   0.961
 3482SOL    HW111345   0.307   1.914   0.983
 3482SOL    HW211346   0.461   1.876   1.020
 3483SOL     OW11347   3.857   1.516   1.759
 3483SOL    HW111348   3.766   1.477   1.772
 3483SOL    HW211349   3.925   1.456   1.800
 3484SOL     OW11350   3.630   4.136   4.703
 3484SOL    HW111351   3.613   4.234   4.715
 3484SOL    HW211352   3.543   4.087   4.699
 3485SOL     OW11353   6.259   3.574   3.818
 3485SOL    HW111354   6.304   3.658   3.786
 3485SOL    HW211355   6.176   3.598   3.868
 3486SOL     OW11356   6.096   2.103   2.494
 3486SOL    HW111357   6.181   2.121   2.445
 3486SOL    HW211358   6.064   2.186   2.539
 3487SOL     OW11359   1.653   6.132   2.125
 3487SOL    HW111360   1.583   6.061   2.115
 3487SOL    HW211361   1.669   6.150   2.222
 3488SOL     OW11362   0.031   3.172   4.786
 3488SOL    HW111363   6.980   3.132   4.836
 3488SOL    HW211364   0.085   3.100   4.743
 3489SOL     OW11365   1.804   5.835   6.622
 3489SOL    HW111366   1.866   5.911   6.643
 3489SOL    HW211367   1.756   5.807   6.705
 3490SOL     OW11368   4.861   2.918   0.164
 3490SOL    HW111369   4.873   2.845   0.232
 3490SOL    HW211370   4.824   2.880   0.080
 3491SOL     OW11371   6.172   2.583   5.705
 3491SOL    HW111372   6.118   2.614   5.784
 3491SOL    HW211373   6.117   2.522   5.649
 3492SOL     OW11374   1.597   4.055   6.608
 3492SOL    HW111375   1.512   4.065   6.661
 3492SOL    HW211376   1.626   4.144   6.573
 3493SOL     OW11377   0.344   4.995   1.313
 3493SOL    HW111378   0.260   4.999   1.260
 3493SOL    HW211379   0.358   4.902   1.348
 3494SOL     OW11380   3.327   6.591   1.147
 3494SOL    HW111381   3.336   6.669   1.209
 3494SOL    HW211382   3.231   6.575   1.128
 3495SOL     OW11383   5.602   4.474   5.963
 3495SOL    HW111384   5.511   4.455   5.926
 3495SOL    HW211385   5.634   4.562   5.930
 3496SOL     OW11386   0.708   6.160   1.657
 3496SOL    HW111387   0.654   6.151   1.573
 3496SOL    HW211388   0.784   6.223   1.641
 3497SOL     OW11389   2.873   0.604   4.547
 3497SOL    HW111390   2.842   0.644   4.633
 3497SOL    HW211391   2.820   0.521   4.529
 3498SOL     OW11392   1.576   1.841   0.627
 3498SOL    HW111393   1.583   1.926   0.575
 3498SOL    HW211394   1.483   1.830   0.662
 3499SOL     OW11395   0.127   4.468   3.224
 3499SOL    HW111396   0.192   4.391   3.227
 3499SOL    HW211397   0.139   4.518   3.139
 3500SOL     OW11398   6.611   2.576   0.418
 3500SOL    HW111399   6.672   2.655   0.418
 3500SOL    HW211400   6.645   2.507   0.353
 3501SOL     OW11401   0.080   5.126   3.154
 3501SOL    HW111402   7.018   5.105   3.198
 3501SOL    HW211403   0.089   5.070   3.071
 3502SOL     OW11404   0.711   6.663   1.678
 3502SOL    HW111405   0.752   6.626   1.595
 3502SOL    HW211406   0.636   6.604   1.707
 3503SOL     OW11407   2.835   0.551   3.202
 3503SOL    HW111408   2.790   0.640   3.191
 3503SOL    HW211409   2.850   0.534   3.299
 3504SOL     OW11410   1.717   2.153   2.099
 3504SOL    HW111411   1.631   2.203   2.085
 3504SOL    HW211412   1.755   2.128   2.010
 3505SOL     OW11413   4.046   0.392   3.840
 3505SOL    HW111414   4.065   0.477   3.887
 3505SOL    HW211415   4.071   0.400   3.744
 3506SOL     OW11416   6.181   3.545   3.300
 3506SOL    HW111417   6.236   3.577   3.377
 3506SOL    HW211418   6.241   3.526   3.223
 3507SOL     OW11419   0.094   6.680   5.077
 3507SOL    HW111420   0.056   6.657   5.166
 3507SOL    HW211421   0.032   6.743   5.029
 3508SOL     OW11422   0.729   4.305   0.602
 3508SOL    HW111423   0.828   4.309   0.615
 3508SOL    HW211424   0.707   4.252   0.520
 3509SOL     OW11425   3.746   0.369   0.071
 3509SOL    HW111426   3.833   0.333   0.107
 3509SOL    HW211427   3.686   0.391   0.147
 3510SOL     OW11428   2.654   1.941   2.905
 3510SOL    HW111429   2.566   1.899   2.883
 3510SOL    HW211430   2.715   1.934   2.827
 3511SOL     OW11431   0.674   1.154   3.454
 3511SOL    HW111432   0.737   1.158   3.376
 3511SOL    HW211433   0.682   1.065   3.499
 3512SOL     OW11434   2.983   3.106   2.080
 3512SOL    HW111435   2.975   3.151   2.169
 3512SOL    HW211436   3.054   3.035   2.085
 3513SOL     OW11437   6.623   5.211   6.712
 3513SOL    HW111438   6.645   5.125   6.667
 3513SOL    HW211439   6.524   5.217   6.727
 3514SOL     OW11440   2.633   5.328   3.872
 3514SOL    HW111441   2.631   5.228   3.868
 3514SOL    HW211442   2.610   5.366   3.782
 3515SOL     OW11443   3.870   5.406   4.095
 3515SOL    HW111444   3.821   5.322   4.073
 3515SOL    HW211445   3.913   5.442   4.012
 3516SOL     OW11446   1.734   1.435   6.935
 3516SOL    HW111447   1.672   1.357   6.944
 3516SOL    HW211448   1.681   1.519   6.925
 3517SOL     OW11449   0.740   1.380   6.178
 3517SOL    HW111450   0.793   1.441   6.237
 3517SOL    HW211451   0.754   1.406   6.082
 3518SOL     OW11452   4.850   3.576   5.910
 3518SOL    HW111453   4.754   3.569   5.936
 3518SOL    HW211454   4.883   3.668   5.929
 3519SOL     OW11455   3.926   0.431   6.264
 3519SOL    HW111456   3.926   0.486   6.348
 3519SOL    HW211457   3.837   0.439   6.219
 3520SOL     OW11458   4.027   4.772   1.550
 3520SOL    HW111459   4.077   4.764   1.636
 3520SOL    HW211460   3.935   4.733   1.561
 3521SOL     OW11461   0.018   1.733   4.998
 3521SOL    HW111462   7.022   1.698   4.907
 3521SOL    HW211463   0.115   1.758   5.002
 3522SOL     OW11464   2.421   0.274   0.656
 3522SOL    HW111465   2.509   0.307   0.622
 3522SOL    HW211466   2.372   0.348   0.702
 3523SOL     OW11467   2.291   4.224   4.523
 3523SOL    HW111468   2.274   4.189   4.615
 3523SOL    HW211469   2.351   4.304   4.528
 3524SOL     OW11470   2.878   1.325   3.041
 3524SOL    HW111471   2.852   1.381   2.963
 3524SOL    HW211472   2.911   1.383   3.115
 3525SOL     OW11473   1.851   3.116   3.568
 3525SOL    HW111474   1.836   3.062   3.650
 3525SOL    HW211475   1.903   3.198   3.591
 3526SOL     OW11476   4.141   6.495   3.910
 3526SOL    HW111477   4.072   6.424   3.895
 3526SOL    HW211478   4.232   6.454   3.909
 3527SOL     OW11479   6.720   4.086   0.339
 3527SOL    HW111480   6.717   4.077   0.239
 3527SOL    HW211481   6.672   4.010   0.381
 3528SOL     OW11482   1.258   6.595   3.858
 3528SOL    HW111483   1.215   6.510   3.891
 3528SOL    HW211484   1.330   6.623   3.920
 3529SOL     OW11485   3.955   0.955   0.204
 3529SOL    HW111486   3.966   0.866   0.249
 3529SOL    HW211487   3.888   1.010   0.254
 3530SOL     OW11488   2.074   5.885   2.362
 3530SOL    HW111489   2.001   5.819   2.340
 3530SOL    HW211490   2.109   5.924   2.277
 3531SOL     OW11491   5.519   4.288   6.697
 3531SOL    HW111492   5.541   4.248   6.786
 3531SOL    HW211493   5.506   4.387   6.707
 3532SOL     OW11494   2.248   0.467   6.408
 3532SOL    HW111495   2.218   0.387   6.461
 3532SOL    HW211496   2.222   0.455   6.312
 3533SOL     OW11497   1.286   1.033   2.367
 3533SOL    HW111498   1.366   1.091   2.353
 3533SOL    HW211499   1.203   1.082   2.340
 3534SOL     OW11500   4.921   6.859   4.698
 3534SOL    HW111501   5.018   6.855   4.672
 3534SOL    HW211502   4.877   6.933   4.647
 3535SOL     OW11503   3.415   4.224   6.965
 3535SOL    HW111504   3.363   4.169   6.900
 3535SOL    HW211505   3.369   4.312   6.979
 3536SOL     OW11506   2.126   2.800   2.326
 3536SOL    HW111507   2.042   2.761   2.364
 3536SOL    HW211508   2.135   2.770   2.231
 3537SOL     OW11509   3.468   5.107   1.611
 3537SOL    HW111510   3.408   5.114   1.532
 3537SOL    HW211511   3.472   5.012   1.642
 3538SOL     OW11512   3.026   0.244   4.262
 3538SOL    HW111513   2.952   0.208   4.318
 3538SOL    HW211514   2.997   0.249   4.167
 3539SOL     OW11515   5.270   5.131   6.089
 3539SOL    HW111516   5.311   5.200   6.149
 3539SOL    HW211517   5.330   5.051   6.085
 3540SOL     OW11518   5.506   3.644   6.822
 3540SOL    HW111519   5.452   3.726   6.837
 3540SOL    HW211520   5.471   3.594   6.743
 3541SOL     OW11521   0.198   3.018   2.482
 3541SOL    HW111522   0.207   3.068   2.396
 3541SOL    HW211523   0.113   2.965   2.481
 3542SOL     OW11524   5.834   0.672   6.935
 3542SOL    HW111525   5.769   0.652   6.863
 3542SOL    HW211526   5.917   0.711   6.896
 3543SOL     OW11527   0.235   3.371   5.330
 3543SOL    HW111528   0.292   3.380   5.411
 3543SOL    HW211529   0.159   3.309   5.350
 3544SOL     OW11530   4.311   4.990   5.994
 3544SOL    HW111531   4.355   5.055   5.931
 3544SOL    HW211532   4.291   4.905   5.945
 3545SOL     OW11533   2.272   6.521   1.883
 3545SOL    HW111534   2.229   6.446   1.933
 3545SOL    HW211535   2.257   6.607   1.931
 3546SOL     OW11536   6.452   3.619   1.572
 3546SOL    HW111537   6.366   3.644   1.617
 3546SOL    HW211538   6.519   3.591   1.640
 3547SOL     OW11539   2.231   4.034   4.292
 3547SOL    HW111540   2.305   4.090   4.330
 3547SOL    HW211541   2.252   3.937   4.308
 3548SOL     OW11542   6.614   6.372   5.588
 3548SOL    HW111543   6.659   6.354   5.675
 3548SOL    HW211544   6.532   6.315   5.581
 3549SOL     OW11545   0.904   6.846   0.202
 3549SOL    HW111546   0.837   6.837   0.277
 3549SOL    HW211547   0.956   6.930   0.214
 3550SOL     OW11548   6.736   3.001   4.681
 3550SOL    HW111549   6.813   2.948   4.644
 3550SOL    HW211550   6.650   2.959   4.653
 3551SOL     OW11551   5.790   1.874   5.147
 3551SOL    HW111552   5.814   1.926   5.065
 3551SOL    HW211553   5.839   1.787   5.147
 3552SOL     OW11554   6.596   1.220   4.512
 3552SOL    HW111555   6.636   1.132   4.487
 3552SOL    HW211556   6.516   1.238   4.456
 3553SOL     OW11557   5.344   5.784   6.341
 3553SOL    HW111558   5.417   5.738   6.392
 3553SOL    HW211559   5.310   5.722   6.270
 3554SOL     OW11560   5.530   3.233   0.646
 3554SOL    HW111561   5.597   3.303   0.669
 3554SOL    HW211562   5.576   3.144   0.636
 3555SOL     OW11563   3.140   1.323   4.799
 3555SOL    HW111564   3.091   1.242   4.767
 3555SOL    HW211565   3.108   1.348   4.891
 3556SOL     OW11566   4.999   1.635   0.487
 3556SOL    HW111567   4.960   1.568   0.424
 3556SOL    HW211568   4.957   1.724   0.471
 3557SOL     OW11569   4.879   0.134   0.953
 3557SOL    HW111570   4.814   0.104   1.022
 3557SOL    HW211571   4.965   0.083   0.964
 3558SOL     OW11572   4.715   5.834   3.944
 3558SOL    HW111573   4.616   5.833   3.933
 3558SOL    HW211574   4.758   5.812   3.856
 3559SOL     OW11575   3.914   6.759   6.987
 3559SOL    HW111576   3.875   6.851   6.986
 3559SOL    HW211577   3.939   6.733   6.894
 3560SOL     OW11578   2.152   5.596   4.573
 3560SOL    HW111579   2.115   5.638   4.656
 3560SOL    HW211580   2.218   5.658   4.531
 3561SOL     OW11581   4.720   2.962   6.820
 3561SOL    HW111582   4.795   3.021   6.846
 3561SOL    HW211583   4.722   2.878   6.875
 3562SOL     OW11584   3.087   0.967   0.663
 3562SOL    HW111585   3.014   1.010   0.717
 3562SOL    HW211586   3.053   0.883   0.623
 3563SOL     OW11587   5.926   2.778   6.882
 3563SOL    HW111588   5.866   2.711   6.926
 3563SOL    HW211589   5.873   2.858   6.855
 3564SOL     OW11590   5.787   2.753   3.333
 3564SOL    HW111591   5.881   2.781   3.317
 3564SOL    HW211592   5.724   2.823   3.298
 3565SOL     OW11593   5.251   6.377   4.832
 3565SOL    HW111594   5.162   6.414   4.859
 3565SOL    HW211595   5.316   6.388   4.908
 3566SOL     OW11596   1.045   0.820   4.340
 3566SOL    HW111597   1.021   0.858   4.250
 3566SOL    HW211598   1.062   0.894   4.404
 3567SOL     OW11599   1.394   3.990   0.260
 3567SOL    HW111600   1.322   3.920   0.257
 3567SOL    HW211601   1.406   4.021   0.355
 3568SOL     OW11602   1.658   3.018   6.042
 3568SOL    HW111603   1.609   3.070   5.972
 3568SOL    HW211604   1.756   3.019   6.021
 3569SOL     OW11605   0.701   0.142   3.686
 3569SOL    HW111606   0.714   0.077   3.761
 3569SOL    HW211607   0.787   0.150   3.635
 3570SOL     OW11608   6.972   2.400   4.866
 3570SOL    HW111609   6.886   2.351   4.874
 3570SOL    HW211610   6.971   2.480   4.926
 3571SOL     OW11611   0.468   5.184   4.942
 3571SOL    HW111612   0.504   5.256   4.881
 3571SOL    HW211613   0.439   5.106   4.887
 3572SOL     OW11614   5.537   6.990   5.486
 3572SOL    HW111615   5.533   7.022   5.391
 3572SOL    HW211616   5.612   6.926   5.497
 3573SOL     OW11617   0.040   3.026   1.745
 3573SOL    HW111618   0.035   3.008   1.843
 3573SOL    HW211619   6.979   2.999   1.702
 3574SOL     OW11620   0.894   3.423   0.537
 3574SOL    HW111621   0.952   3.475   0.599
 3574SOL    HW211622   0.807   3.470   0.525
 3575SOL     OW11623   6.307   0.625   2.689
 3575SOL    HW111624   6.333   0.566   2.612
 3575SOL    HW211625   6.208   0.621   2.702
 3576SOL     OW11626   0.234   0.889   1.063
 3576SOL    HW111627   0.232   0.873   1.161
 3576SOL    HW211628   0.187   0.974   1.042
 3577SOL     OW11629   1.832   4.425   1.118
 3577SOL    HW111630   1.776   4.506   1.138
 3577SOL    HW211631   1.866   4.430   1.024
 3578SOL     OW11632   3.338   5.370   1.289
 3578SOL    HW111633   3.430   5.408   1.287
 3578SOL    HW211634   3.285   5.414   1.362
 3579SOL     OW11635   2.229   2.784   6.902
 3579SOL    HW111636   2.240   2.753   6.997
 3579SOL    HW211637   2.139   2.824   6.890
 3580SOL     OW11638   6.306   1.152   2.625
 3580SOL    HW111639   6.263   1.211   2.556
 3580SOL    HW211640   6.338   1.068   2.581
 3581SOL     OW11641   6.845   1.714   2.976
 3581SOL    HW111642   6.859   1.794   3.035
 3581SOL    HW211643   6.870   1.736   2.882
 3582SOL     OW11644   0.612   1.000   5.980
 3582SOL    HW111645   0.655   0.986   6.070
 3582SOL    HW211646   0.558   0.920   5.957
 3583SOL     OW11647   0.471   6.695   2.819
 3583SOL    HW111648   0.569   6.679   2.829
 3583SOL    HW211649   0.456   6.775   2.761
 3584SOL     OW11650   5.637   7.006   4.295
 3584SOL    HW111651   5.547   6.981   4.260
 3584SOL    HW211652   5.654   0.078   4.277
 3585SOL     OW11653   1.847   5.083   2.373
 3585SOL    HW111654   1.811   5.001   2.417
 3585SOL    HW211655   1.947   5.076   2.366
 3586SOL     OW11656   1.479   0.848   6.533
 3586SOL    HW111657   1.543   0.853   6.456
 3586SOL    HW211658   1.405   0.785   6.512
 3587SOL     OW11659   3.527   5.933   5.623
 3587SOL    HW111660   3.555   6.026   5.648
 3587SOL    HW211661   3.537   5.922   5.524
 3588SOL     OW11662   2.741   2.260   5.514
 3588SOL    HW111663   2.700   2.308   5.592
 3588SOL    HW211664   2.794   2.325   5.459
 3589SOL     OW11665   3.292   5.937   4.553
 3589SOL    HW111666   3.271   5.910   4.647
 3589SOL    HW211667   3.210   5.971   4.508
 3590SOL     OW11668   1.139   6.970   6.843
 3590SOL    HW111669   1.155   6.883   6.889
 3590SOL    HW211670   1.159   0.020   6.906
 3591SOL     OW11671   4.967   2.189   4.827
 3591SOL    HW111672   5.014   2.103   4.850
 3591SOL    HW211673   4.953   2.193   4.728
 3592SOL     OW11674   5.884   1.115   1.295
 3592SOL    HW111675   5.914   1.020   1.294
 3592SOL    HW211676   5.882   1.150   1.201
 3593SOL     OW11677   1.272   5.127   4.959
 3593SOL    HW111678   1.228   5.149   4.871
 3593SOL    HW211679   1.223   5.173   5.033
 3594SOL     OW11680   4.779   1.303   4.247
 3594SOL    HW111681   4.777   1.400   4.271
 3594SOL    HW211682   4.784   1.294   4.148
 3595SOL     OW11683   1.937   6.556   6.789
 3595SOL    HW111684   2.016   6.504   6.820
 3595SOL    HW211685   1.967   6.638   6.741
 3596SOL     OW11686   6.333   3.196   2.882
 3596SOL    HW111687   6.386   3.272   2.844
 3596SOL    HW211688   6.281   3.152   2.809
 3597SOL     OW11689   4.682   0.583   3.278
 3597SOL    HW111690   4.706   0.504   3.335
 3597SOL    HW211691   4.694   0.559   3.181
 3598SOL     OW11692   2.258   0.176   0.884
 3598SOL    HW111693   2.338   0.154   0.940
 3598SOL    HW211694   2.287   0.200   0.792
 3599SOL     OW11695   0.248   2.299   4.487
 3599SOL    HW111696   0.283   2.206   4.502
 3599SOL    HW211697   0.155   2.305   4.523
 3600SOL     OW11698   6.425   6.195   1.336
 3600SOL    HW111699   6.478   6.116   1.304
 3600SOL    HW211700   6.441   6.208   1.434
 3601SOL     OW11701   0.574   4.243   6.424
 3601SOL    HW111702   0.638   4.171   6.397
 3601SOL    HW211703   0.556   4.302   6.345
 3602SOL     OW11704   4.017   2.233   0.893
 3602SOL    HW111705   4.057   2.179   0.968
 3602SOL    HW211706   3.941   2.286   0.929
 3603SOL     OW11707   3.311   5.164   5.161
 3603SOL    HW111708   3.212   5.177   5.161
 3603SOL    HW211709   3.332   5.066   5.162
 3604SOL     OW11710   5.432   4.547   3.561
 3604SOL    HW111711   5.467   4.615   3.495
 3604SOL    HW211712   5.509   4.493   3.595
 3605SOL     OW11713   5.562   1.319   6.402
 3605SOL    HW111714   5.585   1.226   6.372
 3605SOL    HW211715   5.628   1.384   6.364
 3606SOL     OW11716   1.645   4.107   2.223
 3606SOL    HW111717   1.728   4.100   2.279
 3606SOL    HW211718   1.664   4.164   2.143
 3607SOL     OW11719   4.371   6.445   4.858
 3607SOL    HW111720   4.367   6.495   4.945
 3607SOL    HW211721   4.286   6.394   4.845
 3608SOL     OW11722   0.289   2.911   2.735
 3608SOL    HW111723   0.232   2.829   2.729
 3608SOL    HW211724   0.293   2.955   2.645
 3609SOL     OW11725   1.511   1.322   4.288
 3609SOL    HW111726   1.453   1.317   4.207
 3609SOL    HW211727   1.488   1.403   4.341
 3610SOL     OW11728   1.454   4.508   5.505
 3610SOL    HW111729   1.500   4.450   5.572
 3610SOL    HW211730   1.514   4.584   5.479
 3611SOL     OW11731   4.396   4.675   0.474
 3611SOL    HW111732   4.427   4.753   0.419
 3611SOL    HW211733   4.407   4.591   0.421
 3612SOL     OW11734   3.121   5.556   1.893
 3612SOL    HW111735   3.074   5.511   1.817
 3612SOL    HW211736   3.206   5.597   1.860
 3613SOL     OW11737   5.072   4.082   6.571
 3613SOL    HW111738   5.048   4.060   6.666
 3613SOL    HW211739   5.031   4.169   6.546
 3614SOL     OW11740   3.761   3.100   5.592
 3614SOL    HW111741   3.822   3.022   5.576
 3614SOL    HW211742   3.720   3.092   5.683
 3615SOL     OW11743   6.241   6.682   6.725
 3615SOL    HW111744   6.335   6.648   6.725
 3615SOL    HW211745   6.181   6.611   6.763
 3616SOL     OW11746   0.382   1.507   4.120
 3616SOL    HW111747   0.341   1.490   4.210
 3616SOL    HW211748   0.467   1.454   4.112
 3617SOL     OW11749   0.190   0.800   1.337
 3617SOL    HW111750   0.183   0.868   1.410
 3617SOL    HW211751   0.272   0.745   1.350
 3618SOL     OW11752   3.270   5.626   5.986
 3618SOL    HW111753   3.219   5.710   5.967
 3618SOL    HW211754   3.248   5.594   6.079
 3619SOL     OW11755   4.858   3.419   3.798
 3619SOL    HW111756   4.925   3.391   3.729
 3619SOL    HW211757   4.766   3.394   3.766
 3620SOL     OW11758   5.604   2.168   5.952
 3620SOL    HW111759   5.550   2.240   5.995
 3620SOL    HW211760   5.544   2.092   5.925
 3621SOL     OW11761   2.641   2.684   6.848
 3621SOL    HW111762   2.598   2.612   6.902
 3621SOL    HW211763   2.736   2.660   6.829
 3622SOL     OW11764   1.299   3.218   0.939
 3622SOL    HW111765   1.259   3.159   0.869
 3622SOL    HW211766   1.316   3.164   1.022
 3623SOL     OW11767   5.845   5.075   4.595
 3623SOL    HW111768   5.865   5.005   4.664
 3623SOL    HW211769   5.747   5.080   4.580
 3624SOL     OW11770   1.877   6.973   1.697
 3624SOL    HW111771   1.803   0.003   1.736
 3624SOL    HW211772   1.937   0.006   1.643
 3625SOL     OW11773   1.670   2.435   4.818
 3625SOL    HW111774   1.748   2.438   4.881
 3625SOL    HW211775   1.588   2.410   4.869
 3626SOL     OW11776   2.167   2.848   5.212
 3626SOL    HW111777   2.088   2.894   5.252
 3626SOL    HW211778   2.233   2.916   5.180
 3627SOL     OW11779   3.998   3.172   4.452
 3627SOL    HW111780   4.028   3.101   4.388
 3627SOL    HW211781   3.898   3.182   4.444
 3628SOL     OW11782   2.871   5.092   3.963
 3628SOL    HW111783   2.873   5.160   4.037
 3628SOL    HW211784   2.781   5.093   3.920
 3629SOL     OW11785   6.220   4.304   4.588
 3629SOL    HW111786   6.220   4.220   4.643
 3629SOL    HW211787   6.251   4.381   4.644
 3630SOL     OW11788   6.592   2.147   4.495
 3630SOL    HW111789   6.559   2.191   4.579
 3630SOL    HW211790   6.568   2.050   4.497
 3631SOL     OW11791   2.442   1.082   4.990
 3631SOL    HW111792   2.394   1.002   4.954
 3631SOL    HW211793   2.498   1.123   4.918
 3632SOL     OW11794   5.316   6.820   6.424
 3632SOL    HW111795   5.224   6.795   6.456
 3632SOL    HW211796   5.376   6.740   6.430
 3633SOL     OW11797   0.848   2.918   5.913
 3633SOL    HW111798   0.809   3.004   5.946
 3633SOL    HW211799   0.901   2.936   5.830
 3634SOL     OW11800   2.381   4.501   6.501
 3634SOL    HW111801   2.354   4.577   6.560
 3634SOL    HW211802   2.314   4.426   6.510
 3635SOL     OW11803   1.350   2.066   3.771
 3635SOL    HW111804   1.339   2.157   3.809
 3635SOL    HW211805   1.264   2.036   3.730
 3636SOL     OW11806   1.309   6.721   0.987
 3636SOL    HW111807   1.319   6.780   1.067
 3636SOL    HW211808   1.248   6.645   1.008
 3637SOL     OW11809   5.846   1.531   2.267
 3637SOL    HW111810   5.899   1.599   2.216
 3637SOL    HW211811   5.758   1.570   2.294
 3638SOL     OW11812   6.720   5.299   3.034
 3638SOL    HW111813   6.689   5.228   2.971
 3638SOL    HW211814   6.797   5.265   3.088
 3639SOL     OW11815   2.402   5.728   6.531
 3639SOL    HW111816   2.334   5.788   6.573
 3639SOL    HW211817   2.364   5.636   6.523
 3640SOL     OW11818   2.679   6.933   3.538
 3640SOL    HW111819   2.620   6.874   3.482
 3640SOL    HW211820   2.772   6.897   3.537
 3641SOL     OW11821   2.694   0.049   5.417
 3641SOL    HW111822   2.793   0.035   5.409
 3641SOL    HW211823   2.675   0.145   5.434
 3642SOL     OW11824   5.784   1.209   2.814
 3642SOL    HW111825   5.725   1.198   2.734
 3642SOL    HW211826   5.879   1.191   2.787
 3643SOL     OW11827   3.628   6.347   3.431
 3643SOL    HW111828   3.581   6.295   3.502
 3643SOL    HW211829   3.675   6.284   3.369
 3644SOL     OW11830   5.828   0.717   1.247
 3644SOL    HW111831   5.790   0.631   1.281
 3644SOL    HW211832   5.753   0.780   1.226
 3645SOL     OW11833   4.983   5.508   3.870
 3645SOL    HW111834   4.938   5.541   3.953
 3645SOL    HW211835   5.078   5.486   3.891
 3646SOL     OW11836   0.120   5.969   4.928
 3646SOL    HW111837   0.160   5.925   5.009
 3646SOL    HW211838   0.025   5.940   4.918
 3647SOL     OW11839   3.706   2.448   0.412
 3647SOL    HW111840   3.750   2.504   0.343
 3647SOL    HW211841   3.776   2.403   0.468
 3648SOL     OW11842   2.520   6.099   4.142
 3648SOL    HW111843   2.575   6.095   4.225
 3648SOL    HW211844   2.576   6.132   4.066
 3649SOL     OW11845   3.161   3.133   3.351
 3649SOL    HW111846   3.234   3.116   3.285
 3649SOL    HW211847   3.183   3.215   3.405
 3650SOL     OW11848   5.769   5.569   2.493
 3650SOL    HW111849   5.772   5.564   2.393
 3650SOL    HW211850   5.694   5.513   2.527
 3651SOL     OW11851   1.982   5.928   1.764
 3651SOL    HW111852   1.923   5.938   1.684
 3651SOL    HW211853   2.054   5.997   1.763
 3652SOL     OW11854   3.711   6.914   3.293
 3652SOL    HW111855   3.634   6.907   3.229
 3652SOL    HW211856   3.797   6.898   3.244
 3653SOL     OW11857   0.110   3.816   3.204
 3653SOL    HW111858   0.137   3.722   3.186
 3653SOL    HW211859   0.057   3.852   3.128
 3654SOL     OW11860   1.514   6.696   2.392
 3654SOL    HW111861   1.447   6.770   2.392
 3654SOL    HW211862   1.592   6.721   2.451
 3655SOL     OW11863   6.509   1.315   3.933
 3655SOL    HW111864   6.441   1.376   3.894
 3655SOL    HW211865   6.600   1.339   3.898
 3656SOL     OW11866   1.737   1.428   2.463
 3656SOL    HW111867   1.671   1.495   2.498
 3656SOL    HW211868   1.795   1.471   2.394
 3657SOL     OW11869   6.485   5.124   1.303
 3657SOL    HW111870   6.545   5.061   1.256
 3657SOL    HW211871   6.533   5.166   1.380
 3658SOL     OW11872   2.887   4.255   5.452
 3658SOL    HW111873   2.806   4.210   5.415
 3658SOL    HW211874   2.903   4.221   5.545
 3659SOL     OW11875   1.244   3.218   0.437
 3659SOL    HW111876   1.315   3.150   0.456
 3659SOL    HW211877   1.257   3.255   0.345
 3660SOL     OW11878   5.514   3.549   0.790
 3660SOL    HW111879   5.517   3.592   0.700
 3660SOL    HW211880   5.605   3.515   0.814
 3661SOL     OW11881   5.240   1.046   2.477
 3661SOL    HW111882   5.317   1.008   2.425
 3661SOL    HW211883   5.244   1.146   2.475
 3662SOL     OW11884   2.520   6.543   4.553
 3662SOL    HW111885   2.604   6.505   4.592
 3662SOL    HW211886   2.506   6.506   4.461
 3663SOL     OW11887   3.240   2.736   5.727
 3663SOL    HW111888   3.282   2.821   5.694
 3663SOL    HW211889   3.156   2.720   5.676
 3664SOL     OW11890   3.985   0.002   1.448
 3664SOL    HW111891   3.994   6.930   1.425
 3664SOL    HW211892   4.072   0.038   1.478
 3665SOL     OW11893   2.557   1.615   5.219
 3665SOL    HW111894   2.536   1.713   5.219
 3665SOL    HW211895   2.580   1.586   5.126
 3666SOL     OW11896   0.879   4.949   3.123
 3666SOL    HW111897   0.785   4.914   3.127
 3666SOL    HW211898   0.910   4.971   3.215
 3667SOL     OW11899   0.273   0.984   6.671
 3667SOL    HW111900   0.327   0.991   6.755
 3667SOL    HW211901   0.334   0.970   6.593
 3668SOL     OW11902   2.074   0.296   1.106
 3668SOL    HW111903   2.124   0.258   1.029
 3668SOL    HW211904   2.102   0.391   1.120
 3669SOL     OW11905   5.220   1.395   4.626
 3669SOL    HW111906   5.221   1.380   4.527
 3669SOL    HW211907   5.313   1.414   4.658
 3670SOL     OW11908   3.570   4.634   6.193
 3670SOL    HW111909   3.520   4.581   6.126
 3670SOL    HW211910   3.509   4.701   6.236
 3671SOL     OW11911   1.265   1.354   2.764
 3671SOL    HW111912   1.343   1.291   2.767
 3671SOL    HW211913   1.184   1.306   2.733
 3672SOL     OW11914   5.745   6.179   6.985
 3672SOL    HW111915   5.739   6.210   6.890
 3672SOL    HW211916   5.738   6.258   0.020
 3673SOL     OW11917   3.696   0.252   5.702
 3673SOL    HW111918   3.779   0.196   5.704
 3673SOL    HW211919   3.616   0.194   5.690
 3674SOL     OW11920   2.040   6.517   1.129
 3674SOL    HW111921   1.941   6.531   1.131
 3674SOL    HW211922   2.086   6.601   1.101
 3675SOL     OW11923   1.359   2.148   4.388
 3675SOL    HW111924   1.328   2.227   4.334
 3675SOL    HW211925   1.294   2.073   4.376
 3676SOL     OW11926   0.628   4.346   2.477
 3676SOL    HW111927   0.530   4.329   2.494
 3676SOL    HW211928   0.666   4.396   2.556
 3677SOL     OW11929   6.536   1.491   3.548
 3677SOL    HW111930   6.627   1.530   3.535
 3677SOL    HW211931   6.540   1.392   3.534
 3678SOL     OW11932   0.726   2.627   4.094
 3678SOL    HW111933   0.710   2.723   4.074
 3678SOL    HW211934   0.658   2.571   4.046
 3679SOL     OW11935   6.128   1.076   1.077
 3679SOL    HW111936   6.091   1.020   1.150
 3679SOL    HW211937   6.100   1.039   0.988
 3680SOL     OW11938   6.725   4.748   5.235
 3680SOL    HW111939   6.750   4.845   5.241
 3680SOL    HW211940   6.737   4.705   5.324
 3681SOL     OW11941   5.474   0.410   3.813
 3681SOL    HW111942   5.482   0.360   3.900
 3681SOL    HW211943   5.401   0.370   3.758
 3682SOL     OW11944   0.599   1.671   0.009
 3682SOL    HW111945   0.534   1.608   0.052
 3682SOL    HW211946   0.608   1.754   0.064
 3683SOL     OW11947   4.243   0.023   4.027
 3683SOL    HW111948   4.282   6.959   4.047
 3683SOL    HW211949   4.314   0.093   4.031
 3684SOL     OW11950   2.245   4.028   1.921
 3684SOL    HW111951   2.312   4.101   1.931
 3684SOL    HW211952   2.219   3.993   2.011
 3685SOL     OW11953   5.565   6.193   5.935
 3685SOL    HW111954   5.535   6.218   6.027
 3685SOL    HW211955   5.549   6.269   5.872
 3686SOL     OW11956   0.395   4.238   0.609
 3686SOL    HW111957   0.489   4.257   0.639
 3686SOL    HW211958   0.350   4.323   0.584
 3687SOL     OW11959   3.770   1.262   0.936
 3687SOL    HW111960   3.843   1.329   0.930
 3687SOL    HW211961   3.681   1.309   0.932
 3688SOL     OW11962   0.199   1.905   6.144
 3688SOL    HW111963   0.127   1.856   6.194
 3688SOL    HW211964   0.172   2.001   6.134
 3689SOL     OW11965   1.416   6.465   4.119
 3689SOL    HW111966   1.488   6.407   4.158
 3689SOL    HW211967   1.458   6.535   4.060
 3690SOL     OW11968   5.159   4.422   5.876
 3690SOL    HW111969   5.098   4.404   5.798
 3690SOL    HW211970   5.249   4.382   5.857
 3691SOL     OW11971   3.327   3.254   6.553
 3691SOL    HW111972   3.270   3.324   6.509
 3691SOL    HW211973   3.363   3.191   6.483
 3692SOL     OW11974   6.310   0.964   5.229
 3692SOL    HW111975   6.228   1.006   5.189
 3692SOL    HW211976   6.317   0.869   5.199
 3693SOL     OW11977   1.793   1.201   3.408
 3693SOL    HW111978   1.758   1.290   3.379
 3693SOL    HW211979   1.795   1.197   3.508
 3694SOL     OW11980   2.039   3.919   3.759
 3694SOL    HW111981   2.120   3.978   3.761
 3694SOL    HW211982   2.036   3.864   3.842
 3695SOL     OW11983   2.536   1.821   1.055
 3695SOL    HW111984   2.569   1.727   1.063
 3695SOL    HW211985   2.437   1.820   1.040
 3696SOL     OW11986   2.825   5.935   6.011
 3696SOL    HW111987   2.729   5.948   5.987
 3696SOL    HW211988   2.881   6.000   5.960
 3697SOL     OW11989   5.475   1.562   3.554
 3697SOL    HW111990   5.549   1.498   3.532
 3697SOL    HW211991   5.482   1.589   3.650
 3698SOL     OW11992   2.600   0.858   5.309
 3698SOL    HW111993   2.538   0.815   5.244
 3698SOL    HW211994   2.550   0.883   5.392
 3699SOL     OW11995   0.792   5.206   2.536
 3699SOL    HW111996   0.852   5.127   2.553
 3699SOL    HW211997   0.843   5.277   2.489
 3700SOL     OW11998   6.252   6.814   3.725
 3700SOL    HW111999   6.335   6.760   3.738
 3700SOL    HW212000   6.231   6.863   3.809
 3701SOL     OW12001   4.658   1.749   3.606
 3701SOL    HW112002   4.599   1.710   3.678
 3701SOL    HW212003   4.708   1.675   3.561
 3702SOL     OW12004   5.624   0.857   6.340
 3702SOL    HW112005   5.684   0.781   6.316
 3702SOL    HW212006   5.660   0.904   6.420
 3703SOL     OW12007   3.379   4.909   0.319
 3703SOL    HW112008   3.413   4.958   0.400
 3703SOL    HW212009   3.342   4.821   0.347
 3704SOL     OW12010   3.596   5.973   0.894
 3704SOL    HW112011   3.592   5.969   0.994
 3704SOL    HW212012   3.589   5.880   0.857
 3705SOL     OW12013   6.910   1.478   3.976
 3705SOL    HW112014   7.003   1.509   3.999
 3705SOL    HW212015   6.881   1.409   4.042
 3706SOL     OW12016   2.402   2.653   3.252
 3706SOL    HW112017   2.339   2.628   3.179
 3706SOL    HW212018   2.480   2.590   3.252
 3707SOL     OW12019   4.010   0.965   5.505
 3707SOL    HW112020   4.105   0.958   5.474
 3707SOL    HW212021   4.008   0.963   5.605
 3708SOL     OW12022   6.160   6.179   0.802
 3708SOL    HW112023   6.092   6.251   0.814
 3708SOL    HW212024   6.245   6.205   0.848
 3709SOL     OW12025   1.223   6.287   6.237
 3709SOL    HW112026   1.317   6.256   6.225
 3709SOL    HW212027   1.187   6.320   6.149
 3710SOL     OW12028   0.803   5.104   6.546
 3710SOL    HW112029   0.790   5.203   6.538
 3710SOL    HW212030   0.895   5.086   6.582
 3711SOL     OW12031   6.683   4.467   1.962
 3711SOL    HW112032   6.644   4.558   1.976
 3711SOL    HW212033   6.782   4.474   1.951
 3712SOL     OW12034   1.207   0.590   5.530
 3712SOL    HW112035   1.194   0.586   5.431
 3712SOL    HW212036   1.264   0.514   5.560
 3713SOL     OW12037   2.952   4.684   5.873
 3713SOL    HW112038   2.899   4.739   5.809
 3713SOL    HW212039   3.000   4.744   5.937
 3714SOL     OW12040   4.565   2.933   5.225
 3714SOL    HW112041   4.621   2.974   5.298
 3714SOL    HW212042   4.474   2.914   5.260
 3715SOL     OW12043   4.497   4.741   4.096
 3715SOL    HW112044   4.509   4.647   4.065
 3715SOL    HW212045   4.399   4.759   4.110
 3716SOL     OW12046   1.760   1.789   4.563
 3716SOL    HW112047   1.704   1.785   4.480
 3716SOL    HW212048   1.769   1.884   4.592
 3717SOL     OW12049   6.054   0.719   6.678
 3717SOL    HW112050   6.120   0.705   6.604
 3717SOL    HW212051   5.986   0.787   6.649
 3718SOL     OW12052   0.926   0.168   6.378
 3718SOL    HW112053   1.000   0.207   6.324
 3718SOL    HW212054   0.874   0.241   6.422
 3719SOL     OW12055   3.359   4.144   0.210
 3719SOL    HW112056   3.351   4.145   0.110
 3719SOL    HW212057   3.326   4.056   0.245
 3720SOL     OW12058   6.738   1.469   6.036
 3720SOL    HW112059   6.763   1.418   6.118
 3720SOL    HW212060   6.667   1.420   5.986
 3721SOL     OW12061   5.772   2.172   0.447
 3721SOL    HW112062   5.764   2.271   0.462
 3721SOL    HW212063   5.745   2.124   0.530
 3722SOL     OW12064   4.497   5.596   1.223
 3722SOL    HW112065   4.559   5.673   1.239
 3722SOL    HW212066   4.490   5.540   1.305
 3723SOL     OW12067   3.521   1.427   0.662
 3723SOL    HW112068   3.570   1.392   0.582
 3723SOL    HW212069   3.441   1.370   0.679
 3724SOL     OW12070   1.387   3.594   6.347
 3724SOL    HW112071   1.394   3.589   6.446
 3724SOL    HW212072   1.414   3.686   6.316
 3725SOL     OW12073   4.614   6.499   2.043
 3725SOL    HW112074   4.631   6.538   1.952
 3725SOL    HW212075   4.650   6.560   2.113
 3726SOL     OW12076   6.169   3.842   2.881
 3726SOL    HW112077   6.162   3.919   2.817
 3726SOL    HW212078   6.247   3.857   2.942
 3727SOL     OW12079   2.150   2.005   5.574
 3727SOL    HW112080   2.107   1.999   5.484
 3727SOL    HW212081   2.185   1.915   5.601
 3728SOL     OW12082   1.024   3.355   0.041
 3728SOL    HW112083   1.023   3.395   6.974
 3728SOL    HW212084   0.943   3.298   0.053
 3729SOL     OW12085   1.341   3.741   3.810
 3729SOL    HW112086   1.259   3.784   3.847
 3729SOL    HW212087   1.332   3.642   3.815
 3730SOL     OW12088   1.795   0.269   1.428
 3730SOL    HW112089   1.859   0.316   1.488
 3730SOL    HW212090   1.845   0.216   1.359
 3731SOL     OW12091   2.151   5.712   0.245
 3731SOL    HW112092   2.182   5.785   0.185
 3731SOL    HW212093   2.079   5.746   0.305
 3732SOL     OW12094   1.760   4.078   4.035
 3732SOL    HW112095   1.817   4.054   4.113
 3732SOL    HW212096   1.666   4.094   4.065
 3733SOL     OW12097   3.358   3.528   1.626
 3733SOL    HW112098   3.307   3.562   1.705
 3733SOL    HW212099   3.297   3.473   1.568
 3734SOL     OW12100   4.065   1.622   3.448
 3734SOL    HW112101   4.038   1.668   3.364
 3734SOL    HW212102   3.984   1.598   3.502
 3735SOL     OW12103   3.647   2.157   1.665
 3735SOL    HW112104   3.689   2.066   1.671
 3735SOL    HW212105   3.661   2.206   1.751
 3736SOL     OW12106   5.400   0.451   5.896
 3736SOL    HW112107   5.305   0.430   5.920
 3736SOL    HW212108   5.446   0.367   5.867
 3737SOL     OW12109   2.977   6.934   3.500
 3737SOL    HW112110   3.045   6.869   3.536
 3737SOL    HW212111   3.001   0.001   3.531
 3738SOL     OW12112   0.389   0.101   4.466
 3738SOL    HW112113   0.437   0.189   4.473
 3738SOL    HW212114   0.344   0.093   4.377
 3739SOL     OW12115   6.839   3.476   0.697
 3739SOL    HW112116   6.900   3.511   0.626
 3739SOL    HW212117   6.890   3.414   0.756
 3740SOL     OW12118   5.468   6.506   0.071
 3740SOL    HW112119   5.518   6.497   7.011
 3740SOL    HW212120   5.516   6.459   0.145
 3741SOL     OW12121   4.248   0.629   6.980
 3741SOL    HW112122   4.303   0.570   0.015
 3741SOL    HW212123   4.152   0.599   6.982
 3742SOL     OW12124   3.665   3.145   5.885
 3742SOL    HW112125   3.717   3.230   5.873
 3742SOL    HW212126   3.571   3.159   5.856
 3743SOL     OW12127   1.492   5.918   5.036
 3743SOL    HW112128   1.526   5.956   5.122
 3743SOL    HW212129   1.529   5.826   5.024
 3744SOL     OW12130   6.122   4.820   3.826
 3744SOL    HW112131   6.051   4.868   3.774
 3744SOL    HW212132   6.114   4.846   3.923
 3745SOL     OW12133   4.939   5.041   1.292
 3745SOL    HW112134   4.960   5.014   1.386
 3745SOL    HW212135   5.014   5.098   1.257
 3746SOL     OW12136   4.233   1.105   1.286
 3746SOL    HW112137   4.211   1.199   1.310
 3746SOL    HW212138   4.257   1.100   1.189
 3747SOL     OW12139   3.420   6.160   1.072
 3747SOL    HW112140   3.377   6.129   0.988
 3747SOL    HW212141   3.477   6.087   1.110
 3748SOL     OW12142   5.358   0.456   1.948
 3748SOL    HW112143   5.333   0.400   2.027
 3748SOL    HW212144   5.458   0.465   1.944
 3749SOL     OW12145   0.692   0.920   3.596
 3749SOL    HW112146   0.607   0.878   3.627
 3749SOL    HW212147   0.737   0.860   3.530
 3750SOL     OW12148   0.179   4.097   0.341
 3750SOL    HW112149   0.218   4.189   0.346
 3750SOL    HW212150   0.125   4.087   0.258
 3751SOL     OW12151   1.804   4.854   1.943
 3751SOL    HW112152   1.788   4.915   1.865
 3751SOL    HW212153   1.875   4.788   1.919
 3752SOL     OW12154   5.843   5.468   6.798
 3752SOL    HW112155   5.924   5.409   6.808
 3752SOL    HW212156   5.832   5.493   6.702
 3753SOL     OW12157   0.416   1.644   3.290
 3753SOL    HW112158   0.472   1.573   3.332
 3753SOL    HW212159   0.360   1.604   3.217
 3754SOL     OW12160   3.861   1.191   1.653
 3754SOL    HW112161   3.913   1.213   1.736
 3754SOL    HW212162   3.790   1.124   1.675
 3755SOL     OW12163   2.803   6.535   4.639
 3755SOL    HW112164   2.787   6.526   4.738
 3755SOL    HW212165   2.857   6.458   4.607
 3756SOL     OW12166   0.773   6.304   0.861
 3756SOL    HW112167   0.711   6.334   0.788
 3756SOL    HW212168   0.866   6.338   0.842
 3757SOL     OW12169   1.433   5.145   0.196
 3757SOL    HW112170   1.383   5.138   0.109
 3757SOL    HW212171   1.523   5.103   0.186
 3758SOL     OW12172   6.608   5.519   4.229
 3758SOL    HW112173   6.697   5.563   4.228
 3758SOL    HW212174   6.577   5.503   4.135
 3759SOL     OW12175   4.985   0.709   3.481
 3759SOL    HW112176   5.067   0.761   3.456
 3759SOL    HW212177   4.904   0.766   3.470
 3760SOL     OW12178   0.457   1.020   3.303
 3760SOL    HW112179   0.449   1.027   3.403
 3760SOL    HW212180   0.369   0.993   3.265
 3761SOL     OW12181   4.304   0.830   4.573
 3761SOL    HW112182   4.344   0.748   4.532
 3761SOL    HW212183   4.277   0.894   4.501
 3762SOL     OW12184   6.085   2.247   4.190
 3762SOL    HW112185   6.022   2.274   4.118
 3762SOL    HW212186   6.178   2.244   4.154
 3763SOL     OW12187   0.588   6.569   6.588
 3763SOL    HW112188   0.549   6.637   6.527
 3763SOL    HW212189   0.688   6.580   6.590
 3764SOL     OW12190   4.759   2.386   2.726
 3764SOL    HW112191   4.808   2.456   2.675
 3764SOL    HW212192   4.822   2.337   2.786
 3765SOL     OW12193   5.488   4.127   1.557
 3765SOL    HW112194   5.506   4.065   1.633
 3765SOL    HW212195   5.572   4.141   1.504
 3766SOL     OW12196   2.053   2.184   2.541
 3766SOL    HW112197   2.021   2.277   2.520
 3766SOL    HW212198   2.078   2.178   2.637
 3767SOL     OW12199   1.862   5.543   5.264
 3767SOL    HW112200   1.767   5.573   5.278
 3767SOL    HW212201   1.862   5.457   5.212
 3768SOL     OW12202   1.292   6.954   4.109
 3768SOL    HW112203   1.208   6.963   4.056
 3768SOL    HW212204   1.269   6.921   4.201
 3769SOL     OW12205   4.465   5.187   5.828
 3769SOL    HW112206   4.550   5.136   5.840
 3769SOL    HW212207   4.472   5.275   5.876
 3770SOL     OW12208   2.588   0.286   6.857
 3770SOL    HW112209   2.682   0.294   6.890
 3770SOL    HW212210   2.529   0.254   6.932
 3771SOL     OW12211   6.640   5.741   6.072
 3771SOL    HW112212   6.704   5.720   6.146
 3771SOL    HW212213   6.656   5.679   5.995
 3772SOL     OW12214   2.645   5.345   1.430
 3772SOL    HW112215   2.664   5.335   1.528
 3772SOL    HW212216   2.688   5.429   1.396
 3773SOL     OW12217   4.960   4.075   6.811
 3773SOL    HW112218   4.950   3.979   6.836
 3773SOL    HW212219   4.874   4.123   6.829
 3774SOL     OW12220   0.139   4.285   1.691
 3774SOL    HW112221   0.047   4.270   1.656
 3774SOL    HW212222   0.178   4.197   1.719
 3775SOL     OW12223   6.591   5.988   4.869
 3775SOL    HW112224   6.556   5.937   4.948
 3775SOL    HW212225   6.520   5.995   4.799
 3776SOL     OW12226   3.984   2.617   6.830
 3776SOL    HW112227   3.926   2.682   6.780
 3776SOL    HW212228   4.039   2.667   6.897
 3777SOL     OW12229   3.216   5.326   3.179
 3777SOL    HW112230   3.126   5.357   3.208
 3777SOL    HW212231   3.218   5.318   3.079
 3778SOL     OW12232   2.292   5.075   6.902
 3778SOL    HW112233   2.320   5.171   6.900
 3778SOL    HW212234   2.371   5.016   6.887
 3779SOL     OW12235   6.636   4.937   6.356
 3779SOL    HW112236   6.638   4.911   6.260
 3779SOL    HW212237   6.542   4.941   6.388
 3780SOL     OW12238   6.136   2.053   0.928
 3780SOL    HW112239   6.083   2.123   0.973
 3780SOL    HW212240   6.129   2.064   0.829
 3781SOL     OW12241   1.068   0.754   6.705
 3781SOL    HW112242   1.141   0.799   6.755
 3781SOL    HW212243   1.039   0.813   6.629
 3782SOL     OW12244   3.078   5.447   6.962
 3782SOL    HW112245   3.161   5.432   6.908
 3782SOL    HW212246   2.999   5.450   6.901
 3783SOL     OW12247   4.200   5.236   5.624
 3783SOL    HW112248   4.168   5.330   5.617
 3783SOL    HW212249   4.288   5.234   5.672
 3784SOL     OW12250   5.641   4.241   5.476
 3784SOL    HW112251   5.546   4.223   5.453
 3784SOL    HW212252   5.693   4.256   5.392
 3785SOL     OW12253   1.202   3.323   2.059
 3785SOL    HW112254   1.297   3.342   2.034
 3785SOL    HW212255   1.167   3.396   2.117
 3786SOL     OW12256   3.652   2.893   6.174
 3786SOL    HW112257   3.597   2.973   6.149
 3786SOL    HW212258   3.749   2.917   6.172
 3787SOL     OW12259   5.412   5.773   5.835
 3787SOL    HW112260   5.340   5.704   5.844
 3787SOL    HW212261   5.432   5.788   5.738
 3788SOL     OW12262   5.578   2.395   5.467
 3788SOL    HW112263   5.493   2.376   5.514
 3788SOL    HW212264   5.613   2.311   5.425
 3789SOL     OW12265   1.845   4.786   2.248
 3789SOL    HW112266   1.825   4.696   2.209
 3789SOL    HW212267   1.760   4.838   2.257
 3790SOL     OW12268   3.157   0.161   1.617
 3790SOL    HW112269   3.090   0.109   1.565
 3790SOL    HW212270   3.146   0.141   1.715
 3791SOL     OW12271   5.044   0.801   3.865
 3791SOL    HW112272   4.973   0.791   3.795
 3791SOL    HW212273   5.015   0.869   3.932
 3792SOL     OW12274   5.696   0.645   3.085
 3792SOL    HW112275   5.637   0.687   3.016
 3792SOL    HW212276   5.756   0.715   3.125
 3793SOL     OW12277   4.137   4.120   0.230
 3793SOL    HW112278   4.094   4.195   0.279
 3793SOL    HW212279   4.077   4.040   0.231
 3794SOL     OW12280   1.852   4.937   5.747
 3794SOL    HW112281   1.809   4.847   5.733
 3794SOL    HW212282   1.903   4.962   5.665
 3795SOL     OW12283   3.692   6.181   0.334
 3795SOL    HW112284   3.760   6.134   0.278
 3795SOL    HW212285   3.728   6.194   0.427
 3796SOL     OW12286   5.359   0.734   0.355
 3796SOL    HW112287   5.450   0.774   0.343
 3796SOL    HW212288   5.290   0.806   0.350
 3797SOL     OW12289   6.975   1.629   0.477
 3797SOL    HW112290   6.931   1.540   0.477
 3797SOL    HW212291   0.024   1.630   0.544
 3798SOL     OW12292   0.100   3.923   4.248
 3798SOL    HW112293   0.108   3.974   4.333
 3798SOL    HW212294   0.159   3.965   4.178
 3799SOL     OW12295   6.634   2.758   2.330
 3799SOL    HW112296   6.654   2.660   2.325
 3799SOL    HW212297   6.535   2.772   2.323
 3800SOL     OW12298   5.747   3.021   1.487
 3800SOL    HW112299   5.731   2.993   1.392
 3800SOL    HW212300   5.725   3.118   1.498
 3801SOL     OW12301   5.159   1.235   0.180
 3801SOL    HW112302   5.135   1.151   0.130
 3801SOL    HW212303   5.179   1.212   0.275
 3802SOL     OW12304   6.081   3.803   3.565
 3802SOL    HW112305   6.096   3.902   3.568
 3802SOL    HW212306   6.163   3.758   3.528
 3803SOL     OW12307   3.815   4.331   6.321
 3803SOL    HW112308   3.830   4.430   6.331
 3803SOL    HW212309   3.877   4.295   6.252
 3804SOL     OW12310   4.183   6.177   3.567
 3804SOL    HW112311   4.244   6.144   3.639
 3804SOL    HW212312   4.215   6.266   3.535
 3805SOL     OW12313   2.471   1.784   7.014
 3805SOL    HW112314   2.521   1.715   0.041
 3805SOL    HW212315   2.374   1.781   0.013
 3806SOL     OW12316   2.100   4.705   2.148
 3806SOL    HW112317   2.178   4.766   2.164
 3806SOL    HW212318   2.017   4.746   2.186
 3807SOL     OW12319   6.879   3.881   4.627
 3807SOL    HW112320   6.952   3.946   4.605
 3807SOL    HW212321   6.909   3.822   4.703
 3808SOL     OW12322   2.669   6.853   6.526
 3808SOL    HW112323   2.722   6.797   6.462
 3808SOL    HW212324   2.731   6.918   6.572
 3809SOL     OW12325   5.438   1.831   1.271
 3809SOL    HW112326   5.447   1.913   1.327
 3809SOL    HW212327   5.383   1.853   1.190
 3810SOL     OW12328   4.837   1.875   4.604
 3810SOL    HW112329   4.806   1.898   4.696
 3810SOL    HW212330   4.757   1.865   4.544
 3811SOL     OW12331   0.558   6.250   5.686
 3811SOL    HW112332   0.473   6.295   5.660
 3811SOL    HW212333   0.626   6.319   5.711
 3812SOL     OW12334   4.659   5.177   0.070
 3812SOL    HW112335   4.719   5.202   0.146
 3812SOL    HW212336   4.706   5.112   0.011
 3813SOL     OW12337   0.044   4.174   6.543
 3813SOL    HW112338   0.087   4.210   6.460
 3813SOL    HW212339   0.082   4.221   6.622
 3814SOL     OW12340   0.413   0.424   4.762
 3814SOL    HW112341   0.487   0.490   4.749
 3814SOL    HW212342   0.442   0.354   4.828
 3815SOL     OW12343   4.697   1.865   5.725
 3815SOL    HW112344   4.639   1.784   5.728
 3815SOL    HW212345   4.727   1.888   5.817
 3816SOL     OW12346   6.581   6.494   2.206
 3816SOL    HW112347   6.562   6.415   2.147
 3816SOL    HW212348   6.497   6.521   2.253
 3817SOL     OW12349   4.157   3.584   2.538
 3817SOL    HW112350   4.063   3.606   2.510
 3817SOL    HW212351   4.157   3.555   2.634
 3818SOL     OW12352   4.833   5.625   1.718
 3818SOL    HW112353   4.911   5.579   1.761
 3818SOL    HW212354   4.767   5.652   1.788
 3819SOL     OW12355   6.180   3.062   3.050
 3819SOL    HW112356   6.141   3.122   3.120
 3819SOL    HW212357   6.237   3.117   2.988
 3820SOL     OW12358   3.981   6.889   5.966
 3820SOL    HW112359   3.967   6.972   5.912
 3820SOL    HW212360   3.957   6.907   6.061
 3821SOL     OW12361   1.474   6.626   1.617
 3821SOL    HW112362   1.492   6.531   1.645
 3821SOL    HW212363   1.491   6.687   1.694
 3822SOL     OW12364   6.462   6.215   0.909
 3822SOL    HW112365   6.467   6.122   0.946
 3822SOL    HW212366   6.509   6.219   0.821
 3823SOL     OW12367   6.087   4.758   4.693
 3823SOL    HW112368   6.137   4.772   4.608
 3823SOL    HW212369   6.127   4.682   4.743
 3824SOL     OW12370   1.718   2.324   0.911
 3824SOL    HW112371   1.785   2.324   0.837
 3824SOL    HW212372   1.693   2.418   0.934
 3825SOL     OW12373   0.486   4.812   5.698
 3825SOL    HW112374   0.566   4.779   5.648
 3825SOL    HW212375   0.501   4.800   5.797
 3826SOL     OW12376   4.424   4.536   3.924
 3826SOL    HW112377   4.441   4.499   4.016
 3826SOL    HW212378   4.467   4.477   3.856
 3827SOL     OW12379   0.995   0.937   0.337
 3827SOL    HW112380   0.911   0.890   0.364
 3827SOL    HW212381   1.026   0.899   0.249
 3828SOL     OW12382   2.552   3.391   6.263
 3828SOL    HW112383   2.501   3.399   6.177
 3828SOL    HW212384   2.514   3.315   6.317
 3829SOL     OW12385   0.194   1.992   1.057
 3829SOL    HW112386   0.126   2.034   0.997
 3829SOL    HW212387   0.200   2.043   1.142
 3830SOL     OW12388   5.552   6.158   3.652
 3830SOL    HW112389   5.478   6.091   3.655
 3830SOL    HW212390   5.528   6.235   3.712
 3831SOL     OW12391   5.294   1.736   4.438
 3831SOL    HW112392   5.308   1.737   4.339
 3831SOL    HW212393   5.382   1.738   4.485
 3832SOL     OW12394   6.286   1.504   4.290
 3832SOL    HW112395   6.300   1.414   4.331
 3832SOL    HW212396   6.292   1.574   4.362
 3833SOL     OW12397   2.139   3.245   5.405
 3833SOL    HW112398   2.075   3.316   5.374
 3833SOL    HW212399   2.151   3.253   5.504
 3834SOL     OW12400   4.385   5.285   0.292
 3834SOL    HW112401   4.420   5.262   0.383
 3834SOL    HW212402   4.308   5.349   0.301
 3835SOL     OW12403   4.936   5.002   4.460
 3835SOL    HW112404   4.983   5.022   4.546
 3835SOL    HW212405   4.846   5.045   4.459
 3836SOL     OW12406   0.674   0.478   5.969
 3836SOL    HW112407   0.745   0.549   5.973
 3836SOL    HW212408   0.644   0.467   5.874
 3837SOL     OW12409   4.780   4.768   5.781
 3837SOL    HW112410   4.783   4.770   5.881
 3837SOL    HW212411   4.684   4.770   5.751
 3838SOL     OW12412   0.438   2.100   3.479
 3838SOL    HW112413   0.361   2.112   3.416
 3838SOL    HW212414   0.408   2.119   3.573
 3839SOL     OW12415   4.565   1.311   3.715
 3839SOL    HW112416   4.606   1.394   3.753
 3839SOL    HW212417   4.465   1.320   3.717
 3840SOL     OW12418   3.915   1.977   5.819
 3840SOL    HW112419   3.989   2.033   5.857
 3840SOL    HW212420   3.829   2.003   5.861
 3841SOL     OW12421   5.693   4.074   2.866
 3841SOL    HW112422   5.632   4.153   2.881
 3841SOL    HW212423   5.768   4.077   2.932
 3842SOL     OW12424   1.867   4.089   5.220
 3842SOL    HW112425   1.904   4.016   5.277
 3842SOL    HW212426   1.943   4.135   5.172
 3843SOL     OW12427   5.668   2.692   7.001
 3843SOL    HW112428   5.615   2.773   6.973
 3843SOL    HW212429   5.711   2.708   0.064
 3844SOL     OW12430   5.389   5.911   0.522
 3844SOL    HW112431   5.378   5.832   0.462
 3844SOL    HW212432   5.305   5.927   0.572
 3845SOL     OW12433   2.155   5.804   0.703
 3845SOL    HW112434   2.084   5.764   0.761
 3845SOL    HW212435   2.220   5.733   0.676
 3846SOL     OW12436   6.711   3.486   2.819
 3846SOL    HW112437   6.766   3.502   2.737
 3846SOL    HW212438   6.724   3.391   2.850
 3847SOL     OW12439   6.893   0.985   6.753
 3847SOL    HW112440   6.808   0.934   6.757
 3847SOL    HW212441   6.873   1.083   6.740
 3848SOL     OW12442   5.904   5.278   2.701
 3848SOL    HW112443   5.990   5.244   2.661
 3848SOL    HW212444   5.853   5.201   2.739
 3849SOL     OW12445   0.294   3.347   6.013
 3849SOL    HW112446   0.347   3.265   5.990
 3849SOL    HW212447   0.261   3.391   5.930
 3850SOL     OW12448   3.466   2.966   1.407
 3850SOL    HW112449   3.466   3.046   1.466
 3850SOL    HW212450   3.454   2.884   1.462
 3851SOL     OW12451   0.462   5.048   1.897
 3851SOL    HW112452   0.488   5.036   1.993
 3851SOL    HW212453   0.371   5.089   1.893
 3852SOL     OW12454   3.341   0.658   5.364
 3852SOL    HW112455   3.365   0.561   5.355
 3852SOL    HW212456   3.424   0.713   5.363
 3853SOL     OW12457   1.757   0.498   3.257
 3853SOL    HW112458   1.782   0.408   3.292
 3853SOL    HW212459   1.837   0.558   3.260
 3854SOL     OW12460   0.077   1.573   2.488
 3854SOL    HW112461   0.162   1.556   2.539
 3854SOL    HW212462   0.074   1.513   2.408
 3855SOL     OW12463   2.734   5.837   6.651
 3855SOL    HW112464   2.720   5.802   6.558
 3855SOL    HW212465   2.652   5.886   6.680
 3856SOL     OW12466   0.095   2.877   6.480
 3856SOL    HW112467   0.091   2.976   6.466
 3856SOL    HW212468   0.103   2.858   6.578
 3857SOL     OW12469   1.074   0.225   5.732
 3857SOL    HW112470   1.045   0.248   5.824
 3857SOL    HW212471   1.009   0.262   5.666
 3858SOL     OW12472   3.050   1.102   4.615
 3858SOL    HW112473   3.069   1.018   4.565
 3858SOL    HW212474   2.958   1.096   4.656
 3859SOL     OW12475   5.509   6.062   3.289
 3859SOL    HW112476   5.559   6.127   3.346
 3859SOL    HW212477   5.573   5.997   3.247
 3860SOL     OW12478   1.953   6.819   5.190
 3860SOL    HW112479   1.951   6.735   5.244
 3860SOL    HW212480   1.894   6.810   5.110
 3861SOL     OW12481   2.188   6.312   2.773
 3861SOL    HW112482   2.236   6.387   2.818
 3861SOL    HW212483   2.254   6.253   2.727
 3862SOL     OW12484   2.219   0.543   4.146
 3862SOL    HW112485   2.195   0.461   4.094
 3862SOL    HW212486   2.219   0.521   4.243
 3863SOL     OW12487   4.370   6.753   1.681
 3863SOL    HW112488   4.333   6.748   1.589
 3863SOL    HW212489   4.449   6.693   1.689
 3864SOL     OW12490   0.145   1.386   4.796
 3864SOL    HW112491   0.168   1.311   4.859
 3864SOL    HW212492   0.228   1.416   4.749
 3865SOL     OW12493   4.781   1.398   0.037
 3865SOL    HW112494   4.739   1.310   0.059
 3865SOL    HW212495   4.848   1.385   6.989
 3866SOL     OW12496   3.761   1.266   6.682
 3866SOL    HW112497   3.817   1.201   6.734
 3866SOL    HW212498   3.708   1.216   6.613
 3867SOL     OW12499   6.633   3.609   2.474
 3867SOL    HW112500   6.676   3.520   2.455
 3867SOL    HW212501   6.683   3.681   2.425
 3868SOL     OW12502   4.520   0.922   0.002
 3868SOL    HW112503   4.421   0.932   0.001
 3868SOL    HW212504   4.546   0.847   6.965
 3869SOL     OW12505   2.912   1.111   3.527
 3869SOL    HW112506   2.915   1.026   3.474
 3869SOL    HW212507   2.846   1.102   3.602
 3870SOL     OW12508   6.532   1.989   5.842
 3870SOL    HW112509   6.600   1.921   5.870
 3870SOL    HW212510   6.443   1.965   5.881
 3871SOL     OW12511   2.708   4.758   4.248
 3871SOL    HW112512   2.749   4.780   4.337
 3871SOL    HW212513   2.636   4.690   4.261
 3872SOL     OW12514   2.918   3.950   5.471
 3872SOL    HW112515   3.009   3.986   5.491
 3872SOL    HW212516   2.885   3.989   5.385
 3873SOL     OW12517   5.844   3.121   6.557
 3873SOL    HW112518   5.766   3.092   6.503
 3873SOL    HW212519   5.881   3.042   6.607
 3874SOL     OW12520   1.670   0.123   2.373
 3874SOL    HW112521   1.678   0.060   2.296
 3874SOL    HW212522   1.740   0.102   2.441
 3875SOL     OW12523   0.231   0.722   6.264
 3875SOL    HW112524   0.170   0.724   6.344
 3875SOL    HW212525   0.318   0.679   6.290
 3876SOL     OW12526   3.546   5.288   2.042
 3876SOL    HW112527   3.614   5.323   1.978
 3876SOL    HW212528   3.479   5.233   1.992
 3877SOL     OW12529   0.833   1.876   5.313
 3877SOL    HW112530   0.789   1.965   5.326
 3877SOL    HW212531   0.848   1.834   5.402
 3878SOL     OW12532   4.178   1.273   4.970
 3878SOL    HW112533   4.192   1.264   4.872
 3878SOL    HW212534   4.236   1.348   5.005
 3879SOL     OW12535   5.620   5.346   6.463
 3879SOL    HW112536   5.685   5.416   6.495
 3879SOL    HW212537   5.529   5.387   6.457
 3880SOL     OW12538   4.525   5.525   3.076
 3880SOL    HW112539   4.516   5.465   3.156
 3880SOL    HW212540   4.620   5.530   3.048
 3881SOL     OW12541   2.102   2.962   0.149
 3881SOL    HW112542   2.062   2.978   0.239
 3881SOL    HW212543   2.066   2.876   0.111
 3882SOL     OW12544   0.249   3.089   5.841
 3882SOL    HW112545   0.290   3.096   5.750
 3882SOL    HW212546   0.156   3.125   5.839
 3883SOL     OW12547   3.937   5.666   4.236
 3883SOL    HW112548   3.851   5.699   4.275
 3883SOL    HW212549   3.945   5.567   4.254
 3884SOL     OW12550   6.542   3.041   1.813
 3884SOL    HW112551   6.534   3.112   1.742
 3884SOL    HW212552   6.479   2.966   1.791
 3885SOL     OW12553   3.835   5.374   2.526
 3885SOL    HW112554   3.798   5.399   2.616
 3885SOL    HW212555   3.935   5.365   2.533
 3886SOL     OW12556   3.024   5.220   6.650
 3886SOL    HW112557   2.964   5.286   6.697
 3886SOL    HW212558   3.035   5.139   6.708
 3887SOL     OW12559   2.113   5.728   2.025
 3887SOL    HW112560   2.021   5.763   2.008
 3887SOL    HW212561   2.173   5.803   2.055
 3888SOL     OW12562   4.822   5.312   2.858
 3888SOL    HW112563   4.909   5.289   2.900
 3888SOL    HW212564   4.825   5.406   2.824
 3889SOL     OW12565   5.251   2.579   0.361
 3889SOL    HW112566   5.344   2.615   0.348
 3889SOL    HW212567   5.227   2.522   0.283
 3890SOL     OW12568   4.966   4.679   4.202
 3890SOL    HW112569   5.056   4.675   4.158
 3890SOL    HW212570   4.913   4.755   4.163
 3891SOL     OW12571   4.978   4.763   3.885
 3891SOL    HW112572   4.959   4.847   3.935
 3891SOL    HW212573   5.057   4.717   3.926
 3892SOL     OW12574   0.289   1.938   1.515
 3892SOL    HW112575   0.297   2.023   1.464
 3892SOL    HW212576   0.268   1.863   1.452
 3893SOL     OW12577   3.035   3.144   3.076
 3893SOL    HW112578   2.954   3.085   3.082
 3893SOL    HW212579   3.086   3.139   3.162
 3894SOL     OW12580   4.261   0.557   6.090
 3894SOL    HW112581   4.181   0.504   6.062
 3894SOL    HW212582   4.343   0.501   6.080
 3895SOL     OW12583   1.057   0.707   4.839
 3895SOL    HW112584   1.152   0.734   4.826
 3895SOL    HW212585   1.019   0.677   4.752
 3896SOL     OW12586   1.890   1.862   6.206
 3896SOL    HW112587   1.802   1.815   6.213
 3896SOL    HW212588   1.894   1.935   6.275
 3897SOL     OW12589   3.782   6.188   0.929
 3897SOL    HW112590   3.855   6.145   0.877
 3897SOL    HW212591   3.713   6.120   0.953
 3898SOL     OW12592   4.095   3.552   0.987
 3898SOL    HW112593   4.050   3.580   1.072
 3898SOL    HW212594   4.090   3.453   0.977
 3899SOL     OW12595   3.540   6.736   4.893
 3899SOL    HW112596   3.602   6.814   4.889
 3899SOL    HW212597   3.547   6.683   4.810
 3900SOL     OW12598   4.124   4.788   2.445
 3900SOL    HW112599   4.130   4.773   2.347
 3900SOL    HW212600   4.149   4.883   2.466
 3901SOL     OW12601   3.621   1.468   6.832
 3901SOL    HW112602   3.664   1.550   6.868
 3901SOL    HW212603   3.689   1.414   6.782
 3902SOL     OW12604   4.702   2.812   2.546
 3902SOL    HW112605   4.715   2.836   2.450
 3902SOL    HW212606   4.704   2.896   2.601
 3903SOL     OW12607   3.699   5.147   6.679
 3903SOL    HW112608   3.655   5.100   6.756
 3903SOL    HW212609   3.646   5.229   6.657
 3904SOL     OW12610   1.714   6.540   1.172
 3904SOL    HW112611   1.731   6.635   1.147
 3904SOL    HW212612   1.656   6.497   1.102
 3905SOL     OW12613   0.353   6.492   5.314
 3905SOL    HW112614   0.317   6.582   5.340
 3905SOL    HW212615   0.453   6.495   5.313
 3906SOL     OW12616   0.805   6.218   5.114
 3906SOL    HW112617   0.857   6.158   5.054
 3906SOL    HW212618   0.713   6.180   5.127
 3907SOL     OW12619   5.249   2.176   4.045
 3907SOL    HW112620   5.193   2.096   4.068
 3907SOL    HW212621   5.310   2.153   3.969
 3908SOL     OW12622   2.749   3.601   6.144
 3908SOL    HW112623   2.703   3.530   6.199
 3908SOL    HW212624   2.688   3.634   6.073
 3909SOL     OW12625   5.086   6.040   4.236
 3909SOL    HW112626   5.026   5.968   4.270
 3909SOL    HW212627   5.031   6.118   4.204
 3910SOL     OW12628   3.416   3.738   2.884
 3910SOL    HW112629   3.361   3.819   2.865
 3910SOL    HW212630   3.485   3.727   2.812
 3911SOL     OW12631   5.527   1.965   5.160
 3911SOL    HW112632   5.489   1.935   5.247
 3911SOL    HW212633   5.607   1.910   5.138
 3912SOL     OW12634   5.542   3.358   6.907
 3912SOL    HW112635   5.458   3.409   6.930
 3912SOL    HW212636   5.618   3.395   6.960
 3913SOL     OW12637   0.943   0.103   0.757
 3913SOL    HW112638   1.029   0.097   0.706
 3913SOL    HW212639   0.874   0.149   0.701
 3914SOL     OW12640   2.965   6.178   5.777
 3914SOL    HW112641   3.046   6.235   5.766
 3914SOL    HW212642   2.945   6.166   5.874
 3915SOL     OW12643   5.363   5.554   2.200
 3915SOL    HW112644   5.265   5.558   2.179
 3915SOL    HW212645   5.376   5.520   2.293
 3916SOL     OW12646   6.800   0.021   3.178
 3916SOL    HW112647   6.722   6.988   3.157
 3916SOL    HW212648   6.883   6.992   3.177
 3917SOL     OW12649   3.015   0.054   6.526
 3917SOL    HW112650   3.043   6.985   6.504
 3917SOL    HW212651   3.063   0.084   6.608
 3918SOL     OW12652   6.519   3.209   0.796
 3918SOL    HW112653   6.445   3.142   0.797
 3918SOL    HW212654   6.487   3.293   0.842
 3919SOL     OW12655   3.425   6.430   0.659
 3919SOL    HW112656   3.435   6.491   0.737
 3919SOL    HW212657   3.485   6.351   0.669
 3920SOL     OW12658   2.273   1.260   6.161
 3920SOL    HW112659   2.220   1.343   6.174
 3920SOL    HW212660   2.364   1.272   6.202
 3921SOL     OW12661   0.366   2.894   0.919
 3921SOL    HW112662   0.275   2.873   0.954
 3921SOL    HW212663   0.363   2.979   0.866
 3922SOL     OW12664   0.307   5.343   1.214
 3922SOL    HW112665   0.282   5.349   1.311
 3922SOL    HW212666   0.308   5.435   1.174
 3923SOL     OW12667   0.510   5.766   0.759
 3923SOL    HW112668   0.556   5.718   0.685
 3923SOL    HW212669   0.577   5.817   0.813
 3924SOL     OW12670   6.873   5.181   4.248
 3924SOL    HW112671   6.936   5.247   4.208
 3924SOL    HW212672   6.851   5.209   4.342
 3925SOL     OW12673   0.485   5.185   1.441
 3925SOL    HW112674   0.433   5.107   1.408
 3925SOL    HW212675   0.574   5.154   1.474
 3926SOL     OW12676   2.889   6.493   2.945
 3926SOL    HW112677   2.957   6.420   2.933
 3926SOL    HW212678   2.866   6.533   2.856
 3927SOL     OW12679   2.379   3.687   6.610
 3927SOL    HW112680   2.318   3.641   6.545
 3927SOL    HW212681   2.394   3.627   6.689
 3928SOL     OW12682   0.324   6.433   6.642
 3928SOL    HW112683   0.408   6.443   6.697
 3928SOL    HW212684   0.281   6.523   6.632
 3929SOL     OW12685   0.921   1.376   4.522
 3929SOL    HW112686   0.957   1.329   4.602
 3929SOL    HW212687   0.944   1.324   4.440
 3930SOL     OW12688   3.152   1.566   3.871
 3930SOL    HW112689   3.102   1.484   3.847
 3930SOL    HW212690   3.248   1.542   3.890
 3931SOL     OW12691   3.739   6.399   2.167
 3931SOL    HW112692   3.744   6.313   2.216
 3931SOL    HW212693   3.815   6.406   2.102
 3932SOL     OW12694   2.025   3.505   3.121
 3932SOL    HW112695   1.988   3.578   3.179
 3932SOL    HW212696   2.049   3.542   3.032
 3933SOL     OW12697   2.007   0.798   5.871
 3933SOL    HW112698   2.094   0.847   5.877
 3933SOL    HW212699   1.941   0.853   5.821
 3934SOL     OW12700   4.852   5.717   0.301
 3934SOL    HW112701   4.934   5.663   0.320
 3934SOL    HW212702   4.874   5.789   0.235
 3935SOL     OW12703   4.398   6.895   2.080
 3935SOL    HW112704   4.381   6.964   2.151
 3935SOL    HW212705   4.375   6.805   2.116
 3936SOL     OW12706   1.232   3.819   2.539
 3936SOL    HW112707   1.226   3.816   2.639
 3936SOL    HW212708   1.139   3.820   2.501
 3937SOL     OW12709   0.166   1.759   2.980
 3937SOL    HW112710   0.082   1.798   3.018
 3937SOL    HW212711   0.210   1.826   2.920
 3938SOL     OW12712   6.311   3.301   2.446
 3938SOL    HW112713   6.224   3.312   2.397
 3938SOL    HW212714   6.335   3.387   2.491
 3939SOL     OW12715   1.754   2.596   1.965
 3939SOL    HW112716   1.682   2.555   1.909
 3939SOL    HW212717   1.778   2.534   2.040
 3940SOL     OW12718   4.421   4.258   1.568
 3940SOL    HW112719   4.430   4.198   1.647
 3940SOL    HW212720   4.508   4.305   1.552
 3941SOL     OW12721   4.963   3.363   0.322
 3941SOL    HW112722   4.936   3.284   0.376
 3941SOL    HW212723   4.913   3.444   0.353
 3942SOL     OW12724   6.131   6.504   0.832
 3942SOL    HW112725   6.139   6.595   0.791
 3942SOL    HW212726   6.040   6.467   0.813
 3943SOL     OW12727   6.970   3.257   4.434
 3943SOL    HW112728   0.027   3.224   4.479
 3943SOL    HW212729   6.948   3.199   4.356
 3944SOL     OW12730   5.525   2.443   5.138
 3944SOL    HW112731   5.604   2.386   5.157
 3944SOL    HW212732   5.548   2.510   5.067
 3945SOL     OW12733   0.299   0.143   0.758
 3945SOL    HW112734   0.371   0.081   0.788
 3945SOL    HW212735   0.321   0.237   0.785
 3946SOL     OW12736   3.965   4.791   3.820
 3946SOL    HW112737   3.991   4.798   3.916
 3946SOL    HW212738   4.042   4.758   3.766
 3947SOL     OW12739   0.259   4.317   5.936
 3947SOL    HW112740   0.284   4.389   6.000
 3947SOL    HW212741   0.336   4.254   5.924
 3948SOL     OW12742   5.940   2.955   1.713
 3948SOL    HW112743   5.894   2.970   1.625
 3948SOL    HW212744   6.019   3.015   1.721
 3949SOL     OW12745   5.523   6.196   2.473
 3949SOL    HW112746   5.520   6.216   2.571
 3949SOL    HW212747   5.618   6.190   2.442
 3950SOL     OW12748   2.314   6.530   0.261
 3950SOL    HW112749   2.258   6.548   0.181
 3950SOL    HW212750   2.260   6.546   0.344
 3951SOL     OW12751   5.534   5.771   2.111
 3951SOL    HW112752   5.472   5.694   2.126
 3951SOL    HW212753   5.572   5.800   2.199
 3952SOL     OW12754   6.339   0.969   7.019
 3952SOL    HW112755   6.318   0.875   6.995
 3952SOL    HW212756   6.421   0.971   0.052
 3953SOL     OW12757   3.075   4.024   2.980
 3953SOL    HW112758   3.103   4.070   3.065
 3953SOL    HW212759   3.000   3.961   3.000
 3954SOL     OW12760   4.128   3.939   5.593
 3954SOL    HW112761   4.120   3.848   5.635
 3954SOL    HW212762   4.057   3.950   5.523
 3955SOL     OW12763   3.878   1.559   4.788
 3955SOL    HW112764   3.804   1.625   4.784
 3955SOL    HW212765   3.841   1.467   4.804
 3956SOL     OW12766   2.197   1.270   0.610
 3956SOL    HW112767   2.191   1.210   0.530
 3956SOL    HW212768   2.135   1.237   0.681
 3957SOL     OW12769   4.559   1.856   4.016
 3957SOL    HW112770   4.654   1.864   4.047
 3957SOL    HW212771   4.503   1.924   4.064
 3958SOL     OW12772   5.109   6.401   5.735
 3958SOL    HW112773   5.096   6.429   5.830
 3958SOL    HW212774   5.118   6.302   5.730
 3959SOL     OW12775   5.761   6.251   6.718
 3959SOL    HW112776   5.712   6.292   6.641
 3959SOL    HW212777   5.836   6.195   6.683
 3960SOL     OW12778   6.583   2.632   4.054
 3960SOL    HW112779   6.595   2.707   4.119
 3960SOL    HW212780   6.498   2.644   4.004
 3961SOL     OW12781   4.952   0.364   4.479
 3961SOL    HW112782   4.864   0.350   4.525
 3961SOL    HW212783   4.999   0.277   4.469
 3962SOL     OW12784   6.644   5.129   4.451
 3962SOL    HW112785   6.564   5.162   4.402
 3962SOL    HW212786   6.638   5.157   4.547
 3963SOL     OW12787   3.430   6.057   1.790
 3963SOL    HW112788   3.411   6.015   1.879
 3963SOL    HW212789   3.527   6.079   1.784
 3964SOL     OW12790   6.513   2.188   4.228
 3964SOL    HW112791   6.486   2.278   4.193
 3964SOL    HW212792   6.531   2.195   4.326
 3965SOL     OW12793   5.112   4.138   4.641
 3965SOL    HW112794   5.105   4.075   4.563
 3965SOL    HW212795   5.194   4.116   4.694
 3966SOL     OW12796   3.558   6.211   6.703
 3966SOL    HW112797   3.529   6.149   6.776
 3966SOL    HW212798   3.567   6.303   6.739
 3967SOL     OW12799   2.145   3.377   4.110
 3967SOL    HW112800   2.114   3.417   4.196
 3967SOL    HW212801   2.167   3.280   4.124
 3968SOL     OW12802   4.630   6.451   7.013
 3968SOL    HW112803   4.665   6.400   0.066
 3968SOL    HW212804   4.653   6.548   7.024
 3969SOL     OW12805   0.408   4.450   3.387
 3969SOL    HW112806   0.453   4.365   3.358
 3969SOL    HW212807   0.322   4.428   3.432
 3970SOL     OW12808   4.426   6.558   1.281
 3970SOL    HW112809   4.418   6.525   1.187
 3970SOL    HW212810   4.357   6.514   1.338
 3971SOL     OW12811   1.153   6.174   3.683
 3971SOL    HW112812   1.145   6.229   3.600
 3971SOL    HW212813   1.227   6.108   3.671
 3972SOL     OW12814   1.519   3.679   7.017
 3972SOL    HW112815   1.432   3.655   6.973
 3972SOL    HW212816   1.507   3.677   0.091
 3973SOL     OW12817   1.541   4.179   0.847
 3973SOL    HW112818   1.557   4.180   0.945
 3973SOL    HW212819   1.449   4.145   0.828
 3974SOL     OW12820   2.953   0.245   5.869
 3974SOL    HW112821   3.026   0.272   5.807
 3974SOL    HW212822   2.864   0.268   5.828
 3975SOL     OW12823   6.809   2.858   6.977
 3975SOL    HW112824   6.893   2.882   0.000
 3975SOL    HW212825   6.797   2.919   6.898
 3976SOL     OW12826   1.006   3.861   2.418
 3976SOL    HW112827   0.934   3.815   2.366
 3976SOL    HW212828   0.986   3.959   2.423
 3977SOL     OW12829   0.493   2.831   6.515
 3977SOL    HW112830   0.427   2.886   6.464
 3977SOL    HW212831   0.507   2.744   6.468
 3978SOL     OW12832   5.424   3.965   3.616
 3978SOL    HW112833   5.491   3.891   3.604
 3978SOL    HW212834   5.338   3.927   3.651
 3979SOL     OW12835   3.584   6.332   5.912
 3979SOL    HW112836   3.496   6.380   5.910
 3979SOL    HW212837   3.585   6.268   5.988
 3980SOL     OW12838   5.075   4.781   5.826
 3980SOL    HW112839   5.084   4.729   5.911
 3980SOL    HW212840   4.979   4.778   5.795
 3981SOL     OW12841   4.872   5.539   6.525
 3981SOL    HW112842   4.789   5.500   6.483
 3981SOL    HW212843   4.853   5.632   6.557
 3982SOL     OW12844   2.639   6.173   2.797
 3982SOL    HW112845   2.694   6.123   2.863
 3982SOL    HW212846   2.542   6.166   2.822
 3983SOL     OW12847   3.910   6.098   4.316
 3983SOL    HW112848   3.944   6.168   4.253
 3983SOL    HW212849   3.940   6.008   4.285
 3984SOL     OW12850   6.426   3.359   3.245
 3984SOL    HW112851   6.413   3.412   3.162
 3984SOL    HW212852   6.488   3.282   3.226
 3985SOL     OW12853   4.235   5.597   6.179
 3985SOL    HW112854   4.236   5.680   6.124
 3985SOL    HW212855   4.190   5.524   6.127
 3986SOL     OW12856   5.396   0.746   2.576
 3986SOL    HW112857   5.495   0.736   2.567
 3986SOL    HW212858   5.353   0.746   2.485
 3987SOL     OW12859   3.781   5.302   5.774
 3987SOL    HW112860   3.685   5.276   5.780
 3987SOL    HW212861   3.788   5.390   5.727
 3988SOL     OW12862   4.518   5.710   0.690
 3988SOL    HW112863   4.507   5.650   0.611
 3988SOL    HW212864   4.437   5.766   0.701
 3989SOL     OW12865   0.122   2.779   1.043
 3989SOL    HW112866   0.061   2.849   1.005
 3989SOL    HW212867   0.115   2.778   1.142
 3990SOL     OW12868   6.822   1.733   1.584
 3990SOL    HW112869   6.886   1.667   1.622
 3990SOL    HW212870   6.809   1.807   1.650
 3991SOL     OW12871   4.478   1.147   3.044
 3991SOL    HW112872   4.428   1.076   3.093
 3991SOL    HW212873   4.576   1.128   3.047
 3992SOL     OW12874   4.186   2.130   1.727
 3992SOL    HW112875   4.110   2.191   1.751
 3992SOL    HW212876   4.240   2.110   1.808
 3993SOL     OW12877   1.518   3.248   1.561
 3993SOL    HW112878   1.532   3.347   1.553
 3993SOL    HW212879   1.423   3.226   1.540
 3994SOL     OW12880   2.877   5.640   4.312
 3994SOL    HW112881   2.894   5.738   4.320
 3994SOL    HW212882   2.957   5.596   4.270
 3995SOL     OW12883   1.122   1.985   3.664
 3995SOL    HW112884   1.141   1.894   3.701
 3995SOL    HW212885   1.023   2.002   3.667
 3996SOL     OW12886   6.387   5.675   4.520
 3996SOL    HW112887   6.461   5.610   4.538
 3996SOL    HW212888   6.418   5.768   4.538
 3997SOL     OW12889   2.870   6.968   3.013
 3997SOL    HW112890   2.803   7.013   2.954
 3997SOL    HW212891   2.950   6.943   2.960
 3998SOL     OW12892   4.022   1.949   3.152
 3998SOL    HW112893   4.013   2.039   3.108
 3998SOL    HW212894   4.077   1.958   3.235
 3999SOL     OW12895   4.426   1.395   4.268
 3999SOL    HW112896   4.479   1.390   4.352
 3999SOL    HW212897   4.484   1.429   4.194
 4000SOL     OW12898   5.001   5.093   4.769
 4000SOL    HW112899   5.029   5.189   4.773
 4000SOL    HW212900   4.917   5.080   4.821
 4001SOL     OW12901   0.865   1.754   4.808
 4001SOL    HW112902   0.858   1.724   4.713
 4001SOL    HW212903   0.872   1.854   4.811
 4002SOL     OW12904   1.902   5.076   2.089
 4002SOL    HW112905   1.961   5.079   2.170
 4002SOL    HW212906   1.856   4.988   2.084
 4003SOL     OW12907   3.598   1.515   4.548
 4003SOL    HW112908   3.553   1.573   4.615
 4003SOL    HW212909   3.695   1.540   4.541
 4004SOL     OW12910   6.538   2.031   6.236
 4004SOL    HW112911   6.581   2.111   6.193
 4004SOL    HW212912   6.440   2.049   6.248
 4005SOL     OW12913   6.797   5.330   4.658
 4005SOL    HW112914   6.862   5.255   4.644
 4005SOL    HW212915   6.836   5.398   4.720
 4006SOL     OW12916   3.509   6.104   3.264
 4006SOL    HW112917   3.440   6.042   3.300
 4006SOL    HW212918   3.466   6.186   3.229
 4007SOL     OW12919   0.111   2.053   5.406
 4007SOL    HW112920   0.118   2.128   5.340
 4007SOL    HW212921   0.079   1.970   5.360
 4008SOL     OW12922   3.378   1.683   5.049
 4008SOL    HW112923   3.350   1.602   5.101
 4008SOL    HW212924   3.315   1.698   4.973
 4009SOL     OW12925   3.922   3.843   3.135
 4009SOL    HW112926   3.983   3.802   3.067
 4009SOL    HW212927   3.841   3.880   3.089
 4010SOL     OW12928   0.996   3.035   1.251
 4010SOL    HW112929   0.901   3.023   1.222
 4010SOL    HW212930   1.046   2.950   1.238
 4011SOL     OW12931   0.363   1.322   0.520
 4011SOL    HW112932   0.270   1.356   0.509
 4011SOL    HW212933   0.424   1.400   0.537
 4012SOL     OW12934   5.061   3.407   3.610
 4012SOL    HW112935   5.032   3.344   3.538
 4012SOL    HW212936   5.075   3.498   3.572
 4013SOL     OW12937   5.419   2.633   3.042
 4013SOL    HW112938   5.424   2.726   3.007
 4013SOL    HW212939   5.350   2.628   3.114
 4014SOL     OW12940   5.457   4.340   2.661
 4014SOL    HW112941   5.383   4.291   2.615
 4014SOL    HW212942   5.493   4.283   2.735
 4015SOL     OW12943   5.051   4.127   0.053
 4015SOL    HW112944   5.043   4.164   6.985
 4015SOL    HW212945   5.123   4.058   0.055
 4016SOL     OW12946   3.366   6.653   4.655
 4016SOL    HW112947   3.463   6.633   4.639
 4016SOL    HW212948   3.341   6.737   4.609
 4017SOL     OW12949   4.743   6.567   6.298
 4017SOL    HW112950   4.748   6.472   6.330
 4017SOL    HW212951   4.712   6.568   6.203
 4018SOL     OW12952   1.713   0.095   6.779
 4018SOL    HW112953   1.713   0.017   6.716
 4018SOL    HW212954   1.623   0.105   6.821
 4019SOL     OW12955   5.513   6.775   3.777
 4019SOL    HW112956   5.475   6.738   3.862
 4019SOL    HW212957   5.565   6.858   3.799
 4020SOL     OW12958   5.625   1.664   4.625
 4020SOL    HW112959   5.693   1.666   4.698
 4020SOL    HW212960   5.585   1.754   4.614
 4021SOL     OW12961   4.474   3.052   6.940
 4021SOL    HW112962   4.561   3.043   6.891
 4021SOL    HW212963   4.432   2.963   6.951
 4022SOL     OW12964   5.386   1.159   1.098
 4022SOL    HW112965   5.308   1.187   1.042
 4022SOL    HW212966   5.421   1.071   1.065
 4023SOL     OW12967   0.128   5.825   5.400
 4023SOL    HW112968   0.175   5.899   5.449
 4023SOL    HW212969   0.037   5.812   5.439
 4024SOL     OW12970   4.408   4.144   6.182
 4024SOL    HW112971   4.384   4.112   6.273
 4024SOL    HW212972   4.342   4.110   6.115
 4025SOL     OW12973   0.443   3.891   4.256
 4025SOL    HW112974   0.366   3.917   4.197
 4025SOL    HW212975   0.479   3.803   4.226
 4026SOL     OW12976   5.861   1.098   5.449
 4026SOL    HW112977   5.767   1.078   5.421
 4026SOL    HW212978   5.916   1.117   5.368
 4027SOL     OW12979   2.696   5.527   2.581
 4027SOL    HW112980   2.780   5.580   2.595
 4027SOL    HW212981   2.720   5.435   2.550
 4028SOL     OW12982   1.549   5.447   2.378
 4028SOL    HW112983   1.608   5.523   2.405
 4028SOL    HW212984   1.545   5.380   2.453
 4029SOL     OW12985   2.107   3.981   3.313
 4029SOL    HW112986   2.069   4.059   3.263
 4029SOL    HW212987   2.046   3.957   3.389
 4030SOL     OW12988   2.623   1.157   5.793
 4030SOL    HW112989   2.714   1.137   5.828
 4030SOL    HW212990   2.558   1.090   5.829
 4031SOL     OW12991   6.613   6.294   3.932
 4031SOL    HW112992   6.514   6.287   3.946
 4031SOL    HW212993   6.654   6.347   4.006
 4032SOL     OW12994   3.890   0.257   4.586
 4032SOL    HW112995   3.823   0.291   4.653
 4032SOL    HW212996   3.970   0.316   4.588
 4033SOL     OW12997   3.617   3.794   6.228
 4033SOL    HW112998   3.584   3.805   6.322
 4033SOL    HW212999   3.644   3.884   6.192
 4034SOL     OW13000   5.825   3.610   4.697
 4034SOL    HW113001   5.822   3.567   4.607
 4034SOL    HW213002   5.858   3.544   4.765
 4035SOL     OW13003   6.995   6.199   2.438
 4035SOL    HW113004   0.043   6.267   2.441
 4035SOL    HW213005   6.939   6.214   2.356
 4036SOL     OW13006   5.756   6.264   1.583
 4036SOL    HW113007   5.729   6.351   1.542
 4036SOL    HW213008   5.675   6.215   1.614
 4037SOL     OW13009   0.738   4.017   6.383
 4037SOL    HW113010   0.753   3.981   6.475
 4037SOL    HW213011   0.824   4.054   6.347
 4038SOL     OW13012   6.360   5.068   3.138
 4038SOL    HW113013   6.431   4.998   3.142
 4038SOL    HW213014   6.386   5.146   3.194
 4039SOL     OW13015   2.692   5.047   1.456
 4039SOL    HW113016   2.644   5.125   1.418
 4039SOL    HW213017   2.626   4.977   1.485
 4040SOL     OW13018   2.904   0.029   0.320
 4040SOL    HW113019   2.852   6.985   0.271
 4040SOL    HW213020   2.997   7.022   0.335
 4041SOL     OW13021   0.214   5.972   3.080
 4041SOL    HW113022   0.287   6.006   3.139
 4041SOL    HW213023   0.244   5.975   2.984
 4042SOL     OW13024   5.436   5.061   0.987
 4042SOL    HW113025   5.378   5.080   0.908
 4042SOL    HW213026   5.442   4.962   1.001
 4043SOL     OW13027   6.910   3.624   1.105
 4043SOL    HW113028   6.998   3.612   1.060
 4043SOL    HW213029   6.918   3.692   1.178
 4044SOL     OW13030   5.327   4.526   2.844
 4044SOL    HW113031   5.365   4.443   2.803
 4044SOL    HW213032   5.232   4.536   2.817
 4045SOL     OW13033   3.187   5.125   5.519
 4045SOL    HW113034   3.179   5.125   5.619
 4045SOL    HW213035   3.229   5.210   5.489
 4046SOL     OW13036   0.766   3.690   1.197
 4046SOL    HW113037   0.862   3.704   1.176
 4046SOL    HW213038   0.710   3.740   1.130
 4047SOL     OW13039   3.574   3.921   3.783
 4047SOL    HW113040   3.660   3.871   3.789
 4047SOL    HW213041   3.542   3.922   3.688
 4048SOL     OW13042   5.251   2.822   0.714
 4048SOL    HW113043   5.170   2.806   0.658
 4048SOL    HW213044   5.251   2.917   0.746
 4049SOL     OW13045   6.354   6.302   0.135
 4049SOL    HW113046   6.333   6.324   0.231
 4049SOL    HW213047   6.434   6.243   0.131
 4050SOL     OW13048   2.173   1.010   1.992
 4050SOL    HW113049   2.177   0.975   2.085
 4050SOL    HW213050   2.251   0.976   1.940
 4051SOL     OW13051   2.890   4.123   1.325
 4051SOL    HW113052   2.878   4.091   1.419
 4051SOL    HW213053   2.905   4.045   1.265
 4052SOL     OW13054   1.409   0.017   0.494
 4052SOL    HW113055   1.451   0.038   0.406
 4052SOL    HW213056   1.477   0.027   0.566
 4053SOL     OW13057   2.639   5.673   1.940
 4053SOL    HW113058   2.573   5.732   1.986
 4053SOL    HW213059   2.727   5.719   1.934
 4054SOL     OW13060   5.213   1.358   6.669
 4054SOL    HW113061   5.213   1.305   6.584
 4054SOL    HW213062   5.285   1.323   6.730
 4055SOL     OW13063   4.835   4.127   5.849
 4055SOL    HW113064   4.763   4.193   5.831
 4055SOL    HW213065   4.795   4.043   5.887
 4056SOL     OW13066   4.372   3.578   0.053
 4056SOL    HW113067   4.289   3.633   0.060
 4056SOL    HW213068   4.442   3.629   0.003
 4057SOL     OW13069   6.756   2.568   0.758
 4057SOL    HW113070   6.848   2.561   0.718
 4057SOL    HW213071   6.690   2.521   0.699
 4058SOL     OW13072   1.521   3.944   3.908
 4058SOL    HW113073   1.602   3.928   3.852
 4058SOL    HW213074   1.456   3.869   3.894
 4059SOL     OW13075   6.624   2.058   4.848
 4059SOL    HW113076   6.703   2.000   4.865
 4059SOL    HW213077   6.653   2.142   4.802
 4060SOL     OW13078   2.261   6.895   6.141
 4060SOL    HW113079   2.351   6.900   6.098
 4060SOL    HW213080   2.222   6.987   6.149
 4061SOL     OW13081   1.763   2.856   1.862
 4061SOL    HW113082   1.771   2.861   1.763
 4061SOL    HW213083   1.761   2.760   1.891
 4062SOL     OW13084   2.405   1.053   3.360
 4062SOL    HW113085   2.346   1.075   3.437
 4062SOL    HW213086   2.444   1.138   3.323
 4063SOL     OW13087   4.021   6.703   5.737
 4063SOL    HW113088   4.048   6.610   5.761
 4063SOL    HW213089   3.992   6.752   5.819
 4064SOL     OW13090   6.501   0.265   4.354
 4064SOL    HW113091   6.485   0.248   4.257
 4064SOL    HW213092   6.414   0.276   4.401
 4065SOL     OW13093   0.540   4.702   5.950
 4065SOL    HW113094   0.544   4.618   5.896
 4065SOL    HW213095   0.602   4.695   6.028
 4066SOL     OW13096   4.888   4.094   2.054
 4066SOL    HW113097   4.898   4.075   1.957
 4066SOL    HW213098   4.899   4.010   2.106
 4067SOL     OW13099   5.256   0.314   1.703
 4067SOL    HW113100   5.271   0.367   1.620
 4067SOL    HW213101   5.270   0.373   1.783
 4068SOL     OW13102   5.008   0.068   4.428
 4068SOL    HW113103   4.926   0.055   4.483
 4068SOL    HW213104   5.082   0.009   4.462
 4069SOL     OW13105   6.293   5.763   0.805
 4069SOL    HW113106   6.290   5.720   0.714
 4069SOL    HW213107   6.384   5.800   0.822
 4070SOL     OW13108   0.437   3.617   3.015
 4070SOL    HW113109   0.353   3.612   3.070
 4070SOL    HW213110   0.420   3.576   2.926
 4071SOL     OW13111   2.798   6.905   4.526
 4071SOL    HW113112   2.786   6.990   4.578
 4071SOL    HW213113   2.781   6.923   4.429
 4072SOL     OW13114   6.910   0.369   4.633
 4072SOL    HW113115   6.906   0.459   4.592
 4072SOL    HW213116   7.005   0.346   4.653
 4073SOL     OW13117   2.428   4.475   1.571
 4073SOL    HW113118   2.438   4.491   1.473
 4073SOL    HW213119   2.358   4.406   1.587
 4074SOL     OW13120   6.949   2.476   1.878
 4074SOL    HW113121   7.000   2.493   1.962
 4074SOL    HW213122   6.972   2.546   1.810
 4075SOL     OW13123   6.930   0.956   3.947
 4075SOL    HW113124   7.017   0.994   3.915
 4075SOL    HW213125   6.859   0.973   3.880
 4076SOL     OW13126   1.615   3.488   3.213
 4076SOL    HW113127   1.517   3.506   3.208
 4076SOL    HW213128   1.647   3.452   3.126
 4077SOL     OW13129   3.458   0.623   1.821
 4077SOL    HW113130   3.473   0.531   1.784
 4077SOL    HW213131   3.360   0.644   1.818
 4078SOL     OW13132   4.755   4.058   2.659
 4078SOL    HW113133   4.760   3.995   2.581
 4078SOL    HW213134   4.723   4.147   2.627
 4079SOL     OW13135   4.319   0.702   3.009
 4079SOL    HW113136   4.357   0.752   2.931
 4079SOL    HW213137   4.239   0.751   3.044
 4080SOL     OW13138   4.132   3.623   4.301
 4080SOL    HW113139   4.039   3.599   4.274
 4080SOL    HW213140   4.147   3.720   4.286
 4081SOL     OW13141   2.431   6.597   0.643
 4081SOL    HW113142   2.515   6.600   0.588
 4081SOL    HW213143   2.447   6.545   0.727
 4082SOL     OW13144   1.460   1.144   6.364
 4082SOL    HW113145   1.476   1.137   6.463
 4082SOL    HW213146   1.538   1.189   6.321
 4083SOL     OW13147   5.653   3.772   2.232
 4083SOL    HW113148   5.579   3.828   2.268
 4083SOL    HW213149   5.700   3.822   2.159
 4084SOL     OW13150   4.171   5.892   3.185
 4084SOL    HW113151   4.140   5.974   3.233
 4084SOL    HW213152   4.114   5.814   3.210
 4085SOL     OW13153   1.741   4.431   2.962
 4085SOL    HW113154   1.743   4.425   3.062
 4085SOL    HW213155   1.819   4.380   2.925
 4086SOL     OW13156   6.176   5.062   5.500
 4086SOL    HW113157   6.246   5.087   5.433
 4086SOL    HW213158   6.178   4.963   5.514
 4087SOL     OW13159   1.167   1.455   1.360
 4087SOL    HW113160   1.080   1.414   1.387
 4087SOL    HW213161   1.150   1.546   1.322
 4088SOL     OW13162   0.524   2.249   4.732
 4088SOL    HW113163   0.489   2.243   4.825
 4088SOL    HW213164   0.498   2.337   4.692
 4089SOL     OW13165   6.663   6.238   2.584
 4089SOL    HW113166   6.741   6.223   2.645
 4089SOL    HW213167   6.598   6.299   2.629
 4090SOL     OW13168   3.319   2.425   5.625
 4090SOL    HW113169   3.349   2.399   5.533
 4090SOL    HW213170   3.268   2.511   5.620
 4091SOL     OW13171   4.049   0.109   3.184
 4091SOL    HW113172   4.003   0.198   3.180
 4091SOL    HW213173   4.129   0.115   3.243
 4092SOL     OW13174   4.029   1.793   6.853
 4092SOL    HW113175   4.105   1.826   6.799
 4092SOL    HW213176   3.961   1.866   6.863
 4093SOL     OW13177   5.797   4.374   0.819
 4093SOL    HW113178   5.703   4.345   0.838
 4093SOL    HW213179   5.860   4.319   0.873
 4094SOL     OW13180   5.986   5.615   0.711
 4094SOL    HW113181   6.000   5.608   0.613
 4094SOL    HW213182   6.012   5.529   0.755
 4095SOL     OW13183   1.403   4.541   0.602
 4095SOL    HW113184   1.487   4.510   0.558
 4095SOL    HW213185   1.403   4.641   0.607
 4096SOL     OW13186   0.841   6.231   5.573
 4096SOL    HW113187   0.828   6.323   5.610
 4096SOL    HW213188   0.815   6.163   5.641
 4097SOL     OW13189   1.507   4.502   5.956
 4097SOL    HW113190   1.476   4.409   5.935
 4097SOL    HW213191   1.442   4.567   5.917
 4098SOL     OW13192   1.350   5.892   1.882
 4098SOL    HW113193   1.272   5.852   1.931
 4098SOL    HW213194   1.434   5.876   1.933
 4099SOL     OW13195   0.115   2.754   5.494
 4099SOL    HW113196   0.121   2.654   5.500
 4099SOL    HW213197   0.205   2.794   5.513
 4100SOL     OW13198   1.481   1.379   3.152
 4100SOL    HW113199   1.385   1.351   3.152
 4100SOL    HW213200   1.507   1.409   3.060
 4101SOL     OW13201   5.618   5.877   5.969
 4101SOL    HW113202   5.606   5.976   5.958
 4101SOL    HW213203   5.552   5.829   5.912
 4102SOL     OW13204   3.065   5.580   0.337
 4102SOL    HW113205   2.966   5.576   0.325
 4102SOL    HW213206   3.105   5.492   0.311
 4103SOL     OW13207   2.336   5.551   2.192
 4103SOL    HW113208   2.313   5.629   2.250
 4103SOL    HW213209   2.436   5.542   2.186
 4104SOL     OW13210   2.286   5.504   4.920
 4104SOL    HW113211   2.283   5.547   4.830
 4104SOL    HW213212   2.261   5.570   4.991
 4105SOL     OW13213   3.963   0.454   1.147
 4105SOL    HW113214   3.950   0.553   1.160
 4105SOL    HW213215   3.957   0.408   1.236
 4106SOL     OW13216   1.671   6.908   2.978
 4106SOL    HW113217   1.605   6.857   2.923
 4106SOL    HW213218   1.749   6.849   2.998
 4107SOL     OW13219   3.224   2.489   1.456
 4107SOL    HW113220   3.144   2.443   1.495
 4107SOL    HW213221   3.224   2.478   1.357
 4108SOL     OW13222   0.807   5.536   6.000
 4108SOL    HW113223   0.869   5.459   5.982
 4108SOL    HW213224   0.833   5.613   5.942
 4109SOL     OW13225   5.679   0.282   4.658
 4109SOL    HW113226   5.626   0.345   4.602
 4109SOL    HW213227   5.650   0.289   4.753
 4110SOL     OW13228   5.007   2.261   0.331
 4110SOL    HW113229   4.961   2.312   0.404
 4110SOL    HW213230   4.940   2.204   0.283
 4111SOL     OW13231   6.148   4.756   4.409
 4111SOL    HW113232   6.142   4.822   4.335
 4111SOL    HW213233   6.195   4.674   4.377
 4112SOL     OW13234   3.542   4.418   5.519
 4112SOL    HW113235   3.556   4.509   5.559
 4112SOL    HW213236   3.444   4.403   5.505
 4113SOL     OW13237   5.525   5.941   5.351
 4113SOL    HW113238   5.480   5.992   5.278
 4113SOL    HW213239   5.590   6.000   5.399
 4114SOL     OW13240   5.528   1.919   3.774
 4114SOL    HW113241   5.495   2.013   3.781
 4114SOL    HW213242   5.614   1.910   3.823
 4115SOL     OW13243   5.200   0.609   4.944
 4115SOL    HW113244   5.185   0.593   4.846
 4115SOL    HW213245   5.118   0.652   4.983
 4116SOL     OW13246   5.469   3.747   2.947
 4116SOL    HW113247   5.559   3.717   2.976
 4116SOL    HW213248   5.410   3.756   3.028
 4117SOL     OW13249   0.624   2.388   2.481
 4117SOL    HW113250   0.696   2.457   2.488
 4117SOL    HW213251   0.558   2.400   2.556
 4118SOL     OW13252   0.902   1.428   1.585
 4118SOL    HW113253   0.875   1.386   1.671
 4118SOL    HW213254   0.943   1.358   1.525
 4119SOL     OW13255   6.320   1.256   4.372
 4119SOL    HW113256   6.274   1.216   4.293
 4119SOL    HW213257   6.322   1.188   4.446
 4120SOL     OW13258   1.662   0.103   0.222
 4120SOL    HW113259   1.657   0.069   0.128
 4120SOL    HW213260   1.601   0.182   0.232
 4121SOL     OW13261   6.618   6.962   1.363
 4121SOL    HW113262   6.646   0.029   1.390
 4121SOL    HW213263   6.633   6.950   1.265
 4122SOL     OW13264   1.183   4.808   3.292
 4122SOL    HW113265   1.264   4.753   3.314
 4122SOL    HW213266   1.200   4.861   3.209
 4123SOL     OW13267   5.966   4.946   1.894
 4123SOL    HW113268   5.961   4.910   1.800
 4123SOL    HW213269   6.055   4.988   1.909
 4124SOL     OW13270   5.339   5.732   0.309
 4124SOL    HW113271   5.371   5.805   0.249
 4124SOL    HW213272   5.299   5.658   0.255
 4125SOL     OW13273   1.556   3.337   0.349
 4125SOL    HW113274   1.541   3.427   0.390
 4125SOL    HW213275   1.475   3.312   0.294
 4126SOL     OW13276   2.275   4.332   2.583
 4126SOL    HW113277   2.187   4.380   2.586
 4126SOL    HW213278   2.298   4.299   2.675
 4127SOL     OW13279   4.600   2.690   4.700
 4127SOL    HW113280   4.635   2.721   4.789
 4127SOL    HW213281   4.524   2.628   4.714
 4128SOL     OW13282   6.339   2.759   0.062
 4128SOL    HW113283   6.292   2.750   7.000
 4128SOL    HW213284   6.331   2.853   0.095
 4129SOL     OW13285   3.408   6.327   2.057
 4129SOL    HW113286   3.410   6.283   2.147
 4129SOL    HW213287   3.487   6.297   2.004
 4130SOL     OW13288   4.833   1.729   0.017
 4130SOL    HW113289   4.864   1.635   0.033
 4130SOL    HW213290   4.894   1.793   0.065
 4131SOL     OW13291   5.619   6.119   4.811
 4131SOL    HW113292   5.675   6.097   4.891
 4131SOL    HW213293   5.676   6.163   4.741
 4132SOL     OW13294   0.019   3.547   2.397
 4132SOL    HW113295   6.991   3.614   2.346
 4132SOL    HW213296   0.051   3.476   2.335
 4133SOL     OW13297   5.188   6.543   3.525
 4133SOL    HW113298   5.251   6.495   3.464
 4133SOL    HW213299   5.107   6.487   3.540
 4134SOL     OW13300   2.199   2.844   1.225
 4134SOL    HW113301   2.274   2.910   1.233
 4134SOL    HW213302   2.196   2.787   1.306
 4135SOL     OW13303   6.458   0.717   0.600
 4135SOL    HW113304   6.539   0.734   0.656
 4135SOL    HW213305   6.393   0.661   0.651
 4136SOL     OW13306   1.217   5.248   0.560
 4136SOL    HW113307   1.136   5.216   0.511
 4136SOL    HW213308   1.216   5.215   0.654
 4137SOL     OW13309   0.446   2.292   5.316
 4137SOL    HW113310   0.367   2.279   5.375
 4137SOL    HW213311   0.512   2.353   5.360
 4138SOL     OW13312   5.719   6.368   6.473
 4138SOL    HW113313   5.652   6.427   6.427
 4138SOL    HW213314   5.783   6.332   6.406
 4139SOL     OW13315   1.290   3.836   1.957
 4139SOL    HW113316   1.335   3.915   1.998
 4139SOL    HW213317   1.215   3.806   2.017
 4140SOL     OW13318   2.193   6.703   0.963
 4140SOL    HW113319   2.286   6.695   0.999
 4140SOL    HW213320   2.150   6.785   0.999
 4141SOL     OW13321   5.568   0.232   5.831
 4141SOL    HW113322   5.507   0.247   5.753
 4141SOL    HW213323   5.611   0.142   5.823
 4142SOL     OW13324   0.598   6.694   2.108
 4142SOL    HW113325   0.637   6.640   2.183
 4142SOL    HW213326   0.672   6.740   2.058
 4143SOL     OW13327   5.937   3.551   0.261
 4143SOL    HW113328   5.899   3.579   0.173
 4143SOL    HW213329   5.992   3.624   0.299
 4144SOL     OW13330   4.871   0.604   1.613
 4144SOL    HW113331   4.898   0.551   1.693
 4144SOL    HW213332   4.925   0.688   1.608
 4145SOL     OW13333   4.260   1.085   1.019
 4145SOL    HW113334   4.272   1.145   0.940
 4145SOL    HW213335   4.331   1.015   1.017
 4146SOL     OW13336   2.724   1.304   1.108
 4146SOL    HW113337   2.815   1.263   1.102
 4146SOL    HW213338   2.677   1.294   1.021
 4147SOL     OW13339   5.508   4.292   0.177
 4147SOL    HW113340   5.459   4.281   0.263
 4147SOL    HW213341   5.535   4.388   0.166
 4148SOL     OW13342   3.320   0.291   6.706
 4148SOL    HW113343   3.282   0.310   6.615
 4148SOL    HW213344   3.338   0.193   6.714
 4149SOL     OW13345   1.578   2.729   6.067
 4149SOL    HW113346   1.522   2.812   6.059
 4149SOL    HW213347   1.623   2.712   5.979
 4150SOL     OW13348   6.587   1.072   0.791
 4150SOL    HW113349   6.498   1.105   0.759
 4150SOL    HW213350   6.612   1.119   0.875
 4151SOL     OW13351   3.480   6.052   4.023
 4151SOL    HW113352   3.546   6.126   4.008
 4151SOL    HW213353   3.479   6.027   4.120
 4152SOL     OW13354   2.659   3.714   1.693
 4152SOL    HW113355   2.674   3.764   1.607
 4152SOL    HW213356   2.563   3.688   1.700
 4153SOL     OW13357   6.052   6.527   6.840
 4153SOL    HW113358   5.985   6.515   6.767
 4153SOL    HW213359   6.003   6.544   6.926
 4154SOL     OW13360   0.712   6.986   3.875
 4154SOL    HW113361   0.691   6.896   3.837
 4154SOL    HW213362   0.717   6.980   3.975
 4155SOL     OW13363   5.004   1.323   2.426
 4155SOL    HW113364   5.092   1.356   2.459
 4155SOL    HW213365   4.938   1.399   2.427
 4156SOL     OW13366   0.551   5.827   6.048
 4156SOL    HW113367   0.574   5.806   5.953
 4156SOL    HW213368   0.567   5.746   6.105
 4157SOL     OW13369   4.297   6.350   0.327
 4157SOL    HW113370   4.257   6.389   0.244
 4157SOL    HW213371   4.258   6.259   0.342
 4158SOL     OW13372   6.517   0.482   6.189
 4158SOL    HW113373   6.596   0.483   6.251
 4158SOL    HW213374   6.489   0.576   6.169
 4159SOL     OW13375   3.800   1.190   4.482
 4159SOL    HW113376   3.711   1.182   4.527
 4159SOL    HW213377   3.789   1.239   4.395
 4160SOL     OW13378   1.078   0.818   5.874
 4160SOL    HW113379   1.046   0.874   5.797
 4160SOL    HW213380   1.145   0.869   5.926
 4161SOL     OW13381   3.359   3.553   4.784
 4161SOL    HW113382   3.447   3.593   4.761
 4161SOL    HW213383   3.364   3.513   4.876
 4162SOL     OW13384   4.743   6.979   1.132
 4162SOL    HW113385   4.831   6.977   1.180
 4162SOL    HW213386   4.721   6.887   1.099
 4163SOL     OW13387   4.325   6.439   1.636
 4163SOL    HW113388   4.408   6.494   1.641
 4163SOL    HW213389   4.333   6.372   1.563
 4164SOL     OW13390   5.569   1.224   7.022
 4164SOL    HW113391   5.584   1.290   0.071
 4164SOL    HW213392   5.657   1.186   6.993
 4165SOL     OW13393   3.153   0.863   4.477
 4165SOL    HW113394   3.235   0.836   4.528
 4165SOL    HW213395   3.154   0.819   4.387
 4166SOL     OW13396   5.921   2.387   2.637
 4166SOL    HW113397   5.862   2.314   2.670
 4166SOL    HW213398   5.884   2.424   2.551
 4167SOL     OW13399   3.552   5.572   5.141
 4167SOL    HW113400   3.543   5.479   5.175
 4167SOL    HW213401   3.468   5.598   5.093
 4168SOL     OW13402   5.810   3.393   7.022
 4168SOL    HW113403   5.836   3.377   6.927
 4168SOL    HW213404   5.864   3.335   0.057
 4169SOL     OW13405   5.266   4.607   0.112
 4169SOL    HW113406   5.248   4.512   0.085
 4169SOL    HW213407   5.355   4.612   0.157
 4170SOL     OW13408   1.340   2.789   5.281
 4170SOL    HW113409   1.420   2.819   5.228
 4170SOL    HW213410   1.310   2.699   5.250
 4171SOL     OW13411   0.219   6.967   5.754
 4171SOL    HW113412   0.145   7.023   5.718
 4171SOL    HW213413   0.218   6.971   5.854
 4172SOL     OW13414   3.389   3.644   0.269
 4172SOL    HW113415   3.457   3.573   0.250
 4172SOL    HW213416   3.415   3.695   0.350
 4173SOL     OW13417   5.483   1.678   6.011
 4173SOL    HW113418   5.417   1.603   6.006
 4173SOL    HW213419   5.516   1.688   6.105
 4174SOL     OW13420   2.499   6.360   3.692
 4174SOL    HW113421   2.593   6.328   3.698
 4174SOL    HW213422   2.477   6.385   3.598
 4175SOL     OW13423   2.012   3.264   6.708
 4175SOL    HW113424   1.963   3.184   6.673
 4175SOL    HW213425   2.031   3.327   6.633
 4176SOL     OW13426   5.166   6.891   4.559
 4176SOL    HW113427   5.209   6.804   4.535
 4176SOL    HW213428   5.220   6.937   4.630
 4177SOL     OW13429   5.231   5.859   4.146
 4177SOL    HW113430   5.187   5.947   4.162
 4177SOL    HW213431   5.237   5.809   4.232
 4178SOL     OW13432   2.977   6.513   1.161
 4178SOL    HW113433   2.929   6.427   1.181
 4178SOL    HW213434   3.012   6.511   1.068
 4179SOL     OW13435   3.515   1.827   0.068
 4179SOL    HW113436   3.561   1.773   0.138
 4179SOL    HW213437   3.427   1.784   0.045
 4180SOL     OW13438   3.903   4.406   0.130
 4180SOL    HW113439   3.897   4.309   0.154
 4180SOL    HW213440   3.816   4.436   0.092
 4181SOL     OW13441   4.845   6.017   5.860
 4181SOL    HW113442   4.821   5.985   5.768
 4181SOL    HW213443   4.824   6.114   5.868
 4182SOL     OW13444   6.126   5.251   5.691
 4182SOL    HW113445   6.178   5.336   5.684
 4182SOL    HW213446   6.148   5.192   5.614
 4183SOL     OW13447   4.587   2.514   6.875
 4183SOL    HW113448   4.536   2.470   6.949
 4183SOL    HW213449   4.545   2.491   6.787
 4184SOL     OW13450   3.241   5.678   3.514
 4184SOL    HW113451   3.210   5.592   3.554
 4184SOL    HW213452   3.210   5.683   3.419
 4185SOL     OW13453   4.606   4.437   3.449
 4185SOL    HW113454   4.587   4.437   3.548
 4185SOL    HW213455   4.633   4.345   3.421
 4186SOL     OW13456   1.761   5.031   1.097
 4186SOL    HW113457   1.791   5.055   1.190
 4186SOL    HW213458   1.745   5.114   1.044
 4187SOL     OW13459   1.235   3.413   6.205
 4187SOL    HW113460   1.276   3.330   6.241
 4187SOL    HW213461   1.282   3.493   6.242
 4188SOL     OW13462   5.506   0.232   6.259
 4188SOL    HW113463   5.543   0.293   6.329
 4188SOL    HW213464   5.575   0.165   6.233
 4189SOL     OW13465   3.983   4.902   4.286
 4189SOL    HW113466   3.900   4.937   4.243
 4189SOL    HW213467   3.963   4.878   4.381
 4190SOL     OW13468   6.557   5.430   2.215
 4190SOL    HW113469   6.645   5.404   2.175
 4190SOL    HW213470   6.491   5.446   2.142
 4191SOL     OW13471   4.892   3.097   6.269
 4191SOL    HW113472   4.978   3.054   6.243
 4191SOL    HW213473   4.897   3.195   6.254
 4192SOL     OW13474   1.996   3.750   6.121
 4192SOL    HW113475   2.035   3.749   6.028
 4192SOL    HW213476   2.054   3.805   6.180
 4193SOL     OW13477   5.183   6.506   1.366
 4193SOL    HW113478   5.150   6.499   1.272
 4193SOL    HW213479   5.240   6.587   1.376
 4194SOL     OW13480   6.151   6.908   6.871
 4194SOL    HW113481   6.135   6.832   6.809
 4194SOL    HW213482   6.239   6.896   6.917
 4195SOL     OW13483   2.018   6.158   0.392
 4195SOL    HW113484   1.990   6.233   0.452
 4195SOL    HW213485   2.107   6.178   0.353
 4196SOL     OW13486   6.302   3.471   3.025
 4196SOL    HW113487   6.315   3.376   2.995
 4196SOL    HW213488   6.210   3.501   3.002
 4197SOL     OW13489   4.224   0.529   6.634
 4197SOL    HW113490   4.265   0.618   6.652
 4197SOL    HW213491   4.138   0.521   6.684
 4198SOL     OW13492   6.282   2.000   1.684
 4198SOL    HW113493   6.333   1.915   1.693
 4198SOL    HW213494   6.287   2.031   1.589
 4199SOL     OW13495   1.007   3.549   0.248
 4199SOL    HW113496   0.985   3.510   0.338
 4199SOL    HW213497   1.014   3.476   0.181
 4200SOL     OW13498   5.128   2.268   2.604
 4200SOL    HW113499   5.052   2.241   2.662
 4200SOL    HW213500   5.095   2.287   2.512
 4201SOL     OW13501   4.774   0.294   5.389
 4201SOL    HW113502   4.798   0.322   5.296
 4201SOL    HW213503   4.745   0.198   5.390
 4202SOL     OW13504   4.297   3.796   1.797
 4202SOL    HW113505   4.377   3.767   1.744
 4202SOL    HW213506   4.271   3.724   1.860
 4203SOL     OW13507   6.304   4.550   4.345
 4203SOL    HW113508   6.331   4.475   4.286
 4203SOL    HW213509   6.363   4.552   4.426
 4204SOL     OW13510   2.907   3.992   5.993
 4204SOL    HW113511   2.929   3.896   6.008
 4204SOL    HW213512   2.986   4.049   6.016
 4205SOL     OW13513   5.203   5.191   6.451
 4205SOL    HW113514   5.177   5.194   6.548
 4205SOL    HW213515   5.129   5.150   6.398
 4206SOL     OW13516   2.338   2.776   4.771
 4206SOL    HW113517   2.354   2.849   4.838
 4206SOL    HW213518   2.419   2.718   4.766
 4207SOL     OW13519   2.545   2.791   1.671
 4207SOL    HW113520   2.613   2.717   1.677
 4207SOL    HW213521   2.484   2.787   1.749
 4208SOL     OW13522   1.467   2.345   3.303
 4208SOL    HW113523   1.399   2.282   3.267
 4208SOL    HW213524   1.509   2.396   3.228
 4209SOL     OW13525   6.895   5.024   2.771
 4209SOL    HW113526   6.907   4.943   2.715
 4209SOL    HW213527   6.799   5.030   2.800
 4210SOL     OW13528   3.410   5.636   5.598
 4210SOL    HW113529   3.442   5.682   5.681
 4210SOL    HW213530   3.488   5.600   5.548
 4211SOL     OW13531   4.971   3.169   5.751
 4211SOL    HW113532   4.973   3.240   5.681
 4211SOL    HW213533   4.922   3.202   5.831
 4212SOL     OW13534   0.183   3.125   2.882
 4212SOL    HW113535   0.145   3.171   2.802
 4212SOL    HW213536   0.210   3.032   2.857
 4213SOL     OW13537   3.151   1.109   3.776
 4213SOL    HW113538   3.089   1.043   3.818
 4213SOL    HW213539   3.245   1.091   3.807
 4214SOL     OW13540   6.322   6.262   4.028
 4214SOL    HW113541   6.239   6.207   4.022
 4214SOL    HW213542   6.304   6.345   4.082
 4215SOL     OW13543   6.271   0.020   4.767
 4215SOL    HW113544   6.303   6.974   4.830
 4215SOL    HW213545   6.242   7.002   4.681
 4216SOL     OW13546   1.285   5.771   2.361
 4216SOL    HW113547   1.242   5.766   2.451
 4216SOL    HW213548   1.277   5.683   2.314
 4217SOL     OW13549   0.411   0.802   2.668
 4217SOL    HW113550   0.461   0.849   2.595
 4217SOL    HW213551   0.313   0.818   2.656
 4218SOL     OW13552   2.779   0.438   1.967
 4218SOL    HW113553   2.719   0.497   2.021
 4218SOL    HW213554   2.785   0.472   1.873
 4219SOL     OW13555   2.445   4.839   1.999
 4219SOL    HW113556   2.459   4.751   2.044
 4219SOL    HW213557   2.516   4.852   1.929
 4220SOL     OW13558   5.674   2.007   1.040
 4220SOL    HW113559   5.609   2.072   1.000
 4220SOL    HW213560   5.625   1.947   1.104
 4221SOL     OW13561   0.436   6.935   0.837
 4221SOL    HW113562   0.497   6.903   0.764
 4221SOL    HW213563   0.356   6.875   0.842
 4222SOL     OW13564   5.721   3.610   4.261
 4222SOL    HW113565   5.786   3.553   4.312
 4222SOL    HW213566   5.760   3.701   4.246
 4223SOL     OW13567   3.622   3.780   2.699
 4223SOL    HW113568   3.684   3.841   2.750
 4223SOL    HW213569   3.572   3.834   2.631
 4224SOL     OW13570   4.587   4.018   5.285
 4224SOL    HW113571   4.613   4.028   5.382
 4224SOL    HW213572   4.487   4.018   5.277
 4225SOL     OW13573   0.887   1.637   5.766
 4225SOL    HW113574   0.851   1.691   5.842
 4225SOL    HW213575   0.822   1.564   5.744
 4226SOL     OW13576   4.748   5.413   4.052
 4226SOL    HW113577   4.718   5.347   4.120
 4226SOL    HW213578   4.792   5.366   3.976
 4227SOL     OW13579   6.452   5.554   1.153
 4227SOL    HW113580   6.540   5.542   1.107
 4227SOL    HW213581   6.456   5.513   1.244
 4228SOL     OW13582   1.632   5.040   3.821
 4228SOL    HW113583   1.681   4.972   3.876
 4228SOL    HW213584   1.558   4.996   3.771
 4229SOL     OW13585   6.025   6.033   6.182
 4229SOL    HW113586   5.966   5.952   6.177
 4229SOL    HW213587   6.121   6.004   6.176
 4230SOL     OW13588   0.161   1.936   2.327
 4230SOL    HW113589   0.176   1.897   2.417
 4230SOL    HW213590   0.212   1.884   2.259
 4231SOL     OW13591   0.677   0.129   5.656
 4231SOL    HW113592   0.754   0.190   5.639
 4231SOL    HW213593   0.684   0.091   5.748
 4232SOL     OW13594   2.020   4.395   2.340
 4232SOL    HW113595   1.962   4.454   2.283
 4232SOL    HW213596   2.098   4.362   2.286
 4233SOL     OW13597   4.877   5.137   2.197
 4233SOL    HW113598   4.926   5.163   2.280
 4233SOL    HW213599   4.802   5.075   2.222
 4234SOL     OW13600   3.015   5.202   6.373
 4234SOL    HW113601   2.989   5.293   6.341
 4234SOL    HW213602   3.024   5.202   6.472
 4235SOL     OW13603   6.413   5.863   0.432
 4235SOL    HW113604   6.452   5.888   0.521
 4235SOL    HW213605   6.364   5.776   0.440
 4236SOL     OW13606   0.435   5.318   4.472
 4236SOL    HW113607   0.402   5.272   4.555
 4236SOL    HW213608   0.498   5.391   4.498
 4237SOL     OW13609   6.954   4.768   4.852
 4237SOL    HW113610   6.931   4.718   4.935
 4237SOL    HW213611   0.027   4.761   4.835
 4238SOL     OW13612   1.901   5.651   3.663
 4238SOL    HW113613   2.001   5.649   3.665
 4238SOL    HW213614   1.869   5.610   3.578
 4239SOL     OW13615   4.169   1.232   3.317
 4239SOL    HW113616   4.173   1.159   3.385
 4239SOL    HW213617   4.100   1.210   3.248
 4240SOL     OW13618   4.314   0.683   1.212
 4240SOL    HW113619   4.271   0.723   1.293
 4240SOL    HW213620   4.355   0.595   1.236
 4241SOL     OW13621   0.784   4.463   6.361
 4241SOL    HW113622   0.818   4.378   6.321
 4241SOL    HW213623   0.779   4.534   6.290
 4242SOL     OW13624   3.404   2.019   2.529
 4242SOL    HW113625   3.399   1.921   2.550
 4242SOL    HW213626   3.498   2.051   2.542
 4243SOL     OW13627   2.567   2.219   2.921
 4243SOL    HW113628   2.597   2.131   2.957
 4243SOL    HW213629   2.541   2.279   2.997
 4244SOL     OW13630   2.808   2.809   5.382
 4244SOL    HW113631   2.751   2.892   5.386
 4244SOL    HW213632   2.751   2.729   5.401
 4245SOL     OW13633   6.508   0.539   5.546
 4245SOL    HW113634   6.435   0.504   5.487
 4245SOL    HW213635   6.497   0.503   5.638
 4246SOL     OW13636   1.646   5.367   5.912
 4246SOL    HW113637   1.718   5.363   5.981
 4246SOL    HW213638   1.584   5.288   5.923
 4247SOL     OW13639   0.345   4.410   5.394
 4247SOL    HW113640   0.259   4.450   5.424
 4247SOL    HW213641   0.327   4.325   5.345
 4248SOL     OW13642   1.759   3.387   6.737
 4248SOL    HW113643   1.746   3.470   6.791
 4248SOL    HW213644   1.854   3.355   6.746
 4249SOL     OW13645   5.128   3.256   6.026
 4249SOL    HW113646   5.149   3.166   6.064
 4249SOL    HW213647   5.032   3.260   5.999
 4250SOL     OW13648   0.101   4.241   4.040
 4250SOL    HW113649   0.186   4.286   4.010
 4250SOL    HW213650   0.024   4.278   3.988
 4251SOL     OW13651   5.706   4.895   6.112
 4251SOL    HW113652   5.686   4.993   6.120
 4251SOL    HW213653   5.703   4.853   6.203
 4252SOL     OW13654   0.029   5.043   5.854
 4252SOL    HW113655   0.099   5.016   5.920
 4252SOL    HW213656   6.968   4.998   5.876
 4253SOL     OW13657   3.040   0.420   3.475
 4253SOL    HW113658   3.099   0.499   3.488
 4253SOL    HW213659   2.944   0.448   3.483
 4254SOL     OW13660   4.075   3.804   3.933
 4254SOL    HW113661   4.042   3.867   3.862
 4254SOL    HW213662   4.016   3.811   4.013
 4255SOL     OW13663   0.805   2.093   4.505
 4255SOL    HW113664   0.834   2.107   4.600
 4255SOL    HW213665   0.872   2.036   4.457
 4256SOL     OW13666   1.014   0.945   1.248
 4256SOL    HW113667   1.107   0.953   1.212
 4256SOL    HW213668   0.953   0.913   1.176
 4257SOL     OW13669   4.212   2.301   4.735
 4257SOL    HW113670   4.151   2.223   4.721
 4257SOL    HW213671   4.211   2.328   4.831
 4258SOL     OW13672   5.743   6.609   2.417
 4258SOL    HW113673   5.742   6.535   2.484
 4258SOL    HW213674   5.692   6.582   2.335
 4259SOL     OW13675   2.533   3.042   1.601
 4259SOL    HW113676   2.440   3.063   1.571
 4259SOL    HW213677   2.541   2.944   1.621
 4260SOL     OW13678   4.322   5.499   5.175
 4260SOL    HW113679   4.225   5.503   5.196
 4260SOL    HW213680   4.364   5.423   5.223
 4261SOL     OW13681   0.504   1.204   2.239
 4261SOL    HW113682   0.466   1.136   2.176
 4261SOL    HW213683   0.545   1.158   2.318
 4262SOL     OW13684   1.342   0.042   4.846
 4262SOL    HW113685   1.271   7.002   4.870
 4262SOL    HW213686   1.410   7.023   4.787
 4263SOL     OW13687   4.493   5.632   6.932
 4263SOL    HW113688   4.478   5.667   6.840
 4263SOL    HW213689   4.435   5.682   6.997
 4264SOL     OW13690   1.482   0.715   1.576
 4264SOL    HW113691   1.423   0.795   1.571
 4264SOL    HW213692   1.531   0.715   1.664
 4265SOL     OW13693   2.128   1.515   0.915
 4265SOL    HW113694   2.061   1.530   0.988
 4265SOL    HW213695   2.088   1.538   0.827
 4266SOL     OW13696   2.234   5.112   0.359
 4266SOL    HW113697   2.238   5.117   0.259
 4266SOL    HW213698   2.299   5.178   0.398
 4267SOL     OW13699   1.634   3.301   5.118
 4267SOL    HW113700   1.702   3.264   5.181
 4267SOL    HW213701   1.563   3.232   5.101
 4268SOL     OW13702   0.433   1.749   0.714
 4268SOL    HW113703   0.440   1.801   0.629
 4268SOL    HW213704   0.461   1.807   0.791
 4269SOL     OW13705   2.724   3.858   1.430
 4269SOL    HW113706   2.801   3.795   1.420
 4269SOL    HW213707   2.696   3.890   1.339
 4270SOL     OW13708   3.619   3.261   0.425
 4270SOL    HW113709   3.539   3.271   0.366
 4270SOL    HW213710   3.702   3.286   0.375
 4271SOL     OW13711   2.166   0.738   0.801
 4271SOL    HW113712   2.171   0.794   0.883
 4271SOL    HW213713   2.148   0.796   0.722
 4272SOL     OW13714   1.375   4.371   3.759
 4272SOL    HW113715   1.382   4.276   3.729
 4272SOL    HW213716   1.308   4.377   3.833
 4273SOL     OW13717   0.030   6.349   3.630
 4273SOL    HW113718   0.108   6.409   3.614
 4273SOL    HW213719   0.023   6.283   3.555
 4274SOL     OW13720   1.513   0.031   3.981
 4274SOL    HW113721   1.475   6.991   4.047
 4274SOL    HW213722   1.556   0.107   4.030
 4275SOL     OW13723   0.115   0.812   5.828
 4275SOL    HW113724   0.198   0.828   5.775
 4275SOL    HW213725   0.127   0.730   5.884
 4276SOL     OW13726   2.029   3.333   3.438
 4276SOL    HW113727   2.010   3.369   3.347
 4276SOL    HW213728   2.086   3.251   3.430
 4277SOL     OW13729   0.920   6.232   5.915
 4277SOL    HW113730   0.907   6.328   5.939
 4277SOL    HW213731   1.003   6.198   5.958
 4278SOL     OW13732   1.193   6.478   6.438
 4278SOL    HW113733   1.202   6.412   6.364
 4278SOL    HW213734   1.158   6.565   6.403
 4279SOL     OW13735   4.468   6.049   4.181
 4279SOL    HW113736   4.471   5.950   4.163
 4279SOL    HW213737   4.517   6.097   4.109
 4280SOL     OW13738   4.848   3.149   4.153
 4280SOL    HW113739   4.947   3.152   4.144
 4280SOL    HW213740   4.807   3.120   4.066
 4281SOL     OW13741   2.173   3.929   4.635
 4281SOL    HW113742   2.160   3.923   4.734
 4281SOL    HW213743   2.085   3.916   4.590
 4282SOL     OW13744   1.242   0.900   6.852
 4282SOL    HW113745   1.341   0.889   6.851
 4282SOL    HW213746   1.215   0.963   6.926
 4283SOL     OW13747   2.581   1.841   4.011
 4283SOL    HW113748   2.557   1.805   3.921
 4283SOL    HW213749   2.582   1.941   4.007
 4284SOL     OW13750   6.975   3.180   3.041
 4284SOL    HW113751   6.982   3.278   3.059
 4284SOL    HW213752   0.031   3.149   2.993
 4285SOL     OW13753   0.868   6.429   4.104
 4285SOL    HW113754   0.960   6.468   4.097
 4285SOL    HW213755   0.874   6.330   4.090
 4286SOL     OW13756   5.059   5.285   0.535
 4286SOL    HW113757   5.091   5.357   0.597
 4286SOL    HW213758   4.960   5.272   0.546
 4287SOL     OW13759   3.888   6.142   5.848
 4287SOL    HW113760   3.972   6.152   5.794
 4287SOL    HW213761   3.809   6.139   5.787
 4288SOL     OW13762   0.755   6.255   4.499
 4288SOL    HW113763   0.763   6.245   4.598
 4288SOL    HW213764   0.706   6.340   4.478
 4289SOL     OW13765   1.367   4.419   6.625
 4289SOL    HW113766   1.269   4.407   6.604
 4289SOL    HW213767   1.382   4.510   6.663
 4290SOL     OW13768   1.421   1.502   2.505
 4290SOL    HW113769   1.367   1.424   2.473
 4290SOL    HW213770   1.371   1.552   2.575
 4291SOL     OW13771   6.711   3.354   1.999
 4291SOL    HW113772   6.727   3.295   2.078
 4291SOL    HW213773   6.778   3.333   1.927
 4292SOL     OW13774   5.809   5.673   5.277
 4292SOL    HW113775   5.849   5.760   5.306
 4292SOL    HW213776   5.715   5.689   5.247
 4293SOL     OW13777   0.783   1.920   0.634
 4293SOL    HW113778   0.752   1.997   0.578
 4293SOL    HW213779   0.817   1.955   0.722
 4294SOL     OW13780   4.785   2.487   5.234
 4294SOL    HW113781   4.691   2.473   5.266
 4294SOL    HW213782   4.808   2.417   5.166
 4295SOL     OW13783   3.271   4.875   5.634
 4295SOL    HW113784   3.210   4.921   5.570
 4295SOL    HW213785   3.358   4.856   5.590
 4296SOL     OW13786   2.139   1.774   2.429
 4296SOL    HW113787   2.174   1.768   2.523
 4296SOL    HW213788   2.191   1.713   2.370
 4297SOL     OW13789   6.110   6.775   0.152
 4297SOL    HW113790   6.187   6.752   0.212
 4297SOL    HW213791   6.132   6.858   0.101
 4298SOL     OW13792   1.184   4.799   1.712
 4298SOL    HW113793   1.111   4.795   1.780
 4298SOL    HW213794   1.144   4.811   1.621
 4299SOL     OW13795   1.188   5.702   4.371
 4299SOL    HW113796   1.206   5.798   4.392
 4299SOL    HW213797   1.135   5.662   4.446
 4300SOL     OW13798   6.654   0.163   5.628
 4300SOL    HW113799   6.682   0.069   5.652
 4300SOL    HW213800   6.559   0.177   5.654
 4301SOL     OW13801   2.569   0.068   0.548
 4301SOL    HW113802   2.497   0.114   0.600
 4301SOL    HW213803   2.529   7.020   0.493
 4302SOL     OW13804   0.487   0.777   6.989
 4302SOL    HW113805   0.399   0.731   7.001
 4302SOL    HW213806   0.537   0.735   6.914
 4303SOL     OW13807   0.219   4.137   2.680
 4303SOL    HW113808   0.308   4.183   2.686
 4303SOL    HW213809   0.227   4.045   2.716
 4304SOL     OW13810   2.475   3.302   6.544
 4304SOL    HW113811   2.504   3.263   6.631
 4304SOL    HW213812   2.398   3.365   6.559
 4305SOL     OW13813   0.616   1.173   4.926
 4305SOL    HW113814   0.705   1.160   4.881
 4305SOL    HW213815   0.547   1.121   4.876
 4306SOL     OW13816   5.718   5.539   5.731
 4306SOL    HW113817   5.813   5.535   5.700
 4306SOL    HW213818   5.717   5.556   5.830
 4307SOL     OW13819   6.347   3.738   1.193
 4307SOL    HW113820   6.361   3.826   1.148
 4307SOL    HW213821   6.263   3.696   1.158
 4308SOL     OW13822   3.225   0.307   5.533
 4308SOL    HW113823   3.289   0.364   5.584
 4308SOL    HW213824   3.244   0.210   5.551
 4309SOL     OW13825   0.938   0.978   1.518
 4309SOL    HW113826   0.968   0.916   1.591
 4309SOL    HW213827   0.946   0.931   1.430
 4310SOL     OW13828   1.333   6.939   2.758
 4310SOL    HW113829   1.318   7.001   2.835
 4310SOL    HW213830   1.257   6.946   2.694
 4311SOL     OW13831   0.746   4.854   5.061
 4311SOL    HW113832   0.767   4.951   5.062
 4311SOL    HW213833   0.650   4.840   5.086
 4312SOL     OW13834   2.106   5.409   2.203
 4312SOL    HW113835   2.120   5.318   2.162
 4312SOL    HW213836   2.192   5.460   2.200
 4313SOL     OW13837   5.261   1.522   0.784
 4313SOL    HW113838   5.171   1.562   0.763
 4313SOL    HW213839   5.309   1.500   0.699
 4314SOL     OW13840   6.917   2.731   1.661
 4314SOL    HW113841   7.002   2.723   1.713
 4314SOL    HW213842   6.928   2.801   1.591
 4315SOL     OW13843   1.451   0.676   2.074
 4315SOL    HW113844   1.474   0.703   1.980
 4315SOL    HW213845   1.530   0.632   2.116
 4316SOL     OW13846   6.731   1.168   2.860
 4316SOL    HW113847   6.636   1.140   2.843
 4316SOL    HW213848   6.746   1.259   2.822
 4317SOL     OW13849   3.973   0.614   3.009
 4317SOL    HW113850   4.011   0.649   2.923
 4317SOL    HW213851   3.876   0.638   3.014
 4318SOL     OW13852   0.214   2.118   4.974
 4318SOL    HW113853   0.186   2.158   5.061
 4318SOL    HW213854   0.291   2.170   4.936
 4319SOL     OW13855   4.624   3.205   6.632
 4319SOL    HW113856   4.685   3.126   6.639
 4319SOL    HW213857   4.530   3.176   6.646
 4320SOL     OW13858   0.737   6.693   3.499
 4320SOL    HW113859   0.726   6.736   3.589
 4320SOL    HW213860   0.808   6.623   3.505
 4321SOL     OW13861   7.004   6.761   4.022
 4321SOL    HW113862   6.997   6.848   3.973
 4321SOL    HW213863   6.966   6.688   3.965
 4322SOL     OW13864   0.160   1.263   6.887
 4322SOL    HW113865   0.208   1.186   6.845
 4322SOL    HW213866   0.143   1.243   6.983
 4323SOL     OW13867   6.989   2.886   4.571
 4323SOL    HW113868   6.973   2.794   4.608
 4323SOL    HW213869   0.040   2.928   4.621
 4324SOL     OW13870   5.700   3.003   5.829
 4324SOL    HW113871   5.710   2.909   5.863
 4324SOL    HW213872   5.703   3.003   5.729
 4325SOL     OW13873   2.627   2.336   6.577
 4325SOL    HW113874   2.716   2.320   6.535
 4325SOL    HW213875   2.607   2.263   6.642
 4326SOL     OW13876   0.665   2.432   5.403
 4326SOL    HW113877   0.691   2.366   5.473
 4326SOL    HW213878   0.739   2.441   5.336
 4327SOL     OW13879   4.840   0.723   3.098
 4327SOL    HW113880   4.814   0.690   3.189
 4327SOL    HW213881   4.759   0.728   3.040
 4328SOL     OW13882   6.311   5.174   0.732
 4328SOL    HW113883   6.324   5.122   0.817
 4328SOL    HW213884   6.346   5.267   0.743
 4329SOL     OW13885   5.022   1.438   6.419
 4329SOL    HW113886   4.958   1.401   6.487
 4329SOL    HW213887   5.105   1.382   6.418
 4330SOL     OW13888   0.833   0.417   6.514
 4330SOL    HW113889   0.738   0.408   6.543
 4330SOL    HW213890   0.893   0.368   6.577
 4331SOL     OW13891   5.528   2.498   6.339
 4331SOL    HW113892   5.433   2.487   6.368
 4331SOL    HW213893   5.589   2.486   6.418
 4332SOL     OW13894   6.518   4.259   2.083
 4332SOL    HW113895   6.582   4.328   2.049
 4332SOL    HW213896   6.542   4.234   2.176
 4333SOL     OW13897   6.394   1.953   4.979
 4333SOL    HW113898   6.483   1.968   4.935
 4333SOL    HW213899   6.322   1.997   4.925
 4334SOL     OW13900   4.254   6.980   1.863
 4334SOL    HW113901   4.222   6.909   1.801
 4334SOL    HW213902   4.343   6.954   1.901
 4335SOL     OW13903   4.447   4.365   6.419
 4335SOL    HW113904   4.357   4.325   6.439
 4335SOL    HW213905   4.450   4.393   6.323
 4336SOL     OW13906   0.835   0.337   5.583
 4336SOL    HW113907   0.865   0.407   5.648
 4336SOL    HW213908   0.833   0.375   5.491
 4337SOL     OW13909   1.437   6.021   6.246
 4337SOL    HW113910   1.444   5.972   6.159
 4337SOL    HW213911   1.518   6.080   6.258
 4338SOL     OW13912   5.331   6.625   3.078
 4338SOL    HW113913   5.286   6.581   3.000
 4338SOL    HW213914   5.293   6.717   3.090
 4339SOL     OW13915   0.099   1.223   0.381
 4339SOL    HW113916   0.004   1.243   0.356
 4339SOL    HW213917   0.152   1.202   0.299
 4340SOL     OW13918   5.001   3.245   1.618
 4340SOL    HW113919   5.072   3.179   1.593
 4340SOL    HW213920   4.948   3.209   1.696
 4341SOL     OW13921   1.252   3.408   0.650
 4341SOL    HW113922   1.176   3.410   0.715
 4341SOL    HW213923   1.237   3.335   0.583
 4342SOL     OW13924   6.203   2.812   3.164
 4342SOL    HW113925   6.217   2.735   3.103
 4342SOL    HW213926   6.190   2.896   3.110
 4343SOL     OW13927   3.159   3.908   1.512
 4343SOL    HW113928   3.203   3.969   1.446
 4343SOL    HW213929   3.089   3.957   1.562
 4344SOL     OW13930   2.376   3.604   1.706
 4344SOL    HW113931   2.340   3.557   1.787
 4344SOL    HW213932   2.356   3.549   1.625
 4345SOL     OW13933   2.463   0.776   5.895
 4345SOL    HW113934   2.550   0.821   5.912
 4345SOL    HW213935   2.402   0.791   5.973
 4346SOL     OW13936   6.822   3.659   1.829
 4346SOL    HW113937   6.820   3.642   1.731
 4346SOL    HW213938   6.907   3.624   1.868
 4347SOL     OW13939   5.025   6.263   2.546
 4347SOL    HW113940   4.942   6.240   2.496
 4347SOL    HW213941   5.089   6.309   2.485
 4348SOL     OW13942   0.741   2.857   0.312
 4348SOL    HW113943   0.801   2.925   0.271
 4348SOL    HW213944   0.680   2.902   0.377
 4349SOL     OW13945   5.884   0.812   0.663
 4349SOL    HW113946   5.963   0.776   0.613
 4349SOL    HW213947   5.864   0.752   0.741
 4350SOL     OW13948   3.358   0.388   3.309
 4350SOL    HW113949   3.294   0.324   3.266
 4350SOL    HW213950   3.389   0.350   3.396
 4351SOL     OW13951   3.476   0.005   0.075
 4351SOL    HW113952   3.546   0.032   0.009
 4351SOL    HW213953   3.401   6.984   0.028
 4352SOL     OW13954   6.113   1.697   1.063
 4352SOL    HW113955   6.144   1.666   1.152
 4352SOL    HW213956   6.049   1.773   1.075
 4353SOL     OW13957   3.240   5.909   0.980
 4353SOL    HW113958   3.183   5.974   1.031
 4353SOL    HW213959   3.231   5.818   1.020
 4354SOL     OW13960   2.473   1.556   1.668
 4354SOL    HW113961   2.555   1.609   1.690
 4354SOL    HW213962   2.459   1.556   1.569
 4355SOL     OW13963   4.738   0.429   6.662
 4355SOL    HW113964   4.690   0.506   6.620
 4355SOL    HW213965   4.692   0.343   6.638
 4356SOL     OW13966   3.856   3.483   1.393
 4356SOL    HW113967   3.844   3.384   1.406
 4356SOL    HW213968   3.855   3.528   1.482
 4357SOL     OW13969   5.191   0.683   1.284
 4357SOL    HW113970   5.277   0.730   1.305
 4357SOL    HW213971   5.158   0.711   1.194
 4358SOL     OW13972   6.432   0.361   0.350
 4358SOL    HW113973   6.526   0.327   0.343
 4358SOL    HW213974   6.395   0.338   0.440
 4359SOL     OW13975   0.065   4.060   4.528
 4359SOL    HW113976   0.154   4.015   4.536
 4359SOL    HW213977   0.068   4.128   4.455
 4360SOL     OW13978   2.646   2.846   1.394
 4360SOL    HW113979   2.659   2.780   1.468
 4360SOL    HW213980   2.727   2.903   1.385
 4361SOL     OW13981   4.975   1.812   2.813
 4361SOL    HW113982   5.071   1.785   2.807
 4361SOL    HW213983   4.962   1.900   2.767
 4362SOL     OW13984   4.983   4.284   2.617
 4362SOL    HW113985   4.916   4.228   2.664
 4362SOL    HW213986   5.066   4.290   2.672
 4363SOL     OW13987   5.393   6.975   6.709
 4363SOL    HW113988   5.408   6.877   6.723
 4363SOL    HW213989   5.308   6.988   6.658
 4364SOL     OW13990   4.318   3.976   5.295
 4364SOL    HW113991   4.273   3.920   5.365
 4364SOL    HW213992   4.275   4.066   5.291
 4365SOL     OW13993   4.953   2.637   0.173
 4365SOL    HW113994   5.034   2.609   0.223
 4365SOL    HW213995   4.871   2.606   0.222
 4366SOL     OW13996   4.696   4.493   0.698
 4366SOL    HW113997   4.713   4.531   0.607
 4366SOL    HW213998   4.603   4.457   0.702
 4367SOL     OW13999   5.826   6.737   1.052
 4367SOL    HW114000   5.871   6.657   1.092
 4367SOL    HW214001   5.837   6.734   0.952
 4368SOL     OW14002   4.039   6.091   1.749
 4368SOL    HW114003   4.092   6.161   1.797
 4368SOL    HW214004   3.986   6.038   1.816
 4369SOL     OW14005   2.946   5.176   1.479
 4369SOL    HW114006   2.851   5.144   1.486
 4369SOL    HW214007   2.994   5.154   1.564
 4370SOL     OW14008   5.150   3.877   1.246
 4370SOL    HW114009   5.237   3.913   1.280
 4370SOL    HW214010   5.121   3.931   1.166
 4371SOL     OW14011   1.261   1.250   1.988
 4371SOL    HW114012   1.304   1.238   1.898
 4371SOL    HW214013   1.191   1.321   1.982
 4372SOL     OW14014   4.502   0.058   3.492
 4372SOL    HW114015   4.456   0.033   3.577
 4372SOL    HW214016   4.597   0.025   3.495
 4373SOL     OW14017   0.633   1.789   5.145
 4373SOL    HW114018   0.713   1.817   5.198
 4373SOL    HW214019   0.557   1.772   5.207
 4374SOL     OW14020   4.018   1.524   0.379
 4374SOL    HW114021   3.969   1.575   0.450
 4374SOL    HW214022   4.099   1.576   0.351
 4375SOL     OW14023   3.761   5.474   4.556
 4375SOL    HW114024   3.751   5.414   4.635
 4375SOL    HW214025   3.766   5.569   4.586
 4376SOL     OW14026   0.135   2.201   2.959
 4376SOL    HW114027   0.218   2.151   2.981
 4376SOL    HW214028   0.157   2.298   2.945
 4377SOL     OW14029   0.389   5.027   5.583
 4377SOL    HW114030   0.443   5.049   5.502
 4377SOL    HW214031   0.418   4.938   5.619
 4378SOL     OW14032   3.669   1.623   4.088
 4378SOL    HW114033   3.578   1.607   4.125
 4378SOL    HW214034   3.695   1.719   4.103
 4379SOL     OW14035   3.105   1.570   6.127
 4379SOL    HW114036   3.186   1.626   6.147
 4379SOL    HW214037   3.123   1.475   6.154
 4380SOL     OW14038   6.469   2.267   3.820
 4380SOL    HW114039   6.463   2.236   3.725
 4380SOL    HW214040   6.541   2.216   3.867
 4381SOL     OW14041   0.765   4.497   6.624
 4381SOL    HW114042   0.843   4.482   6.686
 4381SOL    HW214043   0.787   4.460   6.534
 4382SOL     OW14044   1.623   4.813   4.798
 4382SOL    HW114045   1.616   4.782   4.703
 4382SOL    HW214046   1.637   4.734   4.858
 4383SOL     OW14047   0.615   4.190   0.375
 4383SOL    HW114048   0.585   4.209   0.282
 4383SOL    HW214049   0.635   4.092   0.384
 4384SOL     OW14050   4.478   0.241   4.038
 4384SOL    HW114051   4.442   0.274   3.951
 4384SOL    HW214052   4.542   0.166   4.022
 4385SOL     OW14053   5.270   0.334   6.185
 4385SOL    HW114054   5.238   0.356   6.278
 4385SOL    HW214055   5.359   0.291   6.191
 4386SOL     OW14056   1.776   2.900   3.767
 4386SOL    HW114057   1.702   2.836   3.787
 4386SOL    HW214058   1.864   2.852   3.768
 4387SOL     OW14059   4.047   2.562   1.008
 4387SOL    HW114060   3.975   2.521   1.064
 4387SOL    HW214061   4.013   2.644   0.964
 4388SOL     OW14062   6.045   2.943   0.273
 4388SOL    HW114063   6.093   2.886   0.340
 4388SOL    HW214064   5.951   2.958   0.303
 4389SOL     OW14065   2.274   1.528   6.251
 4389SOL    HW114066   2.203   1.589   6.214
 4389SOL    HW214067   2.364   1.565   6.227
 4390SOL     OW14068   0.190   1.015   1.783
 4390SOL    HW114069   0.235   0.928   1.804
 4390SOL    HW214070   0.133   1.043   1.860
 4391SOL     OW14071   6.654   6.075   2.362
 4391SOL    HW114072   6.660   6.124   2.449
 4391SOL    HW214073   6.710   6.121   2.294
 4392SOL     OW14074   2.382   2.445   6.538
 4392SOL    HW114075   2.456   2.381   6.560
 4392SOL    HW214076   2.378   2.517   6.607
 4393SOL     OW14077   6.325   6.771   1.746
 4393SOL    HW114078   6.357   6.710   1.818
 4393SOL    HW214079   6.342   6.728   1.657
 4394SOL     OW14080   6.219   1.731   3.039
 4394SOL    HW114081   6.290   1.782   2.990
 4394SOL    HW214082   6.247   1.721   3.135
 4395SOL     OW14083   2.372   3.368   0.763
 4395SOL    HW114084   2.283   3.335   0.792
 4395SOL    HW214085   2.372   3.468   0.758
 4396SOL     OW14086   2.441   1.552   2.300
 4396SOL    HW114087   2.467   1.538   2.396
 4396SOL    HW214088   2.497   1.624   2.260
 4397SOL     OW14089   4.137   0.737   4.781
 4397SOL    HW114090   4.202   0.755   4.707
 4397SOL    HW214091   4.047   0.718   4.742
 4398SOL     OW14092   2.527   3.053   6.060
 4398SOL    HW114093   2.528   3.069   6.159
 4398SOL    HW214094   2.621   3.041   6.028
 4399SOL     OW14095   3.377   5.947   2.036
 4399SOL    HW114096   3.284   5.979   2.056
 4399SOL    HW214097   3.388   5.853   2.066
 4400SOL     OW14098   1.494   6.316   5.059
 4400SOL    HW114099   1.573   6.359   5.103
 4400SOL    HW214100   1.526   6.248   4.993
 4401SOL     OW14101   2.690   0.540   5.967
 4401SOL    HW114102   2.627   0.507   5.897
 4401SOL    HW214103   2.693   0.475   6.043
 4402SOL     OW14104   0.302   0.759   1.937
 4402SOL    HW114105   0.232   0.689   1.952
 4402SOL    HW214106   0.358   0.733   1.858
 4403SOL     OW14107   6.439   6.425   2.716
 4403SOL    HW114108   6.388   6.463   2.793
 4403SOL    HW214109   6.379   6.364   2.664
 4404SOL     OW14110   0.880   6.002   4.963
 4404SOL    HW114111   0.958   5.983   4.904
 4404SOL    HW214112   0.806   6.043   4.908
 4405SOL     OW14113   1.067   5.666   3.489
 4405SOL    HW114114   1.091   5.577   3.451
 4405SOL    HW214115   0.975   5.692   3.460
 4406SOL     OW14116   5.751   4.331   2.309
 4406SOL    HW114117   5.771   4.288   2.222
 4406SOL    HW214118   5.772   4.267   2.384
 4407SOL     OW14119   5.011   0.501   1.362
 4407SOL    HW114120   5.076   0.573   1.338
 4407SOL    HW214121   4.955   0.531   1.439
 4408SOL     OW14122   5.020   0.260   6.944
 4408SOL    HW114123   5.101   0.311   6.972
 4408SOL    HW214124   5.039   0.162   6.947
 4409SOL     OW14125   3.872   0.570   4.052
 4409SOL    HW114126   3.931   0.649   4.069
 4409SOL    HW214127   3.832   0.577   3.961
 4410SOL     OW14128   1.772   0.687   0.579
 4410SOL    HW114129   1.810   0.745   0.652
 4410SOL    HW214130   1.673   0.698   0.577
 4411SOL     OW14131   4.676   4.277   4.722
 4411SOL    HW114132   4.673   4.253   4.625
 4411SOL    HW214133   4.757   4.333   4.740
 4412SOL     OW14134   4.861   6.553   0.770
 4412SOL    HW114135   4.779   6.599   0.805
 4412SOL    HW214136   4.940   6.613   0.780
 4413SOL     OW14137   4.944   6.311   4.537
 4413SOL    HW114138   4.971   6.399   4.497
 4413SOL    HW214139   5.002   6.239   4.500
 4414SOL     OW14140   6.140   4.162   1.268
 4414SOL    HW114141   6.225   4.111   1.257
 4414SOL    HW214142   6.153   4.235   1.336
 4415SOL     OW14143   0.677   4.267   1.469
 4415SOL    HW114144   0.628   4.190   1.510
 4415SOL    HW214145   0.621   4.350   1.475
 4416SOL     OW14146   4.913   3.396   4.432
 4416SOL    HW114147   4.948   3.477   4.478
 4416SOL    HW214148   4.988   3.349   4.385
 4417SOL     OW14149   0.314   3.822   1.866
 4417SOL    HW114150   0.357   3.734   1.848
 4417SOL    HW214151   0.336   3.886   1.792
 4418SOL     OW14152   6.128   2.486   4.689
 4418SOL    HW114153   6.139   2.453   4.596
 4418SOL    HW214154   6.126   2.586   4.690
 4419SOL     OW14155   6.215   6.127   6.398
 4419SOL    HW114156   6.169   6.083   6.321
 4419SOL    HW214157   6.184   6.221   6.407
 4420SOL     OW14158   4.432   0.284   0.313
 4420SOL    HW114159   4.344   0.239   0.331
 4420SOL    HW214160   4.470   0.318   0.399
 4421SOL     OW14161   2.237   1.862   0.563
 4421SOL    HW114162   2.250   1.904   0.653
 4421SOL    HW214163   2.321   1.814   0.536
 4422SOL     OW14164   0.503   2.595   6.397
 4422SOL    HW114165   0.414   2.603   6.354
 4422SOL    HW214166   0.508   2.509   6.448
 4423SOL     OW14167   5.812   4.025   4.018
 4423SOL    HW114168   5.788   3.974   3.936
 4423SOL    HW214169   5.762   4.112   4.019
 4424SOL     OW14170   3.613   5.033   2.176
 4424SOL    HW114171   3.589   5.122   2.137
 4424SOL    HW214172   3.531   4.989   2.213
 4425SOL     OW14173   0.761   6.181   0.363
 4425SOL    HW114174   0.739   6.177   0.460
 4425SOL    HW214175   0.805   6.268   0.342
 4426SOL     OW14176   1.367   0.894   4.576
 4426SOL    HW114177   1.397   0.962   4.509
 4426SOL    HW214178   1.372   0.803   4.536
 4427SOL     OW14179   3.965   6.346   0.220
 4427SOL    HW114180   3.899   6.279   0.254
 4427SOL    HW214181   3.940   6.437   0.252
 4428SOL     OW14182   6.457   5.598   2.833
 4428SOL    HW114183   6.535   5.602   2.770
 4428SOL    HW214184   6.486   5.559   2.920
 4429SOL     OW14185   1.987   5.245   2.696
 4429SOL    HW114186   1.975   5.314   2.767
 4429SOL    HW214187   2.026   5.288   2.614
 4430SOL     OW14188   5.373   3.973   4.419
 4430SOL    HW114189   5.395   3.912   4.343
 4430SOL    HW214190   5.449   3.975   4.484
 4431SOL     OW14191   5.156   0.631   4.670
 4431SOL    HW114192   5.070   0.681   4.679
 4431SOL    HW214193   5.196   0.649   4.579
 4432SOL     OW14194   2.228   3.454   6.483
 4432SOL    HW114195   2.235   3.504   6.397
 4432SOL    HW214196   2.139   3.409   6.488
 4433SOL     OW14197   0.601   0.547   5.138
 4433SOL    HW114198   0.660   0.511   5.066
 4433SOL    HW214199   0.597   0.647   5.131
 4434SOL     OW14200   6.635   0.248   2.532
 4434SOL    HW114201   6.727   0.210   2.530
 4434SOL    HW214202   6.639   0.348   2.529
 4435SOL     OW14203   1.524   4.387   1.700
 4435SOL    HW114204   1.599   4.404   1.635
 4435SOL    HW214205   1.561   4.385   1.793
 4436SOL     OW14206   5.156   1.736   1.328
 4436SOL    HW114207   5.239   1.742   1.384
 4436SOL    HW214208   5.180   1.713   1.234
 4437SOL     OW14209   0.151   5.682   0.566
 4437SOL    HW114210   0.157   5.682   0.466
 4437SOL    HW214211   0.175   5.772   0.601
 4438SOL     OW14212   3.338   1.926   4.758
 4438SOL    HW114213   3.245   1.907   4.724
 4438SOL    HW214214   3.332   1.961   4.852
 4439SOL     OW14215   2.913   5.179   2.133
 4439SOL    HW114216   3.000   5.204   2.089
 4439SOL    HW214217   2.852   5.137   2.066
 4440SOL     OW14218   2.047   5.447   5.915
 4440SOL    HW114219   2.107   5.368   5.902
 4440SOL    HW214220   2.102   5.531   5.917
 4441SOL     OW14221   6.070   1.318   0.904
 4441SOL    HW114222   6.056   1.366   0.817
 4441SOL    HW214223   6.034   1.225   0.896
 4442SOL     OW14224   1.349   4.393   0.929
 4442SOL    HW114225   1.351   4.342   1.015
 4442SOL    HW214226   1.382   4.486   0.945
 4443SOL     OW14227   1.067   6.045   5.397
 4443SOL    HW114228   1.161   6.061   5.367
 4443SOL    HW214229   1.011   6.125   5.376
 4444SOL     OW14230   4.186   6.823   0.285
 4444SOL    HW114231   4.143   6.770   0.211
 4444SOL    HW214232   4.173   6.775   0.372
 4445SOL     OW14233   1.709   3.391   0.858
 4445SOL    HW114234   1.660   3.470   0.823
 4445SOL    HW214235   1.802   3.418   0.884
 4446SOL     OW14236   5.951   2.084   1.599
 4446SOL    HW114237   6.018   2.033   1.653
 4446SOL    HW214238   5.861   2.040   1.608
 4447SOL     OW14239   4.991   5.075   6.326
 4447SOL    HW114240   4.991   5.006   6.254
 4447SOL    HW214241   4.906   5.071   6.377
 4448SOL     OW14242   2.029   6.169   2.930
 4448SOL    HW114243   2.068   6.230   2.862
 4448SOL    HW214244   1.938   6.139   2.899
 4449SOL     OW14245   3.667   2.211   5.309
 4449SOL    HW114246   3.602   2.164   5.249
 4449SOL    HW214247   3.760   2.178   5.290
 4450SOL     OW14248   2.625   5.698   0.361
 4450SOL    HW114249   2.531   5.727   0.375
 4450SOL    HW214250   2.650   5.630   0.430
 4451SOL     OW14251   4.885   5.648   2.375
 4451SOL    HW114252   4.869   5.705   2.456
 4451SOL    HW214253   4.895   5.552   2.404
 4452SOL     OW14254   5.125   5.026   3.573
 4452SOL    HW114255   5.147   5.096   3.641
 4452SOL    HW214256   5.169   4.940   3.598
 4453SOL     OW14257   0.127   5.638   1.670
 4453SOL    HW114258   0.151   5.702   1.743
 4453SOL    HW214259   0.186   5.654   1.590
 4454SOL     OW14260   6.967   0.834   6.995
 4454SOL    HW114261   6.956   0.744   6.953
 4454SOL    HW214262   6.939   0.905   6.929
 4455SOL     OW14263   0.905   0.894   3.785
 4455SOL    HW114264   0.933   0.799   3.796
 4455SOL    HW214265   0.823   0.899   3.729
 4456SOL     OW14266   1.783   6.014   4.589
 4456SOL    HW114267   1.758   5.944   4.656
 4456SOL    HW214268   1.849   5.976   4.524
 4457SOL     OW14269   1.960   2.226   4.865
 4457SOL    HW114270   1.970   2.319   4.830
 4457SOL    HW214271   1.958   2.161   4.789
 4458SOL     OW14272   1.909   2.312   5.553
 4458SOL    HW114273   1.922   2.278   5.460
 4458SOL    HW214274   1.812   2.326   5.571
 4459SOL     OW14275   2.079   4.257   3.603
 4459SOL    HW114276   2.089   4.212   3.691
 4459SOL    HW214277   1.993   4.309   3.601
 4460SOL     OW14278   6.718   3.365   4.946
 4460SOL    HW114279   6.809   3.405   4.958
 4460SOL    HW214280   6.679   3.397   4.859
 4461SOL     OW14281   2.636   6.890   1.051
 4461SOL    HW114282   2.679   6.959   1.110
 4461SOL    HW214283   2.667   6.903   0.957
 4462SOL     OW14284   0.340   4.760   3.067
 4462SOL    HW114285   0.363   4.854   3.091
 4462SOL    HW214286   0.421   4.702   3.078
 4463SOL     OW14287   5.269   1.837   6.689
 4463SOL    HW114288   5.276   1.748   6.644
 4463SOL    HW214289   5.242   1.824   6.785
 4464SOL     OW14290   0.578   3.245   1.344
 4464SOL    HW114291   0.518   3.320   1.319
 4464SOL    HW214292   0.525   3.160   1.350
 4465SOL     OW14293   4.385   4.690   1.179
 4465SOL    HW114294   4.425   4.655   1.264
 4465SOL    HW214295   4.450   4.678   1.104
 4466SOL     OW14296   0.768   2.687   2.076
 4466SOL    HW114297   0.842   2.635   2.118
 4466SOL    HW214298   0.689   2.687   2.137
 4467SOL     OW14299   4.946   4.532   1.499
 4467SOL    HW114300   5.042   4.558   1.489
 4467SOL    HW214301   4.902   4.590   1.567
 4468SOL     OW14302   1.854   3.457   0.471
 4468SOL    HW114303   1.923   3.510   0.422
 4468SOL    HW214304   1.798   3.518   0.527
 4469SOL     OW14305   1.011   6.626   2.307
 4469SOL    HW114306   1.099   6.586   2.284
 4469SOL    HW214307   0.938   6.565   2.276
 4470SOL     OW14308   0.298   6.931   3.430
 4470SOL    HW114309   0.382   6.909   3.382
 4470SOL    HW214310   0.223   6.941   3.364
 4471SOL     OW14311   1.617   0.583   6.600
 4471SOL    HW114312   1.561   0.665   6.601
 4471SOL    HW214313   1.700   0.599   6.546
 4472SOL     OW14314   2.336   3.242   1.050
 4472SOL    HW114315   2.296   3.203   0.967
 4472SOL    HW214316   2.341   3.342   1.041
 4473SOL     OW14317   1.188   3.099   5.532
 4473SOL    HW114318   1.274   3.121   5.579
 4473SOL    HW214319   1.193   3.005   5.497
 4474SOL     OW14320   1.789   6.246   1.689
 4474SOL    HW114321   1.848   6.257   1.770
 4474SOL    HW214322   1.815   6.314   1.620
 4475SOL     OW14323   1.203   3.048   0.757
 4475SOL    HW114324   1.108   3.018   0.765
 4475SOL    HW214325   1.253   2.983   0.700
 4476SOL     OW14326   4.497   0.957   3.471
 4476SOL    HW114327   4.523   0.920   3.382
 4476SOL    HW214328   4.521   1.054   3.476
 4477SOL     OW14329   6.647   1.497   4.890
 4477SOL    HW114330   6.593   1.425   4.846
 4477SOL    HW214331   6.632   1.493   4.989
 4478SOL     OW14332   0.949   0.249   2.442
 4478SOL    HW114333   0.872   0.276   2.385
 4478SOL    HW214334   1.008   0.186   2.392
 4479SOL     OW14335   3.117   3.540   0.249
 4479SOL    HW114336   3.124   3.447   0.284
 4479SOL    HW214337   3.205   3.586   0.257
 4480SOL     OW14338   6.499   1.122   3.707
 4480SOL    HW114339   6.407   1.160   3.699
 4480SOL    HW214340   6.565   1.196   3.719
 4481SOL     OW14341   2.397   4.440   6.164
 4481SOL    HW114342   2.363   4.460   6.256
 4481SOL    HW214343   2.352   4.501   6.098
 4482SOL     OW14344   2.985   6.991   1.500
 4482SOL    HW114345   3.049   6.914   1.494
 4482SOL    HW214346   2.892   6.958   1.482
 4483SOL     OW14347   1.589   2.443   1.798
 4483SOL    HW114348   1.680   2.409   1.775
 4483SOL    HW214349   1.524   2.413   1.728
 4484SOL     OW14350   4.417   6.954   0.438
 4484SOL    HW114351   4.399   6.870   0.386
 4484SOL    HW214352   4.359   0.002   0.404
 4485SOL     OW14353   0.469   2.361   5.700
 4485SOL    HW114354   0.391   2.324   5.650
 4485SOL    HW214355   0.465   2.461   5.698
 4486SOL     OW14356   5.334   5.450   3.670
 4486SOL    HW114357   5.397   5.505   3.724
 4486SOL    HW214358   5.278   5.510   3.613
 4487SOL     OW14359   0.264   3.711   6.986
 4487SOL    HW114360   0.257   3.704   6.886
 4487SOL    HW214361   0.177   3.745   7.023
 4488SOL     OW14362   5.627   4.830   3.399
 4488SOL    HW114363   5.621   4.928   3.383
 4488SOL    HW214364   5.673   4.813   3.486
 4489SOL     OW14365   3.222   6.401   5.752
 4489SOL    HW114366   3.252   6.450   5.834
 4489SOL    HW214367   3.165   6.462   5.696
 4490SOL     OW14368   4.736   1.897   1.440
 4490SOL    HW114369   4.764   1.952   1.519
 4490SOL    HW214370   4.798   1.819   1.431
 4491SOL     OW14371   0.222   4.862   2.689
 4491SOL    HW114372   0.214   4.904   2.780
 4491SOL    HW214373   0.279   4.780   2.695
 4492SOL     OW14374   6.507   0.805   1.916
 4492SOL    HW114375   6.484   0.782   1.822
 4492SOL    HW214376   6.444   0.875   1.950
 4493SOL     OW14377   5.485   0.992   5.949
 4493SOL    HW114378   5.541   0.910   5.951
 4493SOL    HW214379   5.543   1.072   5.963
 4494SOL     OW14380   0.469   1.682   2.419
 4494SOL    HW114381   0.426   1.712   2.504
 4494SOL    HW214382   0.445   1.587   2.401
 4495SOL     OW14383   4.061   6.318   1.571
 4495SOL    HW114384   4.128   6.340   1.641
 4495SOL    HW214385   4.009   6.237   1.598
 4496SOL     OW14386   2.367   4.800   5.644
 4496SOL    HW114387   2.304   4.724   5.627
 4496SOL    HW214388   2.461   4.769   5.630
 4497SOL     OW14389   6.077   6.492   4.708
 4497SOL    HW114390   6.020   6.420   4.668
 4497SOL    HW214391   6.022   6.576   4.717
 4498SOL     OW14392   2.017   5.213   3.612
 4498SOL    HW114393   1.917   5.220   3.608
 4498SOL    HW214394   2.050   5.164   3.531
 4499SOL     OW14395   5.675   2.242   1.985
 4499SOL    HW114396   5.741   2.315   2.002
 4499SOL    HW214397   5.669   2.184   2.066
 4500SOL     OW14398   3.547   5.960   0.609
 4500SOL    HW114399   3.536   6.053   0.644
 4500SOL    HW214400   3.460   5.912   0.614
 4501SOL     OW14401   5.269   1.117   3.167
 4501SOL    HW114402   5.296   1.021   3.168
 4501SOL    HW214403   5.343   1.172   3.128
 4502SOL     OW14404   0.509   3.352   0.304
 4502SOL    HW114405   0.580   3.394   0.361
 4502SOL    HW214406   0.455   3.424   0.260
 4503SOL     OW14407   3.197   1.302   3.300
 4503SOL    HW114408   3.213   1.282   3.397
 4503SOL    HW214409   3.138   1.231   3.261
 4504SOL     OW14410   0.977   3.370   3.604
 4504SOL    HW114411   1.015   3.373   3.697
 4504SOL    HW214412   0.935   3.281   3.588
 4505SOL     OW14413   6.400   3.796   3.743
 4505SOL    HW114414   6.425   3.881   3.788
 4505SOL    HW214415   6.481   3.738   3.733
 4506SOL     OW14416   4.205   4.289   0.506
 4506SOL    HW114417   4.285   4.265   0.450
 4506SOL    HW214418   4.160   4.369   0.466
 4507SOL     OW14419   5.491   2.154   2.832
 4507SOL    HW114420   5.393   2.160   2.815
 4507SOL    HW214421   5.519   2.058   2.829
 4508SOL     OW14422   6.970   4.501   1.197
 4508SOL    HW114423   6.981   4.408   1.163
 4508SOL    HW214424   6.876   4.532   1.179
 4509SOL     OW14425   4.670   1.559   2.407
 4509SOL    HW114426   4.713   1.545   2.318
 4509SOL    HW214427   4.715   1.635   2.454
 4510SOL     OW14428   4.778   1.693   3.286
 4510SOL    HW114429   4.683   1.681   3.312
 4510SOL    HW214430   4.784   1.708   3.187
 4511SOL     OW14431   0.538   3.969   0.149
 4511SOL    HW114432   0.593   3.914   0.085
 4511SOL    HW214433   0.558   3.940   0.243
 4512SOL     OW14434   2.803   3.854   6.666
 4512SOL    HW114435   2.817   3.795   6.587
 4512SOL    HW214436   2.861   3.824   6.741
 4513SOL     OW14437   0.252   2.223   0.660
 4513SOL    HW114438   0.186   2.232   0.735
 4513SOL    HW214439   0.213   2.165   0.589
 4514SOL     OW14440   3.913   5.449   0.152
 4514SOL    HW114441   3.936   5.537   0.111
 4514SOL    HW214442   3.928   5.376   0.085
 4515SOL     OW14443   4.827   6.708   6.044
 4515SOL    HW114444   4.737   6.677   6.015
 4515SOL    HW214445   4.817   6.775   6.118
 4516SOL     OW14446   3.460   1.669   4.730
 4516SOL    HW114447   3.434   1.632   4.819
 4516SOL    HW214448   3.436   1.766   4.726
 4517SOL     OW14449   3.580   0.409   3.854
 4517SOL    HW114450   3.666   0.363   3.875
 4517SOL    HW214451   3.594   0.473   3.778
 4518SOL     OW14452   6.543   5.929   0.670
 4518SOL    HW114453   6.608   5.999   0.638
 4518SOL    HW214454   6.507   5.955   0.759
 4519SOL     OW14455   5.113   6.393   6.006
 4519SOL    HW114456   5.112   6.302   6.049
 4519SOL    HW214457   5.130   6.462   6.076
 4520SOL     OW14458   5.021   5.379   5.310
 4520SOL    HW114459   5.112   5.338   5.316
 4520SOL    HW214460   4.951   5.310   5.328
 4521SOL     OW14461   5.161   2.480   3.821
 4521SOL    HW114462   5.247   2.515   3.858
 4521SOL    HW214463   5.170   2.466   3.723
 4522SOL     OW14464   5.849   4.385   3.882
 4522SOL    HW114465   5.793   4.342   3.953
 4522SOL    HW214466   5.912   4.317   3.845
 4523SOL     OW14467   1.050   2.238   0.321
 4523SOL    HW114468   0.995   2.157   0.303
 4523SOL    HW214469   1.131   2.213   0.375
 4524SOL     OW14470   1.559   4.098   1.406
 4524SOL    HW114471   1.463   4.094   1.379
 4524SOL    HW214472   1.581   4.191   1.437
 4525SOL     OW14473   3.409   1.721   5.968
 4525SOL    HW114474   3.433   1.815   5.940
 4525SOL    HW214475   3.373   1.722   6.061
 4526SOL     OW14476   1.102   6.815   4.885
 4526SOL    HW114477   1.034   6.805   4.812
 4526SOL    HW214478   1.082   6.896   4.939
 4527SOL     OW14479   1.452   2.680   2.964
 4527SOL    HW114480   1.376   2.629   3.007
 4527SOL    HW214481   1.455   2.772   3.002
 4528SOL     OW14482   4.739   2.162   4.363
 4528SOL    HW114483   4.646   2.189   4.388
 4528SOL    HW214484   4.804   2.206   4.425
 4529SOL     OW14485   1.013   2.680   2.706
 4529SOL    HW114486   1.112   2.684   2.693
 4529SOL    HW214487   0.984   2.756   2.764
 4530SOL     OW14488   4.679   4.584   6.587
 4530SOL    HW114489   4.581   4.568   6.577
 4530SOL    HW214490   4.730   4.507   6.549
 4531SOL     OW14491   1.083   6.235   5.023
 4531SOL    HW114492   1.147   6.312   5.026
 4531SOL    HW214493   1.028   6.234   5.106
 4532SOL     OW14494   5.648   0.513   2.388
 4532SOL    HW114495   5.658   0.458   2.471
 4532SOL    HW214496   5.662   0.456   2.307
 4533SOL     OW14497   2.916   6.265   0.952
 4533SOL    HW114498   2.817   6.250   0.955
 4533SOL    HW214499   2.962   6.206   1.018
 4534SOL     OW14500   5.883   1.609   5.101
 4534SOL    HW114501   5.828   1.526   5.106
 4534SOL    HW214502   5.978   1.585   5.080
 4535SOL     OW14503   1.832   6.828   0.753
 4535SOL    HW114504   1.843   6.917   0.798
 4535SOL    HW214505   1.829   6.841   0.654
 4536SOL     OW14506   3.981   0.630   5.190
 4536SOL    HW114507   4.020   0.545   5.157
 4536SOL    HW214508   4.005   0.705   5.128
 4537SOL     OW14509   3.684   3.661   3.481
 4537SOL    HW114510   3.739   3.709   3.549
 4537SOL    HW214511   3.631   3.589   3.525
 4538SOL     OW14512   1.722   2.782   0.520
 4538SOL    HW114513   1.673   2.696   0.508
 4538SOL    HW214514   1.820   2.764   0.522
 4539SOL     OW14515   0.613   4.579   5.322
 4539SOL    HW114516   0.582   4.598   5.228
 4539SOL    HW214517   0.543   4.528   5.371
 4540SOL     OW14518   1.555   1.218   6.622
 4540SOL    HW114519   1.555   1.134   6.676
 4540SOL    HW214520   1.649   1.244   6.600
 4541SOL     OW14521   3.756   2.915   0.822
 4541SOL    HW114522   3.707   2.946   0.741
 4541SOL    HW214523   3.793   2.823   0.806
 4542SOL     OW14524   6.660   2.408   0.204
 4542SOL    HW114525   6.626   2.315   0.191
 4542SOL    HW214526   6.630   2.466   0.129
 4543SOL     OW14527   4.448   1.610   0.565
 4543SOL    HW114528   4.460   1.588   0.662
 4543SOL    HW214529   4.478   1.704   0.548
 4544SOL     OW14530   4.373   6.031   6.835
 4544SOL    HW114531   4.448   6.097   6.833
 4544SOL    HW214532   4.321   6.041   6.920
 4545SOL     OW14533   3.090   2.949   6.337
 4545SOL    HW114534   3.081   2.852   6.313
 4545SOL    HW214535   3.008   2.998   6.306
 4546SOL     OW14536   4.872   6.378   5.101
 4546SOL    HW114537   4.795   6.346   5.047
 4546SOL    HW214538   4.848   6.464   5.147
 4547SOL     OW14539   0.085   6.778   1.144
 4547SOL    HW114540   0.101   6.685   1.179
 4547SOL    HW214541   7.012   6.793   1.135
 4548SOL     OW14542   3.876   0.712   1.197
 4548SOL    HW114543   3.816   0.693   1.275
 4548SOL    HW214544   3.924   0.798   1.212
 4549SOL     OW14545   6.869   5.350   3.748
 4549SOL    HW114546   6.836   5.408   3.673
 4549SOL    HW214547   6.801   5.280   3.769
 4550SOL     OW14548   2.397   5.328   6.807
 4550SOL    HW114549   2.463   5.301   6.736
 4550SOL    HW214550   2.323   5.379   6.766
 4551SOL     OW14551   3.555   3.220   6.299
 4551SOL    HW114552   3.480   3.154   6.302
 4551SOL    HW214553   3.538   3.287   6.226
 4552SOL     OW14554   5.929   0.469   6.438
 4552SOL    HW114555   5.942   0.457   6.536
 4552SOL    HW214556   5.945   0.381   6.391
 4553SOL     OW14557   0.447   0.180   0.487
 4553SOL    HW114558   0.407   0.272   0.486
 4553SOL    HW214559   0.410   0.129   0.564
 4554SOL     OW14560   5.111   5.832   2.882
 4554SOL    HW114561   5.074   5.871   2.798
 4554SOL    HW214562   5.138   5.905   2.944
 4555SOL     OW14563   0.765   0.477   3.742
 4555SOL    HW114564   0.850   0.529   3.738
 4555SOL    HW214565   0.721   0.479   3.653
 4556SOL     OW14566   5.310   4.753   4.610
 4556SOL    HW114567   5.353   4.777   4.522
 4556SOL    HW214568   5.306   4.835   4.668
 4557SOL     OW14569   1.058   6.670   5.107
 4557SOL    HW114570   1.114   6.588   5.118
 4557SOL    HW214571   1.081   6.715   5.021
 4558SOL     OW14572   1.214   3.970   4.104
 4558SOL    HW114573   1.227   3.895   4.169
 4558SOL    HW214574   1.149   4.036   4.142
 4559SOL     OW14575   0.663   3.076   3.766
 4559SOL    HW114576   0.576   3.031   3.744
 4559SOL    HW214577   0.739   3.025   3.726
 4560SOL     OW14578   6.114   2.650   4.225
 4560SOL    HW114579   6.094   2.744   4.252
 4560SOL    HW214580   6.191   2.649   4.162
 4561SOL     OW14581   5.096   3.549   5.024
 4561SOL    HW114582   5.007   3.584   5.053
 4561SOL    HW214583   5.165   3.572   5.093
 4562SOL     OW14584   5.463   0.249   0.403
 4562SOL    HW114585   5.527   0.316   0.365
 4562SOL    HW214586   5.427   0.282   0.490
 4563SOL     OW14587   0.911   3.291   2.574
 4563SOL    HW114588   0.916   3.287   2.475
 4563SOL    HW214589   0.818   3.314   2.602
 4564SOL     OW14590   1.921   3.664   2.565
 4564SOL    HW114591   1.859   3.706   2.500
 4564SOL    HW214592   1.886   3.574   2.592
 4565SOL     OW14593   2.248   6.574   5.282
 4565SOL    HW114594   2.298   6.619   5.208
 4565SOL    HW214595   2.228   6.640   5.354
 4566SOL     OW14596   6.883   4.810   2.352
 4566SOL    HW114597   6.964   4.837   2.404
 4566SOL    HW214598   6.800   4.831   2.405
 4567SOL     OW14599   1.326   0.861   0.194
 4567SOL    HW114600   1.331   0.949   0.242
 4567SOL    HW214601   1.233   0.849   0.158
 4568SOL     OW14602   0.616   4.482   4.270
 4568SOL    HW114603   0.587   4.448   4.360
 4568SOL    HW214604   0.541   4.470   4.205
 4569SOL     OW14605   6.591   3.098   4.022
 4569SOL    HW114606   6.660   3.105   3.950
 4569SOL    HW214607   6.575   3.188   4.062
 4570SOL     OW14608   4.895   5.947   1.870
 4570SOL    HW114609   4.898   5.987   1.962
 4570SOL    HW214610   4.971   5.884   1.859
 4571SOL     OW14611   2.407   2.544   4.601
 4571SOL    HW114612   2.336   2.474   4.605
 4571SOL    HW214613   2.458   2.545   4.687
 4572SOL     OW14614   5.438   3.242   1.430
 4572SOL    HW114615   5.468   3.148   1.447
 4572SOL    HW214616   5.423   3.256   1.332
 4573SOL     OW14617   2.627   4.356   1.117
 4573SOL    HW114618   2.595   4.441   1.074
 4573SOL    HW214619   2.702   4.377   1.179
 4574SOL     OW14620   5.049   0.279   2.083
 4574SOL    HW114621   5.119   0.299   2.152
 4574SOL    HW214622   4.968   0.334   2.100
 4575SOL     OW14623   0.077   1.793   5.296
 4575SOL    HW114624   0.102   1.698   5.317
 4575SOL    HW214625   0.036   1.796   5.205
 4576SOL     OW14626   3.247   3.936   6.621
 4576SOL    HW114627   3.331   3.985   6.646
 4576SOL    HW214628   3.187   3.998   6.571
 4577SOL     OW14629   6.693   1.498   2.296
 4577SOL    HW114630   6.705   1.406   2.259
 4577SOL    HW214631   6.595   1.516   2.309
 4578SOL     OW14632   2.059   0.892   2.425
 4578SOL    HW114633   2.150   0.932   2.430
 4578SOL    HW214634   2.008   0.915   2.509
 4579SOL     OW14635   3.359   1.058   2.407
 4579SOL    HW114636   3.393   1.088   2.317
 4579SOL    HW214637   3.335   0.961   2.403
 4580SOL     OW14638   0.882   6.989   1.584
 4580SOL    HW114639   0.953   6.920   1.597
 4580SOL    HW214640   0.877   7.015   1.487
 4581SOL     OW14641   3.750   0.035   1.092
 4581SOL    HW114642   3.789   0.098   1.160
 4581SOL    HW214643   3.713   6.980   1.139
 4582SOL     OW14644   5.826   0.950   4.386
 4582SOL    HW114645   5.749   0.887   4.387
 4582SOL    HW214646   5.807   1.025   4.322
 4583SOL     OW14647   1.881   6.110   6.717
 4583SOL    HW114648   1.975   6.088   6.692
 4583SOL    HW214649   1.856   6.199   6.677
 4584SOL     OW14650   6.686   0.444   4.259
 4584SOL    HW114651   6.627   0.377   4.303
 4584SOL    HW214652   6.736   0.400   4.184
 4585SOL     OW14653   1.639   3.258   2.023
 4585SOL    HW114654   1.604   3.203   1.947
 4585SOL    HW214655   1.565   3.314   2.061
 4586SOL     OW14656   0.479   4.436   6.650
 4586SOL    HW114657   0.469   4.470   6.744
 4586SOL    HW214658   0.573   4.453   6.619
 4587SOL     OW14659   4.389   3.344   6.272
 4587SOL    HW114660   4.368   3.437   6.243
 4587SOL    HW214661   4.305   3.291   6.278
 4588SOL     OW14662   2.166   5.043   6.651
 4588SOL    HW114663   2.091   5.106   6.631
 4588SOL    HW214664   2.190   5.050   6.748
 4589SOL     OW14665   4.285   5.844   1.958
 4589SOL    HW114666   4.339   5.760   1.950
 4589SOL    HW214667   4.215   5.831   2.029
 4590SOL     OW14668   1.497   5.026   2.082
 4590SOL    HW114669   1.537   5.115   2.105
 4590SOL    HW214670   1.454   5.032   1.992
 4591SOL     OW14671   2.067   1.754   5.815
 4591SOL    HW114672   2.163   1.742   5.840
 4591SOL    HW214673   2.059   1.752   5.715
 4592SOL     OW14674   2.704   2.348   2.522
 4592SOL    HW114675   2.795   2.333   2.559
 4592SOL    HW214676   2.647   2.394   2.589
 4593SOL     OW14677   1.949   4.913   5.473
 4593SOL    HW114678   2.021   4.854   5.437
 4593SOL    HW214679   1.878   4.924   5.403
 4594SOL     OW14680   0.738   6.709   2.875
 4594SOL    HW114681   0.767   6.689   2.968
 4594SOL    HW214682   0.764   6.802   2.850
 4595SOL     OW14683   5.644   1.392   0.212
 4595SOL    HW114684   5.715   1.323   0.229
 4595SOL    HW214685   5.679   1.482   0.238
 4596SOL     OW14686   0.008   1.695   2.168
 4596SOL    HW114687   0.030   1.755   2.091
 4596SOL    HW214688   6.942   1.718   2.204
 4597SOL     OW14689   1.809   5.076   0.777
 4597SOL    HW114690   1.889   5.136   0.789
 4597SOL    HW214691   1.736   5.104   0.839
 4598SOL     OW14692   0.032   3.109   0.771
 4598SOL    HW114693   0.024   3.066   0.682
 4598SOL    HW214694   0.015   3.042   0.843
 4599SOL     OW14695   2.598   6.292   3.068
 4599SOL    HW114696   2.617   6.340   2.983
 4599SOL    HW214697   2.638   6.200   3.065
 4600SOL     OW14698   0.451   6.526   5.838
 4600SOL    HW114699   0.354   6.509   5.820
 4600SOL    HW214700   0.483   6.602   5.781
 4601SOL     OW14701   1.506   1.332   5.027
 4601SOL    HW114702   1.462   1.421   5.013
 4601SOL    HW214703   1.597   1.333   4.986
 4602SOL     OW14704   4.753   0.109   5.719
 4602SOL    HW114705   4.695   0.128   5.798
 4602SOL    HW214706   4.847   0.135   5.740
 4603SOL     OW14707   4.529   6.774   6.955
 4603SOL    HW114708   4.506   6.752   0.024
 4603SOL    HW214709   4.445   6.789   6.903
 4604SOL     OW14710   6.921   0.048   3.484
 4604SOL    HW114711   6.957   0.114   3.550
 4604SOL    HW214712   6.830   0.077   3.455
 4605SOL     OW14713   4.393   1.558   1.946
 4605SOL    HW114714   4.345   1.498   2.009
 4605SOL    HW214715   4.486   1.574   1.979
 4606SOL     OW14716   6.660   0.145   3.925
 4606SOL    HW114717   6.688   0.139   3.829
 4606SOL    HW214718   6.738   0.174   3.980
 4607SOL     OW14719   2.350   1.550   1.403
 4607SOL    HW114720   2.310   1.640   1.386
 4607SOL    HW214721   2.447   1.552   1.377
 4608SOL     OW14722   0.534   3.070   6.098
 4608SOL    HW114723   0.633   3.061   6.093
 4608SOL    HW214724   0.492   2.979   6.096
 4609SOL     OW14725   5.592   4.492   6.451
 4609SOL    HW114726   5.563   4.398   6.437
 4609SOL    HW214727   5.562   4.523   6.541
 4610SOL     OW14728   4.838   4.112   6.429
 4610SOL    HW114729   4.932   4.078   6.433
 4610SOL    HW214730   4.776   4.045   6.470
 4611SOL     OW14731   0.339   0.330   6.492
 4611SOL    HW114732   0.336   0.312   6.394
 4611SOL    HW214733   0.246   0.337   6.528
 4612SOL     OW14734   1.075   0.679   2.364
 4612SOL    HW114735   1.036   0.729   2.286
 4612SOL    HW214736   1.019   0.695   2.445
 4613SOL     OW14737   1.289   5.019   4.089
 4613SOL    HW114738   1.304   4.979   4.180
 4613SOL    HW214739   1.193   5.009   4.064
 4614SOL     OW14740   6.295   4.998   1.887
 4614SOL    HW114741   6.283   5.096   1.868
 4614SOL    HW214742   6.376   4.965   1.839
 4615SOL     OW14743   0.483   4.569   6.355
 4615SOL    HW114744   0.552   4.516   6.403
 4615SOL    HW214745   0.486   4.664   6.386
 4616SOL     OW14746   1.807   5.285   5.700
 4616SOL    HW114747   1.752   5.330   5.770
 4616SOL    HW214748   1.793   5.186   5.705
 4617SOL     OW14749   1.143   4.010   4.860
 4617SOL    HW114750   1.209   3.965   4.800
 4617SOL    HW214751   1.106   3.944   4.926
 4618SOL     OW14752   2.316   4.117   5.355
 4618SOL    HW114753   2.250   4.049   5.386
 4618SOL    HW214754   2.379   4.076   5.290
 4619SOL     OW14755   5.098   5.898   6.490
 4619SOL    HW114756   5.176   5.943   6.447
 4619SOL    HW214757   5.022   5.893   6.425
 4620SOL     OW14758   0.385   5.292   2.684
 4620SOL    HW114759   0.334   5.227   2.740
 4620SOL    HW214760   0.324   5.337   2.620
 4621SOL     OW14761   3.037   6.695   2.079
 4621SOL    HW114762   3.088   6.781   2.072
 4621SOL    HW214763   3.101   6.618   2.076
 4622SOL     OW14764   6.511   6.672   0.699
 4622SOL    HW114765   6.415   6.656   0.673
 4622SOL    HW214766   6.541   6.597   0.759
 4623SOL     OW14767   2.778   5.088   1.833
 4623SOL    HW114768   2.866   5.054   1.800
 4623SOL    HW214769   2.711   5.014   1.828
 4624SOL     OW14770   5.491   0.951   0.109
 4624SOL    HW114771   5.400   0.910   0.109
 4624SOL    HW214772   5.493   1.027   0.044
 4625SOL     OW14773   1.174   0.311   1.923
 4625SOL    HW114774   1.106   0.297   1.996
 4625SOL    HW214775   1.182   0.227   1.870
 4626SOL     OW14776   3.897   3.927   2.437
 4626SOL    HW114777   3.841   4.000   2.477
 4626SOL    HW214778   3.838   3.861   2.391
 4627SOL     OW14779   6.180   5.946   4.852
 4627SOL    HW114780   6.186   6.046   4.854
 4627SOL    HW214781   6.143   5.913   4.939
 4628SOL     OW14782   6.766   2.858   1.865
 4628SOL    HW114783   6.802   2.803   1.790
 4628SOL    HW214784   6.697   2.922   1.831
 4629SOL     OW14785   0.724   5.567   1.125
 4629SOL    HW114786   0.812   5.538   1.164
 4629SOL    HW214787   0.741   5.612   1.037
 4630SOL     OW14788   1.575   2.971   1.387
 4630SOL    HW114789   1.507   2.935   1.451
 4630SOL    HW214790   1.653   3.008   1.437
 4631SOL     OW14791   5.367   1.873   0.989
 4631SOL    HW114792   5.354   1.972   0.997
 4631SOL    HW214793   5.426   1.853   0.911
 4632SOL     OW14794   2.431   5.290   4.212
 4632SOL    HW114795   2.524   5.254   4.219
 4632SOL    HW214796   2.382   5.241   4.140
 4633SOL     OW14797   5.272   3.645   4.449
 4633SOL    HW114798   5.330   3.670   4.372
 4633SOL    HW214799   5.329   3.612   4.524
 4634SOL     OW14800   3.346   2.835   5.120
 4634SOL    HW114801   3.288   2.902   5.072
 4634SOL    HW214802   3.295   2.796   5.197
 4635SOL     OW14803   3.649   0.321   2.513
 4635SOL    HW114804   3.678   0.310   2.418
 4635SOL    HW214805   3.721   0.367   2.564
 4636SOL     OW14806   1.642   6.149   6.364
 4636SOL    HW114807   1.654   6.230   6.308
 4636SOL    HW214808   1.694   6.158   6.449
 4637SOL     OW14809   1.519   2.773   3.777
 4637SOL    HW114810   1.487   2.722   3.698
 4637SOL    HW214811   1.465   2.747   3.858
 4638SOL     OW14812   4.202   4.522   6.758
 4638SOL    HW114813   4.178   4.504   6.854
 4638SOL    HW214814   4.171   4.613   6.732
 4639SOL     OW14815   3.573   2.432   1.350
 4639SOL    HW114816   3.527   2.510   1.307
 4639SOL    HW214817   3.628   2.464   1.427
 4640SOL     OW14818   0.532   2.073   0.335
 4640SOL    HW114819   0.435   2.100   0.337
 4640SOL    HW214820   0.588   2.150   0.306
 4641SOL     OW14821   1.207   6.467   4.767
 4641SOL    HW114822   1.240   6.539   4.828
 4641SOL    HW214823   1.235   6.487   4.673
 4642SOL     OW14824   5.819   1.452   6.316
 4642SOL    HW114825   5.803   1.549   6.299
 4642SOL    HW214826   5.889   1.419   6.252
 4643SOL     OW14827   0.973   1.892   7.021
 4643SOL    HW114828   0.904   1.963   7.010
 4643SOL    HW214829   0.929   1.802   7.012
 4644SOL     OW14830   1.315   1.525   1.093
 4644SOL    HW114831   1.306   1.522   0.993
 4644SOL    HW214832   1.298   1.619   1.125
 4645SOL     OW14833   5.420   2.621   5.566
 4645SOL    HW114834   5.496   2.669   5.609
 4645SOL    HW214835   5.395   2.667   5.481
 4646SOL     OW14836   1.243   3.754   2.278
 4646SOL    HW114837   1.331   3.778   2.237
 4646SOL    HW214838   1.236   3.795   2.368
 4647SOL     OW14839   1.714   6.142   2.386
 4647SOL    HW114840   1.813   6.133   2.374
 4647SOL    HW214841   1.695   6.196   2.468
 4648SOL     OW14842   2.810   1.724   3.814
 4648SOL    HW114843   2.740   1.669   3.859
 4648SOL    HW214844   2.894   1.722   3.868
 4649SOL     OW14845   5.059   4.098   1.074
 4649SOL    HW114846   5.028   4.193   1.065
 4649SOL    HW214847   5.010   4.041   1.008
 4650SOL     OW14848   3.742   4.341   0.510
 4650SOL    HW114849   3.645   4.326   0.488
 4650SOL    HW214850   3.753   4.339   0.610
 4651SOL     OW14851   1.506   3.614   0.412
 4651SOL    HW114852   1.562   3.689   0.379
 4651SOL    HW214853   1.429   3.650   0.464
 4652SOL     OW14854   6.734   6.731   6.356
 4652SOL    HW114855   6.677   6.652   6.380
 4652SOL    HW214856   6.682   6.793   6.298
 4653SOL     OW14857   1.552   6.684   0.807
 4653SOL    HW114858   1.572   6.782   0.808
 4653SOL    HW214859   1.457   6.669   0.836
 4654SOL     OW14860   0.531   0.825   5.461
 4654SOL    HW114861   0.590   0.746   5.478
 4654SOL    HW214862   0.561   0.902   5.517
 4655SOL     OW14863   5.462   5.296   3.499
 4655SOL    HW114864   5.536   5.247   3.545
 4655SOL    HW214865   5.402   5.338   3.567
 4656SOL     OW14866   6.565   0.607   1.623
 4656SOL    HW114867   6.625   0.527   1.616
 4656SOL    HW214868   6.476   0.585   1.584
 4657SOL     OW14869   3.421   1.672   2.162
 4657SOL    HW114870   3.386   1.754   2.208
 4657SOL    HW214871   3.451   1.606   2.230
 4658SOL     OW14872   1.873   1.057   0.029
 4658SOL    HW114873   1.899   0.969   7.014
 4658SOL    HW214874   1.945   1.088   0.091
 4659SOL     OW14875   2.471   5.123   0.994
 4659SOL    HW114876   2.501   5.060   0.922
 4659SOL    HW214877   2.403   5.186   0.957
 4660SOL     OW14878   0.301   4.485   4.948
 4660SOL    HW114879   0.389   4.438   4.957
 4660SOL    HW214880   0.236   4.448   5.014
 4661SOL     OW14881   0.093   0.911   4.978
 4661SOL    HW114882   0.005   0.902   5.025
 4661SOL    HW214883   0.132   0.820   4.965
 4662SOL     OW14884   2.685   0.504   0.258
 4662SOL    HW114885   2.602   0.521   0.205
 4662SOL    HW214886   2.663   0.446   0.337
 4663SOL     OW14887   0.614   6.909   1.100
 4663SOL    HW114888   0.668   6.851   1.038
 4663SOL    HW214889   0.522   6.872   1.108
 4664SOL     OW14890   6.853   6.301   5.362
 4664SOL    HW114891   6.851   6.223   5.300
 4664SOL    HW214892   6.760   6.330   5.383
 4665SOL     OW14893   6.520   1.646   2.624
 4665SOL    HW114894   6.425   1.614   2.614
 4665SOL    HW214895   6.542   1.707   2.548
 4666SOL     OW14896   2.150   2.868   5.764
 4666SOL    HW114897   2.063   2.821   5.780
 4666SOL    HW214898   2.224   2.817   5.807
 4667SOL     OW14899   6.366   1.904   0.994
 4667SOL    HW114900   6.445   1.948   0.952
 4667SOL    HW214901   6.283   1.954   0.968
 4668SOL     OW14902   4.947   1.718   5.527
 4668SOL    HW114903   4.932   1.643   5.463
 4668SOL    HW214904   4.861   1.743   5.572
 4669SOL     OW14905   5.803   6.609   6.001
 4669SOL    HW114906   5.782   6.601   5.903
 4669SOL    HW214907   5.881   6.550   6.023
 4670SOL     OW14908   0.841   3.071   0.189
 4670SOL    HW114909   0.932   3.089   0.224
 4670SOL    HW214910   0.812   3.146   0.129
 4671SOL     OW14911   7.002   2.062   1.428
 4671SOL    HW114912   6.903   2.048   1.440
 4671SOL    HW214913   0.022   1.973   1.416
 4672SOL     OW14914   3.921   3.113   0.758
 4672SOL    HW114915   3.965   3.042   0.704
 4672SOL    HW214916   3.829   3.084   0.783
 4673SOL     OW14917   4.921   1.899   0.453
 4673SOL    HW114918   4.907   1.919   0.549
 4673SOL    HW214919   4.844   1.934   0.399
 4674SOL     OW14920   0.578   2.694   0.131
 4674SOL    HW114921   0.605   2.735   0.044
 4674SOL    HW214922   0.613   2.750   0.206
 4675SOL     OW14923   1.580   6.793   0.426
 4675SOL    HW114924   1.515   6.852   0.473
 4675SOL    HW214925   1.537   6.706   0.404
 4676SOL     OW14926   0.295   5.664   4.523
 4676SOL    HW114927   0.225   5.663   4.594
 4676SOL    HW214928   0.270   5.602   4.449
 4677SOL     OW14929   5.756   6.833   6.892
 4677SOL    HW114930   5.793   6.925   6.903
 4677SOL    HW214931   5.665   6.829   6.935
 4678SOL     OW14932   2.408   5.305   0.553
 4678SOL    HW114933   2.384   5.386   0.501
 4678SOL    HW214934   2.357   5.305   0.640
 4679SOL     OW14935   2.271   6.292   5.642
 4679SOL    HW114936   2.255   6.373   5.699
 4679SOL    HW214937   2.203   6.288   5.570
 4680SOL     OW14938   1.397   5.662   5.504
 4680SOL    HW114939   1.342   5.671   5.587
 4680SOL    HW214940   1.418   5.565   5.488
 4681SOL     OW14941   0.187   6.084   6.135
 4681SOL    HW114942   0.233   5.997   6.151
 4681SOL    HW214943   0.228   6.129   6.056
 4682SOL     OW14944   2.916   6.571   1.424
 4682SOL    HW114945   2.981   6.635   1.465
 4682SOL    HW214946   2.938   6.557   1.328
 4683SOL     OW14947   0.387   5.761   3.699
 4683SOL    HW114948   0.484   5.747   3.718
 4683SOL    HW214949   0.332   5.696   3.752
 4684SOL     OW14950   1.891   1.358   4.038
 4684SOL    HW114951   1.964   1.423   4.057
 4684SOL    HW214952   1.910   1.311   3.951
 4685SOL     OW14953   5.526   5.032   3.784
 4685SOL    HW114954   5.432   5.000   3.779
 4685SOL    HW214955   5.528   5.121   3.830
 4686SOL     OW14956   4.012   5.378   6.097
 4686SOL    HW114957   4.007   5.393   5.998
 4686SOL    HW214958   4.095   5.327   6.119
 4687SOL     OW14959   4.626   0.614   5.135
 4687SOL    HW114960   4.577   0.634   5.220
 4687SOL    HW214961   4.723   0.601   5.156
 4688SOL     OW14962   0.302   0.407   1.185
 4688SOL    HW114963   0.317   0.444   1.277
 4688SOL    HW214964   0.370   0.447   1.122
 4689SOL     OW14965   2.060   6.036   4.668
 4689SOL    HW114966   2.035   5.966   4.601
 4689SOL    HW214967   2.057   6.126   4.625
 4690SOL     OW14968   3.181   2.346   0.391
 4690SOL    HW114969   3.266   2.392   0.415
 4690SOL    HW214970   3.136   2.314   0.474
 4691SOL     OW14971   2.491   4.675   0.077
 4691SOL    HW114972   2.574   4.729   0.090
 4691SOL    HW214973   2.503   4.615   7.023
 4692SOL     OW14974   0.899   5.170   3.794
 4692SOL    HW114975   0.885   5.189   3.697
 4692SOL    HW214976   0.866   5.247   3.848
 4693SOL     OW14977   6.928   1.445   2.932
 4693SOL    HW114978   6.916   1.532   2.979
 4693SOL    HW214979   6.879   1.447   2.845
 4694SOL     OW14980   1.656   0.801   4.681
 4694SOL    HW114981   1.677   0.770   4.774
 4694SOL    HW214982   1.587   0.874   4.685
 4695SOL     OW14983   3.351   3.484   2.961
 4695SOL    HW114984   3.285   3.455   2.892
 4695SOL    HW214985   3.380   3.578   2.943
 4696SOL     OW14986   0.545   2.066   6.398
 4696SOL    HW114987   0.500   2.149   6.430
 4696SOL    HW214988   0.605   2.030   6.470
 4697SOL     OW14989   0.836   4.975   6.804
 4697SOL    HW114990   0.803   4.993   6.711
 4697SOL    HW214991   0.773   5.017   6.870
 4698SOL     OW14992   5.954   3.166   2.029
 4698SOL    HW114993   5.886   3.092   2.034
 4698SOL    HW214994   5.915   3.249   2.068
 4699SOL     OW14995   6.496   0.591   3.507
 4699SOL    HW114996   6.546   0.517   3.462
 4699SOL    HW214997   6.406   0.558   3.536
 4700SOL     OW14998   5.310   6.837   4.813
 4700SOL    HW114999   5.293   6.936   4.809
 4700SOL    HW215000   5.236   6.793   4.863
 4701SOL     OW15001   2.619   1.423   6.044
 4701SOL    HW115002   2.604   1.337   6.093
 4701SOL    HW215003   2.582   1.416   5.952
 4702SOL     OW15004   3.618   3.368   0.664
 4702SOL    HW115005   3.618   3.328   0.572
 4702SOL    HW215006   3.585   3.300   0.730
 4703SOL     OW15007   0.759   6.439   1.504
 4703SOL    HW115008   0.744   6.387   1.420
 4703SOL    HW215009   0.831   6.396   1.558
 4704SOL     OW15010   4.819   0.046   6.080
 4704SOL    HW115011   4.753   0.082   6.014
 4704SOL    HW215012   4.848   0.120   6.141
 4705SOL     OW15013   3.110   3.050   5.103
 4705SOL    HW115014   3.056   3.132   5.080
 4705SOL    HW215015   3.059   2.994   5.168
 4706SOL     OW15016   5.633   2.969   0.541
 4706SOL    HW115017   5.647   2.886   0.595
 4706SOL    HW215018   5.721   3.015   0.527
 4707SOL     OW15019   2.676   4.008   1.662
 4707SOL    HW115020   2.699   3.994   1.566
 4707SOL    HW215021   2.616   3.933   1.693
 4708SOL     OW15022   2.341   2.272   2.384
 4708SOL    HW115023   2.294   2.194   2.425
 4708SOL    HW215024   2.384   2.244   2.298
 4709SOL     OW15025   2.640   3.976   0.386
 4709SOL    HW115026   2.695   4.017   0.313
 4709SOL    HW215027   2.646   4.032   0.468
 4710SOL     OW15028   4.430   2.385   1.299
 4710SOL    HW115029   4.331   2.394   1.289
 4710SOL    HW215030   4.455   2.402   1.394
 4711SOL     OW15031   2.391   0.340   3.256
 4711SOL    HW115032   2.329   0.355   3.180
 4711SOL    HW215033   2.463   0.277   3.229
 4712SOL     OW15034   1.741   3.467   0.190
 4712SOL    HW115035   1.675   3.422   0.250
 4712SOL    HW215036   1.751   3.415   0.106
 4713SOL     OW15037   0.636   6.098   0.597
 4713SOL    HW115038   0.537   6.084   0.606
 4713SOL    HW215039   0.682   6.058   0.677
 4714SOL     OW15040   4.316   1.826   0.882
 4714SOL    HW115041   4.372   1.749   0.851
 4714SOL    HW215042   4.248   1.849   0.812
 4715SOL     OW15043   5.094   3.750   5.390
 4715SOL    HW115044   5.174   3.749   5.330
 4715SOL    HW215045   5.019   3.701   5.346
 4716SOL     OW15046   1.943   5.416   6.676
 4716SOL    HW115047   1.865   5.424   6.738
 4716SOL    HW215048   1.927   5.343   6.610
 4717SOL     OW15049   2.143   4.744   5.396
 4717SOL    HW115050   2.172   4.769   5.304
 4717SOL    HW215051   2.206   4.675   5.433
 4718SOL     OW15052   5.147   0.055   0.092
 4718SOL    HW115053   5.133   0.142   0.138
 4718SOL    HW215054   5.243   0.046   0.064
 4719SOL     OW15055   4.305   3.032   0.794
 4719SOL    HW115056   4.283   3.058   0.888
 4719SOL    HW215057   4.346   3.110   0.746
 4720SOL     OW15058   2.360   1.792   3.660
 4720SOL    HW115059   2.409   1.738   3.729
 4720SOL    HW215060   2.334   1.733   3.584
 4721SOL     OW15061   1.695   1.474   1.687
 4721SOL    HW115062   1.750   1.542   1.638
 4721SOL    HW215063   1.625   1.438   1.625
 4722SOL     OW15064   2.216   0.820   2.189
 4722SOL    HW115065   2.149   0.821   2.263
 4722SOL    HW215066   2.308   0.824   2.227
 4723SOL     OW15067   2.798   0.844   5.638
 4723SOL    HW115068   2.853   0.923   5.665
 4723SOL    HW215069   2.816   0.821   5.543
 4724SOL     OW15070   3.768   5.334   0.880
 4724SOL    HW115071   3.860   5.342   0.919
 4724SOL    HW215072   3.775   5.300   0.786
 4725SOL     OW15073   6.289   4.671   2.725
 4725SOL    HW115074   6.287   4.576   2.695
 4725SOL    HW215075   6.204   4.692   2.774
 4726SOL     OW15076   6.480   7.005   4.020
 4726SOL    HW115077   6.491   6.906   4.018
 4726SOL    HW215078   6.559   0.023   3.975
 4727SOL     OW15079   5.040   6.414   1.856
 4727SOL    HW115080   4.948   6.416   1.895
 4727SOL    HW215081   5.105   6.387   1.927
 4728SOL     OW15082   6.806   6.215   6.797
 4728SOL    HW115083   6.799   6.130   6.849
 4728SOL    HW215084   6.729   6.275   6.819
 4729SOL     OW15085   3.373   0.535   1.351
 4729SOL    HW115086   3.467   0.534   1.383
 4729SOL    HW215087   3.326   0.616   1.388
 4730SOL     OW15088   1.058   0.529   6.390
 4730SOL    HW115089   0.967   0.511   6.426
 4730SOL    HW215090   1.058   0.617   6.342
 4731SOL     OW15091   5.094   1.484   6.148
 4731SOL    HW115092   5.079   1.495   6.246
 4731SOL    HW215093   5.042   1.553   6.098
 4732SOL     OW15094   0.539   6.811   6.482
 4732SOL    HW115095   0.617   6.816   6.545
 4732SOL    HW215096   0.513   6.903   6.453
 4733SOL     OW15097   5.461   3.968   2.761
 4733SOL    HW115098   5.441   3.876   2.794
 4733SOL    HW215099   5.559   3.987   2.771
 4734SOL     OW15100   6.220   3.815   5.516
 4734SOL    HW115101   6.280   3.869   5.576
 4734SOL    HW215102   6.160   3.758   5.573
 4735SOL     OW15103   0.997   3.585   3.188
 4735SOL    HW115104   0.922   3.554   3.246
 4735SOL    HW215105   1.072   3.617   3.245
 4736SOL     OW15106   1.326   6.838   2.108
 4736SOL    HW115107   1.254   6.785   2.154
 4736SOL    HW215108   1.371   6.780   2.040
 4737SOL     OW15109   3.263   5.641   2.629
 4737SOL    HW115110   3.290   5.545   2.621
 4737SOL    HW215111   3.322   5.697   2.571
 4738SOL     OW15112   1.070   0.434   3.168
 4738SOL    HW115113   0.972   0.451   3.179
 4738SOL    HW215114   1.100   0.367   3.236
 4739SOL     OW15115   3.941   0.430   1.447
 4739SOL    HW115116   3.957   0.407   1.543
 4739SOL    HW215117   3.866   0.495   1.440
 4740SOL     OW15118   0.612   2.008   4.978
 4740SOL    HW115119   0.567   2.004   4.889
 4740SOL    HW215120   0.610   1.918   5.020
 4741SOL     OW15121   3.644   3.058   4.745
 4741SOL    HW115122   3.562   3.003   4.730
 4741SOL    HW215123   3.699   3.017   4.818
 4742SOL     OW15124   4.347   0.993   3.690
 4742SOL    HW115125   4.408   0.963   3.617
 4742SOL    HW215126   4.375   0.952   3.777
 4743SOL     OW15127   0.287   5.270   0.779
 4743SOL    HW115128   0.265   5.242   0.686
 4743SOL    HW215129   0.383   5.298   0.784
 4744SOL     OW15130   1.216   4.580   1.968
 4744SOL    HW115131   1.197   4.572   2.065
 4744SOL    HW215132   1.150   4.642   1.926
 4745SOL     OW15133   1.957   2.997   0.379
 4745SOL    HW115134   1.971   3.073   0.442
 4745SOL    HW215135   1.883   3.019   0.316
 4746SOL     OW15136   6.293   6.168   4.515
 4746SOL    HW115137   6.204   6.198   4.481
 4746SOL    HW215138   6.332   6.101   4.451
 4747SOL     OW15139   4.616   0.415   0.931
 4747SOL    HW115140   4.520   0.441   0.941
 4747SOL    HW215141   4.622   0.333   0.874
 4748SOL     OW15142   2.287   6.787   3.603
 4748SOL    HW115143   2.293   6.698   3.647
 4748SOL    HW215144   2.357   6.848   3.640
 4749SOL     OW15145   2.929   1.599   1.090
 4749SOL    HW115146   2.872   1.595   1.172
 4749SOL    HW215147   2.877   1.640   1.015
 4750SOL     OW15148   5.614   3.040   6.425
 4750SOL    HW115149   5.615   2.940   6.413
 4750SOL    HW215150   5.569   3.082   6.346
 4751SOL     OW15151   3.704   1.752   2.484
 4751SOL    HW115152   3.715   1.850   2.499
 4751SOL    HW215153   3.612   1.724   2.511
 4752SOL     OW15154   6.473   6.560   6.634
 4752SOL    HW115155   6.425   6.475   6.654
 4752SOL    HW215156   6.516   6.554   6.544
 4753SOL     OW15157   3.355   5.968   5.212
 4753SOL    HW115158   3.297   5.894   5.179
 4753SOL    HW215159   3.317   6.056   5.182
 4754SOL     OW15160   6.263   4.466   0.175
 4754SOL    HW115161   6.309   4.481   0.088
 4754SOL    HW215162   6.222   4.552   0.206
 4755SOL     OW15163   6.644   0.989   2.354
 4755SOL    HW115164   6.605   0.988   2.446
 4755SOL    HW215165   6.681   0.898   2.333
 4756SOL     OW15166   6.930   3.771   4.876
 4756SOL    HW115167   6.891   3.681   4.893
 4756SOL    HW215168   7.011   3.784   4.934
 4757SOL     OW15169   2.347   3.819   1.248
 4757SOL    HW115170   2.416   3.754   1.217
 4757SOL    HW215171   2.389   3.884   1.311
 4758SOL     OW15172   2.025   5.125   1.861
 4758SOL    HW115173   2.123   5.116   1.876
 4758SOL    HW215174   1.977   5.112   1.947
 4759SOL     OW15175   0.773   6.606   3.158
 4759SOL    HW115176   0.831   6.616   3.239
 4759SOL    HW215177   0.699   6.542   3.177
 4760SOL     OW15178   0.879   0.994   2.442
 4760SOL    HW115179   0.898   0.996   2.540
 4760SOL    HW215180   0.847   0.903   2.416
 4761SOL     OW15181   3.949   5.756   2.442
 4761SOL    HW115182   3.901   5.763   2.530
 4761SOL    HW215183   4.048   5.755   2.459
 4762SOL     OW15184   0.342   1.208   2.489
 4762SOL    HW115185   0.297   1.185   2.403
 4762SOL    HW215186   0.430   1.162   2.494
 4763SOL     OW15187   5.145   3.910   1.672
 4763SOL    HW115188   5.150   3.884   1.576
 4763SOL    HW215189   5.238   3.924   1.708
 4764SOL     OW15190   4.362   3.110   6.678
 4764SOL    HW115191   4.326   3.203   6.668
 4764SOL    HW215192   4.384   3.093   6.774
 4765SOL     OW15193   4.045   1.722   5.488
 4765SOL    HW115194   3.992   1.732   5.404
 4765SOL    HW215195   4.120   1.788   5.488
 4766SOL     OW15196   1.262   0.859   2.871
 4766SOL    HW115197   1.272   0.915   2.788
 4766SOL    HW215198   1.353   0.836   2.906
 4767SOL     OW15199   2.599   5.197   2.244
 4767SOL    HW115200   2.564   5.115   2.199
 4767SOL    HW215201   2.698   5.200   2.234
 4768SOL     OW15202   4.262   2.318   6.064
 4768SOL    HW115203   4.186   2.257   6.040
 4768SOL    HW215204   4.245   2.359   6.153
 4769SOL     OW15205   3.183   2.822   0.227
 4769SOL    HW115206   3.139   2.818   0.317
 4769SOL    HW215207   3.114   2.821   0.156
 4770SOL     OW15208   0.306   1.964   3.929
 4770SOL    HW115209   0.312   1.875   3.883
 4770SOL    HW215210   0.211   1.982   3.953
 4771SOL     OW15211   3.010   1.299   3.903
 4771SOL    HW115212   3.064   1.227   3.859
 4771SOL    HW215213   2.926   1.315   3.851
 4772SOL     OW15214   3.025   5.514   2.450
 4772SOL    HW115215   3.110   5.461   2.444
 4772SOL    HW215216   3.035   5.587   2.518
 4773SOL     OW15217   3.398   5.565   3.767
 4773SOL    HW115218   3.374   5.563   3.670
 4773SOL    HW215219   3.458   5.643   3.785
 4774SOL     OW15220   7.003   3.810   0.804
 4774SOL    HW115221   6.979   3.714   0.815
 4774SOL    HW215222   0.026   3.822   0.718
 4775SOL     OW15223   5.206   5.011   4.083
 4775SOL    HW115224   5.225   4.967   4.170
 4775SOL    HW215225   5.221   4.945   4.009
 4776SOL     OW15226   6.864   1.619   5.339
 4776SOL    HW115227   6.820   1.562   5.408
 4776SOL    HW215228   6.959   1.637   5.367
 4777SOL     OW15229   0.894   6.452   3.532
 4777SOL    HW115230   0.865   6.382   3.466
 4777SOL    HW215231   0.918   6.408   3.619
 4778SOL     OW15232   1.106   0.723   0.963
 4778SOL    HW115233   1.193   0.696   1.004
 4778SOL    HW215234   1.068   0.646   0.913
 4779SOL     OW15235   4.505   2.041   4.763
 4779SOL    HW115236   4.596   2.005   4.785
 4779SOL    HW215237   4.451   1.970   4.718
 4780SOL     OW15238   4.848   3.019   4.427
 4780SOL    HW115239   4.829   3.056   4.336
 4780SOL    HW215240   4.797   2.935   4.440
 4781SOL     OW15241   2.871   5.010   1.091
 4781SOL    HW115242   2.936   5.006   1.166
 4781SOL    HW215243   2.898   5.082   1.027
 4782SOL     OW15244   0.929   0.206   2.984
 4782SOL    HW115245   0.955   0.303   2.985
 4782SOL    HW215246   1.008   0.151   2.957
 4783SOL     OW15247   1.049   4.166   6.618
 4783SOL    HW115248   0.964   4.169   6.672
 4783SOL    HW215249   1.077   4.260   6.597
 4784SOL     OW15250   6.466   2.881   6.416
 4784SOL    HW115251   6.559   2.867   6.452
 4784SOL    HW215252   6.433   2.797   6.374
 4785SOL     OW15253   0.280   1.465   4.397
 4785SOL    HW115254   0.190   1.506   4.410
 4785SOL    HW215255   0.269   1.367   4.376
 4786SOL     OW15256   1.686   6.527   0.591
 4786SOL    HW115257   1.681   6.446   0.649
 4786SOL    HW215258   1.673   6.609   0.647
 4787SOL     OW15259   4.550   1.634   5.748
 4787SOL    HW115260   4.572   1.589   5.834
 4787SOL    HW215261   4.451   1.647   5.741
 4788SOL     OW15262   6.675   5.510   0.981
 4788SOL    HW115263   6.765   5.535   1.017
 4788SOL    HW215264   6.677   5.518   0.881
 4789SOL     OW15265   5.380   0.807   1.480
 4789SOL    HW115266   5.437   0.761   1.548
 4789SOL    HW215267   5.325   0.877   1.525
 4790SOL     OW15268   0.048   2.709   6.694
 4790SOL    HW115269   0.061   2.626   6.641
 4790SOL    HW215270   0.068   2.691   6.791
 4791SOL     OW15271   0.712   0.642   6.841
 4791SOL    HW115272   0.674   0.550   6.835
 4791SOL    HW215273   0.726   0.679   6.750
 4792SOL     OW15274   0.725   4.616   1.811
 4792SOL    HW115275   0.746   4.562   1.730
 4792SOL    HW215276   0.788   4.593   1.885
 4793SOL     OW15277   1.795   2.689   5.248
 4793SOL    HW115278   1.812   2.613   5.185
 4793SOL    HW215279   1.869   2.695   5.315
 4794SOL     OW15280   5.607   1.221   6.679
 4794SOL    HW115281   5.561   1.260   6.599
 4794SOL    HW215282   5.586   1.277   6.760
 4795SOL     OW15283   0.237   6.672   0.043
 4795SOL    HW115284   0.295   6.737   0.092
 4795SOL    HW215285   0.194   6.610   0.107
 4796SOL     OW15286   5.502   1.922   5.879
 4796SOL    HW115287   5.465   1.927   5.786
 4796SOL    HW215288   5.491   1.829   5.915
 4797SOL     OW15289   2.698   5.361   5.220
 4797SOL    HW115290   2.671   5.288   5.282
 4797SOL    HW215291   2.617   5.400   5.176
 4798SOL     OW15292   3.826   6.386   6.746
 4798SOL    HW115293   3.746   6.391   6.806
 4798SOL    HW215294   3.897   6.448   6.780
 4799SOL     OW15295   4.296   3.606   1.557
 4799SOL    HW115296   4.325   3.529   1.499
 4799SOL    HW215297   4.278   3.686   1.500
 4800SOL     OW15298   1.092   4.457   6.592
 4800SOL    HW115299   1.088   4.531   6.525
 4800SOL    HW215300   1.073   4.494   6.683
 4801SOL     OW15301   4.895   3.021   3.445
 4801SOL    HW115302   4.927   3.024   3.540
 4801SOL    HW215303   4.840   2.939   3.431
 4802SOL     OW15304   6.760   0.658   4.594
 4802SOL    HW115305   6.713   0.660   4.506
 4802SOL    HW215306   6.694   0.671   4.668
 4803SOL     OW15307   5.608   3.614   6.007
 4803SOL    HW115308   5.548   3.536   6.022
 4803SOL    HW215309   5.703   3.583   6.001
 4804SOL     OW15310   5.945   2.643   1.342
 4804SOL    HW115311   5.992   2.637   1.254
 4804SOL    HW215312   6.006   2.684   1.409
 4805SOL     OW15313   6.111   0.316   5.281
 4805SOL    HW115314   6.027   0.279   5.320
 4805SOL    HW215315   6.104   0.318   5.182
 4806SOL     OW15316   1.221   2.543   3.670
 4806SOL    HW115317   1.295   2.509   3.611
 4806SOL    HW215318   1.211   2.641   3.655
 4807SOL     OW15319   0.667   3.691   0.849
 4807SOL    HW115320   0.584   3.634   0.855
 4807SOL    HW215321   0.648   3.781   0.888
 4808SOL     OW15322   2.234   6.215   3.597
 4808SOL    HW115323   2.154   6.256   3.641
 4808SOL    HW215324   2.317   6.249   3.642
 4809SOL     OW15325   2.612   3.766   0.835
 4809SOL    HW115326   2.708   3.737   0.843
 4809SOL    HW215327   2.608   3.858   0.798
 4810SOL     OW15328   2.046   5.351   4.479
 4810SOL    HW115329   2.101   5.432   4.498
 4810SOL    HW215330   1.978   5.373   4.409
 4811SOL     OW15331   3.232   3.061   4.842
 4811SOL    HW115332   3.175   3.078   4.923
 4811SOL    HW215333   3.205   3.123   4.769
 4812SOL     OW15334   2.058   6.126   1.454
 4812SOL    HW115335   2.124   6.061   1.493
 4812SOL    HW215336   2.003   6.079   1.384
 4813SOL     OW15337   1.421   2.402   4.975
 4813SOL    HW115338   1.347   2.340   4.949
 4813SOL    HW215339   1.433   2.399   5.074
 4814SOL     OW15340   4.367   1.184   0.482
 4814SOL    HW115341   4.422   1.126   0.542
 4814SOL    HW215342   4.417   1.201   0.397
 4815SOL     OW15343   6.590   4.651   3.217
 4815SOL    HW115344   6.565   4.587   3.289
 4815SOL    HW215345   6.689   4.659   3.213
 4816SOL     OW15346   2.720   0.692   2.815
 4816SOL    HW115347   2.765   0.615   2.769
 4816SOL    HW215348   2.762   0.778   2.787
 4817SOL     OW15349   4.943   3.635   6.605
 4817SOL    HW115350   4.869   3.571   6.583
 4817SOL    HW215351   5.028   3.584   6.617
 4818SOL     OW15352   4.867   6.399   5.592
 4818SOL    HW115353   4.929   6.389   5.671
 4818SOL    HW215354   4.878   6.490   5.552
 4819SOL     OW15355   3.638   0.471   0.276
 4819SOL    HW115356   3.661   0.550   0.332
 4819SOL    HW215357   3.557   0.426   0.313
 4820SOL     OW15358   0.614   5.304   1.177
 4820SOL    HW115359   0.646   5.399   1.179
 4820SOL    HW215360   0.526   5.298   1.225
 4821SOL     OW15361   6.520   5.946   0.969
 4821SOL    HW115362   6.618   5.969   0.971
 4821SOL    HW215363   6.484   5.946   1.062
 4822SOL     OW15364   0.653   3.375   2.119
 4822SOL    HW115365   0.724   3.358   2.188
 4822SOL    HW215366   0.677   3.326   2.035
 4823SOL     OW15367   6.584   1.967   2.684
 4823SOL    HW115368   6.499   2.014   2.705
 4823SOL    HW215369   6.590   1.952   2.585
 4824SOL     OW15370   5.036   1.355   2.899
 4824SOL    HW115371   5.009   1.298   2.822
 4824SOL    HW215372   4.989   1.443   2.893
 4825SOL     OW15373   2.221   4.191   4.788
 4825SOL    HW115374   2.221   4.271   4.848
 4825SOL    HW215375   2.253   4.111   4.839
 4826SOL     OW15376   1.102   6.025   6.748
 4826SOL    HW115377   1.002   6.015   6.749
 4826SOL    HW215378   1.130   6.064   6.660
 4827SOL     OW15379   5.669   0.964   6.590
 4827SOL    HW115380   5.619   0.890   6.635
 4827SOL    HW215381   5.641   1.052   6.628
 4828SOL     OW15382   6.649   2.780   6.609
 4828SOL    HW115383   6.661   2.699   6.666
 4828SOL    HW215384   6.688   2.860   6.655
 4829SOL     OW15385   2.143   1.151   5.524
 4829SOL    HW115386   2.116   1.103   5.608
 4829SOL    HW215387   2.181   1.085   5.459
 4830SOL     OW15388   6.401   4.607   4.598
 4830SOL    HW115389   6.437   4.700   4.588
 4830SOL    HW215390   6.367   4.594   4.691
 4831SOL     OW15391   0.043   1.872   6.450
 4831SOL    HW115392   7.005   1.888   6.374
 4831SOL    HW215393   0.114   1.808   6.421
 4832SOL     OW15394   1.428   2.634   6.394
 4832SOL    HW115395   1.372   2.671   6.468
 4832SOL    HW215396   1.465   2.710   6.340
 4833SOL     OW15397   6.539   2.489   2.089
 4833SOL    HW115398   6.589   2.543   2.157
 4833SOL    HW215399   6.603   2.435   2.035
 4834SOL     OW15400   5.604   0.860   3.346
 4834SOL    HW115401   5.549   0.783   3.315
 4834SOL    HW215402   5.673   0.883   3.277
 4835SOL     OW15403   2.136   2.367   5.974
 4835SOL    HW115404   2.133   2.268   5.989
 4835SOL    HW215405   2.061   2.394   5.914
 4836SOL     OW15406   5.671   5.192   3.617
 4836SOL    HW115407   5.646   5.114   3.675
 4836SOL    HW215408   5.768   5.185   3.592
 4837SOL     OW15409   0.015   5.145   2.124
 4837SOL    HW115410   0.068   5.067   2.090
 4837SOL    HW215411   0.029   5.154   2.222
 4838SOL     OW15412   2.946   6.493   3.447
 4838SOL    HW115413   2.885   6.424   3.407
 4838SOL    HW215414   2.948   6.573   3.389
 4839SOL     OW15415   0.646   0.016   5.898
 4839SOL    HW115416   0.581   6.970   5.927
 4839SOL    HW215417   0.725   0.017   5.959
 4840SOL     OW15418   6.333   5.447   5.801
 4840SOL    HW115419   6.388   5.365   5.787
 4840SOL    HW215420   6.313   5.459   5.898
 4841SOL     OW15421   0.893   5.478   1.921
 4841SOL    HW115422   0.844   5.554   1.878
 4841SOL    HW215423   0.865   5.470   2.017
 4842SOL     OW15424   3.200   7.006   0.340
 4842SOL    HW115425   3.202   0.044   0.417
 4842SOL    HW215426   3.225   6.914   0.370
 4843SOL     OW15427   2.231   3.745   0.095
 4843SOL    HW115428   2.298   3.760   0.168
 4843SOL    HW215429   2.171   3.669   0.119
 4844SOL     OW15430   0.359   1.134   5.670
 4844SOL    HW115431   0.288   1.140   5.601
 4844SOL    HW215432   0.449   1.146   5.626
 4845SOL     OW15433   5.713   0.138   3.613
 4845SOL    HW115434   5.656   0.186   3.545
 4845SOL    HW215435   5.770   0.205   3.661
 4846SOL     OW15436   6.808   4.707   5.523
 4846SOL    HW115437   6.886   4.768   5.508
 4846SOL    HW215438   6.837   4.627   5.574
 4847SOL     OW15439   5.169   3.287   4.579
 4847SOL    HW115440   5.186   3.358   4.647
 4847SOL    HW215441   5.153   3.199   4.624
 4848SOL     OW15442   2.840   3.635   1.102
 4848SOL    HW115443   2.787   3.580   1.167
 4848SOL    HW215444   2.884   3.575   1.036
 4849SOL     OW15445   2.869   6.197   0.116
 4849SOL    HW115446   2.800   6.203   0.188
 4849SOL    HW215447   2.832   6.146   0.038
 4850SOL     OW15448   3.345   6.802   3.324
 4850SOL    HW115449   3.305   6.867   3.259
 4850SOL    HW215450   3.286   6.794   3.404
 4851SOL     OW15451   5.294   1.541   5.693
 4851SOL    HW115452   5.310   1.502   5.783
 4851SOL    HW215453   5.381   1.547   5.644
 4852SOL     OW15454   1.229   1.827   2.086
 4852SOL    HW115455   1.282   1.748   2.116
 4852SOL    HW215456   1.278   1.911   2.108
 4853SOL     OW15457   3.352   0.535   0.935
 4853SOL    HW115458   3.383   0.456   0.988
 4853SOL    HW215459   3.358   0.513   0.837
 4854SOL     OW15460   4.572   6.978   5.116
 4854SOL    HW115461   4.638   6.917   5.072
 4854SOL    HW215462   4.485   6.931   5.129
 4855SOL     OW15463   7.018   2.533   2.522
 4855SOL    HW115464   6.919   2.531   2.529
 4855SOL    HW215465   0.030   2.441   2.533
 4856SOL     OW15466   6.836   5.089   3.254
 4856SOL    HW115467   6.797   4.998   3.271
 4856SOL    HW215468   6.779   5.158   3.298
 4857SOL     OW15469   6.337   1.162   5.993
 4857SOL    HW115470   6.396   1.162   5.912
 4857SOL    HW215471   6.242   1.168   5.964
 4858SOL     OW15472   1.075   6.623   2.983
 4858SOL    HW115473   0.999   6.655   2.927
 4858SOL    HW215474   1.144   6.696   2.989
 4859SOL     OW15475   3.932   0.131   5.780
 4859SOL    HW115476   3.932   0.177   5.869
 4859SOL    HW215477   3.980   0.187   5.713
 4860SOL     OW15478   2.853   5.385   6.826
 4860SOL    HW115479   2.862   5.340   6.915
 4860SOL    HW215480   2.774   5.446   6.828
 4861SOL     OW15481   4.514   3.520   5.901
 4861SOL    HW115482   4.527   3.462   5.820
 4861SOL    HW215483   4.458   3.471   5.968
 4862SOL     OW15484   1.768   0.610   7.016
 4862SOL    HW115485   1.824   0.688   6.988
 4862SOL    HW215486   1.762   0.608   0.090
 4863SOL     OW15487   4.895   3.694   5.599
 4863SOL    HW115488   4.942   3.756   5.663
 4863SOL    HW215489   4.955   3.676   5.521
 4864SOL     OW15490   3.708   1.520   3.846
 4864SOL    HW115491   3.679   1.575   3.925
 4864SOL    HW215492   3.797   1.552   3.814
 4865SOL     OW15493   1.340   5.179   5.281
 4865SOL    HW115494   1.335   5.263   5.335
 4865SOL    HW215495   1.396   5.112   5.329
 4866SOL     OW15496   0.284   4.073   5.757
 4866SOL    HW115497   0.354   4.082   5.826
 4866SOL    HW215498   0.302   3.991   5.702
 4867SOL     OW15499   3.664   0.700   3.038
 4867SOL    HW115500   3.566   0.712   3.021
 4867SOL    HW215501   3.678   0.667   3.132
 4868SOL     OW15502   0.051   6.169   1.064
 4868SOL    HW115503   0.063   6.247   1.003
 4868SOL    HW215504   0.139   6.122   1.075
 4869SOL     OW15505   6.586   1.056   0.183
 4869SOL    HW115506   6.656   0.985   0.175
 4869SOL    HW215507   6.619   1.129   0.243
 4870SOL     OW15508   1.790   0.838   0.369
 4870SOL    HW115509   1.710   0.816   0.313
 4870SOL    HW215510   1.776   0.803   0.462
 4871SOL     OW15511   1.405   1.812   4.140
 4871SOL    HW115512   1.421   1.829   4.042
 4871SOL    HW215513   1.355   1.726   4.150
 4872SOL     OW15514   5.497   0.705   2.880
 4872SOL    HW115515   5.419   0.660   2.923
 4872SOL    HW215516   5.466   0.756   2.800
 4873SOL     OW15517   6.398   6.788   3.297
 4873SOL    HW115518   6.320   6.739   3.259
 4873SOL    HW215519   6.374   6.884   3.309
 4874SOL     OW15520   5.552   4.323   2.939
 4874SOL    HW115521   5.636   4.378   2.934
 4874SOL    HW215522   5.501   4.349   3.020
 4875SOL     OW15523   6.612   0.016   4.373
 4875SOL    HW115524   6.664   7.023   4.290
 4875SOL    HW215525   6.584   0.112   4.375
 4876SOL     OW15526   5.932   2.123   2.098
 4876SOL    HW115527   5.902   2.218   2.091
 4876SOL    HW215528   6.002   2.105   2.029
 4877SOL     OW15529   0.534   1.255   6.968
 4877SOL    HW115530   0.478   1.318   7.022
 4877SOL    HW215531   0.630   1.282   6.974
 4878SOL     OW15532   6.609   4.645   4.061
 4878SOL    HW115533   6.559   4.731   4.050
 4878SOL    HW215534   6.656   4.645   4.149
 4879SOL     OW15535   5.215   1.607   3.123
 4879SOL    HW115536   5.197   1.567   3.033
 4879SOL    HW215537   5.297   1.565   3.162
 4880SOL     OW15538   0.386   3.429   6.822
 4880SOL    HW115539   0.343   3.518   6.807
 4880SOL    HW215540   0.352   3.389   6.906
 4881SOL     OW15541   6.875   3.731   2.303
 4881SOL    HW115542   6.811   3.671   2.254
 4881SOL    HW215543   6.874   3.822   2.260
 4882SOL     OW15544   5.256   2.420   4.218
 4882SOL    HW115545   5.252   2.334   4.168
 4882SOL    HW215546   5.315   2.410   4.298
 4883SOL     OW15547   0.358   4.493   6.107
 4883SOL    HW115548   0.328   4.581   6.070
 4883SOL    HW215549   0.413   4.508   6.189
 4884SOL     OW15550   1.857   2.358   1.718
 4884SOL    HW115551   1.809   2.274   1.694
 4884SOL    HW215552   1.873   2.413   1.636
 4885SOL     OW15553   1.308   6.002   6.481
 4885SOL    HW115554   1.245   5.928   6.505
 4885SOL    HW215555   1.332   5.996   6.384
 4886SOL     OW15556   3.209   0.662   2.209
 4886SOL    HW115557   3.140   0.724   2.170
 4886SOL    HW215558   3.288   0.715   2.240
 4887SOL     OW15559   5.630   6.006   0.770
 4887SOL    HW115560   5.663   6.053   0.851
 4887SOL    HW215561   5.536   6.033   0.751
 4888SOL     OW15562   3.714   6.605   2.934
 4888SOL    HW115563   3.746   6.533   2.996
 4888SOL    HW215564   3.624   6.638   2.964
 4889SOL     OW15565   5.431   3.291   3.330
 4889SOL    HW115566   5.513   3.324   3.376
 4889SOL    HW215567   5.382   3.368   3.289
 4890SOL     OW15568   6.581   2.598   4.686
 4890SOL    HW115569   6.584   2.691   4.649
 4890SOL    HW215570   6.506   2.548   4.644
 4891SOL     OW15571   3.423   6.132   0.204
 4891SOL    HW115572   3.415   6.184   0.289
 4891SOL    HW215573   3.519   6.109   0.188
 4892SOL     OW15574   4.660   4.383   1.553
 4892SOL    HW115575   4.667   4.455   1.484
 4892SOL    HW215576   4.622   4.421   1.637
 4893SOL     OW15577   2.342   2.419   0.901
 4893SOL    HW115578   2.298   2.442   0.814
 4893SOL    HW215579   2.286   2.454   0.976
 4894SOL     OW15580   4.843   5.915   0.115
 4894SOL    HW115581   4.745   5.926   0.132
 4894SOL    HW215582   4.859   5.831   0.063
 4895SOL     OW15583   6.119   3.705   4.780
 4895SOL    HW115584   6.037   3.666   4.738
 4895SOL    HW215585   6.100   3.729   4.875
 4896SOL     OW15586   2.270   4.730   5.146
 4896SOL    HW115587   2.333   4.654   5.129
 4896SOL    HW215588   2.215   4.746   5.063
 4897SOL     OW15589   2.557   1.852   5.560
 4897SOL    HW115590   2.573   1.763   5.602
 4897SOL    HW215591   2.643   1.889   5.526
 4898SOL     OW15592   5.232   2.461   2.975
 4898SOL    HW115593   5.175   2.509   2.909
 4898SOL    HW215594   5.305   2.521   3.006
 4899SOL     OW15595   6.259   5.367   0.987
 4899SOL    HW115596   6.224   5.312   1.063
 4899SOL    HW215597   6.325   5.433   1.021
 4900SOL     OW15598   3.134   5.146   5.808
 4900SOL    HW115599   3.036   5.142   5.823
 4900SOL    HW215600   3.165   5.241   5.811
 4901SOL     OW15601   2.448   0.656   6.366
 4901SOL    HW115602   2.384   0.581   6.382
 4901SOL    HW215603   2.537   0.632   6.406
 4902SOL     OW15604   1.764   0.371   5.862
 4902SOL    HW115605   1.751   0.468   5.884
 4902SOL    HW215606   1.793   0.362   5.767
 4903SOL     OW15607   5.292   3.479   3.224
 4903SOL    HW115608   5.244   3.410   3.170
 4903SOL    HW215609   5.236   3.503   3.304
 4904SOL     OW15610   2.636   0.469   2.422
 4904SOL    HW115611   2.657   0.511   2.510
 4904SOL    HW215612   2.637   0.370   2.431
 4905SOL     OW15613   2.185   1.378   1.158
 4905SOL    HW115614   2.207   1.427   1.074
 4905SOL    HW215615   2.091   1.345   1.154
 4906SOL     OW15616   5.282   3.592   5.226
 4906SOL    HW115617   5.373   3.622   5.198
 4906SOL    HW215618   5.288   3.501   5.267
 4907SOL     OW15619   4.406   2.068   0.771
 4907SOL    HW115620   4.369   1.981   0.803
 4907SOL    HW215621   4.488   2.090   0.824
 4908SOL     OW15622   2.813   6.347   0.382
 4908SOL    HW115623   2.767   6.302   0.458
 4908SOL    HW215624   2.907   6.313   0.374
 4909SOL     OW15625   5.112   6.733   4.967
 4909SOL    HW115626   5.085   6.640   4.942
 4909SOL    HW215627   5.056   6.764   5.044
 4910SOL     OW15628   4.015   1.918   6.486
 4910SOL    HW115629   4.074   1.997   6.469
 4910SOL    HW215630   4.065   1.834   6.464
 4911SOL     OW15631   6.242   4.764   3.603
 4911SOL    HW115632   6.230   4.780   3.701
 4911SOL    HW215633   6.156   4.733   3.563
 4912SOL     OW15634   5.542   3.402   4.248
 4912SOL    HW115635   5.576   3.497   4.250
 4912SOL    HW215636   5.442   3.403   4.241
 4913SOL     OW15637   1.318   3.833   6.097
 4913SOL    HW115638   1.371   3.753   6.070
 4913SOL    HW215639   1.374   3.915   6.088
 4914SOL     OW15640   2.918   6.590   4.373
 4914SOL    HW115641   2.895   6.638   4.457
 4914SOL    HW215642   2.940   6.495   4.393
 4915SOL     OW15643   4.768   0.051   4.599
 4915SOL    HW115644   4.687   0.012   4.642
 4915SOL    HW215645   4.810   0.118   4.660
 4916SOL     OW15646   5.957   3.022   3.710
 4916SOL    HW115647   5.975   2.954   3.781
 4916SOL    HW215648   5.939   3.110   3.752
 4917SOL     OW15649   4.974   6.155   6.581
 4917SOL    HW115650   5.065   6.191   6.601
 4917SOL    HW215651   4.974   6.056   6.596
 4918SOL     OW15652   4.480   6.107   4.436
 4918SOL    HW115653   4.573   6.087   4.467
 4918SOL    HW215654   4.473   6.090   4.338
 4919SOL     OW15655   4.949   3.577   1.890
 4919SOL    HW115656   4.910   3.647   1.950
 4919SOL    HW215657   4.894   3.568   1.807
 4920SOL     OW15658   6.540   0.882   5.831
 4920SOL    HW115659   6.633   0.845   5.836
 4920SOL    HW215660   6.475   0.812   5.861
 4921SOL     OW15661   6.135   1.115   2.328
 4921SOL    HW115662   6.205   1.064   2.277
 4921SOL    HW215663   6.091   1.054   2.394
 4922SOL     OW15664   4.011   0.129   5.464
 4922SOL    HW115665   3.931   0.108   5.408
 4922SOL    HW215666   4.065   0.045   5.477
 4923SOL     OW15667   4.334   1.389   2.173
 4923SOL    HW115668   4.264   1.396   2.244
 4923SOL    HW215669   4.311   1.314   2.110
 4924SOL     OW15670   2.978   1.948   4.359
 4924SOL    HW115671   2.903   1.984   4.304
 4924SOL    HW215672   3.038   2.023   4.386
 4925SOL     OW15673   5.434   0.075   3.837
 4925SOL    HW115674   5.527   0.039   3.832
 4925SOL    HW215675   5.376   0.024   3.773
 4926SOL     OW15676   4.751   2.782   1.871
 4926SOL    HW115677   4.686   2.714   1.904
 4926SOL    HW215678   4.748   2.863   1.929
 4927SOL     OW15679   1.618   1.701   1.043
 4927SOL    HW115680   1.686   1.770   1.020
 4927SOL    HW215681   1.550   1.741   1.106
 4928SOL     OW15682   0.745   1.914   1.334
 4928SOL    HW115683   0.696   1.961   1.407
 4928SOL    HW215684   0.765   1.820   1.362
 4929SOL     OW15685   6.362   0.377   5.311
 4929SOL    HW115686   6.265   0.354   5.307
 4929SOL    HW215687   6.396   0.398   5.219
 4930SOL     OW15688   4.814   5.395   2.480
 4930SOL    HW115689   4.890   5.331   2.495
 4930SOL    HW215690   4.728   5.352   2.507
 4931SOL     OW15691   4.275   0.337   0.658
 4931SOL    HW115692   4.333   0.400   0.607
 4931SOL    HW215693   4.194   0.386   0.691
 4932SOL     OW15694   3.722   3.979   4.495
 4932SOL    HW115695   3.820   3.959   4.495
 4932SOL    HW215696   3.704   4.060   4.550
 4933SOL     OW15697   2.065   0.899   4.883
 4933SOL    HW115698   2.056   0.938   4.975
 4933SOL    HW215699   1.987   0.928   4.828
 4934SOL     OW15700   1.923   6.798   3.028
 4934SOL    HW115701   1.977   6.862   3.083
 4934SOL    HW215702   1.983   6.747   2.967
 4935SOL     OW15703   6.113   0.394   4.543
 4935SOL    HW115704   6.118   0.492   4.564
 4935SOL    HW215705   6.167   0.343   4.609
 4936SOL     OW15706   4.857   2.425   0.499
 4936SOL    HW115707   4.763   2.400   0.521
 4936SOL    HW215708   4.864   2.524   0.488
 4937SOL     OW15709   3.566   2.720   5.253
 4937SOL    HW115710   3.577   2.814   5.286
 4937SOL    HW215711   3.508   2.721   5.171
 4938SOL     OW15712   2.598   5.227   6.640
 4938SOL    HW115713   2.664   5.202   6.710
 4938SOL    HW215714   2.638   5.210   6.550
 4939SOL     OW15715   5.262   2.625   6.672
 4939SOL    HW115716   5.275   2.539   6.720
 4939SOL    HW215717   5.169   2.659   6.690
 4940SOL     OW15718   0.974   6.029   3.072
 4940SOL    HW115719   0.912   6.100   3.037
 4940SOL    HW215720   1.008   6.057   3.162
 4941SOL     OW15721   6.579   0.626   0.072
 4941SOL    HW115722   6.628   0.605   7.013
 4941SOL    HW215723   6.645   0.647   0.145
 4942SOL     OW15724   5.237   2.532   6.399
 4942SOL    HW115725   5.144   2.496   6.396
 4942SOL    HW215726   5.251   2.581   6.486
 4943SOL     OW15727   6.747   3.236   1.133
 4943SOL    HW115728   6.688   3.316   1.129
 4943SOL    HW215729   6.699   3.157   1.093
 4944SOL     OW15730   2.091   3.219   2.236
 4944SOL    HW115731   2.146   3.158   2.293
 4944SOL    HW215732   2.147   3.297   2.207
 4945SOL     OW15733   6.418   5.748   4.107
 4945SOL    HW115734   6.439   5.761   4.010
 4945SOL    HW215735   6.338   5.689   4.116
 4946SOL     OW15736   6.587   4.859   2.979
 4946SOL    HW115737   6.637   4.799   2.916
 4946SOL    HW215738   6.629   4.854   3.070
 4947SOL     OW15739   5.729   6.883   0.206
 4947SOL    HW115740   5.701   6.898   0.111
 4947SOL    HW215741   5.655   6.912   0.266
 4948SOL     OW15742   2.502   1.096   2.328
 4948SOL    HW115743   2.430   1.152   2.286
 4948SOL    HW215744   2.557   1.153   2.389
 4949SOL     OW15745   5.668   2.111   5.541
 4949SOL    HW115746   5.657   2.027   5.594
 4949SOL    HW215747   5.697   2.185   5.602
 4950SOL     OW15748   3.857   5.675   3.684
 4950SOL    HW115749   3.771   5.726   3.681
 4950SOL    HW215750   3.861   5.611   3.607
 4951SOL     OW15751   4.327   2.320   4.190
 4951SOL    HW115752   4.266   2.325   4.268
 4951SOL    HW215753   4.420   2.346   4.217
 4952SOL     OW15754   5.825   5.353   4.190
 4952SOL    HW115755   5.866   5.403   4.266
 4952SOL    HW215756   5.752   5.408   4.150
 4953SOL     OW15757   0.927   5.283   1.657
 4953SOL    HW115758   0.911   5.275   1.755
 4953SOL    HW215759   1.008   5.339   1.641
 4954SOL     OW15760   0.578   6.756   5.714
 4954SOL    HW115761   0.669   6.784   5.684
 4954SOL    HW215762   0.509   6.817   5.673
 4955SOL     OW15763   1.373   0.167   2.351
 4955SOL    HW115764   1.444   0.160   2.281
 4955SOL    HW215765   1.408   0.218   2.429
 4956SOL     OW15766   6.009   5.508   2.622
 4956SOL    HW115767   5.960   5.438   2.674
 4956SOL    HW215768   5.969   5.517   2.531
 4957SOL     OW15769   1.369   5.559   4.197
 4957SOL    HW115770   1.332   5.619   4.268
 4957SOL    HW215771   1.419   5.483   4.240
 4958SOL     OW15772   6.252   6.095   0.326
 4958SOL    HW115773   6.282   6.002   0.347
 4958SOL    HW215774   6.221   6.100   0.231
 4959SOL     OW15775   0.738   2.096   0.047
 4959SOL    HW115776   0.724   2.171   0.111
 4959SOL    HW215777   0.734   2.131   6.978
 4960SOL     OW15778   4.211   6.805   5.363
 4960SOL    HW115779   4.262   6.719   5.373
 4960SOL    HW215780   4.252   6.859   5.290
 4961SOL     OW15781   6.274   6.750   4.884
 4961SOL    HW115782   6.231   6.793   4.963
 4961SOL    HW215783   6.316   6.663   4.912
 4962SOL     OW15784   5.813   2.451   2.376
 4962SOL    HW115785   5.847   2.417   2.289
 4962SOL    HW215786   5.811   2.551   2.375
 4963SOL     OW15787   0.859   4.496   2.045
 4963SOL    HW115788   0.779   4.491   2.104
 4963SOL    HW215789   0.874   4.407   2.001
 4964SOL     OW15790   3.769   1.353   4.275
 4964SOL    HW115791   3.836   1.415   4.235
 4964SOL    HW215792   3.687   1.350   4.218
 4965SOL     OW15793   0.046   5.490   5.106
 4965SOL    HW115794   0.012   5.454   5.193
 4965SOL    HW215795   0.146   5.497   5.110
 4966SOL     OW15796   4.815   5.672   6.197
 4966SOL    HW115797   4.867   5.591   6.225
 4966SOL    HW215798   4.734   5.643   6.145
 4967SOL     OW15799   5.417   0.852   6.728
 4967SOL    HW115800   5.458   0.789   6.794
 4967SOL    HW215801   5.355   0.802   6.667
 4968SOL     OW15802   5.154   2.959   6.787
 4968SOL    HW115803   5.232   3.007   6.748
 4968SOL    HW215804   5.187   2.882   6.843
 4969SOL     OW15805   1.121   0.626   1.883
 4969SOL    HW115806   1.052   0.562   1.918
 4969SOL    HW215807   1.185   0.650   1.956
 4970SOL     OW15808   1.768   2.195   6.119
 4970SOL    HW115809   1.697   2.130   6.146
 4970SOL    HW215810   1.830   2.211   6.196
 4971SOL     OW15811   6.214   5.702   3.376
 4971SOL    HW115812   6.220   5.603   3.360
 4971SOL    HW215813   6.161   5.719   3.459
 4972SOL     OW15814   1.996   2.028   4.395
 4972SOL    HW115815   2.071   1.985   4.344
 4972SOL    HW215816   1.908   2.000   4.356
 4973SOL     OW15817   4.234   5.610   2.830
 4973SOL    HW115818   4.188   5.526   2.802
 4973SOL    HW215819   4.329   5.608   2.801
 4974SOL     OW15820   3.544   0.209   6.063
 4974SOL    HW115821   3.538   0.111   6.082
 4974SOL    HW215822   3.483   0.233   5.987
 4975SOL     OW15823   4.100   6.212   0.003
 4975SOL    HW115824   4.040   6.269   0.059
 4975SOL    HW215825   4.139   6.140   0.060
 4976SOL     OW15826   3.008   1.073   4.941
 4976SOL    HW115827   3.035   0.981   4.912
 4976SOL    HW215828   3.045   1.091   5.032
 4977SOL     OW15829   3.723   2.792   1.694
 4977SOL    HW115830   3.699   2.698   1.718
 4977SOL    HW215831   3.735   2.846   1.778
 4978SOL     OW15832   6.229   3.878   5.875
 4978SOL    HW115833   6.165   3.948   5.909
 4978SOL    HW215834   6.242   3.808   5.945
 4979SOL     OW15835   1.391   1.820   3.868
 4979SOL    HW115836   1.340   1.760   3.806
 4979SOL    HW215837   1.386   1.914   3.835
 4980SOL     OW15838   2.351   5.282   2.340
 4980SOL    HW115839   2.372   5.371   2.381
 4980SOL    HW215840   2.436   5.236   2.315
 4981SOL     OW15841   5.304   6.029   5.927
 4981SOL    HW115842   5.401   6.057   5.924
 4981SOL    HW215843   5.296   5.934   5.898
 4982SOL     OW15844   3.205   1.269   6.929
 4982SOL    HW115845   3.238   1.352   6.883
 4982SOL    HW215846   3.108   1.258   6.910
 4983SOL     OW15847   0.331   1.948   4.309
 4983SOL    HW115848   0.431   1.943   4.318
 4983SOL    HW215849   0.292   1.982   4.395
 4984SOL     OW15850   5.240   5.160   4.426
 4984SOL    HW115851   5.142   5.176   4.421
 4984SOL    HW215852   5.289   5.232   4.377
 4985SOL     OW15853   5.830   3.831   1.337
 4985SOL    HW115854   5.900   3.811   1.405
 4985SOL    HW215855   5.740   3.828   1.380
 4986SOL     OW15856   3.445   5.014   3.509
 4986SOL    HW115857   3.476   4.953   3.582
 4986SOL    HW215858   3.524   5.044   3.455
 4987SOL     OW15859   1.919   2.515   0.305
 4987SOL    HW115860   1.900   2.530   0.208
 4987SOL    HW215861   1.976   2.589   0.340
 4988SOL     OW15862   2.165   1.812   4.670
 4988SOL    HW115863   2.085   1.872   4.661
 4988SOL    HW215864   2.212   1.833   4.755
 4989SOL     OW15865   6.848   0.883   1.132
 4989SOL    HW115866   6.867   0.877   1.034
 4989SOL    HW215867   6.926   0.847   1.183
 4990SOL     OW15868   2.162   2.277   6.434
 4990SOL    HW115869   2.176   2.194   6.380
 4990SOL    HW215870   2.250   2.308   6.470
 4991SOL     OW15871   2.681   2.370   5.754
 4991SOL    HW115872   2.628   2.351   5.836
 4991SOL    HW215873   2.659   2.462   5.721
 4992SOL     OW15874   4.481   0.176   4.668
 4992SOL    HW115875   4.399   0.184   4.611
 4992SOL    HW215876   4.491   0.082   4.700
 4993SOL     OW15877   1.306   6.576   4.529
 4993SOL    HW115878   1.404   6.553   4.528
 4993SOL    HW215879   1.266   6.555   4.439
 4994SOL     OW15880   6.748   6.651   2.982
 4994SOL    HW115881   6.701   6.671   2.896
 4994SOL    HW215882   6.755   6.553   2.996
 4995SOL     OW15883   6.279   3.160   4.887
 4995SOL    HW115884   6.246   3.206   4.805
 4995SOL    HW215885   6.293   3.063   4.868
 4996SOL     OW15886   0.785   1.252   3.707
 4996SOL    HW115887   0.870   1.203   3.691
 4996SOL    HW215888   0.727   1.246   3.625
 4997SOL     OW15889   0.005   2.514   3.486
 4997SOL    HW115890   0.061   2.433   3.469
 4997SOL    HW215891   0.012   2.540   3.582
 4998SOL     OW15892   0.886   5.750   5.108
 4998SOL    HW115893   0.884   5.840   5.063
 4998SOL    HW215894   0.808   5.696   5.077
 4999SOL     OW15895   6.703   4.580   1.194
 4999SOL    HW115896   6.742   4.623   1.275
 4999SOL    HW215897   6.616   4.623   1.171
 5000SOL     OW15898   5.560   5.594   3.821
 5000SOL    HW115899   5.618   5.560   3.747
 5000SOL    HW215900   5.607   5.670   3.867
 5001SOL     OW15901   4.984   3.963   5.541
 5001SOL    HW115902   5.024   3.894   5.481
 5001SOL    HW215903   4.996   3.936   5.636
 5002SOL     OW15904   1.302   2.688   1.436
 5002SOL    HW115905   1.390   2.645   1.413
 5002SOL    HW215906   1.317   2.769   1.492
 5003SOL     OW15907   5.624   6.240   4.485
 5003SOL    HW115908   5.555   6.300   4.526
 5003SOL    HW215909   5.600   6.145   4.502
 5004SOL     OW15910   1.908   4.835   6.323
 5004SOL    HW115911   1.853   4.751   6.321
 5004SOL    HW215912   1.986   4.823   6.385
 5005SOL     OW15913   5.170   1.794   6.940
 5005SOL    HW115914   5.090   1.817   6.995
 5005SOL    HW215915   5.240   1.754   6.999
 5006SOL     OW15916   4.000   5.674   1.797
 5006SOL    HW115917   4.077   5.663   1.859
 5006SOL    HW215918   3.999   5.600   1.731
 5007SOL     OW15919   2.989   0.565   4.819
 5007SOL    HW115920   3.007   0.518   4.733
 5007SOL    HW215921   2.983   0.498   4.893
 5008SOL     OW15922   5.762   1.839   3.913
 5008SOL    HW115923   5.852   1.826   3.872
 5008SOL    HW215924   5.765   1.814   4.010
 5009SOL     OW15925   3.431   6.753   2.382
 5009SOL    HW115926   3.494   6.686   2.343
 5009SOL    HW215927   3.347   6.707   2.411
 5010SOL     OW15928   3.341   3.684   6.381
 5010SOL    HW115929   3.421   3.678   6.441
 5010SOL    HW215930   3.268   3.732   6.429
 5011SOL     OW15931   0.981   2.323   5.024
 5011SOL    HW115932   0.912   2.255   5.051
 5011SOL    HW215933   0.970   2.405   5.080
 5012SOL     OW15934   6.139   1.862   6.902
 5012SOL    HW115935   6.099   1.928   6.964
 5012SOL    HW215936   6.072   1.838   6.831
 5013SOL     OW15937   4.854   1.448   5.349
 5013SOL    HW115938   4.951   1.430   5.335
 5013SOL    HW215939   4.802   1.363   5.344
 5014SOL     OW15940   1.161   4.825   6.539
 5014SOL    HW115941   1.208   4.793   6.621
 5014SOL    HW215942   1.111   4.749   6.498
 5015SOL     OW15943   4.527   2.541   4.073
 5015SOL    HW115944   4.538   2.462   4.011
 5015SOL    HW215945   4.431   2.552   4.096
 5016SOL     OW15946   1.378   5.713   1.440
 5016SOL    HW115947   1.400   5.809   1.455
 5016SOL    HW215948   1.416   5.658   1.515
 5017SOL     OW15949   6.882   1.220   1.755
 5017SOL    HW115950   6.920   1.217   1.847
 5017SOL    HW215951   6.858   1.127   1.725
 5018SOL     OW15952   5.774   5.752   4.290
 5018SOL    HW115953   5.819   5.830   4.332
 5018SOL    HW215954   5.822   5.668   4.316
 5019SOL     OW15955   3.246   5.715   4.779
 5019SOL    HW115956   3.173   5.659   4.739
 5019SOL    HW215957   3.243   5.705   4.879
 5020SOL     OW15958   5.178   5.228   0.281
 5020SOL    HW115959   5.137   5.248   0.370
 5020SOL    HW215960   5.277   5.214   0.292
 5021SOL     OW15961   2.662   4.980   5.204
 5021SOL    HW115962   2.592   4.930   5.256
 5021SOL    HW215963   2.752   4.952   5.235
 5022SOL     OW15964   1.795   2.693   6.898
 5022SOL    HW115965   1.707   2.666   6.936
 5022SOL    HW215966   1.852   2.612   6.884
 5023SOL     OW15967   6.670   3.670   3.699
 5023SOL    HW115968   6.613   3.597   3.659
 5023SOL    HW215969   6.733   3.704   3.630
 5024SOL     OW15970   5.388   3.933   5.717
 5024SOL    HW115971   5.389   3.863   5.788
 5024SOL    HW215972   5.481   3.965   5.699
 5025SOL     OW15973   6.371   6.800   4.627
 5025SOL    HW115974   6.467   6.778   4.611
 5025SOL    HW215975   6.345   6.771   4.720
 5026SOL     OW15976   1.116   5.830   2.617
 5026SOL    HW115977   1.057   5.869   2.547
 5026SOL    HW215978   1.066   5.760   2.669
 5027SOL     OW15979   1.275   5.567   2.768
 5027SOL    HW115980   1.332   5.648   2.784
 5027SOL    HW215981   1.282   5.505   2.846
 5028SOL     OW15982   0.178   6.633   2.489
 5028SOL    HW115983   0.191   6.705   2.421
 5028SOL    HW215984   0.166   6.674   2.580
 5029SOL     OW15985   5.401   1.246   3.729
 5029SOL    HW115986   5.364   1.337   3.748
 5029SOL    HW215987   5.463   1.252   3.651
 5030SOL     OW15988   1.595   5.757   0.671
 5030SOL    HW115989   1.504   5.783   0.638
 5030SOL    HW215990   1.586   5.694   0.748
 5031SOL     OW15991   5.372   7.004   6.981
 5031SOL    HW115992   5.377   6.985   6.883
 5031SOL    HW215993   5.455   0.027   7.010
 5032SOL     OW15994   1.663   5.567   3.146
 5032SOL    HW115995   1.757   5.572   3.179
 5032SOL    HW215996   1.658   5.605   3.054
 5033SOL     OW15997   1.324   4.536   4.812
 5033SOL    HW115998   1.236   4.565   4.849
 5033SOL    HW215999   1.318   4.439   4.786
 5034SOL     OW16000   0.957   2.488   5.713
 5034SOL    HW116001   0.975   2.487   5.811
 5034SOL    HW216002   0.896   2.412   5.690
 5035SOL     OW16003   6.957   4.775   0.955
 5035SOL    HW116004   6.996   4.853   1.004
 5035SOL    HW216005   7.015   4.695   0.966
 5036SOL     OW16006   0.795   1.275   2.135
 5036SOL    HW116007   0.702   1.262   2.169
 5036SOL    HW216008   0.818   1.373   2.139
 5037SOL     OW16009   5.277   3.994   0.875
 5037SOL    HW116010   5.311   3.912   0.921
 5037SOL    HW216011   5.230   4.053   0.941
 5038SOL     OW16012   2.983   5.469   5.451
 5038SOL    HW116013   2.965   5.487   5.354
 5038SOL    HW216014   2.901   5.433   5.494
 5039SOL     OW16015   1.109   1.770   3.827
 5039SOL    HW116016   1.124   1.686   3.776
 5039SOL    HW216017   1.055   1.751   3.909
 5040SOL     OW16018   1.996   3.068   6.287
 5040SOL    HW116019   1.946   3.154   6.271
 5040SOL    HW216020   2.082   3.089   6.334
 5041SOL     OW16021   0.546   5.424   0.030
 5041SOL    HW116022   0.589   5.357   0.091
 5041SOL    HW216023   0.488   5.486   0.083
 5042SOL     OW16024   5.974   0.898   5.801
 5042SOL    HW116025   5.896   0.859   5.851
 5042SOL    HW216026   5.957   0.996   5.785
 5043SOL     OW16027   5.464   5.996   3.959
 5043SOL    HW116028   5.415   5.943   4.028
 5043SOL    HW216029   5.412   5.994   3.873
 5044SOL     OW16030   0.688   4.273   3.341
 5044SOL    HW116031   0.708   4.342   3.411
 5044SOL    HW216032   0.740   4.190   3.360
 5045SOL     OW16033   5.213   3.264   5.126
 5045SOL    HW116034   5.197   3.211   5.209
 5045SOL    HW216035   5.311   3.285   5.118
 5046SOL     OW16036   4.337   2.998   5.643
 5046SOL    HW116037   4.280   3.077   5.622
 5046SOL    HW216038   4.284   2.933   5.699
 5047SOL     OW16039   6.596   1.676   1.435
 5047SOL    HW116040   6.673   1.701   1.494
 5047SOL    HW216041   6.570   1.756   1.380
 5048SOL     OW16042   5.790   4.849   6.546
 5048SOL    HW116043   5.881   4.811   6.567
 5048SOL    HW216044   5.741   4.786   6.486
 5049SOL     OW16045   0.784   0.573   0.068
 5049SOL    HW116046   0.749   0.612   7.008
 5049SOL    HW216047   0.739   0.617   0.146
 5050SOL     OW16048   0.631   3.905   1.006
 5050SOL    HW116049   0.690   3.984   1.021
 5050SOL    HW216050   0.545   3.918   1.056
 5051SOL     OW16051   2.585   3.700   5.944
 5051SOL    HW116052   2.669   3.734   5.902
 5051SOL    HW216053   2.516   3.773   5.947
 5052SOL     OW16054   6.815   2.528   1.336
 5052SOL    HW116055   6.828   2.466   1.413
 5052SOL    HW216056   6.836   2.622   1.364
 5053SOL     OW16057   0.452   3.955   1.376
 5053SOL    HW116058   0.355   3.937   1.391
 5053SOL    HW216059   0.471   3.954   1.278
 5054SOL     OW16060   4.603   5.429   4.449
 5054SOL    HW116061   4.690   5.412   4.495
 5054SOL    HW216062   4.540   5.473   4.513
 5055SOL     OW16063   1.002   7.019   4.016
 5055SOL    HW116064   1.003   6.983   3.923
 5055SOL    HW216065   0.908   7.021   4.050
 5056SOL     OW16066   2.946   1.226   6.848
 5056SOL    HW116067   2.893   1.146   6.875
 5056SOL    HW216068   2.886   1.305   6.838
 5057SOL     OW16069   0.531   3.625   3.282
 5057SOL    HW116070   0.537   3.618   3.182
 5057SOL    HW216071   0.546   3.535   3.323
 5058SOL     OW16072   3.856   2.008   6.841
 5058SOL    HW116073   3.759   1.986   6.837
 5058SOL    HW216074   3.869   2.097   6.886
 5059SOL     OW16075   5.348   2.439   2.582
 5059SOL    HW116076   5.415   2.448   2.656
 5059SOL    HW216077   5.292   2.357   2.596
 5060SOL     OW16078   0.552   3.202   5.830
 5060SOL    HW116079   0.603   3.287   5.819
 5060SOL    HW216080   0.567   3.166   5.922
 5061SOL     OW16081   4.297   2.697   6.435
 5061SOL    HW116082   4.361   2.684   6.511
 5061SOL    HW216083   4.346   2.736   6.357
 5062SOL     OW16084   5.523   1.903   3.013
 5062SOL    HW116085   5.548   1.973   3.079
 5062SOL    HW216086   5.605   1.866   2.970
 5063SOL     OW16087   0.193   0.550   0.787
 5063SOL    HW116088   0.268   0.611   0.815
 5063SOL    HW216089   0.159   0.578   0.698
 5064SOL     OW16090   0.135   5.004   0.518
 5064SOL    HW116091   0.062   5.053   0.470
 5064SOL    HW216092   0.119   5.009   0.617
 5065SOL     OW16093   0.887   2.010   1.736
 5065SOL    HW116094   0.816   2.067   1.696
 5065SOL    HW216095   0.898   2.033   1.833
 5066SOL     OW16096   0.610   5.364   3.747
 5066SOL    HW116097   0.679   5.346   3.817
 5066SOL    HW216098   0.522   5.380   3.792
 5067SOL     OW16099   4.059   2.938   0.589
 5067SOL    HW116100   4.033   2.842   0.588
 5067SOL    HW216101   4.127   2.955   0.660
 5068SOL     OW16102   1.468   5.893   0.973
 5068SOL    HW116103   1.432   5.808   1.012
 5068SOL    HW216104   1.539   5.872   0.906
 5069SOL     OW16105   4.096   4.499   6.349
 5069SOL    HW116106   4.034   4.571   6.379
 5069SOL    HW216107   4.191   4.527   6.365
 5070SOL     OW16108   0.907   3.351   6.592
 5070SOL    HW116109   0.897   3.331   6.495
 5070SOL    HW216110   0.826   3.319   6.641
 5071SOL     OW16111   1.540   6.320   3.411
 5071SOL    HW116112   1.633   6.335   3.378
 5071SOL    HW216113   1.542   6.269   3.497
 5072SOL     OW16114   0.631   2.347   2.205
 5072SOL    HW116115   0.581   2.416   2.152
 5072SOL    HW216116   0.598   2.347   2.300
 5073SOL     OW16117   1.983   1.590   4.611
 5073SOL    HW116118   1.935   1.656   4.553
 5073SOL    HW216119   2.056   1.637   4.661
 5074SOL     OW16120   3.245   2.047   1.404
 5074SOL    HW116121   3.328   2.091   1.437
 5074SOL    HW216122   3.228   2.072   1.309
 5075SOL     OW16123   6.056   2.221   6.698
 5075SOL    HW116124   6.125   2.149   6.688
 5075SOL    HW216125   6.094   2.295   6.754
 5076SOL     OW16126   6.831   2.061   5.786
 5076SOL    HW116127   6.913   2.014   5.755
 5076SOL    HW216128   6.750   2.007   5.762
 5077SOL     OW16129   1.406   5.526   3.922
 5077SOL    HW116130   1.414   5.515   4.021
 5077SOL    HW216131   1.331   5.470   3.888
 5078SOL     OW16132   5.860   2.040   2.362
 5078SOL    HW116133   5.895   2.056   2.270
 5078SOL    HW216134   5.937   2.033   2.426
 5079SOL     OW16135   1.787   3.767   5.823
 5079SOL    HW116136   1.822   3.684   5.866
 5079SOL    HW216137   1.840   3.846   5.852
 5080SOL     OW16138   6.590   6.472   6.409
 5080SOL    HW116139   6.550   6.391   6.452
 5080SOL    HW216140   6.687   6.455   6.389
 5081SOL     OW16141   3.871   4.130   6.517
 5081SOL    HW116142   3.856   4.184   6.600
 5081SOL    HW216143   3.830   4.176   6.439
 5082SOL     OW16144   5.990   0.273   3.244
 5082SOL    HW116145   5.908   0.217   3.233
 5082SOL    HW216146   5.968   0.354   3.299
 5083SOL     OW16147   0.463   0.772   3.653
 5083SOL    HW116148   0.472   0.703   3.581
 5083SOL    HW216149   0.467   0.728   3.743
 5084SOL     OW16150   3.611   5.094   5.401
 5084SOL    HW116151   3.531   5.054   5.445
 5084SOL    HW216152   3.679   5.023   5.384
 5085SOL     OW16153   1.168   3.067   6.616
 5085SOL    HW116154   1.121   3.021   6.692
 5085SOL    HW216155   1.105   3.076   6.539
 5086SOL     OW16156   0.904   3.967   2.031
 5086SOL    HW116157   0.970   4.033   2.066
 5086SOL    HW216158   0.944   3.918   1.953
 5087SOL     OW16159   6.352   5.705   1.688
 5087SOL    HW116160   6.394   5.796   1.698
 5087SOL    HW216161   6.414   5.636   1.723
 5088SOL     OW16162   4.282   4.645   2.659
 5088SOL    HW116163   4.350   4.586   2.615
 5088SOL    HW216164   4.233   4.696   2.589
 5089SOL     OW16165   4.052   5.918   6.417
 5089SOL    HW116166   4.056   5.838   6.477
 5089SOL    HW216167   3.957   5.942   6.399
 5090SOL     OW16168   2.410   6.366   4.739
 5090SOL    HW116169   2.433   6.450   4.689
 5090SOL    HW216170   2.458   6.367   4.827
 5091SOL     OW16171   5.921   5.320   4.653
 5091SOL    HW116172   5.841   5.354   4.702
 5091SOL    HW216173   5.901   5.229   4.616
 5092SOL     OW16174   3.475   3.071   4.489
 5092SOL    HW116175   3.476   3.021   4.575
 5092SOL    HW216176   3.526   3.019   4.420
 5093SOL     OW16177   2.976   2.234   3.526
 5093SOL    HW116178   3.052   2.204   3.468
 5093SOL    HW216179   3.001   2.222   3.622
 5094SOL     OW16180   1.807   4.301   4.895
 5094SOL    HW116181   1.834   4.209   4.869
 5094SOL    HW216182   1.708   4.303   4.912
 5095SOL     OW16183   6.447   2.521   2.932
 5095SOL    HW116184   6.355   2.554   2.954
 5095SOL    HW216185   6.497   2.503   3.016
 5096SOL     OW16186   6.532   3.157   5.006
 5096SOL    HW116187   6.597   3.223   4.968
 5096SOL    HW216188   6.439   3.183   4.979
 5097SOL     OW16189   0.922   0.319   5.938
 5097SOL    HW116190   0.832   0.353   5.964
 5097SOL    HW216191   0.990   0.390   5.954
 5098SOL     OW16192   2.599   1.576   0.801
 5098SOL    HW116193   2.511   1.535   0.777
 5098SOL    HW216194   2.614   1.568   0.899
 5099SOL     OW16195   1.820   5.592   1.866
 5099SOL    HW116196   1.739   5.535   1.881
 5099SOL    HW216197   1.848   5.586   1.771
 5100SOL     OW16198   6.898   3.565   1.583
 5100SOL    HW116199   6.986   3.567   1.629
 5100SOL    HW216200   6.909   3.525   1.492
 5101SOL     OW16201   4.411   1.902   6.517
 5101SOL    HW116202   4.425   1.829   6.450
 5101SOL    HW216203   4.359   1.976   6.475
 5102SOL     OW16204   5.601   4.873   5.160
 5102SOL    HW116205   5.525   4.849   5.221
 5102SOL    HW216206   5.687   4.864   5.209
 5103SOL     OW16207   0.509   0.247   4.952
 5103SOL    HW116208   0.485   0.163   4.903
 5103SOL    HW216209   0.493   0.235   5.050
 5104SOL     OW16210   3.559   3.168   4.124
 5104SOL    HW116211   3.513   3.223   4.195
 5104SOL    HW216212   3.504   3.087   4.104
 5105SOL     OW16213   4.485   2.251   6.440
 5105SOL    HW116214   4.491   2.192   6.520
 5105SOL    HW216215   4.413   2.218   6.379
 5106SOL     OW16216   4.418   0.082   0.814
 5106SOL    HW116217   4.364   0.157   0.777
 5106SOL    HW216218   4.466   0.112   0.896
 5107SOL     OW16219   6.226   4.466   6.804
 5107SOL    HW116220   6.311   4.489   6.850
 5107SOL    HW216221   6.187   4.383   6.845
 5108SOL     OW16222   4.551   4.622   0.959
 5108SOL    HW116223   4.493   4.622   0.877
 5108SOL    HW216224   4.581   4.528   0.977
 5109SOL     OW16225   0.915   2.351   1.836
 5109SOL    HW116226   0.912   2.253   1.853
 5109SOL    HW216227   1.010   2.380   1.822
 5110SOL     OW16228   3.862   7.013   4.661
 5110SOL    HW116229   3.815   6.969   4.584
 5110SOL    HW216230   3.883   0.083   4.637
 5111SOL     OW16231   2.478   6.617   6.241
 5111SOL    HW116232   2.425   6.639   6.324
 5111SOL    HW216233   2.575   6.623   6.262
 5112SOL     OW16234   0.618   3.302   2.474
 5112SOL    HW116235   0.641   3.398   2.488
 5112SOL    HW216236   0.593   3.287   2.378
 5113SOL     OW16237   3.065   4.618   1.403
 5113SOL    HW116238   3.006   4.625   1.323
 5113SOL    HW216239   3.022   4.665   1.480
 5114SOL     OW16240   4.553   4.114   1.216
 5114SOL    HW116241   4.486   4.188   1.223
 5114SOL    HW216242   4.511   4.034   1.173
 5115SOL     OW16243   1.674   3.813   0.353
 5115SOL    HW116244   1.746   3.788   0.289
 5115SOL    HW216245   1.699   3.898   0.400
 5116SOL     OW16246   0.980   5.769   6.021
 5116SOL    HW116247   0.902   5.808   5.972
 5116SOL    HW216248   0.985   5.809   6.112
 5117SOL     OW16249   0.966   4.140   4.148
 5117SOL    HW116250   0.884   4.084   4.139
 5117SOL    HW216251   0.986   4.185   4.061
 5118SOL     OW16252   4.958   5.648   0.916
 5118SOL    HW116253   5.051   5.671   0.887
 5118SOL    HW216254   4.952   5.550   0.934
 5119SOL     OW16255   4.788   1.564   6.633
 5119SOL    HW116256   4.867   1.625   6.639
 5119SOL    HW216257   4.790   1.500   6.711
 5120SOL     OW16258   5.121   5.970   0.209
 5120SOL    HW116259   5.164   5.913   0.139
 5120SOL    HW216260   5.040   6.015   0.171
 5121SOL     OW16261   2.139   3.843   6.613
 5121SOL    HW116262   2.236   3.864   6.612
 5121SOL    HW216263   2.112   3.813   6.705
 5122SOL     OW16264   4.973   5.518   3.616
 5122SOL    HW116265   5.067   5.548   3.597
 5122SOL    HW216266   4.956   5.523   3.714
 5123SOL     OW16267   4.887   2.418   1.424
 5123SOL    HW116268   4.833   2.334   1.414
 5123SOL    HW216269   4.894   2.441   1.521
 5124SOL     OW16270   0.305   6.217   4.121
 5124SOL    HW116271   0.234   6.201   4.190
 5124SOL    HW216272   0.322   6.315   4.112
 5125SOL     OW16273   4.988   2.990   3.692
 5125SOL    HW116274   5.061   3.054   3.717
 5125SOL    HW216275   5.028   2.900   3.674
 5126SOL     OW16276   2.868   0.829   2.440
 5126SOL    HW116277   2.867   0.751   2.377
 5126SOL    HW216278   2.891   0.912   2.390
 5127SOL     OW16279   2.079   5.868   0.986
 5127SOL    HW116280   2.025   5.896   0.907
 5127SOL    HW216281   2.045   5.781   1.021
 5128SOL     OW16282   3.709   0.099   1.930
 5128SOL    HW116283   3.724   0.194   1.904
 5128SOL    HW216284   3.655   0.053   1.860
 5129SOL     OW16285   5.787   5.898   0.057
 5129SOL    HW116286   5.789   5.995   0.034
 5129SOL    HW216287   5.809   5.886   0.154
 5130SOL     OW16288   5.734   4.715   1.669
 5130SOL    HW116289   5.667   4.648   1.702
 5130SOL    HW216290   5.711   4.805   1.704
 5131SOL     OW16291   2.137   2.412   2.137
 5131SOL    HW116292   2.196   2.442   2.211
 5131SOL    HW216293   2.094   2.324   2.161
 5132SOL     OW16294   2.811   6.503   6.458
 5132SOL    HW116295   2.826   6.514   6.556
 5132SOL    HW216296   2.845   6.414   6.428
 5133SOL     OW16297   4.193   5.110   5.123
 5133SOL    HW116298   4.175   5.194   5.071
 5133SOL    HW216299   4.200   5.033   5.060
 5134SOL     OW16300   0.616   3.061   6.902
 5134SOL    HW116301   0.578   3.018   6.984
 5134SOL    HW216302   0.544   3.076   6.835
 5135SOL     OW16303   5.990   1.789   2.563
 5135SOL    HW116304   6.052   1.804   2.486
 5135SOL    HW216305   6.040   1.745   2.638
 5136SOL     OW16306   3.739   1.682   6.953
 5136SOL    HW116307   3.798   1.656   0.004
 5136SOL    HW216308   3.665   1.741   6.985
 5137SOL     OW16309   4.027   3.597   0.235
 5137SOL    HW116310   4.052   3.631   0.144
 5137SOL    HW216311   4.057   3.502   0.243
 5138SOL     OW16312   2.381   2.329   6.090
 5138SOL    HW116313   2.415   2.249   6.041
 5138SOL    HW216314   2.283   2.340   6.072
 5139SOL     OW16315   0.467   6.937   3.640
 5139SOL    HW116316   0.566   6.939   3.624
 5139SOL    HW216317   0.421   6.904   3.557
 5140SOL     OW16318   3.273   3.480   2.683
 5140SOL    HW116319   3.250   3.384   2.665
 5140SOL    HW216320   3.370   3.495   2.666
 5141SOL     OW16321   1.760   2.984   5.563
 5141SOL    HW116322   1.753   2.915   5.635
 5141SOL    HW216323   1.851   2.981   5.523
 5142SOL     OW16324   4.859   3.190   1.279
 5142SOL    HW116325   4.852   3.092   1.262
 5142SOL    HW216326   4.943   3.226   1.238
 5143SOL     OW16327   0.194   5.389   6.410
 5143SOL    HW116328   0.203   5.364   6.506
 5143SOL    HW216329   0.270   5.449   6.384
 5144SOL     OW16330   2.280   1.362   5.094
 5144SOL    HW116331   2.266   1.270   5.056
 5144SOL    HW216332   2.290   1.428   5.019
 5145SOL     OW16333   3.739   4.835   6.702
 5145SOL    HW116334   3.736   4.933   6.720
 5145SOL    HW216335   3.675   4.813   6.628
 5146SOL     OW16336   3.719   5.224   1.369
 5146SOL    HW116337   3.650   5.165   1.411
 5146SOL    HW216338   3.743   5.189   1.279
 5147SOL     OW16339   0.653   5.820   5.793
 5147SOL    HW116340   0.709   5.766   5.730
 5147SOL    HW216341   0.690   5.913   5.797
 5148SOL     OW16342   6.950   0.735   1.341
 5148SOL    HW116343   0.019   0.767   1.346
 5148SOL    HW216344   6.890   0.798   1.391
 5149SOL     OW16345   5.935   0.186   4.591
 5149SOL    HW116346   5.984   0.273   4.578
 5149SOL    HW216347   5.837   0.204   4.599
 5150SOL     OW16348   2.820   4.996   6.491
 5150SOL    HW116349   2.913   5.027   6.470
 5150SOL    HW216350   2.755   5.045   6.434
 5151SOL     OW16351   5.106   6.727   6.045
 5151SOL    HW116352   5.012   6.695   6.038
 5151SOL    HW216353   5.115   6.816   6.001
 5152SOL     OW16354   0.312   4.997   6.739
 5152SOL    HW116355   0.311   4.919   6.676
 5152SOL    HW216356   0.367   4.974   6.819
 5153SOL     OW16357   2.708   3.479   1.283
 5153SOL    HW116358   2.775   3.477   1.357
 5153SOL    HW216359   2.685   3.385   1.256
 5154SOL     OW16360   1.567   3.796   5.300
 5154SOL    HW116361   1.556   3.893   5.276
 5154SOL    HW216362   1.600   3.788   5.394
 5155SOL     OW16363   4.086   0.592   2.522
 5155SOL    HW116364   4.075   0.659   2.449
 5155SOL    HW216365   4.167   0.536   2.503
 5156SOL     OW16366   5.812   3.413   5.745
 5156SOL    HW116367   5.764   3.467   5.814
 5156SOL    HW216368   5.792   3.449   5.654
 5157SOL     OW16369   0.051   3.012   3.976
 5157SOL    HW116370   0.025   2.920   4.007
 5157SOL    HW216371   0.148   3.027   3.992
 5158SOL     OW16372   3.386   1.143   1.608
 5158SOL    HW116373   3.321   1.092   1.665
 5158SOL    HW216374   3.402   1.093   1.523
 5159SOL     OW16375   1.684   3.821   4.847
 5159SOL    HW116376   1.606   3.783   4.897
 5159SOL    HW216377   1.755   3.751   4.836
 5160SOL     OW16378   2.628   2.478   3.212
 5160SOL    HW116379   2.554   2.412   3.199
 5160SOL    HW216380   2.690   2.445   3.283
 5161SOL     OW16381   1.326   2.427   6.987
 5161SOL    HW116382   1.394   2.433   0.035
 5161SOL    HW216383   1.360   2.475   6.906
 5162SOL     OW16384   6.227   5.781   5.130
 5162SOL    HW116385   6.221   5.795   5.229
 5162SOL    HW216386   6.219   5.683   5.110
 5163SOL     OW16387   5.779   3.449   0.853
 5163SOL    HW116388   5.771   3.402   0.941
 5163SOL    HW216389   5.859   3.510   0.856
 5164SOL     OW16390   6.661   6.617   5.440
 5164SOL    HW116391   6.744   6.658   5.402
 5164SOL    HW216392   6.684   6.566   5.523
 5165SOL     OW16393   5.823   4.808   4.734
 5165SOL    HW116394   5.919   4.781   4.727
 5165SOL    HW216395   5.772   4.773   4.656
 5166SOL     OW16396   6.828   0.538   3.011
 5166SOL    HW116397   6.824   0.438   3.019
 5166SOL    HW216398   6.780   0.579   3.089
 5167SOL     OW16399   2.189   0.106   4.651
 5167SOL    HW116400   2.095   0.120   4.621
 5167SOL    HW216401   2.198   0.016   4.693
 5168SOL     OW16402   2.730   1.376   1.949
 5168SOL    HW116403   2.816   1.423   1.930
 5168SOL    HW216404   2.712   1.308   1.879
 5169SOL     OW16405   3.691   5.744   6.259
 5169SOL    HW116406   3.647   5.818   6.310
 5169SOL    HW216407   3.622   5.696   6.204
 5170SOL     OW16408   3.946   5.044   4.816
 5170SOL    HW116409   4.042   5.056   4.788
 5170SOL    HW216410   3.943   5.017   4.912
 5171SOL     OW16411   2.460   4.193   5.921
 5171SOL    HW116412   2.467   4.292   5.907
 5171SOL    HW216413   2.544   4.159   5.963
 5172SOL     OW16414   1.951   3.398   6.445
 5172SOL    HW116415   1.881   3.327   6.438
 5172SOL    HW216416   1.931   3.470   6.378
 5173SOL     OW16417   0.912   2.482   4.795
 5173SOL    HW116418   0.903   2.440   4.705
 5173SOL    HW216419   0.942   2.413   4.862
 5174SOL     OW16420   3.102   4.992   6.791
 5174SOL    HW116421   3.162   5.018   6.867
 5174SOL    HW216422   3.130   4.903   6.755
 5175SOL     OW16423   1.502   5.348   0.349
 5175SOL    HW116424   1.429   5.417   0.360
 5175SOL    HW216425   1.466   5.270   0.300
 5176SOL     OW16426   5.982   3.696   6.831
 5176SOL    HW116427   5.971   3.755   6.751
 5176SOL    HW216428   5.908   3.629   6.833
 5177SOL     OW16429   4.924   5.171   0.184
 5177SOL    HW116430   5.020   5.185   0.209
 5177SOL    HW216431   4.878   5.122   0.258
 5178SOL     OW16432   3.024   4.440   0.503
 5178SOL    HW116433   3.107   4.443   0.448
 5178SOL    HW216434   3.047   4.449   0.600
 5179SOL     OW16435   2.464   5.727   5.218
 5179SOL    HW116436   2.506   5.743   5.129
 5179SOL    HW216437   2.411   5.807   5.245
 5180SOL     OW16438   4.896   1.666   6.013
 5180SOL    HW116439   4.966   1.693   5.948
 5180SOL    HW216440   4.885   1.738   6.082
 5181SOL     OW16441   2.889   6.602   2.686
 5181SOL    HW116442   2.840   6.688   2.694
 5181SOL    HW216443   2.856   6.552   2.605
 5182SOL     OW16444   4.487   3.924   0.574
 5182SOL    HW116445   4.411   3.978   0.610
 5182SOL    HW216446   4.488   3.834   0.619
 5183SOL     OW16447   2.770   0.860   3.172
 5183SOL    HW116448   2.697   0.830   3.234
 5183SOL    HW216449   2.750   0.952   3.139
 5184SOL     OW16450   0.864   2.067   3.383
 5184SOL    HW116451   0.891   2.144   3.326
 5184SOL    HW216452   0.907   1.983   3.348
 5185SOL     OW16453   4.641   0.724   1.785
 5185SOL    HW116454   4.694   0.679   1.712
 5185SOL    HW216455   4.548   0.689   1.783
 5186SOL     OW16456   5.337   3.324   0.099
 5186SOL    HW116457   5.328   3.323   0.198
 5186SOL    HW216458   5.302   3.410   0.063
 5187SOL     OW16459   5.073   4.461   4.324
 5187SOL    HW116460   5.089   4.474   4.422
 5187SOL    HW216461   5.024   4.541   4.288
 5188SOL     OW16462   0.782   0.796   3.362
 5188SOL    HW116463   0.738   0.869   3.309
 5188SOL    HW216464   0.882   0.808   3.359
 5189SOL     OW16465   5.125   5.103   5.546
 5189SOL    HW116466   5.100   5.021   5.494
 5189SOL    HW216467   5.221   5.125   5.530
 5190SOL     OW16468   2.039   1.469   2.286
 5190SOL    HW116469   2.053   1.395   2.221
 5190SOL    HW216470   1.952   1.514   2.268
 5191SOL     OW16471   5.600   1.614   2.399
 5191SOL    HW116472   5.527   1.640   2.335
 5191SOL    HW216473   5.558   1.571   2.479
 5192SOL     OW16474   6.673   4.154   2.529
 5192SOL    HW116475   6.604   4.205   2.579
 5192SOL    HW216476   6.689   4.066   2.574
 5193SOL     OW16477   3.847   4.820   3.349
 5193SOL    HW116478   3.917   4.749   3.342
 5193SOL    HW216479   3.829   4.840   3.445
 5194SOL     OW16480   5.691   0.358   0.342
 5194SOL    HW116481   5.748   0.295   0.289
 5194SOL    HW216482   5.742   0.393   0.420
 5195SOL     OW16483   0.207   4.780   4.962
 5195SOL    HW116484   0.175   4.765   5.056
 5195SOL    HW216485   0.230   4.692   4.920
 5196SOL     OW16486   1.325   3.567   3.122
 5196SOL    HW116487   1.296   3.534   3.032
 5196SOL    HW216488   1.291   3.506   3.193
 5197SOL     OW16489   3.054   6.513   5.299
 5197SOL    HW116490   3.082   6.422   5.270
 5197SOL    HW216491   3.064   6.577   5.223
 5198SOL     OW16492   4.318   1.105   6.393
 5198SOL    HW116493   4.274   1.085   6.305
 5198SOL    HW216494   4.345   1.202   6.394
 5199SOL     OW16495   0.853   6.352   3.795
 5199SOL    HW116496   0.819   6.261   3.771
 5199SOL    HW216497   0.775   6.412   3.813
 5200SOL     OW16498   6.012   6.410   5.991
 5200SOL    HW116499   6.017   6.348   6.069
 5200SOL    HW216500   5.999   6.357   5.907
 5201SOL     OW16501   6.796   3.832   5.689
 5201SOL    HW116502   6.784   3.799   5.596
 5201SOL    HW216503   6.777   3.758   5.754
 5202SOL     OW16504   3.369   3.254   5.824
 5202SOL    HW116505   3.295   3.187   5.828
 5202SOL    HW216506   3.370   3.296   5.733
 5203SOL     OW16507   6.956   6.833   4.933
 5203SOL    HW116508   6.906   6.886   5.001
 5203SOL    HW216509   6.962   6.884   4.848
 5204SOL     OW16510   1.872   0.320   2.169
 5204SOL    HW116511   1.798   0.282   2.226
 5204SOL    HW216512   1.901   0.250   2.104
 5205SOL     OW16513   5.927   6.456   1.741
 5205SOL    HW116514   5.988   6.533   1.724
 5205SOL    HW216515   5.945   6.384   1.675
 5206SOL     OW16516   1.185   4.589   5.067
 5206SOL    HW116517   1.126   4.668   5.079
 5206SOL    HW216518   1.272   4.604   5.113
 5207SOL     OW16519   4.359   1.447   5.103
 5207SOL    HW116520   4.366   1.434   5.202
 5207SOL    HW216521   4.450   1.463   5.065
 5208SOL     OW16522   7.023   1.284   0.843
 5208SOL    HW116523   0.054   1.241   0.913
 5208SOL    HW216524   6.974   1.362   0.882
 5209SOL     OW16525   4.472   5.564   2.598
 5209SOL    HW116526   4.470   5.505   2.517
 5209SOL    HW216527   4.463   5.508   2.680
 5210SOL     OW16528   6.409   3.889   2.370
 5210SOL    HW116529   6.448   3.950   2.440
 5210SOL    HW216530   6.349   3.941   2.310
 5211SOL     OW16531   4.790   3.010   4.724
 5211SOL    HW116532   4.781   3.002   4.625
 5211SOL    HW216533   4.705   2.980   4.768
 5212SOL     OW16534   6.860   4.065   0.574
 5212SOL    HW116535   6.838   4.133   0.644
 5212SOL    HW216536   6.813   4.089   0.489
 5213SOL     OW16537   3.409   2.903   4.695
 5213SOL    HW116538   3.360   2.953   4.765
 5213SOL    HW216539   3.360   2.818   4.673
 5214SOL     OW16540   5.985   3.269   5.201
 5214SOL    HW116541   6.074   3.225   5.191
 5214SOL    HW216542   5.983   3.352   5.145
 5215SOL     OW16543   0.578   4.055   5.413
 5215SOL    HW116544   0.669   4.080   5.383
 5215SOL    HW216545   0.524   4.138   5.430
 5216SOL     OW16546   0.827   4.033   0.164
 5216SOL    HW116547   0.738   4.018   0.120
 5216SOL    HW216548   0.895   3.971   0.123
 5217SOL     OW16549   3.185   0.432   1.695
 5217SOL    HW116550   3.146   0.431   1.787
 5217SOL    HW216551   3.180   0.341   1.655
 5218SOL     OW16552   6.567   6.416   0.547
 5218SOL    HW116553   6.652   6.468   0.545
 5218SOL    HW216554   6.491   6.478   0.565
 5219SOL     OW16555   4.009   1.840   4.465
 5219SOL    HW116556   4.034   1.855   4.369
 5219SOL    HW216557   3.910   1.841   4.474
 5220SOL     OW16558   2.379   4.821   4.845
 5220SOL    HW116559   2.397   4.769   4.761
 5220SOL    HW216560   2.451   4.801   4.911
 5221SOL     OW16561   4.228   0.134   0.453
 5221SOL    HW116562   4.229   0.180   0.542
 5221SOL    HW216563   4.148   0.074   0.449
 5222SOL     OW16564   5.716   1.802   2.170
 5222SOL    HW116565   5.627   1.843   2.151
 5222SOL    HW216566   5.753   1.841   2.254
 5223SOL     OW16567   0.094   1.383   0.593
 5223SOL    HW116568   0.054   1.356   0.681
 5223SOL    HW216569   0.126   1.302   0.544
 5224SOL     OW16570   2.770   0.973   4.830
 5224SOL    HW116571   2.750   1.040   4.759
 5224SOL    HW216572   2.855   0.998   4.876
 5225SOL     OW16573   6.718   3.900   6.072
 5225SOL    HW116574   6.701   3.833   6.000
 5225SOL    HW216575   6.690   3.991   6.041
 5226SOL     OW16576   0.781   0.302   4.575
 5226SOL    HW116577   0.685   0.330   4.574
 5226SOL    HW216578   0.801   0.254   4.660
 5227SOL     OW16579   2.710   2.693   6.041
 5227SOL    HW116580   2.663   2.636   5.973
 5227SOL    HW216581   2.656   2.695   6.125
 5228SOL     OW16582   0.179   2.340   5.968
 5228SOL    HW116583   0.183   2.366   5.871
 5228SOL    HW216584   0.271   2.313   5.998
 5229SOL     OW16585   3.921   1.667   1.500
 5229SOL    HW116586   3.904   1.619   1.586
 5229SOL    HW216587   3.943   1.600   1.428
 5230SOL     OW16588   5.434   0.945   2.330
 5230SOL    HW116589   5.458   0.883   2.256
 5230SOL    HW216590   5.477   1.034   2.314
 5231SOL     OW16591   0.012   4.096   2.402
 5231SOL    HW116592   7.016   4.072   2.307
 5231SOL    HW216593   6.996   4.029   2.463
 5232SOL     OW16594   2.517   1.619   6.229
 5232SOL    HW116595   2.597   1.670   6.262
 5232SOL    HW216596   2.548   1.542   6.173
 5233SOL     OW16597   2.163   0.029   3.928
 5233SOL    HW116598   2.078   0.014   3.878
 5233SOL    HW216599   2.145   0.084   4.010
 5234SOL     OW16600   3.714   2.610   6.070
 5234SOL    HW116601   3.814   2.614   6.063
 5234SOL    HW216602   3.680   2.696   6.107
 5235SOL     OW16603   2.221   2.858   1.653
 5235SOL    HW116604   2.218   2.848   1.753
 5235SOL    HW216605   2.231   2.954   1.629
 5236SOL     OW16606   2.623   4.873   1.778
 5236SOL    HW116607   2.649   4.780   1.752
 5236SOL    HW216608   2.548   4.904   1.719
 5237SOL     OW16609   0.948   1.231   1.407
 5237SOL    HW116610   0.952   1.132   1.420
 5237SOL    HW216611   0.898   1.251   1.323
 5238SOL     OW16612   5.769   1.777   3.329
 5238SOL    HW116613   5.679   1.747   3.298
 5238SOL    HW216614   5.774   1.768   3.429
 5239SOL     OW16615   2.599   3.498   0.079
 5239SOL    HW116616   2.697   3.498   0.096
 5239SOL    HW216617   2.563   3.590   0.090
 5240SOL     OW16618   1.351   3.639   4.582
 5240SOL    HW116619   1.363   3.557   4.636
 5240SOL    HW216620   1.396   3.628   4.493
 5241SOL     OW16621   2.446   4.944   2.781
 5241SOL    HW116622   2.474   4.911   2.691
 5241SOL    HW216623   2.353   4.981   2.775
 5242SOL     OW16624   4.953   5.771   5.900
 5242SOL    HW116625   4.908   5.860   5.892
 5242SOL    HW216626   5.001   5.766   5.988
 5243SOL     OW16627   2.353   5.449   3.930
 5243SOL    HW116628   2.310   5.398   3.856
 5243SOL    HW216629   2.449   5.424   3.937
 5244SOL     OW16630   5.886   6.815   6.141
 5244SOL    HW116631   5.857   6.751   6.070
 5244SOL    HW216632   5.806   6.852   6.187
 5245SOL     OW16633   3.147   4.041   2.022
 5245SOL    HW116634   3.113   4.128   2.058
 5245SOL    HW216635   3.081   3.969   2.041
 5246SOL     OW16636   6.704   2.697   5.588
 5246SOL    HW116637   6.776   2.764   5.608
 5246SOL    HW216638   6.642   2.691   5.667
 5247SOL     OW16639   4.636   1.308   4.495
 5247SOL    HW116640   4.659   1.247   4.571
 5247SOL    HW216641   4.682   1.276   4.412
 5248SOL     OW16642   4.511   1.799   2.099
 5248SOL    HW116643   4.464   1.747   2.170
 5248SOL    HW216644   4.467   1.888   2.087
 5249SOL     OW16645   0.476   5.565   2.136
 5249SOL    HW116646   0.560   5.530   2.097
 5249SOL    HW216647   0.487   5.662   2.159
 5250SOL     OW16648   1.336   5.417   6.747
 5250SOL    HW116649   1.376   5.437   6.658
 5250SOL    HW216650   1.368   5.328   6.779
 5251SOL     OW16651   2.678   4.413   6.559
 5251SOL    HW116652   2.578   4.414   6.563
 5251SOL    HW216653   2.712   4.504   6.536
 5252SOL     OW16654   4.025   5.850   4.050
 5252SOL    HW116655   4.066   5.912   4.117
 5252SOL    HW216656   3.996   5.765   4.095
 5253SOL     OW16657   0.516   6.503   3.424
 5253SOL    HW116658   0.454   6.479   3.499
 5253SOL    HW216659   0.576   6.577   3.453
 5254SOL     OW16660   4.584   5.790   2.324
 5254SOL    HW116661   4.589   5.855   2.400
 5254SOL    HW216662   4.605   5.838   2.239
 5255SOL     OW16663   0.771   1.695   6.006
 5255SOL    HW116664   0.710   1.750   5.949
 5255SOL    HW216665   0.733   1.688   6.098
 5256SOL     OW16666   3.939   2.096   2.664
 5256SOL    HW116667   4.002   2.144   2.726
 5256SOL    HW216668   3.988   2.067   2.582
 5257SOL     OW16669   6.278   1.049   6.769
 5257SOL    HW116670   6.236   0.970   6.724
 5257SOL    HW216671   6.294   1.027   6.865
 5258SOL     OW16672   5.878   2.045   5.352
 5258SOL    HW116673   5.843   1.987   5.279
 5258SOL    HW216674   5.826   2.030   5.436
 5259SOL     OW16675   4.523   6.283   4.672
 5259SOL    HW116676   4.459   6.345   4.718
 5259SOL    HW216677   4.474   6.229   4.604
 5260SOL     OW16678   1.943   0.062   2.468
 5260SOL    HW116679   2.006   0.068   2.390
 5260SOL    HW216680   1.967   7.009   2.525
 5261SOL     OW16681   0.032   5.159   0.283
 5261SOL    HW116682   7.010   5.187   0.366
 5261SOL    HW216683   0.122   5.201   0.280
 5262SOL     OW16684   1.374   1.640   2.213
 5262SOL    HW116685   1.333   1.604   2.297
 5262SOL    HW216686   1.444   1.577   2.181
 5263SOL     OW16687   6.863   5.777   1.938
 5263SOL    HW116688   6.881   5.747   2.032
 5263SOL    HW216689   6.879   5.700   1.876
 5264SOL     OW16690   6.127   2.742   2.572
 5264SOL    HW116691   6.082   2.711   2.488
 5264SOL    HW216692   6.119   2.671   2.642
 5265SOL     OW16693   1.543   5.996   5.825
 5265SOL    HW116694   1.543   6.039   5.735
 5265SOL    HW216695   1.635   5.961   5.846
 5266SOL     OW16696   0.471   6.967   6.786
 5266SOL    HW116697   0.503   6.888   6.839
 5266SOL    HW216698   0.540   6.992   6.718
 5267SOL     OW16699   6.608   0.976   5.210
 5267SOL    HW116700   6.522   0.972   5.261
 5267SOL    HW216701   6.590   0.961   5.113
 5268SOL     OW16702   5.637   0.476   5.524
 5268SOL    HW116703   5.559   0.539   5.528
 5268SOL    HW216704   5.604   0.382   5.525
 5269SOL     OW16705   2.034   0.246   4.214
 5269SOL    HW116706   2.101   0.261   4.287
 5269SOL    HW216707   2.064   0.291   4.131
 5270SOL     OW16708   1.722   1.692   6.699
 5270SOL    HW116709   1.821   1.693   6.714
 5270SOL    HW216710   1.689   1.598   6.693
 5271SOL     OW16711   1.364   0.108   6.160
 5271SOL    HW116712   1.275   0.071   6.134
 5271SOL    HW216713   1.380   0.194   6.111
 5272SOL     OW16714   3.880   0.223   6.049
 5272SOL    HW116715   3.901   0.310   6.096
 5272SOL    HW216716   3.798   0.234   5.993
 5273SOL     OW16717   2.053   1.198   3.102
 5273SOL    HW116718   2.071   1.107   3.140
 5273SOL    HW216719   2.012   1.189   3.012
 5274SOL     OW16720   6.476   4.220   1.793
 5274SOL    HW116721   6.455   4.213   1.890
 5274SOL    HW216722   6.397   4.191   1.739
 5275SOL     OW16723   6.029   0.047   5.959
 5275SOL    HW116724   6.044   0.096   5.873
 5275SOL    HW216725   5.970   0.101   6.019
 5276SOL     OW16726   2.487   6.746   1.343
 5276SOL    HW116727   2.538   6.682   1.400
 5276SOL    HW216728   2.529   6.837   1.349
 5277SOL     OW16729   1.600   2.648   1.274
 5277SOL    HW116730   1.688   2.681   1.308
 5277SOL    HW216731   1.551   2.724   1.231
 5278SOL     OW16732   4.087   3.178   5.205
 5278SOL    HW116733   4.046   3.208   5.119
 5278SOL    HW216734   4.178   3.220   5.215
 5279SOL     OW16735   1.211   6.956   3.165
 5279SOL    HW116736   1.255   6.866   3.164
 5279SOL    HW216737   1.255   7.015   3.097
 5280SOL     OW16738   3.489   0.791   3.805
 5280SOL    HW116739   3.567   0.751   3.756
 5280SOL    HW216740   3.478   0.886   3.776
 5281SOL     OW16741   6.878   3.117   3.542
 5281SOL    HW116742   6.869   3.090   3.447
 5281SOL    HW216743   6.962   3.169   3.555
 5282SOL     OW16744   4.745   2.185   1.390
 5282SOL    HW116745   4.696   2.159   1.307
 5282SOL    HW216746   4.801   2.108   1.421
 5283SOL     OW16747   5.855   4.889   5.312
 5283SOL    HW116748   5.847   4.839   5.398
 5283SOL    HW216749   5.861   4.987   5.332
 5284SOL     OW16750   5.500   2.463   3.781
 5284SOL    HW116751   5.450   2.508   3.855
 5284SOL    HW216752   5.597   2.459   3.805
 5285SOL     OW16753   4.292   5.075   2.160
 5285SOL    HW116754   4.248   5.070   2.070
 5285SOL    HW216755   4.258   5.154   2.210
 5286SOL     OW16756   1.541   4.851   2.287
 5286SOL    HW116757   1.450   4.841   2.328
 5286SOL    HW216758   1.536   4.918   2.212
 5287SOL     OW16759   6.855   0.725   3.473
 5287SOL    HW116760   6.800   0.762   3.547
 5287SOL    HW216761   6.796   0.682   3.405
 5288SOL     OW16762   3.997   0.850   0.585
 5288SOL    HW116763   3.992   0.798   0.500
 5288SOL    HW216764   3.908   0.848   0.631
 5289SOL     OW16765   1.683   0.098   1.824
 5289SOL    HW116766   1.705   0.190   1.857
 5289SOL    HW216767   1.587   0.094   1.796
 5290SOL     OW16768   5.501   6.622   6.460
 5290SOL    HW116769   5.568   6.665   6.399
 5290SOL    HW216770   5.526   6.639   6.555
 5291SOL     OW16771   0.773   5.050   1.260
 5291SOL    HW116772   0.731   5.140   1.243
 5291SOL    HW216773   0.853   5.061   1.319
 5292SOL     OW16774   5.777   1.518   0.721
 5292SOL    HW116775   5.747   1.477   0.807
 5292SOL    HW216776   5.703   1.573   0.682
 5293SOL     OW16777   2.204   1.177   3.972
 5293SOL    HW116778   2.188   1.178   4.071
 5293SOL    HW216779   2.121   1.150   3.924
 5294SOL     OW16780   3.556   2.224   6.888
 5294SOL    HW116781   3.647   2.252   6.857
 5294SOL    HW216782   3.556   2.212   6.987
 5295SOL     OW16783   6.746   2.435   4.131
 5295SOL    HW116784   6.794   2.485   4.202
 5295SOL    HW216785   6.684   2.497   4.083
 5296SOL     OW16786   0.205   4.580   6.560
 5296SOL    HW116787   0.230   4.677   6.552
 5296SOL    HW216788   0.287   4.527   6.584
 5297SOL     OW16789   1.174   2.541   2.144
 5297SOL    HW116790   1.140   2.524   2.236
 5297SOL    HW216791   1.229   2.624   2.142
 5298SOL     OW16792   1.316   3.098   2.152
 5298SOL    HW116793   1.299   3.094   2.250
 5298SOL    HW216794   1.260   3.171   2.112
 5299SOL     OW16795   3.596   0.109   6.866
 5299SOL    HW116796   3.552   0.198   6.876
 5299SOL    HW216797   3.615   0.092   6.770
 5300SOL     OW16798   0.216   4.680   4.512
 5300SOL    HW116799   0.262   4.696   4.599
 5300SOL    HW216800   0.236   4.587   4.480
 5301SOL     OW16801   5.549   6.886   5.959
 5301SOL    HW116802   5.521   6.868   5.865
 5301SOL    HW216803   5.490   6.835   6.022
 5302SOL     OW16804   0.058   3.926   2.961
 5302SOL    HW116805   7.024   4.006   2.949
 5302SOL    HW216806   0.119   3.918   2.882
 5303SOL     OW16807   2.532   4.973   2.384
 5303SOL    HW116808   2.535   5.072   2.398
 5303SOL    HW216809   2.620   4.942   2.347
 5304SOL     OW16810   5.705   2.519   6.586
 5304SOL    HW116811   5.689   2.507   6.684
 5304SOL    HW216812   5.803   2.516   6.568
 5305SOL     OW16813   4.114   1.442   5.368
 5305SOL    HW116814   4.142   1.510   5.435
 5305SOL    HW216815   4.087   1.487   5.283
 5306SOL     OW16816   2.095   6.475   3.693
 5306SOL    HW116817   2.193   6.496   3.691
 5306SOL    HW216818   2.055   6.515   3.775
 5307SOL     OW16819   5.026   6.895   6.421
 5307SOL    HW116820   4.951   6.831   6.435
 5307SOL    HW216821   4.992   6.976   6.372
 5308SOL     OW16822   6.325   1.227   0.797
 5308SOL    HW116823   6.285   1.165   0.730
 5308SOL    HW216824   6.263   1.237   0.875
 5309SOL     OW16825   3.474   4.085   6.618
 5309SOL    HW116826   3.546   4.118   6.680
 5309SOL    HW216827   3.467   4.147   6.540
 5310SOL     OW16828   4.918   2.241   0.013
 5310SOL    HW116829   5.007   2.200   0.034
 5310SOL    HW216830   4.931   2.337   7.015
 5311SOL     OW16831   6.843   5.740   0.013
 5311SOL    HW116832   6.848   5.750   0.112
 5311SOL    HW216833   6.802   5.821   6.998
 5312SOL     OW16834   0.899   3.660   2.060
 5312SOL    HW116835   0.919   3.742   2.006
 5312SOL    HW216836   0.857   3.591   2.001
 5313SOL     OW16837   1.182   6.371   5.985
 5313SOL    HW116838   1.200   6.446   5.921
 5313SOL    HW216839   1.178   6.285   5.936
 5314SOL     OW16840   4.866   4.336   1.213
 5314SOL    HW116841   4.796   4.407   1.223
 5314SOL    HW216842   4.917   4.326   1.299
 5315SOL     OW16843   5.311   0.567   3.045
 5315SOL    HW116844   5.345   0.483   3.004
 5315SOL    HW216845   5.214   0.578   3.022
 5316SOL     OW16846   5.275   5.160   5.038
 5316SOL    HW116847   5.227   5.209   4.965
 5316SOL    HW216848   5.359   5.120   5.002
 5317SOL     OW16849   0.500   4.467   1.481
 5317SOL    HW116850   0.511   4.507   1.572
 5317SOL    HW216851   0.403   4.444   1.467
 5318SOL     OW16852   6.885   2.783   3.258
 5318SOL    HW116853   6.860   2.877   3.281
 5318SOL    HW216854   6.962   2.754   3.316
 5319SOL     OW16855   2.642   6.053   2.206
 5319SOL    HW116856   2.689   6.140   2.188
 5319SOL    HW216857   2.700   5.995   2.263
 5320SOL     OW16858   6.395   1.460   0.963
 5320SOL    HW116859   6.377   1.539   1.022
 5320SOL    HW216860   6.310   1.429   0.921
 5321SOL     OW16861   2.606   5.520   6.827
 5321SOL    HW116862   2.518   5.473   6.825
 5321SOL    HW216863   2.612   5.581   6.748
 5322SOL     OW16864   2.916   6.226   6.435
 5322SOL    HW116865   2.923   6.145   6.494
 5322SOL    HW216866   2.829   6.223   6.385
 5323SOL     OW16867   6.298   3.858   0.275
 5323SOL    HW116868   6.372   3.838   0.339
 5323SOL    HW216869   6.214   3.814   0.307
 5324SOL     OW16870   4.137   3.453   2.290
 5324SOL    HW116871   4.199   3.512   2.238
 5324SOL    HW216872   4.152   3.466   2.388
 5325SOL     OW16873   3.323   0.035   5.195
 5325SOL    HW116874   3.381   0.088   5.134
 5325SOL    HW216875   3.360   6.968   5.206
 5326SOL     OW16876   5.320   0.806   3.880
 5326SOL    HW116877   5.399   0.799   3.819
 5326SOL    HW216878   5.241   0.761   3.839
 5327SOL     OW16879   6.488   5.865   3.634
 5327SOL    HW116880   6.434   5.836   3.555
 5327SOL    HW216881   6.561   5.925   3.604
 5328SOL     OW16882   2.338   4.987   5.821
 5328SOL    HW116883   2.347   4.950   5.729
 5328SOL    HW216884   2.276   4.929   5.874
 5329SOL     OW16885   0.511   6.899   5.189
 5329SOL    HW116886   0.465   6.842   5.122
 5329SOL    HW216887   0.589   6.850   5.227
 5330SOL     OW16888   4.038   3.871   0.300
 5330SOL    HW116889   4.011   3.775   0.289
 5330SOL    HW216890   4.134   3.874   0.330
 5331SOL     OW16891   6.120   0.557   6.913
 5331SOL    HW116892   6.083   0.467   6.891
 5331SOL    HW216893   6.127   0.612   6.830
 5332SOL     OW16894   1.305   3.325   0.200
 5332SOL    HW116895   1.369   3.295   0.129
 5332SOL    HW216896   1.215   3.342   0.159
 5333SOL     OW16897   0.256   6.709   4.026
 5333SOL    HW116898   0.284   6.805   4.028
 5333SOL    HW216899   0.156   6.704   4.030
 5334SOL     OW16900   3.319   5.834   0.691
 5334SOL    HW116901   3.317   5.857   0.789
 5334SOL    HW216902   3.320   5.734   0.680
 5335SOL     OW16903   6.799   4.830   1.895
 5335SOL    HW116904   6.864   4.878   1.837
 5335SOL    HW216905   6.706   4.862   1.874
 5336SOL     OW16906   1.737   3.213   6.446
 5336SOL    HW116907   1.674   3.237   6.520
 5336SOL    HW216908   1.698   3.140   6.391
 5337SOL     OW16909   6.206   1.690   0.785
 5337SOL    HW116910   6.174   1.685   0.879
 5337SOL    HW216911   6.153   1.628   0.728
 5338SOL     OW16912   6.904   2.398   1.125
 5338SOL    HW116913   6.952   2.449   1.054
 5338SOL    HW216914   6.882   2.459   1.201
 5339SOL     OW16915   5.442   3.779   2.412
 5339SOL    HW116916   5.450   3.733   2.501
 5339SOL    HW216917   5.430   3.710   2.340
 5340SOL     OW16918   5.969   4.203   0.952
 5340SOL    HW116919   6.038   4.275   0.961
 5340SOL    HW216920   5.905   4.208   1.028
 5341SOL     OW16921   4.678   5.013   3.382
 5341SOL    HW116922   4.643   5.089   3.437
 5341SOL    HW216923   4.777   5.019   3.375
 5342SOL     OW16924   6.373   5.087   4.592
 5342SOL    HW116925   6.402   5.177   4.625
 5342SOL    HW216926   6.453   5.027   4.584
 5343SOL     OW16927   4.424   3.405   1.446
 5343SOL    HW116928   4.515   3.428   1.412
 5343SOL    HW216929   4.394   3.319   1.404
 5344SOL     OW16930   6.418   1.982   6.950
 5344SOL    HW116931   6.384   1.938   6.867
 5344SOL    HW216932   6.471   1.916   7.004
 5345SOL     OW16933   3.676   0.791   6.755
 5345SOL    HW116934   3.683   0.877   6.806
 5345SOL    HW216935   3.690   0.714   6.817
 5346SOL     OW16936   2.363   6.025   2.956
 5346SOL    HW116937   2.330   5.942   2.999
 5346SOL    HW216938   2.317   6.104   2.996
 5347SOL     OW16939   6.079   2.859   5.016
 5347SOL    HW116940   5.993   2.865   5.066
 5347SOL    HW216941   6.125   2.947   5.018
 5348SOL     OW16942   5.648   2.635   5.352
 5348SOL    HW116943   5.620   2.546   5.388
 5348SOL    HW216944   5.567   2.685   5.322
 5349SOL     OW16945   0.856   3.745   0.311
 5349SOL    HW116946   0.917   3.802   0.365
 5349SOL    HW216947   0.908   3.671   0.268
 5350SOL     OW16948   1.365   6.713   6.578
 5350SOL    HW116949   1.339   6.617   6.572
 5350SOL    HW216950   1.453   6.721   6.625
 5351SOL     OW16951   0.892   6.315   3.258
 5351SOL    HW116952   0.987   6.345   3.264
 5351SOL    HW216953   0.862   6.318   3.163
 5352SOL     OW16954   0.022   3.497   6.287
 5352SOL    HW116955   0.002   3.533   6.196
 5352SOL    HW216956   0.105   3.540   6.322
 5353SOL     OW16957   2.446   6.818   2.842
 5353SOL    HW116958   2.521   6.765   2.883
 5353SOL    HW216959   2.484   6.883   2.776
 5354SOL     OW16960   2.328   6.567   1.581
 5354SOL    HW116961   2.418   6.530   1.603
 5354SOL    HW216962   2.307   6.549   1.485
 5355SOL     OW16963   4.571   4.389   5.569
 5355SOL    HW116964   4.536   4.358   5.658
 5355SOL    HW216965   4.648   4.331   5.542
 5356SOL     OW16966   6.157   6.898   1.283
 5356SOL    HW116967   6.187   6.964   1.353
 5356SOL    HW216968   6.081   6.844   1.318
 5357SOL     OW16969   6.456   3.118   2.041
 5357SOL    HW116970   6.363   3.091   2.016
 5357SOL    HW216971   6.520   3.092   1.969
 5358SOL     OW16972   5.448   6.335   5.004
 5358SOL    HW116973   5.533   6.350   4.953
 5358SOL    HW216974   5.431   6.237   5.012
 5359SOL     OW16975   2.900   1.751   5.676
 5359SOL    HW116976   2.917   1.827   5.614
 5359SOL    HW216977   2.893   1.786   5.770
 5360SOL     OW16978   5.162   6.028   2.042
 5360SOL    HW116979   5.244   6.018   1.987
 5360SOL    HW216980   5.136   5.939   2.080
 5361SOL     OW16981   1.268   3.307   2.391
 5361SOL    HW116982   1.292   3.386   2.447
 5361SOL    HW216983   1.176   3.321   2.353
 5362SOL     OW16984   6.445   1.714   4.194
 5362SOL    HW116985   6.400   1.784   4.249
 5362SOL    HW216986   6.407   1.624   4.218
 5363SOL     OW16987   6.245   3.921   6.384
 5363SOL    HW116988   6.158   3.961   6.353
 5363SOL    HW216989   6.317   3.942   6.319
 5364SOL     OW16990   4.861   2.021   1.676
 5364SOL    HW116991   4.831   2.114   1.696
 5364SOL    HW216992   4.946   2.002   1.725
 5365SOL     OW16993   2.892   2.326   6.466
 5365SOL    HW116994   2.848   2.383   6.396
 5365SOL    HW216995   2.983   2.361   6.486
 5366SOL     OW16996   0.284   4.371   3.838
 5366SOL    HW116997   0.274   4.348   3.741
 5366SOL    HW216998   0.267   4.469   3.851
 5367SOL     OW16999   6.731   5.378   1.994
 5367SOL    HW117000   6.669   5.300   1.999
 5367SOL    HW217001   6.751   5.399   1.898
 5368SOL     OW17002   0.181   5.173   4.800
 5368SOL    HW117003   0.130   5.173   4.886
 5368SOL    HW217004   0.247   5.099   4.801
 5369SOL     OW17005   3.800   0.664   2.100
 5369SOL    HW117006   3.727   0.697   2.039
 5369SOL    HW217007   3.853   0.595   2.052
 5370SOL     OW17008   2.030   2.489   0.017
 5370SOL    HW117009   2.001   2.407   0.065
 5370SOL    HW217010   2.086   2.546   0.078
 5371SOL     OW17011   6.289   4.836   2.996
 5371SOL    HW117012   6.387   4.824   2.978
 5371SOL    HW217013   6.277   4.908   3.065
 5372SOL     OW17014   0.838   1.133   4.783
 5372SOL    HW117015   0.833   1.073   4.703
 5372SOL    HW217016   0.933   1.160   4.798
 5373SOL     OW17017   4.928   0.011   1.338
 5373SOL    HW117018   4.857   6.991   1.392
 5373SOL    HW217019   4.929   0.109   1.361
 5374SOL     OW17020   2.028   3.027   1.170
 5374SOL    HW117021   2.078   2.948   1.204
 5374SOL    HW217022   1.930   3.011   1.179
 5375SOL     OW17023   2.911   4.834   5.237
 5375SOL    HW117024   2.861   4.750   5.215
 5375SOL    HW217025   2.968   4.861   5.160
 5376SOL     OW17026   6.403   6.730   2.166
 5376SOL    HW117027   6.303   6.736   2.162
 5376SOL    HW217028   6.441   6.817   2.197
 5377SOL     OW17029   0.594   3.584   1.338
 5377SOL    HW117030   0.669   3.619   1.282
 5377SOL    HW217031   0.519   3.555   1.279
 5378SOL     OW17032   5.394   0.326   5.294
 5378SOL    HW117033   5.344   0.240   5.309
 5378SOL    HW217034   5.383   0.385   5.374
 5379SOL     OW17035   3.457   1.804   4.436
 5379SOL    HW117036   3.545   1.759   4.453
 5379SOL    HW217037   3.397   1.790   4.515
 5380SOL     OW17038   4.697   6.896   1.446
 5380SOL    HW117039   4.719   6.800   1.425
 5380SOL    HW217040   4.663   6.902   1.540
 5381SOL     OW17041   2.672   1.650   1.984
 5381SOL    HW117042   2.764   1.674   2.016
 5381SOL    HW217043   2.660   1.550   1.989
 5382SOL     OW17044   3.443   0.744   2.755
 5382SOL    HW117045   3.404   0.782   2.839
 5382SOL    HW217046   3.489   0.816   2.704
 5383SOL     OW17047   2.171   4.367   5.341
 5383SOL    HW117048   2.197   4.421   5.421
 5383SOL    HW217049   2.236   4.292   5.328
 5384SOL     OW17050   5.035   5.491   5.593
 5384SOL    HW117051   5.028   5.450   5.502
 5384SOL    HW217052   4.951   5.542   5.612
 5385SOL     OW17053   4.033   3.886   0.989
 5385SOL    HW117054   3.984   3.809   0.948
 5385SOL    HW217055   4.041   3.871   1.088
 5386SOL     OW17056   4.117   6.117   3.319
 5386SOL    HW117057   4.125   6.186   3.246
 5386SOL    HW217058   4.131   6.161   3.408
 5387SOL     OW17059   1.166   2.824   5.489
 5387SOL    HW117060   1.173   2.744   5.548
 5387SOL    HW217061   1.242   2.825   5.424
 5388SOL     OW17062   6.771   6.184   3.378
 5388SOL    HW117063   6.811   6.273   3.398
 5388SOL    HW217064   6.692   6.196   3.317
 5389SOL     OW17065   6.799   1.779   5.118
 5389SOL    HW117066   6.800   1.716   5.196
 5389SOL    HW217067   6.877   1.758   5.058
 5390SOL     OW17068   5.890   2.261   4.458
 5390SOL    HW117069   5.830   2.310   4.522
 5390SOL    HW217070   5.880   2.300   4.367
 5391SOL     OW17071   5.123   2.937   1.212
 5391SOL    HW117072   5.163   2.847   1.228
 5391SOL    HW217073   5.026   2.936   1.237
 5392SOL     OW17074   4.921   1.159   3.693
 5392SOL    HW117075   4.974   1.192   3.770
 5392SOL    HW217076   4.940   1.215   3.612
 5393SOL     OW17077   5.159   2.927   2.166
 5393SOL    HW117078   5.159   2.888   2.258
 5393SOL    HW217079   5.088   2.997   2.160
 5394SOL     OW17080   0.341   3.245   3.251
 5394SOL    HW117081   0.363   3.315   3.319
 5394SOL    HW217082   0.255   3.268   3.206
 5395SOL     OW17083   0.286   0.333   1.862
 5395SOL    HW117084   0.322   0.397   1.794
 5395SOL    HW217085   0.239   0.258   1.816
 5396SOL     OW17086   3.369   2.507   6.588
 5396SOL    HW117087   3.460   2.534   6.558
 5396SOL    HW217088   3.375   2.467   6.679
 5397SOL     OW17089   7.024   6.929   2.935
 5397SOL    HW117090   0.042   7.005   2.981
 5397SOL    HW217091   0.015   6.845   2.986
 5398SOL     OW17092   6.026   2.647   3.514
 5398SOL    HW117093   6.002   2.567   3.458
 5398SOL    HW217094   5.947   2.675   3.568
 5399SOL     OW17095   2.632   2.285   0.667
 5399SOL    HW117096   2.583   2.263   0.751
 5399SOL    HW217097   2.619   2.382   0.646
 5400SOL     OW17098   4.071   3.272   0.942
 5400SOL    HW117099   4.035   3.186   0.904
 5400SOL    HW217100   4.168   3.261   0.961
 5401SOL     OW17101   4.827   2.927   1.262
 5401SOL    HW117102   4.736   2.940   1.223
 5401SOL    HW217103   4.825   2.847   1.323
 5402SOL     OW17104   2.176   5.402   1.089
 5402SOL    HW117105   2.249   5.418   1.023
 5402SOL    HW217106   2.214   5.401   1.181
 5403SOL     OW17107   6.733   3.120   5.747
 5403SOL    HW117108   6.686   3.033   5.758
 5403SOL    HW217109   6.684   3.191   5.797
 5404SOL     OW17110   4.220   6.830   6.331
 5404SOL    HW117111   4.139   6.777   6.304
 5404SOL    HW217112   4.192   6.920   6.362
 5405SOL     OW17113   6.069   5.249   6.378
 5405SOL    HW117114   6.064   5.345   6.403
 5405SOL    HW217115   6.004   5.196   6.432
 5406SOL     OW17116   2.345   1.508   4.831
 5406SOL    HW117117   2.359   1.606   4.844
 5406SOL    HW217118   2.304   1.491   4.742
 5407SOL     OW17119   1.738   2.208   2.359
 5407SOL    HW117120   1.729   2.171   2.266
 5407SOL    HW217121   1.709   2.139   2.425
 5408SOL     OW17122   2.853   2.286   4.103
 5408SOL    HW117123   2.905   2.315   4.022
 5408SOL    HW217124   2.914   2.285   4.183
 5409SOL     OW17125   6.627   4.684   3.791
 5409SOL    HW117126   6.581   4.768   3.763
 5409SOL    HW217127   6.614   4.670   3.889
 5410SOL     OW17128   5.910   0.670   0.155
 5410SOL    HW117129   5.879   0.645   0.064
 5410SOL    HW217130   5.929   0.588   0.208
 5411SOL     OW17131   2.665   6.330   1.986
 5411SOL    HW117132   2.718   6.400   2.034
 5411SOL    HW217133   2.727   6.268   1.939
 5412SOL     OW17134   3.363   2.388   6.164
 5412SOL    HW117135   3.339   2.459   6.098
 5412SOL    HW217136   3.416   2.428   6.239
 5413SOL     OW17137   0.263   4.741   6.055
 5413SOL    HW117138   0.208   4.734   5.973
 5413SOL    HW217139   0.286   4.837   6.071
 5414SOL     OW17140   5.751   5.614   5.998
 5414SOL    HW117141   5.851   5.612   6.008
 5414SOL    HW217142   5.721   5.708   5.987
 5415SOL     OW17143   2.583   6.583   0.050
 5415SOL    HW117144   2.503   6.531   0.079
 5415SOL    HW217145   2.553   6.664   7.024
 5416SOL     OW17146   4.276   4.603   5.486
 5416SOL    HW117147   4.255   4.683   5.430
 5416SOL    HW217148   4.372   4.606   5.514
 5417SOL     OW17149   4.625   0.337   1.883
 5417SOL    HW117150   4.556   0.341   1.812
 5417SOL    HW217151   4.714   0.319   1.842
 5418SOL     OW17152   6.915   3.689   6.134
 5418SOL    HW117153   6.846   3.762   6.133
 5418SOL    HW217154   6.982   3.706   6.061
 5419SOL     OW17155   4.413   3.083   5.967
 5419SOL    HW117156   4.408   3.128   5.878
 5419SOL    HW217157   4.478   3.007   5.962
 5420SOL     OW17158   0.965   1.550   0.365
 5420SOL    HW117159   0.931   1.478   0.304
 5420SOL    HW217160   0.891   1.612   0.388
 5421SOL     OW17161   3.843   5.372   0.387
 5421SOL    HW117162   3.867   5.387   0.291
 5421SOL    HW217163   3.774   5.438   0.415
 5422SOL     OW17164   2.406   6.995   3.774
 5422SOL    HW117165   2.425   0.044   3.710
 5422SOL    HW217166   2.314   7.006   3.812
 5423SOL     OW17167   4.422   5.098   3.083
 5423SOL    HW117168   4.460   5.169   3.143
 5423SOL    HW217169   4.480   5.089   3.002
 5424SOL     OW17170   4.430   2.532   5.782
 5424SOL    HW117171   4.393   2.457   5.727
 5424SOL    HW217172   4.442   2.613   5.725
 5425SOL     OW17173   2.358   5.760   4.721
 5425SOL    HW117174   2.422   5.727   4.650
 5425SOL    HW217175   2.375   5.857   4.738
 5426SOL     OW17176   1.148   2.943   0.166
 5426SOL    HW117177   1.243   2.968   0.149
 5426SOL    HW217178   1.122   2.867   0.106
 5427SOL     OW17179   4.405   1.856   6.959
 5427SOL    HW117180   4.388   1.810   0.020
 5427SOL    HW217181   4.373   1.799   6.883
 5428SOL     OW17182   4.833   6.100   2.123
 5428SOL    HW117183   4.916   6.149   2.153
 5428SOL    HW217184   4.778   6.160   2.065
 5429SOL     OW17185   2.594   6.444   2.814
 5429SOL    HW117186   2.600   6.348   2.785
 5429SOL    HW217187   2.564   6.500   2.737
 5430SOL     OW17188   0.773   3.768   5.900
 5430SOL    HW117189   0.805   3.823   5.978
 5430SOL    HW217190   0.770   3.826   5.818
 5431SOL     OW17191   5.074   4.147   1.378
 5431SOL    HW117192   4.985   4.110   1.407
 5431SOL    HW217193   5.096   4.112   1.287
 5432SOL     OW17194   1.417   5.387   5.437
 5432SOL    HW117195   1.515   5.372   5.424
 5432SOL    HW217196   1.387   5.339   5.520
 5433SOL     OW17197   3.429   6.660   1.923
 5433SOL    HW117198   3.495   6.585   1.921
 5433SOL    HW217199   3.473   6.743   1.959
 5434SOL     OW17200   4.275   6.878   4.298
 5434SOL    HW117201   4.273   6.850   4.202
 5434SOL    HW217202   4.187   6.858   4.340
 5435SOL     OW17203   0.769   3.249   7.018
 5435SOL    HW117204   0.708   3.182   6.977
 5435SOL    HW217205   0.740   3.341   6.994
 5436SOL     OW17206   1.738   4.199   0.618
 5436SOL    HW117207   1.639   4.192   0.626
 5436SOL    HW217208   1.781   4.173   0.704
 5437SOL     OW17209   3.137   0.547   5.983
 5437SOL    HW117210   3.207   0.618   5.991
 5437SOL    HW217211   3.113   0.534   5.887
 5438SOL     OW17212   4.585   6.773   3.197
 5438SOL    HW117213   4.675   6.740   3.224
 5438SOL    HW217214   4.523   6.769   3.275
 5439SOL     OW17215   1.747   3.497   2.294
 5439SOL    HW117216   1.830   3.544   2.262
 5439SOL    HW217217   1.772   3.404   2.323
 5440SOL     OW17218   4.842   5.788   2.598
 5440SOL    HW117219   4.746   5.815   2.594
 5440SOL    HW217220   4.898   5.869   2.617
 5441SOL     OW17221   5.623   0.248   4.329
 5441SOL    HW117222   5.658   0.324   4.384
 5441SOL    HW217223   5.523   0.253   4.328
 5442SOL     OW17224   2.565   6.065   6.702
 5442SOL    HW117225   2.601   6.157   6.687
 5442SOL    HW217226   2.468   6.063   6.677
 5443SOL     OW17227   5.265   1.845   2.828
 5443SOL    HW117228   5.310   1.858   2.916
 5443SOL    HW217229   5.333   1.851   2.755
 5444SOL     OW17230   2.333   1.833   6.208
 5444SOL    HW117231   2.410   1.772   6.230
 5444SOL    HW217232   2.256   1.779   6.175
 5445SOL     OW17233   0.411   6.081   5.942
 5445SOL    HW117234   0.364   6.053   5.859
 5445SOL    HW217235   0.485   6.016   5.962
 5446SOL     OW17236   2.228   4.112   0.248
 5446SOL    HW117237   2.215   4.114   0.148
 5446SOL    HW217238   2.306   4.169   0.272
 5447SOL     OW17239   5.397   2.743   1.754
 5447SOL    HW117240   5.476   2.793   1.719
 5447SOL    HW217241   5.354   2.795   1.827
 5448SOL     OW17242   6.299   5.749   1.079
 5448SOL    HW117243   6.362   5.682   1.119
 5448SOL    HW217244   6.299   5.739   0.980
 5449SOL     OW17245   2.280   0.658   2.505
 5449SOL    HW117246   2.283   0.757   2.515
 5449SOL    HW217247   2.348   0.616   2.566
 5450SOL     OW17248   4.411   4.659   1.882
 5450SOL    HW117249   4.378   4.573   1.841
 5450SOL    HW217250   4.448   4.640   1.973
 5451SOL     OW17251   0.131   5.386   3.783
 5451SOL    HW117252   0.033   5.373   3.769
 5451SOL    HW217253   0.181   5.354   3.703
 5452SOL     OW17254   2.354   4.264   3.164
 5452SOL    HW117255   2.346   4.229   3.257
 5452SOL    HW217256   2.415   4.343   3.163
 5453SOL     OW17257   6.037   5.003   4.358
 5453SOL    HW117258   6.107   5.069   4.386
 5453SOL    HW217259   5.962   5.004   4.425
 5454SOL     OW17260   6.979   3.670   2.931
 5454SOL    HW117261   7.002   3.766   2.915
 5454SOL    HW217262   0.010   3.612   2.872
 5455SOL     OW17263   2.045   1.698   2.760
 5455SOL    HW117264   2.045   1.624   2.692
 5455SOL    HW217265   2.079   1.782   2.718
 5456SOL     OW17266   5.931   3.195   0.132
 5456SOL    HW117267   5.998   3.158   0.067
 5456SOL    HW217268   5.898   3.121   0.191
 5457SOL     OW17269   5.524   0.677   0.810
 5457SOL    HW117270   5.442   0.666   0.753
 5457SOL    HW217271   5.535   0.773   0.834
 5458SOL     OW17272   6.134   4.929   6.454
 5458SOL    HW117273   6.111   4.975   6.539
 5458SOL    HW217274   6.096   4.980   6.377
 5459SOL     OW17275   2.185   3.282   4.588
 5459SOL    HW117276   2.107   3.227   4.560
 5459SOL    HW217277   2.186   3.291   4.687
 5460SOL     OW17278   6.632   1.530   0.806
 5460SOL    HW117279   6.681   1.482   0.879
 5460SOL    HW217280   6.537   1.545   0.835
 5461SOL     OW17281   6.112   0.586   5.489
 5461SOL    HW117282   6.109   0.678   5.450
 5461SOL    HW217283   6.032   0.534   5.459
 5462SOL     OW17284   5.888   4.812   0.663
 5462SOL    HW117285   5.853   4.787   0.573
 5462SOL    HW217286   5.932   4.902   0.658
 5463SOL     OW17287   3.046   4.563   6.528
 5463SOL    HW117288   2.961   4.612   6.510
 5463SOL    HW217289   3.097   4.610   6.600
 5464SOL     OW17290   3.153   5.718   3.992
 5464SOL    HW117291   3.166   5.657   4.071
 5464SOL    HW217292   3.092   5.674   3.926
 5465SOL     OW17293   0.273   1.844   5.003
 5465SOL    HW117294   0.301   1.833   4.908
 5465SOL    HW217295   0.253   1.941   5.021
 5466SOL     OW17296   5.816   2.567   5.019
 5466SOL    HW117297   5.848   2.498   4.955
 5466SOL    HW217298   5.894   2.618   5.056
 5467SOL     OW17299   4.541   4.447   3.166
 5467SOL    HW117300   4.488   4.464   3.249
 5467SOL    HW217301   4.537   4.527   3.107
 5468SOL     OW17302   0.595   2.098   0.917
 5468SOL    HW117303   0.558   2.180   0.961
 5468SOL    HW217304   0.547   2.082   0.831
 5469SOL     OW17305   4.068   1.011   2.806
 5469SOL    HW117306   4.130   1.079   2.845
 5469SOL    HW217307   4.018   1.052   2.729
 5470SOL     OW17308   2.835   4.853   2.673
 5470SOL    HW117309   2.924   4.893   2.651
 5470SOL    HW217310   2.801   4.802   2.594
 5471SOL     OW17311   5.616   1.585   3.796
 5471SOL    HW117312   5.668   1.659   3.839
 5471SOL    HW217313   5.601   1.513   3.863
 5472SOL     OW17314   2.641   4.853   0.558
 5472SOL    HW117315   2.641   4.946   0.520
 5472SOL    HW217316   2.641   4.787   0.483
 5473SOL     OW17317   3.123   4.909   1.865
 5473SOL    HW117318   3.123   4.853   1.782
 5473SOL    HW217319   3.213   4.903   1.909
 5474SOL     OW17320   1.272   5.497   1.289
 5474SOL    HW117321   1.344   5.435   1.260
 5474SOL    HW217322   1.312   5.579   1.328
 5475SOL     OW17323   0.349   1.388   5.033
 5475SOL    HW117324   0.384   1.347   4.949
 5475SOL    HW217325   0.330   1.485   5.018
 5476SOL     OW17326   2.893   1.666   4.500
 5476SOL    HW117327   2.894   1.764   4.481
 5476SOL    HW217328   2.851   1.618   4.423
 5477SOL     OW17329   2.199   4.013   2.797
 5477SOL    HW117330   2.230   4.108   2.796
 5477SOL    HW217331   2.200   3.979   2.891
 5478SOL     OW17332   6.616   2.735   5.342
 5478SOL    HW117333   6.636   2.699   5.434
 5478SOL    HW217334   6.522   2.770   5.340
 5479SOL     OW17335   5.591   4.170   5.111
 5479SOL    HW117336   5.505   4.215   5.086
 5479SOL    HW217337   5.573   4.096   5.176
 5480SOL     OW17338   2.335   2.581   6.300
 5480SOL    HW117339   2.360   2.537   6.386
 5480SOL    HW217340   2.310   2.511   6.233
 5481SOL     OW17341   3.423   0.293   1.045
 5481SOL    HW117342   3.503   0.276   0.987
 5481SOL    HW217343   3.346   0.239   1.012
 5482SOL     OW17344   5.827   4.569   2.235
 5482SOL    HW117345   5.788   4.645   2.287
 5482SOL    HW217346   5.785   4.484   2.265
 5483SOL     OW17347   5.874   1.802   1.144
 5483SOL    HW117348   5.883   1.744   1.225
 5483SOL    HW217349   5.820   1.755   1.075
 5484SOL     OW17350   6.249   0.027   5.333
 5484SOL    HW117351   6.339   0.000   5.367
 5484SOL    HW217352   6.242   0.127   5.332
 5485SOL     OW17353   2.114   1.988   4.034
 5485SOL    HW117354   2.134   2.006   3.937
 5485SOL    HW217355   2.052   2.059   4.068
 5486SOL     OW17356   5.464   1.385   4.188
 5486SOL    HW117357   5.436   1.478   4.164
 5486SOL    HW217358   5.396   1.344   4.249
 5487SOL     OW17359   3.962   5.884   1.052
 5487SOL    HW117360   3.936   5.932   0.967
 5487SOL    HW217361   3.949   5.945   1.130
 5488SOL     OW17362   5.052   6.867   6.788
 5488SOL    HW117363   5.112   6.932   6.741
 5488SOL    HW217364   5.053   6.780   6.738
 5489SOL     OW17365   0.024   3.348   2.209
 5489SOL    HW117366   6.950   3.358   2.221
 5489SOL    HW217367   0.042   3.288   2.131
 5490SOL     OW17368   2.798   1.302   6.588
 5490SOL    HW117369   2.785   1.318   6.490
 5490SOL    HW217370   2.764   1.211   6.612
 5491SOL     OW17371   6.184   6.241   1.243
 5491SOL    HW117372   6.188   6.292   1.156
 5491SOL    HW217373   6.277   6.217   1.271
 5492SOL     OW17374   1.350   0.638   5.912
 5492SOL    HW117375   1.381   0.665   6.004
 5492SOL    HW217376   1.252   0.622   5.914
 5493SOL     OW17377   3.896   0.910   6.292
 5493SOL    HW117378   3.840   0.986   6.325
 5493SOL    HW217379   3.837   0.833   6.270
 5494SOL     OW17380   5.637   3.090   2.073
 5494SOL    HW117381   5.643   3.086   2.172
 5494SOL    HW217382   5.651   3.184   2.043
 5495SOL     OW17383   3.328   3.061   5.321
 5495SOL    HW117384   3.284   3.044   5.232
 5495SOL    HW217385   3.258   3.077   5.390
 5496SOL     OW17386   4.337   4.944   1.569
 5496SOL    HW117387   4.417   4.893   1.603
 5496SOL    HW217388   4.342   4.951   1.470
 5497SOL     OW17389   5.447   6.234   0.529
 5497SOL    HW117390   5.403   6.212   0.616
 5497SOL    HW217391   5.538   6.192   0.526
 5498SOL     OW17392   4.292   0.642   3.597
 5498SOL    HW117393   4.251   0.551   3.602
 5498SOL    HW217394   4.392   0.634   3.602
 5499SOL     OW17395   0.597   0.663   4.487
 5499SOL    HW117396   0.677   0.688   4.432
 5499SOL    HW217397   0.625   0.606   4.564
 5500SOL     OW17398   1.023   6.595   0.761
 5500SOL    HW117399   0.931   6.601   0.723
 5500SOL    HW217400   1.019   6.601   0.860
 5501SOL     OW17401   2.397   1.319   2.184
 5501SOL    HW117402   2.406   1.314   2.084
 5501SOL    HW217403   2.423   1.411   2.214
 5502SOL     OW17404   5.467   4.400   0.779
 5502SOL    HW117405   5.470   4.314   0.728
 5502SOL    HW217406   5.489   4.476   0.718
 5503SOL     OW17407   6.646   1.054   4.046
 5503SOL    HW117408   6.705   1.008   3.979
 5503SOL    HW217409   6.606   1.135   4.004
 5504SOL     OW17410   2.351   2.079   4.548
 5504SOL    HW117411   2.364   2.127   4.462
 5504SOL    HW217412   2.393   1.988   4.543
 5505SOL     OW17413   3.408   5.558   0.636
 5505SOL    HW117414   3.475   5.504   0.686
 5505SOL    HW217415   3.323   5.507   0.627
 5506SOL     OW17416   1.709   6.437   5.196
 5506SOL    HW117417   1.780   6.413   5.130
 5506SOL    HW217418   1.727   6.528   5.233
 5507SOL     OW17419   2.186   5.260   4.997
 5507SOL    HW117420   2.212   5.237   5.090
 5507SOL    HW217421   2.228   5.347   4.970
 5508SOL     OW17422   2.602   1.983   5.121
 5508SOL    HW117423   2.594   2.083   5.120
 5508SOL    HW217424   2.525   1.944   5.172
 5509SOL     OW17425   0.206   0.152   5.495
 5509SOL    HW117426   0.158   0.200   5.422
 5509SOL    HW217427   0.304   0.146   5.473
 5510SOL     OW17428   0.025   0.125   5.700
 5510SOL    HW117429   0.087   0.133   5.622
 5510SOL    HW217430   0.027   0.210   5.753
 5511SOL     OW17431   0.345   2.477   0.727
 5511SOL    HW117432   0.312   2.388   0.696
 5511SOL    HW217433   0.266   2.537   0.743
 5512SOL     OW17434   6.649   6.283   0.227
 5512SOL    HW117435   6.639   6.185   0.246
 5512SOL    HW217436   6.687   6.329   0.308
 5513SOL     OW17437   2.846   6.630   4.916
 5513SOL    HW117438   2.924   6.570   4.900
 5513SOL    HW217439   2.849   6.665   5.010
 5514SOL     OW17440   6.076   6.140   4.064
 5514SOL    HW117441   6.025   6.093   3.992
 5514SOL    HW217442   6.013   6.196   4.117
 5515SOL     OW17443   1.768   3.939   3.801
 5515SOL    HW117444   1.772   3.998   3.882
 5515SOL    HW217445   1.859   3.903   3.781
 5516SOL     OW17446   2.142   2.660   0.178
 5516SOL    HW117447   2.135   2.706   0.267
 5516SOL    HW217448   2.222   2.600   0.178
 5517SOL     OW17449   3.171   6.924   2.108
 5517SOL    HW117450   3.269   6.940   2.105
 5517SOL    HW217451   3.129   6.989   2.171
 5518SOL     OW17452   5.081   3.843   6.441
 5518SOL    HW117453   5.062   3.768   6.504
 5518SOL    HW217454   5.128   3.916   6.490
 5519SOL     OW17455   5.175   3.536   2.492
 5519SOL    HW117456   5.191   3.455   2.435
 5519SOL    HW217457   5.207   3.518   2.585
 5520SOL     OW17458   1.106   2.780   1.235
 5520SOL    HW117459   1.173   2.738   1.295
 5520SOL    HW217460   1.142   2.783   1.142
 5521SOL     OW17461   5.566   4.242   6.413
 5521SOL    HW117462   5.552   4.211   6.508
 5521SOL    HW217463   5.482   4.228   6.361
 5522SOL     OW17464   1.928   2.478   1.500
 5522SOL    HW117465   1.956   2.442   1.411
 5522SOL    HW217466   2.001   2.534   1.538
 5523SOL     OW17467   2.396   6.207   1.592
 5523SOL    HW117468   2.378   6.109   1.587
 5523SOL    HW217469   2.331   6.249   1.654
 5524SOL     OW17470   6.648   6.680   5.798
 5524SOL    HW117471   6.700   6.668   5.882
 5524SOL    HW217472   6.551   6.677   5.818
 5525SOL     OW17473   6.417   0.126   3.065
 5525SOL    HW117474   6.502   0.101   3.018
 5525SOL    HW217475   6.346   0.060   3.044
 5526SOL     OW17476   5.221   3.842   4.905
 5526SOL    HW117477   5.132   3.800   4.886
 5526SOL    HW217478   5.293   3.773   4.896
 5527SOL     OW17479   2.973   2.772   0.075
 5527SOL    HW117480   2.921   2.687   0.084
 5527SOL    HW217481   2.972   2.801   7.005
 5528SOL     OW17482   5.623   3.129   2.355
 5528SOL    HW117483   5.710   3.104   2.398
 5528SOL    HW217484   5.550   3.122   2.423
 5529SOL     OW17485   1.103   1.208   4.708
 5529SOL    HW117486   1.191   1.248   4.682
 5529SOL    HW217487   1.113   1.161   4.796
 5530SOL     OW17488   0.119   3.132   6.426
 5530SOL    HW117489   0.170   3.078   6.359
 5530SOL    HW217490   0.179   3.203   6.464
 5531SOL     OW17491   3.000   2.584   0.701
 5531SOL    HW117492   2.962   2.513   0.641
 5531SOL    HW217493   3.091   2.610   0.668
 5532SOL     OW17494   2.113   3.029   2.023
 5532SOL    HW117495   2.176   2.952   2.022
 5532SOL    HW217496   2.115   3.072   2.114
 5533SOL     OW17497   3.226   0.146   0.964
 5533SOL    HW117498   3.254   0.078   0.897
 5533SOL    HW217499   3.162   0.105   1.029
 5534SOL     OW17500   0.364   3.754   5.856
 5534SOL    HW117501   0.353   3.655   5.850
 5534SOL    HW217502   0.442   3.782   5.800
 5535SOL     OW17503   4.867   5.384   3.181
 5535SOL    HW117504   4.806   5.314   3.144
 5535SOL    HW217505   4.923   5.345   3.254
 5536SOL     OW17506   2.529   1.237   4.512
 5536SOL    HW117507   2.474   1.202   4.436
 5536SOL    HW217508   2.543   1.335   4.500
 5537SOL     OW17509   3.775   1.569   3.561
 5537SOL    HW117510   3.819   1.613   3.639
 5537SOL    HW217511   3.699   1.512   3.592
 5538SOL     OW17512   4.518   2.528   2.832
 5538SOL    HW117513   4.490   2.557   2.741
 5538SOL    HW217514   4.594   2.464   2.825
 5539SOL     OW17515   1.129   0.312   6.234
 5539SOL    HW117516   1.227   0.292   6.226
 5539SOL    HW217517   1.115   0.387   6.299
 5540SOL     OW17518   4.174   6.654   5.050
 5540SOL    HW117519   4.194   6.740   5.096
 5540SOL    HW217520   4.116   6.597   5.109
 5541SOL     OW17521   4.824   2.882   5.618
 5541SOL    HW117522   4.794   2.967   5.575
 5541SOL    HW217523   4.846   2.814   5.548
 5542SOL     OW17524   4.947   4.451   6.974
 5542SOL    HW117525   4.923   4.537   7.020
 5542SOL    HW217526   5.044   4.432   6.987
 5543SOL     OW17527   0.627   0.730   5.727
 5543SOL    HW117528   0.631   0.647   5.782
 5543SOL    HW217529   0.693   0.724   5.652
 5544SOL     OW17530   4.074   4.942   6.852
 5544SOL    HW117531   4.168   4.974   6.861
 5544SOL    HW217532   4.019   5.012   6.808
 5545SOL     OW17533   5.033   2.743   2.894
 5545SOL    HW117534   5.068   2.668   2.838
 5545SOL    HW217535   4.935   2.729   2.911
 5546SOL     OW17536   1.108   6.145   4.218
 5546SOL    HW117537   1.044   6.121   4.146
 5546SOL    HW217538   1.061   6.195   4.291
 5547SOL     OW17539   4.994   1.904   4.325
 5547SOL    HW117540   5.045   1.990   4.335
 5547SOL    HW217541   4.932   1.893   4.403
 5548SOL     OW17542   0.964   4.179   4.764
 5548SOL    HW117543   1.035   4.125   4.808
 5548SOL    HW217544   0.916   4.123   4.696
 5549SOL     OW17545   4.163   3.565   0.673
 5549SOL    HW117546   4.128   3.629   0.604
 5549SOL    HW217547   4.088   3.539   0.734
 5550SOL     OW17548   3.008   4.481   1.096
 5550SOL    HW117549   2.937   4.461   1.163
 5550SOL    HW217550   2.982   4.562   1.042
 5551SOL     OW17551   0.770   3.768   2.285
 5551SOL    HW117552   0.795   3.714   2.204
 5551SOL    HW217553   0.680   3.808   2.272
 5552SOL     OW17554   0.123   1.145   1.060
 5552SOL    HW117555   0.075   1.154   1.147
 5552SOL    HW217556   0.217   1.178   1.070
 5553SOL     OW17557   6.096   6.432   1.444
 5553SOL    HW117558   6.128   6.365   1.377
 5553SOL    HW217559   6.001   6.456   1.425
 5554SOL     OW17560   0.292   2.150   1.332
 5554SOL    HW117561   0.384   2.190   1.334
 5554SOL    HW217562   0.226   2.220   1.307
 5555SOL     OW17563   0.909   4.612   2.424
 5555SOL    HW117564   1.006   4.586   2.425
 5555SOL    HW217565   0.867   4.582   2.339
 5556SOL     OW17566   6.356   1.585   5.306
 5556SOL    HW117567   6.333   1.651   5.378
 5556SOL    HW217568   6.407   1.631   5.234
 5557SOL     OW17569   2.963   6.642   3.186
 5557SOL    HW117570   2.881   6.695   3.206
 5557SOL    HW217571   2.945   6.581   3.109
 5558SOL     OW17572   4.082   3.756   6.259
 5558SOL    HW117573   4.000   3.698   6.260
 5558SOL    HW217574   4.104   3.783   6.352
 5559SOL     OW17575   3.599   0.536   3.613
 5559SOL    HW117576   3.588   0.629   3.578
 5559SOL    HW217577   3.553   0.472   3.551
 5560SOL     OW17578   0.263   5.175   3.369
 5560SOL    HW117579   0.200   5.167   3.292
 5560SOL    HW217580   0.237   5.253   3.426
 5561SOL     OW17581   2.824   0.545   3.826
 5561SOL    HW117582   2.821   0.625   3.765
 5561SOL    HW217583   2.819   0.575   3.921
 5562SOL     OW17584   5.339   2.633   1.499
 5562SOL    HW117585   5.351   2.652   1.596
 5562SOL    HW217586   5.351   2.535   1.481
 5563SOL     OW17587   1.137   4.289   2.311
 5563SOL    HW117588   1.082   4.295   2.394
 5563SOL    HW217589   1.226   4.248   2.332
 5564SOL     OW17590   4.667   0.149   6.644
 5564SOL    HW117591   4.666   0.079   6.716
 5564SOL    HW217592   4.586   0.140   6.587
 5565SOL     OW17593   2.914   2.065   6.379
 5565SOL    HW117594   2.829   2.015   6.396
 5565SOL    HW217595   2.914   2.150   6.430
 5566SOL     OW17596   1.485   4.917   5.043
 5566SOL    HW117597   1.421   4.990   5.017
 5566SOL    HW217598   1.501   4.857   4.964
 5567SOL     OW17599   1.803   4.626   6.595
 5567SOL    HW117600   1.798   4.606   6.497
 5567SOL    HW217601   1.895   4.603   6.628
 5568SOL     OW17602   5.237   5.076   2.636
 5568SOL    HW117603   5.298   5.070   2.558
 5568SOL    HW217604   5.277   5.135   2.706
 5569SOL     OW17605   1.612   1.864   2.945
 5569SOL    HW117606   1.607   1.964   2.950
 5569SOL    HW217607   1.522   1.825   2.960
 5570SOL     OW17608   6.976   3.462   1.340
 5570SOL    HW117609   6.959   3.369   1.309
 5570SOL    HW217610   6.956   3.526   1.267
 5571SOL     OW17611   6.646   4.609   6.616
 5571SOL    HW117612   6.743   4.588   6.609
 5571SOL    HW217613   6.593   4.525   6.608
 5572SOL     OW17614   0.812   4.479   5.630
 5572SOL    HW117615   0.751   4.555   5.651
 5572SOL    HW217616   0.766   4.393   5.650
 5573SOL     OW17617   2.886   4.835   2.928
 5573SOL    HW117618   2.982   4.863   2.928
 5573SOL    HW217619   2.855   4.823   2.833
 5574SOL     OW17620   1.314   0.992   6.200
 5574SOL    HW117621   1.362   1.046   6.270
 5574SOL    HW217622   1.233   1.043   6.170
 5575SOL     OW17623   0.629   0.148   1.961
 5575SOL    HW117624   0.569   0.081   1.918
 5575SOL    HW217625   0.582   0.235   1.970
 5576SOL     OW17626   1.629   5.276   3.104
 5576SOL    HW117627   1.727   5.268   3.121
 5576SOL    HW217628   1.603   5.372   3.103
 5577SOL     OW17629   3.693   1.675   5.875
 5577SOL    HW117630   3.605   1.675   5.922
 5577SOL    HW217631   3.689   1.740   5.798
 5578SOL     OW17632   4.004   3.531   3.705
 5578SOL    HW117633   3.947   3.455   3.737
 5578SOL    HW217634   4.068   3.558   3.776
 5579SOL     OW17635   6.298   3.305   1.747
 5579SOL    HW117636   6.349   3.368   1.806
 5579SOL    HW217637   6.264   3.229   1.802
 5580SOL     OW17638   5.642   2.559   5.713
 5580SOL    HW117639   5.579   2.549   5.790
 5580SOL    HW217640   5.608   2.506   5.635
 5581SOL     OW17641   1.226   0.888   5.526
 5581SOL    HW117642   1.131   0.882   5.558
 5581SOL    HW217643   1.268   0.797   5.528
 5582SOL     OW17644   2.859   2.505   6.216
 5582SOL    HW117645   2.767   2.468   6.231
 5582SOL    HW217646   2.851   2.591   6.165
 5583SOL     OW17647   5.323   6.754   1.320
 5583SOL    HW117648   5.419   6.745   1.294
 5583SOL    HW217649   5.284   6.833   1.274
 5584SOL     OW17650   0.183   3.874   5.097
 5584SOL    HW117651   0.281   3.863   5.114
 5584SOL    HW217652   0.137   3.786   5.111
 5585SOL     OW17653   6.129   4.739   1.660
 5585SOL    HW117654   6.096   4.720   1.567
 5585SOL    HW217655   6.118   4.836   1.680
 5586SOL     OW17656   1.628   6.390   2.055
 5586SOL    HW117657   1.704   6.428   2.108
 5586SOL    HW217658   1.627   6.291   2.064
 5587SOL     OW17659   6.113   1.415   4.105
 5587SOL    HW117660   6.100   1.316   4.106
 5587SOL    HW217661   6.165   1.443   4.186
 5588SOL     OW17662   3.420   6.608   0.872
 5588SOL    HW117663   3.329   6.568   0.885
 5588SOL    HW217664   3.449   6.654   0.955
 5589SOL     OW17665   0.329   5.313   5.470
 5589SOL    HW117666   0.411   5.367   5.453
 5589SOL    HW217667   0.354   5.226   5.512
 5590SOL     OW17668   5.199   5.632   3.518
 5590SOL    HW117669   5.243   5.690   3.587
 5590SOL    HW217670   5.159   5.690   3.447
 5591SOL     OW17671   4.473   1.390   2.427
 5591SOL    HW117672   4.534   1.468   2.435
 5591SOL    HW217673   4.452   1.373   2.330
 5592SOL     OW17674   6.639   5.530   4.527
 5592SOL    HW117675   6.618   5.527   4.430
 5592SOL    HW217676   6.698   5.452   4.551
 5593SOL     OW17677   2.035   4.587   1.230
 5593SOL    HW117678   1.997   4.527   1.160
 5593SOL    HW217679   2.097   4.535   1.289
 5594SOL     OW17680   6.332   6.764   5.642
 5594SOL    HW117681   6.232   6.773   5.646
 5594SOL    HW217682   6.367   6.808   5.559
 5595SOL     OW17683   0.150   1.410   1.570
 5595SOL    HW117684   0.055   1.392   1.544
 5595SOL    HW217685   0.174   1.505   1.549
 5596SOL     OW17686   4.540   6.841   2.934
 5596SOL    HW117687   4.478   6.763   2.938
 5596SOL    HW217688   4.557   6.875   3.027
 5597SOL     OW17689   4.945   3.095   2.138
 5597SOL    HW117690   4.856   3.069   2.102
 5597SOL    HW217691   4.963   3.191   2.114
 5598SOL     OW17692   3.108   0.517   3.990
 5598SOL    HW117693   3.018   0.539   4.027
 5598SOL    HW217694   3.144   0.436   4.036
 5599SOL     OW17695   1.282   1.300   3.645
 5599SOL    HW117696   1.369   1.303   3.694
 5599SOL    HW217697   1.207   1.302   3.711
 5600SOL     OW17698   2.648   2.605   5.427
 5600SOL    HW117699   2.594   2.557   5.358
 5600SOL    HW217700   2.588   2.641   5.498
 5601SOL     OW17701   1.499   0.317   0.201
 5601SOL    HW117702   1.539   0.408   0.196
 5601SOL    HW217703   1.446   0.299   0.119
 5602SOL     OW17704   1.666   1.202   0.226
 5602SOL    HW117705   1.741   1.175   0.166
 5602SOL    HW217706   1.676   1.298   0.252
 5603SOL     OW17707   6.307   3.534   4.702
 5603SOL    HW117708   6.397   3.541   4.745
 5603SOL    HW217709   6.244   3.600   4.744
 5604SOL     OW17710   5.216   0.989   6.787
 5604SOL    HW117711   5.305   0.945   6.773
 5604SOL    HW217712   5.165   0.990   6.701
 5605SOL     OW17713   1.809   1.275   6.587
 5605SOL    HW117714   1.838   1.220   6.665
 5605SOL    HW217715   1.859   1.362   6.587
 5606SOL     OW17716   6.394   6.165   3.662
 5606SOL    HW117717   6.490   6.156   3.636
 5606SOL    HW217718   6.384   6.140   3.758
 5607SOL     OW17719   5.071   6.521   0.538
 5607SOL    HW117720   5.073   6.588   0.464
 5607SOL    HW217721   5.073   6.570   0.626
 5608SOL     OW17722   3.786   0.031   5.349
 5608SOL    HW117723   3.760   0.031   5.253
 5608SOL    HW217724   3.826   6.967   5.373
 5609SOL     OW17725   1.850   5.774   5.028
 5609SOL    HW117726   1.778   5.772   4.960
 5609SOL    HW217727   1.836   5.700   5.094
 5610SOL     OW17728   5.617   6.863   6.422
 5610SOL    HW117729   5.602   6.944   6.479
 5610SOL    HW217730   5.646   6.891   6.331
 5611SOL     OW17731   2.111   4.860   4.044
 5611SOL    HW117732   2.086   4.919   3.967
 5611SOL    HW217733   2.033   4.802   4.068
 5612SOL     OW17734   4.147   6.469   4.254
 5612SOL    HW117735   4.109   6.560   4.240
 5612SOL    HW217736   4.092   6.402   4.204
 5613SOL     OW17737   2.300   5.441   2.765
 5613SOL    HW117738   2.214   5.491   2.775
 5613SOL    HW217739   2.290   5.350   2.804
 5614SOL     OW17740   5.419   2.058   4.365
 5614SOL    HW117741   5.463   2.114   4.294
 5614SOL    HW217742   5.345   2.110   4.407
 5615SOL     OW17743   0.551   1.116   1.879
 5615SOL    HW117744   0.520   1.098   1.973
 5615SOL    HW217745   0.488   1.181   1.836
 5616SOL     OW17746   3.286   6.818   4.925
 5616SOL    HW117747   3.366   6.767   4.893
 5616SOL    HW217748   3.309   6.915   4.932
 5617SOL     OW17749   0.060   1.233   5.997
 5617SOL    HW117750   0.159   1.234   6.015
 5617SOL    HW217751   0.036   1.148   5.951
 5618SOL     OW17752   6.502   5.070   4.185
 5618SOL    HW117753   6.439   5.125   4.130
 5618SOL    HW217754   6.498   4.974   4.157
 5619SOL     OW17755   2.370   2.807   3.776
 5619SOL    HW117756   2.394   2.751   3.697
 5619SOL    HW217757   2.313   2.884   3.747
 5620SOL     OW17758   5.529   2.432   6.035
 5620SOL    HW117759   5.533   2.495   6.112
 5620SOL    HW217760   5.503   2.482   5.952
 5621SOL     OW17761   2.561   1.780   4.926
 5621SOL    HW117762   2.564   1.771   4.826
 5621SOL    HW217763   2.638   1.836   4.957
 5622SOL     OW17764   6.064   1.825   4.800
 5622SOL    HW117765   5.999   1.889   4.759
 5622SOL    HW217766   6.070   1.843   4.898
 5623SOL     OW17767   0.754   5.954   6.405
 5623SOL    HW117768   0.725   5.861   6.425
 5623SOL    HW217769   0.692   5.996   6.340
 5624SOL     OW17770   1.442   3.969   2.519
 5624SOL    HW117771   1.437   4.032   2.442
 5624SOL    HW217772   1.359   3.915   2.524
 5625SOL     OW17773   5.929   1.963   6.202
 5625SOL    HW117774   6.024   1.986   6.220
 5625SOL    HW217775   5.882   2.042   6.162
 5626SOL     OW17776   5.910   6.220   5.815
 5626SOL    HW117777   5.866   6.209   5.726
 5626SOL    HW217778   5.912   6.132   5.862
 5627SOL     OW17779   1.514   0.372   1.170
 5627SOL    HW117780   1.514   0.428   1.253
 5627SOL    HW217781   1.517   0.275   1.194
 5628SOL     OW17782   1.180   1.620   4.186
 5628SOL    HW117783   1.098   1.636   4.131
 5628SOL    HW217784   1.156   1.625   4.283
 5629SOL     OW17785   3.796   3.716   3.770
 5629SOL    HW117786   3.846   3.630   3.772
 5629SOL    HW217787   3.860   3.792   3.760
 5630SOL     OW17788   6.396   4.243   1.043
 5630SOL    HW117789   6.397   4.172   1.113
 5630SOL    HW217790   6.417   4.203   0.954
 5631SOL     OW17791   6.071   1.160   5.956
 5631SOL    HW117792   6.047   1.074   6.000
 5631SOL    HW217793   6.023   1.167   5.868
 5632SOL     OW17794   3.067   1.830   1.197
 5632SOL    HW117795   3.019   1.911   1.230
 5632SOL    HW217796   3.002   1.754   1.189
 5633SOL     OW17797   7.014   3.115   5.846
 5633SOL    HW117798   6.945   3.099   5.776
 5633SOL    HW217799   6.972   3.118   5.936
 5634SOL     OW17800   4.628   6.017   5.617
 5634SOL    HW117801   4.644   6.114   5.598
 5634SOL    HW217802   4.619   5.967   5.530
 5635SOL     OW17803   2.823   1.418   0.207
 5635SOL    HW117804   2.900   1.355   0.211
 5635SOL    HW217805   2.849   1.505   0.250
 5636SOL     OW17806   4.609   0.635   4.255
 5636SOL    HW117807   4.708   0.626   4.268
 5636SOL    HW217808   4.580   0.579   4.177
 5637SOL     OW17809   5.950   0.160   2.950
 5637SOL    HW117810   5.934   0.101   3.029
 5637SOL    HW217811   6.014   0.232   2.975
 5638SOL     OW17812   6.619   3.537   0.524
 5638SOL    HW117813   6.706   3.525   0.571
 5638SOL    HW217814   6.551   3.574   0.587
 5639SOL     OW17815   3.937   0.208   6.627
 5639SOL    HW117816   3.989   0.161   6.698
 5639SOL    HW217817   3.917   0.301   6.657
 5640SOL     OW17818   1.251   6.455   3.623
 5640SOL    HW117819   1.239   6.523   3.696
 5640SOL    HW217820   1.314   6.384   3.653
 5641SOL     OW17821   6.802   5.690   4.666
 5641SOL    HW117822   6.865   5.737   4.604
 5641SOL    HW217823   6.731   5.643   4.612
 5642SOL     OW17824   1.369   0.864   0.586
 5642SOL    HW117825   1.407   0.840   0.676
 5642SOL    HW217826   1.284   0.915   0.599
 5643SOL     OW17827   4.829   2.301   0.744
 5643SOL    HW117828   4.763   2.374   0.762
 5643SOL    HW217829   4.911   2.339   0.702
 5644SOL     OW17830   2.699   0.283   5.736
 5644SOL    HW117831   2.736   0.352   5.673
 5644SOL    HW217832   2.602   0.304   5.754
 5645SOL     OW17833   5.120   4.067   4.329
 5645SOL    HW117834   5.162   4.142   4.278
 5645SOL    HW217835   5.191   4.010   4.370
 5646SOL     OW17836   1.201   4.845   2.638
 5646SOL    HW117837   1.189   4.748   2.660
 5646SOL    HW217838   1.261   4.888   2.705
 5647SOL     OW17839   4.103   5.442   2.543
 5647SOL    HW117840   4.165   5.374   2.503
 5647SOL    HW217841   4.081   5.511   2.474
 5648SOL     OW17842   5.865   6.517   3.852
 5648SOL    HW117843   5.858   6.612   3.882
 5648SOL    HW217844   5.827   6.508   3.760
 5649SOL     OW17845   1.076   0.626   4.581
 5649SOL    HW117846   1.175   0.635   4.567
 5649SOL    HW217847   1.028   0.681   4.512
 5650SOL     OW17848   0.983   3.699   6.445
 5650SOL    HW117849   1.046   3.739   6.378
 5650SOL    HW217850   0.954   3.771   6.508
 5651SOL     OW17851   3.016   0.793   1.129
 5651SOL    HW117852   3.039   0.806   1.225
 5651SOL    HW217853   2.963   0.871   1.096
 5652SOL     OW17854   6.696   6.006   2.038
 5652SOL    HW117855   6.674   5.983   1.944
 5652SOL    HW217856   6.697   5.923   2.094
 5653SOL     OW17857   6.861   0.170   2.864
 5653SOL    HW117858   6.865   0.206   2.958
 5653SOL    HW217859   6.780   0.112   2.854
 5654SOL     OW17860   3.542   6.171   6.191
 5654SOL    HW117861   3.565   6.078   6.220
 5654SOL    HW217862   3.564   6.235   6.265
 5655SOL     OW17863   6.229   3.027   3.991
 5655SOL    HW117864   6.203   3.111   3.943
 5655SOL    HW217865   6.307   2.984   3.945
 5656SOL     OW17866   0.228   5.196   1.876
 5656SOL    HW117867   0.253   5.282   1.920
 5656SOL    HW217868   0.183   5.136   1.943
 5657SOL     OW17869   6.538   6.142   5.832
 5657SOL    HW117870   6.540   6.094   5.919
 5657SOL    HW217871   6.613   6.208   5.828
 5658SOL     OW17872   3.070   2.436   5.426
 5658SOL    HW117873   3.144   2.420   5.361
 5658SOL    HW217874   3.053   2.353   5.479
 5659SOL     OW17875   2.436   3.617   5.671
 5659SOL    HW117876   2.503   3.581   5.735
 5659SOL    HW217877   2.467   3.705   5.635
 5660SOL     OW17878   3.862   0.922   3.854
 5660SOL    HW117879   3.864   0.991   3.782
 5660SOL    HW217880   3.843   0.833   3.814
 5661SOL     OW17881   0.769   6.057   5.807
 5661SOL    HW117882   0.839   6.115   5.849
 5661SOL    HW217883   0.686   6.111   5.793
 5662SOL     OW17884   2.813   5.630   0.179
 5662SOL    HW117885   2.743   5.662   0.244
 5662SOL    HW217886   2.769   5.581   0.104
 5663SOL     OW17887   3.509   1.552   6.272
 5663SOL    HW117888   3.542   1.539   6.365
 5663SOL    HW217889   3.479   1.465   6.234
 5664SOL     OW17890   4.523   5.972   5.354
 5664SOL    HW117891   4.488   6.010   5.268
 5664SOL    HW217892   4.537   5.873   5.343
 5665SOL     OW17893   1.976   1.199   0.755
 5665SOL    HW117894   1.908   1.170   0.687
 5665SOL    HW217895   1.955   1.157   0.843
 5666SOL     OW17896   5.901   3.946   4.519
 5666SOL    HW117897   5.899   3.934   4.420
 5666SOL    HW217898   5.892   4.043   4.542
 5667SOL     OW17899   2.512   4.582   4.138
 5667SOL    HW117900   2.487   4.485   4.146
 5667SOL    HW217901   2.538   4.602   4.044
 5668SOL     OW17902   4.524   4.466   4.408
 5668SOL    HW117903   4.595   4.396   4.411
 5668SOL    HW217904   4.497   4.490   4.502
 5669SOL     OW17905   5.503   3.214   5.816
 5669SOL    HW117906   5.556   3.277   5.760
 5669SOL    HW217907   5.561   3.139   5.846
 5670SOL     OW17908   1.026   3.337   3.878
 5670SOL    HW117909   1.082   3.261   3.908
 5670SOL    HW217910   0.929   3.316   3.894
 5671SOL     OW17911   5.805   5.765   2.741
 5671SOL    HW117912   5.836   5.700   2.671
 5671SOL    HW217913   5.838   5.857   2.718
 5672SOL     OW17914   5.651   3.237   4.764
 5672SOL    HW117915   5.741   3.273   4.792
 5672SOL    HW217916   5.664   3.155   4.709
 5673SOL     OW17917   0.918   2.475   0.308
 5673SOL    HW117918   0.983   2.403   0.330
 5673SOL    HW217919   0.939   2.557   0.362
 5674SOL     OW17920   2.954   4.999   5.463
 5674SOL    HW117921   3.036   5.054   5.478
 5674SOL    HW217922   2.972   4.929   5.394
 5675SOL     OW17923   3.410   1.919   0.598
 5675SOL    HW117924   3.476   1.869   0.654
 5675SOL    HW217925   3.434   2.016   0.597
 5676SOL     OW17926   3.587   1.719   1.951
 5676SOL    HW117927   3.658   1.773   1.997
 5676SOL    HW217928   3.516   1.694   2.016
 5677SOL     OW17929   1.058   0.760   6.221
 5677SOL    HW117930   1.025   0.847   6.185
 5677SOL    HW217931   1.158   0.756   6.213
 5678SOL     OW17932   3.749   2.025   2.278
 5678SOL    HW117933   3.756   1.950   2.213
 5678SOL    HW217934   3.742   2.112   2.228
 5679SOL     OW17935   1.388   3.375   5.990
 5679SOL    HW117936   1.482   3.381   6.024
 5679SOL    HW217937   1.324   3.390   6.065
 5680SOL     OW17938   0.981   5.730   4.115
 5680SOL    HW117939   1.021   5.643   4.085
 5680SOL    HW217940   1.000   5.745   4.211
 5681SOL     OW17941   1.671   3.378   2.897
 5681SOL    HW117942   1.717   3.304   2.946
 5681SOL    HW217943   1.684   3.367   2.798
 5682SOL     OW17944   1.867   4.458   0.541
 5682SOL    HW117945   1.888   4.520   0.616
 5682SOL    HW217946   1.823   4.376   0.577
 5683SOL     OW17947   7.025   5.577   6.326
 5683SOL    HW117948   6.974   5.533   6.252
 5683SOL    HW217949   0.042   5.507   6.384
 5684SOL     OW17950   2.165   3.258   3.822
 5684SOL    HW117951   2.151   3.280   3.918
 5684SOL    HW217952   2.151   3.341   3.767
 5685SOL     OW17953   1.798   2.038   1.872
 5685SOL    HW117954   1.896   2.018   1.874
 5685SOL    HW217955   1.771   2.068   1.781
 5686SOL     OW17956   5.590   5.311   5.485
 5686SOL    HW117957   5.519   5.382   5.487
 5686SOL    HW217958   5.547   5.221   5.476
 5687SOL     OW17959   1.123   0.176   7.017
 5687SOL    HW117960   1.077   0.265   7.021
 5687SOL    HW217961   1.221   0.190   7.001
 5688SOL     OW17962   1.625   2.830   2.502
 5688SOL    HW117963   1.622   2.798   2.596
 5688SOL    HW217964   1.701   2.787   2.454
 5689SOL     OW17965   6.859   2.047   0.607
 5689SOL    HW117966   6.921   1.991   0.663
 5689SOL    HW217967   6.837   1.998   0.523
 5690SOL     OW17968   3.153   5.479   6.501
 5690SOL    HW117969   3.253   5.486   6.503
 5690SOL    HW217970   3.121   5.436   6.586
 5691SOL     OW17971   5.402   3.037   3.246
 5691SOL    HW117972   5.320   3.002   3.290
 5691SOL    HW217973   5.406   3.136   3.256
 5692SOL     OW17974   6.740   4.517   2.454
 5692SOL    HW117975   6.793   4.493   2.536
 5692SOL    HW217976   6.706   4.611   2.462
 5693SOL     OW17977   2.853   0.988   1.545
 5693SOL    HW117978   2.867   1.080   1.582
 5693SOL    HW217979   2.756   0.965   1.551
 5694SOL     OW17980   6.845   6.884   0.679
 5694SOL    HW117981   6.868   6.876   0.582
 5694SOL    HW217982   6.747   6.866   0.691
 5695SOL     OW17983   1.624   0.776   2.303
 5695SOL    HW117984   1.675   0.808   2.223
 5695SOL    HW217985   1.528   0.801   2.294
 5696SOL     OW17986   6.352   1.668   3.635
 5696SOL    HW117987   6.356   1.654   3.734
 5696SOL    HW217988   6.395   1.591   3.589
 5697SOL     OW17989   5.797   1.618   0.255
 5697SOL    HW117990   5.867   1.605   0.325
 5697SOL    HW217991   5.825   1.693   0.195
 5698SOL     OW17992   3.149   2.027   3.401
 5698SOL    HW117993   3.150   1.941   3.349
 5698SOL    HW217994   3.125   2.008   3.496
 5699SOL     OW17995   2.541   2.455   2.718
 5699SOL    HW117996   2.528   2.372   2.773
 5699SOL    HW217997   2.564   2.531   2.778
 5700SOL     OW17998   5.338   1.015   1.882
 5700SOL    HW117999   5.357   1.072   1.962
 5700SOL    HW218000   5.337   0.919   1.909
 5701SOL     OW18001   2.159   2.003   6.974
 5701SOL    HW118002   2.256   2.011   6.950
 5701SOL    HW218003   2.113   2.090   6.957
 5702SOL     OW18004   1.933   6.548   4.983
 5702SOL    HW118005   1.881   6.505   4.909
 5702SOL    HW218006   1.906   6.644   4.990
 5703SOL     OW18007   0.968   3.515   6.095
 5703SOL    HW118008   0.878   3.484   6.125
 5703SOL    HW218009   1.038   3.483   6.159
 5704SOL     OW18010   5.146   5.648   4.629
 5704SOL    HW118011   5.132   5.553   4.600
 5704SOL    HW218012   5.080   5.671   4.701
 5705SOL     OW18013   5.845   1.649   4.804
 5705SOL    HW118014   5.929   1.692   4.837
 5705SOL    HW218015   5.850   1.550   4.819
 5706SOL     OW18016   5.623   0.553   1.431
 5706SOL    HW118017   5.575   0.485   1.375
 5706SOL    HW218018   5.559   0.594   1.496
 5707SOL     OW18019   5.512   6.159   1.631
 5707SOL    HW118020   5.496   6.144   1.729
 5707SOL    HW218021   5.430   6.137   1.579
 5708SOL     OW18022   4.726   6.692   1.833
 5708SOL    HW118023   4.712   6.776   1.885
 5708SOL    HW218024   4.817   6.694   1.791
 5709SOL     OW18025   6.941   2.880   2.495
 5709SOL    HW118026   6.908   2.789   2.520
 5709SOL    HW218027   6.870   2.928   2.443
 5710SOL     OW18028   5.160   0.907   0.389
 5710SOL    HW118029   5.155   1.004   0.409
 5710SOL    HW218030   5.081   0.860   0.429
 5711SOL     OW18031   4.656   1.601   2.001
 5711SOL    HW118032   4.627   1.695   2.020
 5711SOL    HW218033   4.711   1.600   1.917
 5712SOL     OW18034   6.737   5.953   6.892
 5712SOL    HW118035   6.644   5.977   6.919
 5712SOL    HW218036   6.738   5.925   6.796
 5713SOL     OW18037   1.517   0.987   6.763
 5713SOL    HW118038   1.510   0.929   6.682
 5713SOL    HW218039   1.538   0.931   6.843
 5714SOL     OW18040   5.220   0.736   1.003
 5714SOL    HW118041   5.251   0.642   0.993
 5714SOL    HW218042   5.249   0.790   0.923
 5715SOL     OW18043   0.362   6.165   0.660
 5715SOL    HW118044   0.362   6.187   0.563
 5715SOL    HW218045   0.300   6.226   0.709
 5716SOL     OW18046   6.628   4.871   5.808
 5716SOL    HW118047   6.639   4.927   5.726
 5716SOL    HW218048   6.539   4.825   5.805
 5717SOL     OW18049   6.878   5.905   2.362
 5717SOL    HW118050   6.915   5.859   2.443
 5717SOL    HW218051   6.811   5.974   2.391
 5718SOL     OW18052   1.202   4.703   5.792
 5718SOL    HW118053   1.209   4.670   5.887
 5718SOL    HW218054   1.139   4.644   5.741
 5719SOL     OW18055   3.734   3.726   2.318
 5719SOL    HW118056   3.776   3.665   2.251
 5719SOL    HW218057   3.678   3.794   2.271
 5720SOL     OW18058   2.282   3.664   6.287
 5720SOL    HW118059   2.217   3.724   6.241
 5720SOL    HW218060   2.326   3.604   6.220
 5721SOL     OW18061   0.584   2.878   0.546
 5721SOL    HW118062   0.577   2.832   0.634
 5721SOL    HW218063   0.589   2.977   0.561
 5722SOL     OW18064   1.443   0.440   5.717
 5722SOL    HW118065   1.425   0.515   5.780
 5722SOL    HW218066   1.520   0.463   5.658
 5723SOL     OW18067   4.729   3.869   6.532
 5723SOL    HW118068   4.659   3.811   6.490
 5723SOL    HW218069   4.820   3.833   6.510
 5724SOL     OW18070   6.602   2.315   6.082
 5724SOL    HW118071   6.682   2.312   6.021
 5724SOL    HW218072   6.525   2.357   6.034
 5725SOL     OW18073   6.971   4.282   5.310
 5725SOL    HW118074   6.921   4.261   5.393
 5725SOL    HW218075   6.992   4.197   5.261
 5726SOL     OW18076   4.311   5.192   1.640
 5726SOL    HW118077   4.238   5.246   1.599
 5726SOL    HW218078   4.313   5.101   1.599
 5727SOL     OW18079   0.776   3.142   6.031
 5727SOL    HW118080   0.735   3.222   6.075
 5727SOL    HW218081   0.873   3.136   6.058
 5728SOL     OW18082   2.744   5.904   4.684
 5728SOL    HW118083   2.779   5.852   4.606
 5728SOL    HW218084   2.727   5.998   4.656
 5729SOL     OW18085   2.540   1.774   4.257
 5729SOL    HW118086   2.451   1.732   4.275
 5729SOL    HW218087   2.549   1.792   4.159
 5730SOL     OW18088   6.481   4.886   3.991
 5730SOL    HW118089   6.402   4.842   4.034
 5730SOL    HW218090   6.449   4.947   3.918
 5731SOL     OW18091   6.253   0.017   2.477
 5731SOL    HW118092   6.183   0.047   2.541
 5731SOL    HW218093   6.343   0.025   2.520
 5732SOL     OW18094   5.114   0.193   3.414
 5732SOL    HW118095   5.075   0.146   3.493
 5732SOL    HW218096   5.158   0.127   3.354
 5733SOL     OW18097   2.853   0.903   5.365
 5733SOL    HW118098   2.868   1.002   5.362
 5733SOL    HW218099   2.762   0.882   5.330
 5734SOL     OW18100   2.939   5.975   4.077
 5734SOL    HW118101   2.919   5.878   4.061
 5734SOL    HW218102   3.036   5.985   4.100
 5735SOL     OW18103   2.716   0.708   1.236
 5735SOL    HW118104   2.722   0.612   1.263
 5735SOL    HW218105   2.807   0.741   1.213
 5736SOL     OW18106   1.755   4.410   1.524
 5736SOL    HW118107   1.839   4.391   1.575
 5736SOL    HW218108   1.763   4.498   1.477
 5737SOL     OW18109   5.672   4.110   0.321
 5737SOL    HW118110   5.716   4.032   0.277
 5737SOL    HW218111   5.606   4.151   0.258
 5738SOL     OW18112   0.798   6.064   4.323
 5738SOL    HW118113   0.826   6.108   4.237
 5738SOL    HW218114   0.772   6.134   4.389
 5739SOL     OW18115   0.623   2.635   1.283
 5739SOL    HW118116   0.695   2.661   1.347
 5739SOL    HW218117   0.652   2.554   1.232
 5740SOL     OW18118   4.463   5.333   6.754
 5740SOL    HW118119   4.450   5.295   6.845
 5740SOL    HW218120   4.558   5.320   6.725
 5741SOL     OW18121   0.707   2.124   1.567
 5741SOL    HW118122   0.670   2.215   1.589
 5741SOL    HW218123   0.791   2.135   1.515
 5742SOL     OW18124   0.025   4.939   3.661
 5742SOL    HW118125   0.097   4.978   3.604
 5742SOL    HW218126   0.049   4.951   3.758
 5743SOL     OW18127   0.477   0.354   4.489
 5743SOL    HW118128   0.490   0.439   4.438
 5743SOL    HW218129   0.437   0.374   4.579
 5744SOL     OW18130   5.771   0.987   2.635
 5744SOL    HW118131   5.710   0.908   2.626
 5744SOL    HW218132   5.719   1.071   2.623
 5745SOL     OW18133   0.096   3.460   2.767
 5745SOL    HW118134   0.084   3.373   2.718
 5745SOL    HW218135   0.192   3.486   2.766
 5746SOL     OW18136   0.593   3.314   6.407
 5746SOL    HW118137   0.497   3.311   6.380
 5746SOL    HW218138   0.599   3.320   6.506
 5747SOL     OW18139   6.872   6.444   3.383
 5747SOL    HW118140   6.798   6.507   3.358
 5747SOL    HW218141   6.949   6.496   3.421
 5748SOL     OW18142   1.350   1.069   3.914
 5748SOL    HW118143   1.288   1.063   3.837
 5748SOL    HW218144   1.299   1.089   3.998
 5749SOL     OW18145   0.567   1.283   2.742
 5749SOL    HW118146   0.562   1.218   2.818
 5749SOL    HW218147   0.593   1.234   2.659
 5750SOL     OW18148   4.193   5.554   1.993
 5750SOL    HW118149   4.166   5.458   1.991
 5750SOL    HW218150   4.287   5.562   1.960
 5751SOL     OW18151   1.129   1.974   6.629
 5751SOL    HW118152   1.229   1.966   6.635
 5751SOL    HW218153   1.099   2.053   6.683
 5752SOL     OW18154   2.497   0.451   6.669
 5752SOL    HW118155   2.575   0.476   6.611
 5752SOL    HW218156   2.527   0.384   6.737
 5753SOL     OW18157   4.195   1.461   6.635
 5753SOL    HW118158   4.133   1.404   6.580
 5753SOL    HW218159   4.282   1.413   6.645
 5754SOL     OW18160   5.830   5.838   0.973
 5754SOL    HW118161   5.902   5.876   0.914
 5754SOL    HW218162   5.798   5.909   1.036
 5755SOL     OW18163   3.304   3.911   2.233
 5755SOL    HW118164   3.265   3.956   2.153
 5755SOL    HW218165   3.235   3.903   2.305
 5756SOL     OW18166   6.058   0.867   3.614
 5756SOL    HW118167   6.154   0.888   3.598
 5756SOL    HW218168   6.002   0.943   3.581
 5757SOL     OW18169   6.961   6.652   1.787
 5757SOL    HW118170   6.871   6.617   1.757
 5757SOL    HW218171   0.007   6.610   1.732
 5758SOL     OW18172   2.497   1.289   5.581
 5758SOL    HW118173   2.534   1.233   5.655
 5758SOL    HW218174   2.572   1.325   5.526
 5759SOL     OW18175   0.159   1.260   5.501
 5759SOL    HW118176   0.103   1.179   5.481
 5759SOL    HW218177   0.104   1.326   5.553
 5760SOL     OW18178   6.837   6.136   1.456
 5760SOL    HW118179   6.905   6.122   1.527
 5760SOL    HW218180   6.764   6.195   1.491
 5761SOL     OW18181   3.277   0.313   4.110
 5761SOL    HW118182   3.250   0.227   4.068
 5761SOL    HW218183   3.313   0.296   4.201
 5762SOL     OW18184   4.920   0.228   1.554
 5762SOL    HW118185   4.977   0.217   1.635
 5762SOL    HW218186   4.860   0.307   1.566
 5763SOL     OW18187   3.666   0.835   0.553
 5763SOL    HW118188   3.657   0.900   0.628
 5763SOL    HW218189   3.638   0.878   0.467
 5764SOL     OW18190   3.377   2.836   6.622
 5764SOL    HW118191   3.304   2.893   6.658
 5764SOL    HW218192   3.339   2.767   6.561
 5765SOL     OW18193   7.005   5.086   6.201
 5765SOL    HW118194   0.063   5.130   6.236
 5765SOL    HW218195   6.977   5.013   6.263
 5766SOL     OW18196   2.400   1.824   3.147
 5766SOL    HW118197   2.339   1.895   3.112
 5766SOL    HW218198   2.484   1.866   3.181
 5767SOL     OW18199   4.288   6.443   0.038
 5767SOL    HW118200   4.235   6.375   7.012
 5767SOL    HW218201   4.252   6.534   0.018
 5768SOL     OW18202   5.309   0.502   2.695
 5768SOL    HW118203   5.354   0.571   2.637
 5768SOL    HW218204   5.361   0.490   2.779
 5769SOL     OW18205   0.175   4.631   3.468
 5769SOL    HW118206   0.162   4.580   3.383
 5769SOL    HW218207   0.092   4.682   3.490
 5770SOL     OW18208   4.783   2.790   0.470
 5770SOL    HW118209   4.744   2.762   0.382
 5770SOL    HW218210   4.712   2.785   0.540
 5771SOL     OW18211   0.862   0.040   1.837
 5771SOL    HW118212   0.873   0.028   1.738
 5771SOL    HW218213   0.773   0.082   1.856
 5772SOL     OW18214   6.652   5.010   5.570
 5772SOL    HW118215   6.581   5.047   5.510
 5772SOL    HW218216   6.678   4.920   5.538
 5773SOL     OW18217   4.845   6.640   5.465
 5773SOL    HW118218   4.802   6.698   5.534
 5773SOL    HW218219   4.799   6.655   5.377
 5774SOL     OW18220   1.422   4.384   1.993
 5774SOL    HW118221   1.355   4.426   1.931
 5774SOL    HW218222   1.456   4.453   2.057
 5775SOL     OW18223   1.513   0.795   6.971
 5775SOL    HW118224   1.535   0.698   6.967
 5775SOL    HW218225   1.471   0.817   0.034
 5776SOL     OW18226   4.948   6.845   5.190
 5776SOL    HW118227   4.970   6.941   5.174
 5776SOL    HW218228   5.005   6.809   5.265
 5777SOL     OW18229   4.640   6.546   4.929
 5777SOL    HW118230   4.688   6.600   4.860
 5777SOL    HW218231   4.564   6.497   4.886
 5778SOL     OW18232   2.470   6.479   3.449
 5778SOL    HW118233   2.425   6.564   3.476
 5778SOL    HW218234   2.422   6.439   3.371
 5779SOL     OW18235   3.581   6.528   2.323
 5779SOL    HW118236   3.510   6.462   2.350
 5779SOL    HW218237   3.642   6.485   2.257
 5780SOL     OW18238   0.008   4.155   0.137
 5780SOL    HW118239   0.067   4.216   0.085
 5780SOL    HW218240   6.971   4.209   0.194
 5781SOL     OW18241   4.568   4.673   6.153
 5781SOL    HW118242   4.476   4.633   6.157
 5781SOL    HW218243   4.636   4.600   6.161
 5782SOL     OW18244   4.293   1.628   2.688
 5782SOL    HW118245   4.209   1.675   2.717
 5782SOL    HW218246   4.371   1.688   2.704
 5783SOL     OW18247   2.627   6.018   3.769
 5783SOL    HW118248   2.632   5.948   3.697
 5783SOL    HW218249   2.531   6.033   3.795
 5784SOL     OW18250   0.486   6.948   1.873
 5784SOL    HW118251   0.401   6.914   1.832
 5784SOL    HW218252   0.538   6.871   1.910
 5785SOL     OW18253   2.306   1.323   5.767
 5785SOL    HW118254   2.348   1.294   5.681
 5785SOL    HW218255   2.365   1.391   5.810
 5786SOL     OW18256   1.898   1.410   5.646
 5786SOL    HW118257   1.804   1.386   5.669
 5786SOL    HW218258   1.906   1.508   5.632
 5787SOL     OW18259   0.691   2.396   5.923
 5787SOL    HW118260   0.706   2.495   5.931
 5787SOL    HW218261   0.617   2.379   5.859
 5788SOL     OW18262   0.457   2.000   2.000
 5788SOL    HW118263   0.550   2.037   1.990
 5788SOL    HW218264   0.414   1.995   1.910
 5789SOL     OW18265   3.426   1.248   6.534
 5789SOL    HW118266   3.463   1.215   6.620
 5789SOL    HW218267   3.350   1.311   6.552
 5790SOL     OW18268   6.128   6.328   2.811
 5790SOL    HW118269   6.144   6.425   2.828
 5790SOL    HW218270   6.143   6.308   2.714
 5791SOL     OW18271   3.961   0.841   1.820
 5791SOL    HW118272   3.884   0.794   1.864
 5791SOL    HW218273   3.978   0.800   1.730
 5792SOL     OW18274   4.744   1.799   2.484
 5792SOL    HW118275   4.834   1.799   2.528
 5792SOL    HW218276   4.747   1.856   2.402
 5793SOL     OW18277   4.291   1.322   0.851
 5793SOL    HW118278   4.251   1.323   0.759
 5793SOL    HW218279   4.391   1.330   0.844
 5794SOL     OW18280   3.594   6.429   0.275
 5794SOL    HW118281   3.621   6.333   0.273
 5794SOL    HW218282   3.643   6.479   0.204
 5795SOL     OW18283   0.762   6.797   1.903
 5795SOL    HW118284   0.749   6.750   1.816
 5795SOL    HW218285   0.802   6.887   1.886
 5796SOL     OW18286   5.117   0.790   6.006
 5796SOL    HW118287   5.120   0.752   5.913
 5796SOL    HW218288   5.206   0.781   6.049
 5797SOL     OW18289   5.896   1.397   6.579
 5797SOL    HW118290   5.912   1.298   6.580
 5797SOL    HW218291   5.888   1.429   6.485
 5798SOL     OW18292   1.962   2.548   4.214
 5798SOL    HW118293   1.929   2.526   4.306
 5798SOL    HW218294   2.042   2.493   4.193
 5799SOL     OW18295   2.815   0.774   3.668
 5799SOL    HW118296   2.830   0.853   3.727
 5799SOL    HW218297   2.858   0.791   3.579
 5800SOL     OW18298   1.948   5.642   1.345
 5800SOL    HW118299   2.015   5.581   1.388
 5800SOL    HW218300   1.928   5.718   1.407
 5801SOL     OW18301   1.982   2.044   3.557
 5801SOL    HW118302   1.912   1.999   3.503
 5801SOL    HW218303   2.014   2.126   3.509
 5802SOL     OW18304   0.006   6.684   2.226
 5802SOL    HW118305   0.070   6.616   2.261
 5802SOL    HW218306   6.937   6.653   2.244
 5803SOL     OW18307   0.193   0.108   4.223
 5803SOL    HW118308   0.183   0.200   4.260
 5803SOL    HW218309   0.152   0.103   4.133
 5804SOL     OW18310   6.567   3.121   3.230
 5804SOL    HW118311   6.544   3.110   3.133
 5804SOL    HW218312   6.546   3.037   3.280
 5805SOL     OW18313   0.632   1.546   1.868
 5805SOL    HW118314   0.533   1.556   1.866
 5805SOL    HW218315   0.662   1.490   1.791
 5806SOL     OW18316   6.929   3.950   2.171
 5806SOL    HW118317   6.998   3.921   2.106
 5806SOL    HW218318   6.880   4.030   2.135
 5807SOL     OW18319   0.615   1.137   2.497
 5807SOL    HW118320   0.687   1.067   2.499
 5807SOL    HW218321   0.649   1.218   2.449
 5808SOL     OW18322   6.300   5.605   6.148
 5808SOL    HW118323   6.385   5.561   6.118
 5808SOL    HW218324   6.311   5.638   6.242
 5809SOL     OW18325   6.506   3.446   5.331
 5809SOL    HW118326   6.486   3.386   5.409
 5809SOL    HW218327   6.599   3.428   5.298
 5810SOL     OW18328   0.553   6.572   4.858
 5810SOL    HW118329   0.580   6.475   4.861
 5810SOL    HW218330   0.605   6.622   4.928
 5811SOL     OW18331   2.910   5.828   6.862
 5811SOL    HW118332   2.960   5.777   6.932
 5811SOL    HW218333   2.920   5.783   6.774
 5812SOL     OW18334   6.017   2.633   5.938
 5812SOL    HW118335   6.057   2.705   5.995
 5812SOL    HW218336   5.921   2.652   5.922
 5813SOL     OW18337   6.791   5.139   1.220
 5813SOL    HW118338   6.748   5.051   1.240
 5813SOL    HW218339   6.726   5.198   1.173
 5814SOL     OW18340   5.123   1.581   2.553
 5814SOL    HW118341   5.125   1.621   2.462
 5814SOL    HW218342   5.209   1.534   2.571
 5815SOL     OW18343   1.084   4.406   4.639
 5815SOL    HW118344   1.057   4.377   4.547
 5815SOL    HW218345   1.065   4.332   4.704
 5816SOL     OW18346   6.568   3.683   1.336
 5816SOL    HW118347   6.498   3.708   1.268
 5816SOL    HW218348   6.525   3.673   1.425
 5817SOL     OW18349   6.965   2.085   3.766
 5817SOL    HW118350   6.963   2.171   3.817
 5817SOL    HW218351   6.912   2.016   3.814
 5818SOL     OW18352   2.516   1.956   3.471
 5818SOL    HW118353   2.597   1.927   3.521
 5818SOL    HW218354   2.435   1.910   3.509
 5819SOL     OW18355   4.001   4.445   1.642
 5819SOL    HW118356   4.089   4.480   1.675
 5819SOL    HW218357   4.002   4.345   1.644
 5820SOL     OW18358   0.819   6.473   2.171
 5820SOL    HW118359   0.871   6.412   2.111
 5820SOL    HW218360   0.750   6.420   2.222
 5821SOL     OW18361   5.274   5.480   0.989
 5821SOL    HW118362   5.322   5.568   0.994
 5821SOL    HW218363   5.225   5.465   1.075
 5822SOL     OW18364   1.458   3.990   2.988
 5822SOL    HW118365   1.527   3.940   3.040
 5822SOL    HW218366   1.502   4.036   2.910
 5823SOL     OW18367   2.131   6.952   5.022
 5823SOL    HW118368   2.104   6.932   4.928
 5823SOL    HW218369   2.071   6.904   5.085
 5824SOL     OW18370   1.225   6.032   2.248
 5824SOL    HW118371   1.126   6.020   2.254
 5824SOL    HW218372   1.271   5.946   2.268
 5825SOL     OW18373   2.924   2.134   4.948
 5825SOL    HW118374   2.972   2.135   4.860
 5825SOL    HW218375   2.972   2.193   5.013
 5826SOL     OW18376   1.296   6.099   5.903
 5826SOL    HW118377   1.390   6.072   5.883
 5826SOL    HW218378   1.279   6.091   6.001
 5827SOL     OW18379   1.314   4.551   4.213
 5827SOL    HW118380   1.306   4.520   4.308
 5827SOL    HW218381   1.308   4.472   4.152
 5828SOL     OW18382   5.255   0.106   4.706
 5828SOL    HW118383   5.237   0.200   4.677
 5828SOL    HW218384   5.344   0.077   4.671
 5829SOL     OW18385   1.733   1.357   2.760
 5829SOL    HW118386   1.751   1.341   2.663
 5829SOL    HW218387   1.803   1.312   2.815
 5830SOL     OW18388   4.661   4.751   4.310
 5830SOL    HW118389   4.602   4.711   4.240
 5830SOL    HW218390   4.615   4.745   4.399
 5831SOL     OW18391   2.244   1.972   4.268
 5831SOL    HW118392   2.323   2.034   4.275
 5831SOL    HW218393   2.196   1.989   4.183
 5832SOL     OW18394   2.800   5.217   3.602
 5832SOL    HW118395   2.881   5.161   3.620
 5832SOL    HW218396   2.823   5.292   3.541
 5833SOL     OW18397   2.417   4.546   1.298
 5833SOL    HW118398   2.416   4.641   1.329
 5833SOL    HW218399   2.411   4.543   1.198
 5834SOL     OW18400   0.138   0.613   6.045
 5834SOL    HW118401   0.212   0.598   5.980
 5834SOL    HW218402   0.176   0.636   6.135
 5835SOL     OW18403   3.290   0.902   3.270
 5835SOL    HW118404   3.268   0.939   3.361
 5835SOL    HW218405   3.270   0.805   3.268
 5836SOL     OW18406   5.831   4.979   1.168
 5836SOL    HW118407   5.777   5.044   1.116
 5836SOL    HW218408   5.823   4.888   1.127
 5837SOL     OW18409   2.162   4.121   7.017
 5837SOL    HW118410   2.145   4.138   6.919
 5837SOL    HW218411   2.082   4.075   0.031
 5838SOL     OW18412   3.260   3.536   0.819
 5838SOL    HW118413   3.194   3.612   0.815
 5838SOL    HW218414   3.348   3.567   0.783
 5839SOL     OW18415   2.003   1.724   1.347
 5839SOL    HW118416   2.087   1.777   1.338
 5839SOL    HW218417   1.981   1.680   1.260
 5840SOL     OW18418   6.380   3.553   2.548
 5840SOL    HW118419   6.472   3.575   2.514
 5840SOL    HW218420   6.322   3.634   2.541
 5841SOL     OW18421   4.558   1.454   0.373
 5841SOL    HW118422   4.487   1.445   0.303
 5841SOL    HW218423   4.521   1.504   0.451
 5842SOL     OW18424   2.767   2.024   2.547
 5842SOL    HW118425   2.696   2.084   2.585
 5842SOL    HW218426   2.843   2.017   2.612
 5843SOL     OW18427   2.228   2.537   1.107
 5843SOL    HW118428   2.276   2.460   1.149
 5843SOL    HW218429   2.235   2.617   1.166
 5844SOL     OW18430   6.153   5.543   5.038
 5844SOL    HW118431   6.177   5.497   4.953
 5844SOL    HW218432   6.062   5.512   5.068
 5845SOL     OW18433   2.128   6.223   3.930
 5845SOL    HW118434   2.056   6.157   3.953
 5845SOL    HW218435   2.126   6.299   3.994
 5846SOL     OW18436   0.451   4.252   5.626
 5846SOL    HW118437   0.398   4.203   5.695
 5846SOL    HW218438   0.390   4.296   5.561
 5847SOL     OW18439   2.210   3.759   5.654
 5847SOL    HW118440   2.231   3.796   5.563
 5847SOL    HW218441   2.284   3.699   5.684
 5848SOL     OW18442   2.770   6.267   2.586
 5848SOL    HW118443   2.698   6.273   2.516
 5848SOL    HW218444   2.730   6.235   2.672
 5849SOL     OW18445   3.019   6.511   6.657
 5849SOL    HW118446   3.040   6.414   6.645
 5849SOL    HW218447   3.093   6.556   6.706
 5850SOL     OW18448   6.497   2.283   1.513
 5850SOL    HW118449   6.582   2.231   1.530
 5850SOL    HW218450   6.461   2.258   1.423
 5851SOL     OW18451   1.239   2.741   6.564
 5851SOL    HW118452   1.202   2.804   6.495
 5851SOL    HW218453   1.167   2.715   6.628
 5852SOL     OW18454   4.407   4.601   3.396
 5852SOL    HW118455   4.493   4.554   3.412
 5852SOL    HW218456   4.424   4.698   3.377
 5853SOL     OW18457   4.352   5.007   6.901
 5853SOL    HW118458   4.364   5.093   6.950
 5853SOL    HW218459   4.425   4.943   6.927
 5854SOL     OW18460   2.680   4.156   5.321
 5854SOL    HW118461   2.626   4.085   5.277
 5854SOL    HW218462   2.642   4.246   5.300
 5855SOL     OW18463   1.029   1.997   5.038
 5855SOL    HW118464   0.956   2.047   5.085
 5855SOL    HW218465   1.041   1.908   5.080
 5856SOL     OW18466   6.715   0.851   2.949
 5856SOL    HW118467   6.687   0.770   2.898
 5856SOL    HW218468   6.773   0.909   2.891
 5857SOL     OW18469   6.296   5.759   6.927
 5857SOL    HW118470   6.270   5.837   6.869
 5857SOL    HW218471   6.392   5.736   6.911
 5858SOL     OW18472   3.188   1.750   0.669
 5858SOL    HW118473   3.164   1.767   0.764
 5858SOL    HW218474   3.251   1.822   0.638
 5859SOL     OW18475   6.524   4.906   1.763
 5859SOL    HW118476   6.513   4.811   1.793
 5859SOL    HW218477   6.499   4.914   1.666
 5860SOL     OW18478   1.766   3.577   1.953
 5860SOL    HW118479   1.733   3.510   2.019
 5860SOL    HW218480   1.741   3.669   1.984
 5861SOL     OW18481   5.016   6.501   4.900
 5861SOL    HW118482   4.953   6.445   4.953
 5861SOL    HW218483   4.964   6.553   4.831
 5862SOL     OW18484   0.564   5.418   1.705
 5862SOL    HW118485   0.480   5.405   1.652
 5862SOL    HW218486   0.557   5.501   1.759
 5863SOL     OW18487   3.818   6.916   5.645
 5863SOL    HW118488   3.819   6.853   5.567
 5863SOL    HW218489   3.905   6.966   5.648
 5864SOL     OW18490   4.099   3.206   2.786
 5864SOL    HW118491   4.029   3.167   2.727
 5864SOL    HW218492   4.155   3.133   2.824
 5865SOL     OW18493   6.655   6.194   0.673
 5865SOL    HW118494   6.604   6.259   0.618
 5865SOL    HW218495   6.753   6.213   0.663
 5866SOL     OW18496   3.371   4.114   4.003
 5866SOL    HW118497   3.470   4.125   4.000
 5866SOL    HW218498   3.335   4.102   3.910
 5867SOL     OW18499   5.445   0.254   0.090
 5867SOL    HW118500   5.414   0.262   0.185
 5867SOL    HW218501   5.377   0.295   0.029
 5868SOL     OW18502   1.369   1.221   0.770
 5868SOL    HW118503   1.369   1.269   0.682
 5868SOL    HW218504   1.276   1.216   0.805
 5869SOL     OW18505   2.028   5.268   4.031
 5869SOL    HW118506   2.003   5.347   3.975
 5869SOL    HW218507   1.944   5.226   4.067
 5870SOL     OW18508   4.104   6.769   3.341
 5870SOL    HW118509   4.191   6.747   3.297
 5870SOL    HW218510   4.036   6.794   3.272
 5871SOL     OW18511   4.002   3.267   3.354
 5871SOL    HW118512   4.049   3.352   3.377
 5871SOL    HW218513   3.978   3.219   3.438
 5872SOL     OW18514   3.681   5.380   1.827
 5872SOL    HW118515   3.616   5.419   1.762
 5872SOL    HW218516   3.744   5.318   1.779
 5873SOL     OW18517   3.844   6.779   1.826
 5873SOL    HW118518   3.797   6.820   1.748
 5873SOL    HW218519   3.940   6.766   1.804
 5874SOL     OW18520   0.836   2.824   4.554
 5874SOL    HW118521   0.811   2.882   4.631
 5874SOL    HW218522   0.920   2.775   4.575
 5875SOL     OW18523   3.721   2.244   1.223
 5875SOL    HW118524   3.650   2.300   1.266
 5875SOL    HW218525   3.693   2.148   1.226
 5876SOL     OW18526   4.007   3.875   2.718
 5876SOL    HW118527   3.974   3.907   2.629
 5876SOL    HW218528   3.947   3.908   2.790
 5877SOL     OW18529   4.182   4.821   1.793
 5877SOL    HW118530   4.238   4.773   1.862
 5877SOL    HW218531   4.242   4.868   1.728
 5878SOL     OW18532   0.424   3.512   2.054
 5878SOL    HW118533   0.506   3.466   2.088
 5878SOL    HW218534   0.440   3.611   2.053
 5879SOL     OW18535   1.942   3.633   4.750
 5879SOL    HW118536   1.929   3.648   4.652
 5879SOL    HW218537   2.038   3.615   4.768
 5880SOL     OW18538   2.146   5.501   0.018
 5880SOL    HW118539   2.142   5.545   6.953
 5880SOL    HW218540   2.201   5.558   0.079
 5881SOL     OW18541   1.768   6.295   4.605
 5881SOL    HW118542   1.808   6.206   4.628
 5881SOL    HW218543   1.670   6.283   4.586
 5882SOL     OW18544   5.030   0.865   2.555
 5882SOL    HW118545   5.089   0.924   2.499
 5882SOL    HW218546   4.938   0.864   2.517
 5883SOL     OW18547   0.843   3.327   5.759
 5883SOL    HW118548   0.795   3.413   5.777
 5883SOL    HW218549   0.883   3.293   5.845
 5884SOL     OW18550   0.027   1.270   3.616
 5884SOL    HW118551   6.982   1.337   3.590
 5884SOL    HW218552   0.116   1.302   3.586
 5885SOL     OW18553   6.461   5.082   0.295
 5885SOL    HW118554   6.488   5.025   0.373
 5885SOL    HW218555   6.380   5.135   0.319
 5886SOL     OW18556   6.057   2.850   6.077
 5886SOL    HW118557   6.022   2.839   6.170
 5886SOL    HW218558   6.030   2.940   6.042
 5887SOL     OW18559   4.297   6.922   2.442
 5887SOL    HW118560   4.241   6.953   2.518
 5887SOL    HW218561   4.305   6.995   2.374
 5888SOL     OW18562   0.195   5.727   2.822
 5888SOL    HW118563   0.228   5.813   2.782
 5888SOL    HW218564   0.258   5.696   2.893
 5889SOL     OW18565   3.107   6.806   0.798
 5889SOL    HW118566   3.183   6.770   0.745
 5889SOL    HW218567   3.071   6.734   0.858
 5890SOL     OW18568   4.240   5.220   6.138
 5890SOL    HW118569   4.263   5.206   6.234
 5890SOL    HW218570   4.272   5.142   6.084
 5891SOL     OW18571   2.637   2.968   6.871
 5891SOL    HW118572   2.575   3.042   6.844
 5891SOL    HW218573   2.604   2.882   6.832
 5892SOL     OW18574   3.487   4.794   1.212
 5892SOL    HW118575   3.579   4.817   1.179
 5892SOL    HW218576   3.440   4.740   1.143
 5893SOL     OW18577   0.425   3.028   2.054
 5893SOL    HW118578   0.498   3.013   2.120
 5893SOL    HW218579   0.452   3.100   1.990
 5894SOL     OW18580   2.456   4.514   3.449
 5894SOL    HW118581   2.377   4.471   3.492
 5894SOL    HW218582   2.453   4.500   3.350
 5895SOL     OW18583   4.755   4.619   3.833
 5895SOL    HW118584   4.695   4.677   3.889
 5895SOL    HW218585   4.848   4.657   3.833
 5896SOL     OW18586   5.254   2.393   5.290
 5896SOL    HW118587   5.184   2.457   5.258
 5896SOL    HW218588   5.334   2.398   5.231
 5897SOL     OW18589   4.435   4.409   0.693
 5897SOL    HW118590   4.365   4.481   0.692
 5897SOL    HW218591   4.407   4.335   0.632
 5898SOL     OW18592   1.874   5.438   2.327
 5898SOL    HW118593   1.963   5.419   2.286
 5898SOL    HW218594   1.831   5.352   2.354
 5899SOL     OW18595   4.753   0.439   3.520
 5899SOL    HW118596   4.719   0.445   3.614
 5899SOL    HW218597   4.851   0.417   3.522
 5900SOL     OW18598   3.939   5.080   2.144
 5900SOL    HW118599   3.991   5.091   2.228
 5900SOL    HW218600   3.965   5.152   2.079
 5901SOL     OW18601   2.936   6.143   3.449
 5901SOL    HW118602   2.905   6.062   3.399
 5901SOL    HW218603   2.890   6.224   3.413
 5902SOL     OW18604   0.104   2.146   0.117
 5902SOL    HW118605   0.053   2.061   0.106
 5902SOL    HW218606   0.087   2.206   0.039
 5903SOL     OW18607   0.701   2.104   5.952
 5903SOL    HW118608   0.713   2.200   5.929
 5903SOL    HW218609   0.790   2.060   5.961
 5904SOL     OW18610   0.129   3.331   1.942
 5904SOL    HW118611   0.227   3.310   1.944
 5904SOL    HW218612   0.082   3.269   1.880
 5905SOL     OW18613   6.825   3.387   2.443
 5905SOL    HW118614   6.802   3.338   2.527
 5905SOL    HW218615   6.911   3.437   2.455
 5906SOL     OW18616   5.719   2.117   3.375
 5906SOL    HW118617   5.793   2.142   3.313
 5906SOL    HW218618   5.659   2.050   3.331
 5907SOL     OW18619   1.643   0.395   2.370
 5907SOL    HW118620   1.643   0.300   2.401
 5907SOL    HW218621   1.626   0.455   2.448
 5908SOL     OW18622   0.558   3.320   5.032
 5908SOL    HW118623   0.638   3.294   4.978
 5908SOL    HW218624   0.538   3.248   5.099
 5909SOL     OW18625   6.935   4.453   5.941
 5909SOL    HW118626   0.007   4.479   5.936
 5909SOL    HW218627   6.928   4.358   5.973
 5910SOL     OW18628   0.786   1.502   3.236
 5910SOL    HW118629   0.759   1.594   3.265
 5910SOL    HW218630   0.811   1.503   3.140
 5911SOL     OW18631   5.578   4.974   6.650
 5911SOL    HW118632   5.524   4.999   6.570
 5911SOL    HW218633   5.656   4.918   6.622
 5912SOL     OW18634   0.011   1.019   1.987
 5912SOL    HW118635   0.028   0.939   2.044
 5912SOL    HW218636   7.003   1.094   2.045
 5913SOL     OW18637   0.141   3.076   1.216
 5913SOL    HW118638   0.091   2.999   1.257
 5913SOL    HW218639   0.238   3.069   1.239
 5914SOL     OW18640   1.625   6.297   0.750
 5914SOL    HW118641   1.620   6.344   0.838
 5914SOL    HW218642   1.716   6.259   0.737
 5915SOL     OW18643   5.553   1.026   5.122
 5915SOL    HW118644   5.609   0.998   5.200
 5915SOL    HW218645   5.457   1.001   5.139
 5916SOL     OW18646   0.829   0.489   3.040
 5916SOL    HW118647   0.830   0.586   3.063
 5916SOL    HW218648   0.756   0.443   3.090
 5917SOL     OW18649   3.777   2.772   1.223
 5917SOL    HW118650   3.750   2.868   1.221
 5917SOL    HW218651   3.825   2.752   1.308
 5918SOL     OW18652   3.356   6.736   5.777
 5918SOL    HW118653   3.258   6.717   5.773
 5918SOL    HW218654   3.388   6.763   5.686
 5919SOL     OW18655   2.944   3.620   4.606
 5919SOL    HW118656   2.890   3.539   4.584
 5919SOL    HW218657   2.976   3.613   4.701
 5920SOL     OW18658   2.083   0.633   4.984
 5920SOL    HW118659   2.023   0.564   4.943
 5920SOL    HW218660   2.058   0.723   4.949
 5921SOL     OW18661   3.710   4.858   1.454
 5921SOL    HW118662   3.680   4.841   1.360
 5921SOL    HW218663   3.791   4.804   1.474
 5922SOL     OW18664   5.499   2.601   2.070
 5922SOL    HW118665   5.456   2.692   2.071
 5922SOL    HW218666   5.439   2.535   2.116
 5923SOL     OW18667   5.563   1.188   2.287
 5923SOL    HW118668   5.647   1.174   2.235
 5923SOL    HW218669   5.507   1.258   2.242
 5924SOL     OW18670   0.823   6.030   3.400
 5924SOL    HW118671   0.917   6.053   3.377
 5924SOL    HW218672   0.779   6.110   3.441
 5925SOL     OW18673   4.156   1.314   0.607
 5925SOL    HW118674   4.074   1.256   0.606
 5925SOL    HW218675   4.226   1.272   0.550
 5926SOL     OW18676   4.886   3.323   2.708
 5926SOL    HW118677   4.874   3.364   2.618
 5926SOL    HW218678   4.918   3.392   2.773
 5927SOL     OW18679   1.290   0.531   1.088
 5927SOL    HW118680   1.210   0.475   1.106
 5927SOL    HW218681   1.372   0.485   1.123
 5928SOL     OW18682   3.312   0.220   6.209
 5928SOL    HW118683   3.222   0.208   6.168
 5928SOL    HW218684   3.382   0.216   6.138
 5929SOL     OW18685   1.951   1.085   0.429
 5929SOL    HW118686   1.892   1.135   0.492
 5929SOL    HW218687   1.899   1.014   0.382
 5930SOL     OW18688   6.913   5.124   1.897
 5930SOL    HW118689   6.958   5.134   1.986
 5930SOL    HW218690   6.957   5.050   1.846
 5931SOL     OW18691   5.498   0.802   4.949
 5931SOL    HW118692   5.412   0.760   4.975
 5931SOL    HW218693   5.504   0.894   4.988
 5932SOL     OW18694   2.506   5.638   1.133
 5932SOL    HW118695   2.481   5.734   1.144
 5932SOL    HW218696   2.491   5.611   1.037
 5933SOL     OW18697   6.353   5.416   4.271
 5933SOL    HW118698   6.321   5.510   4.267
 5933SOL    HW218699   6.451   5.414   4.251
 5934SOL     OW18700   2.432   4.328   0.309
 5934SOL    HW118701   2.508   4.316   0.372
 5934SOL    HW218702   2.357   4.375   0.355
 5935SOL     OW18703   1.674   0.382   4.909
 5935SOL    HW118704   1.575   0.369   4.909
 5935SOL    HW218705   1.706   0.399   5.002
 5936SOL     OW18706   3.081   2.867   1.820
 5936SOL    HW118707   3.062   2.772   1.795
 5936SOL    HW218708   2.995   2.917   1.827
 5937SOL     OW18709   0.621   3.251   0.797
 5937SOL    HW118710   0.536   3.201   0.814
 5937SOL    HW218711   0.693   3.216   0.857
 5938SOL     OW18712   1.301   3.414   4.114
 5938SOL    HW118713   1.241   3.476   4.165
 5938SOL    HW218714   1.265   3.320   4.122
 5939SOL     OW18715   5.003   2.462   6.010
 5939SOL    HW118716   4.941   2.411   5.949
 5939SOL    HW218717   5.018   2.553   5.973
 5940SOL     OW18718   4.307   4.954   1.273
 5940SOL    HW118719   4.337   5.047   1.248
 5940SOL    HW218720   4.354   4.888   1.215
 5941SOL     OW18721   1.744   1.954   3.995
 5941SOL    HW118722   1.672   2.021   4.012
 5941SOL    HW218723   1.826   2.000   3.961
 5942SOL     OW18724   4.529   1.965   5.504
 5942SOL    HW118725   4.556   1.895   5.438
 5942SOL    HW218726   4.573   1.947   5.592
 5943SOL     OW18727   2.138   5.111   2.322
 5943SOL    HW118728   2.180   5.025   2.293
 5943SOL    HW218729   2.208   5.182   2.327
 5944SOL     OW18730   0.377   3.888   6.100
 5944SOL    HW118731   0.455   3.847   6.146
 5944SOL    HW218732   0.354   3.835   6.018
 5945SOL     OW18733   0.630   6.490   3.843
 5945SOL    HW118734   0.635   6.506   3.941
 5945SOL    HW218735   0.553   6.429   3.823
 5946SOL     OW18736   2.782   2.534   0.406
 5946SOL    HW118737   2.837   2.540   0.322
 5946SOL    HW218738   2.797   2.444   0.449
 5947SOL     OW18739   3.405   3.804   5.763
 5947SOL    HW118740   3.450   3.824   5.676
 5947SOL    HW218741   3.474   3.805   5.836
 5948SOL     OW18742   5.441   2.949   1.467
 5948SOL    HW118743   5.482   2.892   1.538
 5948SOL    HW218744   5.467   2.915   1.377
 5949SOL     OW18745   1.343   4.806   4.318
 5949SOL    HW118746   1.355   4.721   4.267
 5949SOL    HW218747   1.313   4.785   4.411
 5950SOL     OW18748   2.056   5.720   4.825
 5950SOL    HW118749   2.116   5.792   4.789
 5950SOL    HW218750   1.999   5.758   4.898
 5951SOL     OW18751   0.030   3.485   6.752
 5951SOL    HW118752   7.023   3.469   6.845
 5951SOL    HW218753   6.990   3.543   6.704
 5952SOL     OW18754   3.522   3.451   2.110
 5952SOL    HW118755   3.441   3.400   2.082
 5952SOL    HW218756   3.603   3.408   2.072
 5953SOL     OW18757   0.236   3.651   6.351
 5953SOL    HW118758   0.199   3.733   6.309
 5953SOL    HW218759   0.326   3.671   6.390
 5954SOL     OW18760   2.550   5.545   3.704
 5954SOL    HW118761   2.571   5.641   3.688
 5954SOL    HW218762   2.500   5.536   3.790
 5955SOL     OW18763   4.348   3.026   6.407
 5955SOL    HW118764   4.349   3.057   6.502
 5955SOL    HW218765   4.438   2.988   6.383
 5956SOL     OW18766   3.605   1.915   6.809
 5956SOL    HW118767   3.565   1.923   6.901
 5956SOL    HW218768   3.589   1.823   6.773
 5957SOL     OW18769   0.422   3.512   3.821
 5957SOL    HW118770   0.419   3.607   3.790
 5957SOL    HW218771   0.329   3.478   3.835
 5958SOL     OW18772   2.110   5.942   2.671
 5958SOL    HW118773   2.185   6.004   2.692
 5958SOL    HW218774   2.125   5.899   2.583
 5959SOL     OW18775   5.018   3.778   3.283
 5959SOL    HW118776   4.978   3.856   3.332
 5959SOL    HW218777   4.944   3.724   3.242
 5960SOL     OW18778   6.824   6.133   6.533
 5960SOL    HW118779   6.910   6.082   6.542
 5960SOL    HW218780   6.807   6.184   6.618
 5961SOL     OW18781   1.583   2.133   3.653
 5961SOL    HW118782   1.651   2.159   3.721
 5961SOL    HW218783   1.512   2.077   3.696
 5962SOL     OW18784   5.181   5.707   0.753
 5962SOL    HW118785   5.224   5.629   0.709
 5962SOL    HW218786   5.233   5.733   0.834
 5963SOL     OW18787   1.771   3.517   1.283
 5963SOL    HW118788   1.789   3.593   1.345
 5963SOL    HW218789   1.772   3.431   1.335
 5964SOL     OW18790   1.042   6.333   4.409
 5964SOL    HW118791   1.124   6.381   4.377
 5964SOL    HW218792   0.961   6.384   4.380
 5965SOL     OW18793   1.883   0.574   1.822
 5965SOL    HW118794   1.971   0.587   1.868
 5965SOL    HW218795   1.888   0.609   1.729
 5966SOL     OW18796   2.681   1.436   5.439
 5966SOL    HW118797   2.776   1.465   5.448
 5966SOL    HW218798   2.636   1.493   5.370
 5967SOL     OW18799   5.073   2.307   5.649
 5967SOL    HW118800   5.054   2.258   5.734
 5967SOL    HW218801   5.170   2.298   5.626
 5968SOL     OW18802   5.985   1.609   3.082
 5968SOL    HW118803   6.073   1.643   3.049
 5968SOL    HW218804   5.930   1.685   3.115
 5969SOL     OW18805   5.840   6.503   1.394
 5969SOL    HW118806   5.756   6.486   1.444
 5969SOL    HW218807   5.825   6.483   1.297
 5970SOL     OW18808   6.779   1.413   0.320
 5970SOL    HW118809   6.872   1.443   0.298
 5970SOL    HW218810   6.713   1.478   0.282
 5971SOL     OW18811   6.551   5.432   3.989
 5971SOL    HW118812   6.577   5.336   3.997
 5971SOL    HW218813   6.550   5.459   3.893
 5972SOL     OW18814   0.014   5.623   0.266
 5972SOL    HW118815   6.958   5.566   0.270
 5972SOL    HW218816   0.093   5.567   0.243
 5973SOL     OW18817   3.671   0.483   1.629
 5973SOL    HW118818   3.728   0.459   1.707
 5973SOL    HW218819   3.614   0.406   1.603
 5974SOL     OW18820   5.808   0.949   4.684
 5974SOL    HW118821   5.716   0.986   4.696
 5974SOL    HW218822   5.832   0.950   4.587
 5975SOL     OW18823   3.201   4.443   0.272
 5975SOL    HW118824   3.214   4.347   0.247
 5975SOL    HW218825   3.156   4.491   0.196
 5976SOL     OW18826   0.800   2.282   5.607
 5976SOL    HW118827   0.875   2.222   5.580
 5976SOL    HW218828   0.731   2.228   5.657
 5977SOL     OW18829   0.301   6.127   1.853
 5977SOL    HW118830   0.222   6.116   1.913
 5977SOL    HW218831   0.297   6.059   1.780
 5978SOL     OW18832   3.130   3.706   6.557
 5978SOL    HW118833   3.162   3.789   6.604
 5978SOL    HW218834   3.036   3.721   6.525
 5979SOL     OW18835   6.011   0.486   1.129
 5979SOL    HW118836   5.989   0.524   1.219
 5979SOL    HW218837   6.053   0.556   1.072
 5980SOL     OW18838   3.439   2.494   0.461
 5980SOL    HW118839   3.444   2.572   0.399
 5980SOL    HW218840   3.530   2.452   0.470
 5981SOL     OW18841   4.430   2.383   0.662
 5981SOL    HW118842   4.441   2.285   0.649
 5981SOL    HW218843   4.341   2.402   0.705
 5982SOL     OW18844   5.647   2.828   1.679
 5982SOL    HW118845   5.692   2.900   1.626
 5982SOL    HW218846   5.700   2.743   1.671
 5983SOL     OW18847   0.754   1.134   4.086
 5983SOL    HW118848   0.827   1.066   4.088
 5983SOL    HW218849   0.682   1.104   4.023
 5984SOL     OW18850   6.571   6.279   2.020
 5984SOL    HW118851   6.614   6.190   2.009
 5984SOL    HW218852   6.497   6.290   1.953
 5985SOL     OW18853   0.013   4.286   2.612
 5985SOL    HW118854   7.005   4.246   2.526
 5985SOL    HW218855   0.087   4.230   2.648
 5986SOL     OW18856   3.827   3.923   3.548
 5986SOL    HW118857   3.877   3.963   3.625
 5986SOL    HW218858   3.758   3.989   3.516
 5987SOL     OW18859   0.537   5.943   3.846
 5987SOL    HW118860   0.474   5.994   3.788
 5987SOL    HW218861   0.486   5.893   3.916
 5988SOL     OW18862   1.667   2.187   0.113
 5988SOL    HW118863   1.658   2.254   0.040
 5988SOL    HW218864   1.723   2.110   0.081
 5989SOL     OW18865   2.853   6.737   6.065
 5989SOL    HW118866   2.836   6.660   6.004
 5989SOL    HW218867   2.861   6.821   6.012
 5990SOL     OW18868   2.041   4.375   1.567
 5990SOL    HW118869   2.093   4.440   1.622
 5990SOL    HW218870   2.075   4.376   1.473
 5991SOL     OW18871   4.443   1.003   6.618
 5991SOL    HW118872   4.444   1.093   6.661
 5991SOL    HW218873   4.404   1.010   6.526
 5992SOL     OW18874   2.421   4.452   2.369
 5992SOL    HW118875   2.382   4.398   2.444
 5992SOL    HW218876   2.402   4.549   2.384
 5993SOL     OW18877   5.843   1.077   0.054
 5993SOL    HW118878   5.931   1.039   0.082
 5993SOL    HW218879   5.848   1.103   6.982
 5994SOL     OW18880   0.494   5.103   1.040
 5994SOL    HW118881   0.529   5.194   1.062
 5994SOL    HW218882   0.498   5.045   1.122
 5995SOL     OW18883   5.888   4.528   1.532
 5995SOL    HW118884   5.841   4.565   1.612
 5995SOL    HW218885   5.900   4.601   1.464
 5996SOL     OW18886   2.747   0.399   1.341
 5996SOL    HW118887   2.770   0.340   1.264
 5996SOL    HW218888   2.830   0.424   1.391
 5997SOL     OW18889   6.705   0.983   4.431
 5997SOL    HW118890   6.800   0.978   4.462
 5997SOL    HW218891   6.657   0.899   4.458
 5998SOL     OW18892   5.285   6.291   7.014
 5998SOL    HW118893   5.339   6.373   0.007
 5998SOL    HW218894   5.295   6.226   0.064
 5999SOL     OW18895   6.028   2.737   0.791
 5999SOL    HW118896   5.938   2.696   0.776
 5999SOL    HW218897   6.094   2.698   0.728
 6000SOL     OW18898   0.211   5.688   2.105
 6000SOL    HW118899   0.166   5.751   2.168
 6000SOL    HW218900   0.273   5.629   2.155
 6001SOL     OW18901   0.477   6.588   6.282
 6001SOL    HW118902   0.498   6.654   6.354
 6001SOL    HW218903   0.523   6.615   6.197
 6002SOL     OW18904   5.475   4.367   4.207
 6002SOL    HW118905   5.488   4.465   4.191
 6002SOL    HW218906   5.468   4.350   4.305
 6003SOL     OW18907   2.521   0.590   4.571
 6003SOL    HW118908   2.525   0.684   4.603
 6003SOL    HW218909   2.612   0.548   4.578
 6004SOL     OW18910   5.520   3.435   5.006
 6004SOL    HW118911   5.556   3.451   5.098
 6004SOL    HW218912   5.512   3.337   4.989
 6005SOL     OW18913   3.796   3.998   0.614
 6005SOL    HW118914   3.895   3.988   0.603
 6005SOL    HW218915   3.772   4.095   0.611
 6006SOL     OW18916   3.171   6.998   5.903
 6006SOL    HW118917   3.232   6.977   5.980
 6006SOL    HW218918   3.220   0.031   5.838
 6007SOL     OW18919   2.698   0.112   4.059
 6007SOL    HW118920   2.624   0.056   4.020
 6007SOL    HW218921   2.729   0.178   3.990
 6008SOL     OW18922   2.475   3.156   6.792
 6008SOL    HW118923   2.482   3.184   6.888
 6008SOL    HW218924   2.390   3.106   6.777
 6009SOL     OW18925   2.487   5.908   1.831
 6009SOL    HW118926   2.477   5.877   1.926
 6009SOL    HW218927   2.443   5.843   1.770
 6010SOL     OW18928   0.629   5.714   6.387
 6010SOL    HW118929   0.644   5.661   6.304
 6010SOL    HW218930   0.639   5.654   6.467
 6011SOL     OW18931   5.036   2.134   3.183
 6011SOL    HW118932   5.108   2.066   3.168
 6011SOL    HW218933   4.953   2.106   3.135
 6012SOL     OW18934   5.878   1.697   5.527
 6012SOL    HW118935   5.973   1.717   5.551
 6012SOL    HW218936   5.861   1.599   5.539
 6013SOL     OW18937   5.896   2.626   3.008
 6013SOL    HW118938   5.910   2.723   3.027
 6013SOL    HW218939   5.869   2.579   3.092
 6014SOL     OW18940   4.007   3.336   4.063
 6014SOL    HW118941   4.081   3.398   4.034
 6014SOL    HW218942   4.001   3.259   3.998
 6015SOL     OW18943   6.515   0.168   3.518
 6015SOL    HW118944   6.484   0.186   3.612
 6015SOL    HW218945   6.549   0.075   3.512
 6016SOL     OW18946   4.416   1.955   4.442
 6016SOL    HW118947   4.450   2.049   4.449
 6016SOL    HW218948   4.349   1.938   4.515
 6017SOL     OW18949   1.851   2.773   4.953
 6017SOL    HW118950   1.950   2.769   4.937
 6017SOL    HW218951   1.822   2.869   4.958
 6018SOL     OW18952   2.707   1.125   3.982
 6018SOL    HW118953   2.729   1.187   4.057
 6018SOL    HW218954   2.617   1.148   3.944
 6019SOL     OW18955   6.792   3.437   6.094
 6019SOL    HW118956   6.695   3.441   6.068
 6019SOL    HW218957   6.820   3.526   6.131
 6020SOL     OW18958   0.533   5.850   4.960
 6020SOL    HW118959   0.528   5.827   4.862
 6020SOL    HW218960   0.515   5.947   4.972
 6021SOL     OW18961   5.739   0.552   4.246
 6021SOL    HW118962   5.722   0.579   4.151
 6021SOL    HW218963   5.831   0.582   4.273
 6022SOL     OW18964   6.008   3.447   1.914
 6022SOL    HW118965   6.017   3.347   1.908
 6022SOL    HW218966   6.009   3.486   1.822
 6023SOL     OW18967   4.246   0.059   2.914
 6023SOL    HW118968   4.319   0.123   2.938
 6023SOL    HW218969   4.185   0.048   2.993
 6024SOL     OW18970   6.967   6.657   0.306
 6024SOL    HW118971   0.040   6.640   0.295
 6024SOL    HW218972   6.925   6.668   0.216
 6025SOL     OW18973   3.637   0.670   5.384
 6025SOL    HW118974   3.666   0.603   5.453
 6025SOL    HW218975   3.641   0.762   5.423
 6026SOL     OW18976   5.164   6.293   3.191
 6026SOL    HW118977   5.089   6.359   3.189
 6026SOL    HW218978   5.216   6.304   3.275
 6027SOL     OW18979   5.780   4.235   6.039
 6027SOL    HW118980   5.734   4.314   5.999
 6027SOL    HW218981   5.801   4.254   6.136
 6028SOL     OW18982   6.952   5.848   6.627
 6028SOL    HW118983   6.959   5.750   6.648
 6028SOL    HW218984   7.011   5.869   6.549
 6029SOL     OW18985   2.836   1.308   2.203
 6029SOL    HW118986   2.867   1.394   2.242
 6029SOL    HW218987   2.798   1.324   2.112
 6030SOL     OW18988   6.853   2.834   5.211
 6030SOL    HW118989   6.882   2.918   5.257
 6030SOL    HW218990   6.770   2.799   5.254
 6031SOL     OW18991   0.121   0.373   4.039
 6031SOL    HW118992   0.130   0.462   3.995
 6031SOL    HW218993   0.180   0.369   4.120
 6032SOL     OW18994   2.973   0.023   3.259
 6032SOL    HW118995   2.972   6.986   3.180
 6032SOL    HW218996   3.005   6.998   3.339
 6033SOL     OW18997   0.515   1.647   2.926
 6033SOL    HW118998   0.452   1.592   2.980
 6033SOL    HW218999   0.465   1.698   2.856
 6034SOL     OW19000   0.435   0.638   1.436
 6034SOL    HW119001   0.419   0.540   1.448
 6034SOL    HW219002   0.497   0.653   1.359
 6035SOL     OW19003   2.365   1.610   2.728
 6035SOL    HW119004   2.290   1.590   2.791
 6035SOL    HW219005   2.386   1.529   2.674
 6036SOL     OW19006   6.560   3.287   0.149
 6036SOL    HW119007   6.617   3.286   0.066
 6036SOL    HW219008   6.464   3.280   0.124
 6037SOL     OW19009   4.773   0.669   0.097
 6037SOL    HW119010   4.742   0.621   0.179
 6037SOL    HW219011   4.703   0.662   0.026
 6038SOL     OW19012   1.981   1.973   0.471
 6038SOL    HW119013   1.975   1.964   0.371
 6038SOL    HW219014   2.072   1.946   0.501
 6039SOL     OW19015   3.046   3.860   3.408
 6039SOL    HW119016   2.997   3.807   3.477
 6039SOL    HW219017   3.013   3.834   3.317
 6040SOL     OW19018   6.641   0.627   0.366
 6040SOL    HW119019   6.725   0.657   0.411
 6040SOL    HW219020   6.568   0.618   0.435
 6041SOL     OW19021   0.802   3.339   4.867
 6041SOL    HW119022   0.822   3.248   4.901
 6041SOL    HW219023   0.878   3.400   4.887
 6042SOL     OW19024   2.794   5.914   2.398
 6042SOL    HW119025   2.834   5.823   2.393
 6042SOL    HW219026   2.866   5.983   2.390
 6043SOL     OW19027   1.821   4.796   0.977
 6043SOL    HW119028   1.807   4.893   0.997
 6043SOL    HW219029   1.884   4.757   1.044
 6044SOL     OW19030   6.382   3.728   0.025
 6044SOL    HW119031   6.408   3.799   0.091
 6044SOL    HW219032   6.431   3.643   0.046
 6045SOL     OW19033   4.583   1.499   4.055
 6045SOL    HW119034   4.663   1.443   4.035
 6045SOL    HW219035   4.590   1.586   4.007
 6046SOL     OW19036   3.598   3.815   3.262
 6046SOL    HW119037   3.506   3.781   3.243
 6046SOL    HW219038   3.637   3.764   3.339
 6047SOL     OW19039   6.884   1.178   0.144
 6047SOL    HW119040   6.866   1.085   0.178
 6047SOL    HW219041   6.797   1.224   0.126
 6048SOL     OW19042   6.296   5.941   3.813
 6048SOL    HW119043   6.250   5.871   3.868
 6048SOL    HW219044   6.380   5.904   3.774
 6049SOL     OW19045   6.344   4.853   0.127
 6049SOL    HW119046   6.363   4.947   0.157
 6049SOL    HW219047   6.428   4.800   0.129
 6050SOL     OW19048   2.029   5.923   3.510
 6050SOL    HW119049   1.930   5.937   3.513
 6050SOL    HW219050   2.051   5.851   3.445
 6051SOL     OW19051   0.372   2.273   2.636
 6051SOL    HW119052   0.275   2.291   2.648
 6051SOL    HW219053   0.415   2.260   2.725
 6052SOL     OW19054   5.872   5.411   0.155
 6052SOL    HW119055   5.787   5.461   0.146
 6052SOL    HW219056   5.946   5.461   0.110
 6053SOL     OW19057   3.766   1.960   6.191
 6053SOL    HW119058   3.754   1.988   6.096
 6053SOL    HW219059   3.828   1.882   6.195
 6054SOL     OW19060   4.747   3.730   6.243
 6054SOL    HW119061   4.719   3.778   6.159
 6054SOL    HW219062   4.666   3.716   6.301
 6055SOL     OW19063   3.385   4.900   1.984
 6055SOL    HW119064   3.467   4.842   1.984
 6055SOL    HW219065   3.345   4.901   2.075
 6056SOL     OW19066   5.582   0.009   3.238
 6056SOL    HW119067   5.670   0.055   3.229
 6056SOL    HW219068   5.594   6.936   3.227
 6057SOL     OW19069   4.950   1.201   4.472
 6057SOL    HW119070   4.967   1.298   4.488
 6057SOL    HW219071   4.873   1.190   4.410
 6058SOL     OW19072   6.616   3.861   6.708
 6058SOL    HW119073   6.711   3.884   6.685
 6058SOL    HW219074   6.572   3.820   6.628
 6059SOL     OW19075   4.287   1.759   6.729
 6059SOL    HW119076   4.312   1.663   6.730
 6059SOL    HW219077   4.326   1.803   6.648
 6060SOL     OW19078   2.197   2.139   1.450
 6060SOL    HW119079   2.151   2.173   1.531
 6060SOL    HW219080   2.272   2.200   1.425
 6061SOL     OW19081   2.318   4.900   6.270
 6061SOL    HW119082   2.335   4.808   6.307
 6061SOL    HW219083   2.224   4.905   6.236
 6062SOL     OW19084   1.731   1.350   4.884
 6062SOL    HW119085   1.733   1.394   4.794
 6062SOL    HW219086   1.823   1.320   4.908
 6063SOL     OW19087   4.090   3.819   5.178
 6063SOL    HW119088   4.184   3.846   5.159
 6063SOL    HW219089   4.073   3.727   5.143
 6064SOL     OW19090   5.708   5.112   0.558
 6064SOL    HW119091   5.732   5.209   0.547
 6064SOL    HW219092   5.772   5.056   0.507
 6065SOL     OW19093   1.562   5.619   1.168
 6065SOL    HW119094   1.629   5.597   1.096
 6065SOL    HW219095   1.601   5.688   1.229
 6066SOL     OW19096   4.832   5.568   2.773
 6066SOL    HW119097   4.775   5.646   2.746
 6066SOL    HW219098   4.916   5.569   2.719
 6067SOL     OW19099   5.947   5.140   5.385
 6067SOL    HW119100   5.911   5.234   5.392
 6067SOL    HW219101   6.033   5.134   5.435
 6068SOL     OW19102   4.962   2.522   3.993
 6068SOL    HW119103   5.039   2.508   3.931
 6068SOL    HW219104   4.968   2.455   4.068
 6069SOL     OW19105   0.884   5.693   5.659
 6069SOL    HW119106   0.826   5.667   5.581
 6069SOL    HW219107   0.966   5.738   5.625
 6070SOL     OW19108   2.176   0.217   1.753
 6070SOL    HW119109   2.113   0.180   1.685
 6070SOL    HW219110   2.218   0.142   1.804
 6071SOL     OW19111   6.604   6.597   6.895
 6071SOL    HW119112   6.595   6.583   6.797
 6071SOL    HW219113   6.644   6.687   6.913
 6072SOL     OW19114   0.227   2.197   6.481
 6072SOL    HW119115   0.211   2.170   6.385
 6072SOL    HW219116   0.163   2.148   6.540
 6073SOL     OW19117   5.031   4.552   6.669
 6073SOL    HW119118   5.013   4.464   6.712
 6073SOL    HW219119   4.970   4.564   6.591
 6074SOL     OW19120   1.686   5.671   2.451
 6074SOL    HW119121   1.628   5.752   2.453
 6074SOL    HW219122   1.770   5.691   2.401
 6075SOL     OW19123   6.922   6.121   0.242
 6075SOL    HW119124   6.997   6.101   0.180
 6075SOL    HW219125   6.835   6.093   0.201
 6076SOL     OW19126   0.034   6.123   3.448
 6076SOL    HW119127   0.065   6.182   3.373
 6076SOL    HW219128   6.968   6.088   3.428
 6077SOL     OW19129   4.168   5.002   3.027
 6077SOL    HW119130   4.161   4.902   3.029
 6077SOL    HW219131   4.255   5.030   3.069
 6078SOL     OW19132   5.806   4.139   0.554
 6078SOL    HW119133   5.730   4.114   0.494
 6078SOL    HW219134   5.888   4.152   0.499
 6079SOL     OW19135   2.926   1.863   0.575
 6079SOL    HW119136   2.999   1.861   0.643
 6079SOL    HW219137   2.923   1.775   0.528
 6080SOL     OW19138   5.595   3.230   5.466
 6080SOL    HW119139   5.669   3.287   5.430
 6080SOL    HW219140   5.604   3.137   5.430
 6081SOL     OW19141   2.174   4.844   3.622
 6081SOL    HW119142   2.085   4.799   3.609
 6081SOL    HW219143   2.237   4.780   3.664
 6082SOL     OW19144   4.123   1.126   1.600
 6082SOL    HW119145   4.131   1.131   1.501
 6082SOL    HW219146   4.038   1.078   1.625
 6083SOL     OW19147   5.192   0.715   5.385
 6083SOL    HW119148   5.254   0.793   5.390
 6083SOL    HW219149   5.234   0.643   5.329
 6084SOL     OW19150   6.086   5.404   3.605
 6084SOL    HW119151   6.119   5.315   3.636
 6084SOL    HW219152   6.115   5.420   3.511
 6085SOL     OW19153   1.359   6.070   1.166
 6085SOL    HW119154   1.392   6.161   1.140
 6085SOL    HW219155   1.397   6.002   1.103
 6086SOL     OW19156   4.740   3.113   0.323
 6086SOL    HW119157   4.649   3.114   0.283
 6086SOL    HW219158   4.795   3.042   0.277
 6087SOL     OW19159   3.821   1.183   6.293
 6087SOL    HW119160   3.790   1.164   6.200
 6087SOL    HW219161   3.759   1.249   6.336
 6088SOL     OW19162   3.730   6.277   2.793
 6088SOL    HW119163   3.779   6.317   2.870
 6088SOL    HW219164   3.678   6.348   2.746
 6089SOL     OW19165   6.428   5.202   2.643
 6089SOL    HW119166   6.369   5.122   2.627
 6089SOL    HW219167   6.474   5.227   2.558
 6090SOL     OW19168   3.954   6.057   5.005
 6090SOL    HW119169   3.948   5.964   5.041
 6090SOL    HW219170   4.039   6.099   5.037
 6091SOL     OW19171   0.229   3.139   2.208
 6091SOL    HW119172   0.275   3.221   2.242
 6091SOL    HW219173   0.289   3.093   2.142
 6092SOL     OW19174   1.640   6.993   1.132
 6092SOL    HW119175   1.547   6.975   1.099
 6092SOL    HW219176   1.674   0.052   1.090
 6093SOL     OW19177   3.719   3.232   2.580
 6093SOL    HW119178   3.806   3.280   2.572
 6093SOL    HW219179   3.728   3.158   2.646
 6094SOL     OW19180   0.317   6.785   5.379
 6094SOL    HW119181   0.357   6.866   5.424
 6094SOL    HW219182   0.307   6.804   5.282
 6095SOL     OW19183   5.376   4.999   2.418
 6095SOL    HW119184   5.294   4.959   2.378
 6095SOL    HW219185   5.457   4.955   2.380
 6096SOL     OW19186   4.554   6.307   2.580
 6096SOL    HW119187   4.483   6.323   2.512
 6096SOL    HW219188   4.630   6.258   2.538
 6097SOL     OW19189   2.132   4.730   0.995
 6097SOL    HW119190   2.212   4.762   0.945
 6097SOL    HW219191   2.162   4.683   1.079
 6098SOL     OW19192   5.966   2.082   5.706
 6098SOL    HW119193   5.910   2.000   5.702
 6098SOL    HW219194   5.909   2.163   5.693
 6099SOL     OW19195   3.314   0.100   5.690
 6099SOL    HW119196   3.402   0.052   5.688
 6099SOL    HW219197   3.313   0.165   5.766
 6100SOL     OW19198   6.499   5.224   6.298
 6100SOL    HW119199   6.457   5.232   6.389
 6100SOL    HW219200   6.455   5.151   6.247
 6101SOL     OW19201   0.789   2.749   0.744
 6101SOL    HW119202   0.853   2.732   0.819
 6101SOL    HW219203   0.700   2.708   0.767
 6102SOL     OW19204   2.231   0.263   2.544
 6102SOL    HW119205   2.264   0.291   2.454
 6102SOL    HW219206   2.308   0.256   2.607
 6103SOL     OW19207   5.638   0.280   2.590
 6103SOL    HW119208   5.568   0.256   2.524
 6103SOL    HW219209   5.702   0.203   2.601
 6104SOL     OW19210   6.748   6.869   5.131
 6104SOL    HW119211   6.788   6.908   5.214
 6104SOL    HW219212   6.680   6.933   5.095
 6105SOL     OW19213   3.107   5.483   6.238
 6105SOL    HW119214   3.157   5.412   6.188
 6105SOL    HW219215   3.131   5.479   6.335
 6106SOL     OW19216   5.891   3.874   5.816
 6106SOL    HW119217   5.951   3.950   5.843
 6106SOL    HW219218   5.938   3.817   5.749
 6107SOL     OW19219   6.494   5.314   4.674
 6107SOL    HW119220   6.452   5.403   4.691
 6107SOL    HW219221   6.593   5.322   4.684
 6108SOL     OW19222   2.984   0.967   6.127
 6108SOL    HW119223   2.975   0.957   6.226
 6108SOL    HW219224   2.966   0.879   6.083
 6109SOL     OW19225   0.011   6.180   3.853
 6109SOL    HW119226   7.021   6.238   3.772
 6109SOL    HW219227   0.103   6.141   3.849
 6110SOL     OW19228   0.953   1.812   4.311
 6110SOL    HW119229   0.885   1.865   4.261
 6110SOL    HW219230   0.924   1.716   4.316
 6111SOL     OW19231   3.296   3.214   2.016
 6111SOL    HW119232   3.364   3.218   1.942
 6111SOL    HW219233   3.258   3.121   2.020
 6112SOL     OW19234   4.658   6.238   3.981
 6112SOL    HW119235   4.674   6.329   4.019
 6112SOL    HW219236   4.738   6.181   3.995
 6113SOL     OW19237   3.642   5.593   1.086
 6113SOL    HW119238   3.562   5.570   1.030
 6113SOL    HW219239   3.701   5.656   1.036
 6114SOL     OW19240   5.175   3.675   1.444
 6114SOL    HW119241   5.146   3.726   1.363
 6114SOL    HW219242   5.110   3.600   1.460
 6115SOL     OW19243   5.611   1.368   3.970
 6115SOL    HW119244   5.615   1.285   3.914
 6115SOL    HW219245   5.572   1.347   4.059
 6116SOL     OW19246   6.132   2.517   0.212
 6116SOL    HW119247   6.177   2.576   0.280
 6116SOL    HW219248   6.090   2.439   0.258
 6117SOL     OW19249   2.929   2.171   0.978
 6117SOL    HW119250   2.929   2.270   0.993
 6117SOL    HW219251   2.856   2.130   1.032
 6118SOL     OW19252   6.265   0.493   1.954
 6118SOL    HW119253   6.219   0.533   1.875
 6118SOL    HW219254   6.363   0.483   1.933
 6119SOL     OW19255   0.253   1.614   6.017
 6119SOL    HW119256   0.317   1.622   6.093
 6119SOL    HW219257   0.161   1.637   6.048
 6120SOL     OW19258   3.651   1.137   3.447
 6120SOL    HW119259   3.660   1.106   3.352
 6120SOL    HW219260   3.735   1.114   3.497
 6121SOL     OW19261   4.162   1.277   6.119
 6121SOL    HW119262   4.187   1.360   6.070
 6121SOL    HW219263   4.062   1.274   6.131
 6122SOL     OW19264   4.760   4.142   4.944
 6122SOL    HW119265   4.698   4.182   4.876
 6122SOL    HW219266   4.841   4.106   4.898
 6123SOL     OW19267   5.659   1.758   5.371
 6123SOL    HW119268   5.732   1.744   5.437
 6123SOL    HW219269   5.697   1.757   5.278
 6124SOL     OW19270   1.695   5.850   4.271
 6124SOL    HW119271   1.782   5.898   4.259
 6124SOL    HW219272   1.712   5.760   4.310
 6125SOL     OW19273   3.000   1.074   5.709
 6125SOL    HW119274   2.942   1.120   5.778
 6125SOL    HW219275   2.984   1.116   5.620
 6126SOL     OW19276   6.032   3.467   6.425
 6126SOL    HW119277   5.967   3.472   6.500
 6126SOL    HW219278   6.014   3.540   6.359
 6127SOL     OW19279   4.781   2.093   3.618
 6127SOL    HW119280   4.862   2.069   3.564
 6127SOL    HW219281   4.701   2.048   3.578
 6128SOL     OW19282   6.829   4.889   4.611
 6128SOL    HW119283   6.821   4.882   4.710
 6128SOL    HW219284   6.857   4.982   4.586
 6129SOL     OW19285   1.888   5.846   2.811
 6129SOL    HW119286   1.953   5.888   2.747
 6129SOL    HW219287   1.799   5.891   2.802
 6130SOL     OW19288   0.054   2.429   6.571
 6130SOL    HW119289   0.131   2.365   6.575
 6130SOL    HW219290   0.007   2.431   6.659
 6131SOL     OW19291   6.263   3.073   2.648
 6131SOL    HW119292   6.166   3.051   2.658
 6131SOL    HW219293   6.273   3.162   2.603
 6132SOL     OW19294   4.503   5.762   6.332
 6132SOL    HW119295   4.512   5.728   6.239
 6132SOL    HW219296   4.413   5.736   6.369
 6133SOL     OW19297   0.105   2.271   3.557
 6133SOL    HW119298   0.157   2.317   3.629
 6133SOL    HW219299   0.060   2.191   3.595
 6134SOL     OW19300   0.998   7.007   5.053
 6134SOL    HW119301   0.926   6.957   5.006
 6134SOL    HW219302   0.961   0.025   5.135
 6135SOL     OW19303   5.933   6.517   6.572
 6135SOL    HW119304   5.894   6.609   6.575
 6135SOL    HW219305   5.865   6.453   6.538
 6136SOL     OW19306   1.213   2.023   2.662
 6136SOL    HW119307   1.113   2.028   2.651
 6136SOL    HW219308   1.247   2.111   2.695
 6137SOL     OW19309   6.871   4.565   1.670
 6137SOL    HW119310   6.931   4.486   1.653
 6137SOL    HW219311   6.900   4.612   1.753
 6138SOL     OW19312   4.871   0.710   2.302
 6138SOL    HW119313   4.833   0.803   2.303
 6138SOL    HW219314   4.807   0.648   2.348
 6139SOL     OW19315   1.630   1.796   5.603
 6139SOL    HW119316   1.573   1.856   5.548
 6139SOL    HW219317   1.689   1.742   5.543
 6140SOL     OW19318   2.691   0.880   4.070
 6140SOL    HW119319   2.596   0.852   4.085
 6140SOL    HW219320   2.693   0.973   4.032
 6141SOL     OW19321   0.405   0.731   0.875
 6141SOL    HW119322   0.386   0.826   0.900
 6141SOL    HW219323   0.415   0.676   0.958
 6142SOL     OW19324   0.607   0.012   1.623
 6142SOL    HW119325   0.701   7.012   1.602
 6142SOL    HW219326   0.576   6.986   1.703
 6143SOL     OW19327   2.256   3.379   5.679
 6143SOL    HW119328   2.350   3.412   5.674
 6143SOL    HW219329   2.255   3.280   5.695
 6144SOL     OW19330   3.207   6.000   2.426
 6144SOL    HW119331   3.233   6.010   2.522
 6144SOL    HW219332   3.111   6.025   2.415
 6145SOL     OW19333   5.559   3.462   4.614
 6145SOL    HW119334   5.569   3.370   4.652
 6145SOL    HW219335   5.565   3.529   4.688
 6146SOL     OW19336   6.131   1.836   5.701
 6146SOL    HW119337   6.088   1.799   5.784
 6146SOL    HW219338   6.097   1.928   5.684
 6147SOL     OW19339   1.675   1.978   5.291
 6147SOL    HW119340   1.682   2.031   5.206
 6147SOL    HW219341   1.616   2.027   5.356
 6148SOL     OW19342   3.536   5.622   6.035
 6148SOL    HW119343   3.579   5.691   5.976
 6148SOL    HW219344   3.438   5.617   6.015
 6149SOL     OW19345   4.113   1.906   1.969
 6149SOL    HW119346   4.092   1.826   2.025
 6149SOL    HW219347   4.088   1.888   1.874
 6150SOL     OW19348   0.159   5.541   4.304
 6150SOL    HW119349   0.139   5.633   4.270
 6150SOL    HW219350   0.233   5.501   4.249
 6151SOL     OW19351   3.646   5.847   2.527
 6151SOL    HW119352   3.550   5.819   2.534
 6151SOL    HW219353   3.704   5.774   2.563
 6152SOL     OW19354   0.781   4.275   2.929
 6152SOL    HW119355   0.697   4.292   2.979
 6152SOL    HW219356   0.783   4.180   2.898
 6153SOL     OW19357   6.171   6.146   2.066
 6153SOL    HW119358   6.242   6.096   2.016
 6153SOL    HW219359   6.212   6.194   2.143
 6154SOL     OW19360   4.134   5.456   3.097
 6154SOL    HW119361   4.145   5.362   3.129
 6154SOL    HW219362   4.161   5.463   3.001
 6155SOL     OW19363   1.795   1.098   4.067
 6155SOL    HW119364   1.752   1.064   3.984
 6155SOL    HW219365   1.818   1.195   4.056
 6156SOL     OW19366   4.844   3.951   2.913
 6156SOL    HW119367   4.893   4.028   2.953
 6156SOL    HW219368   4.798   3.982   2.829
 6157SOL     OW19369   0.462   2.475   1.731
 6157SOL    HW119370   0.526   2.477   1.808
 6157SOL    HW219371   0.404   2.393   1.738
 6158SOL     OW19372   2.975   0.657   6.898
 6158SOL    HW119373   3.059   0.649   6.845
 6158SOL    HW219374   2.991   0.718   6.976
 6159SOL     OW19375   6.510   1.377   0.629
 6159SOL    HW119376   6.444   1.335   0.691
 6159SOL    HW219377   6.557   1.452   0.676
 6160SOL     OW19378   1.757   0.406   0.748
 6160SOL    HW119379   1.854   0.429   0.748
 6160SOL    HW219380   1.708   0.473   0.691
 6161SOL     OW19381   6.059   4.287   6.923
 6161SOL    HW119382   5.984   4.328   6.975
 6161SOL    HW219383   6.094   4.207   6.973
 6162SOL     OW19384   5.891   5.621   1.161
 6162SOL    HW119385   5.846   5.543   1.118
 6162SOL    HW219386   5.890   5.699   1.098
 6163SOL     OW19387   5.172   5.716   2.408
 6163SOL    HW119388   5.089   5.696   2.356
 6163SOL    HW219389   5.165   5.808   2.446
 6164SOL     OW19390   3.648   3.303   4.860
 6164SOL    HW119391   3.727   3.349   4.819
 6164SOL    HW219392   3.634   3.215   4.814
 6165SOL     OW19393   3.525   0.657   6.442
 6165SOL    HW119394   3.510   0.568   6.399
 6165SOL    HW219395   3.493   0.655   6.537
 6166SOL     OW19396   2.871   1.160   5.948
 6166SOL    HW119397   2.872   1.254   5.982
 6166SOL    HW219398   2.899   1.098   6.021
 6167SOL     OW19399   1.846   3.252   2.383
 6167SOL    HW119400   1.940   3.238   2.353
 6167SOL    HW219401   1.786   3.186   2.337
 6168SOL     OW19402   1.377   4.125   3.723
 6168SOL    HW119403   1.343   4.065   3.651
 6168SOL    HW219404   1.406   4.070   3.801
 6169SOL     OW19405   2.605   0.614   0.985
 6169SOL    HW119406   2.635   0.686   1.048
 6169SOL    HW219407   2.661   0.617   0.903
 6170SOL     OW19408   2.599   4.953   0.806
 6170SOL    HW119409   2.647   5.040   0.813
 6170SOL    HW219410   2.595   4.924   0.710
 6171SOL     OW19411   2.256   4.066   2.379
 6171SOL    HW119412   2.283   4.147   2.432
 6171SOL    HW219413   2.251   3.987   2.441
 6172SOL     OW19414   2.066   4.709   1.884
 6172SOL    HW119415   2.110   4.634   1.835
 6172SOL    HW219416   2.105   4.717   1.975
 6173SOL     OW19417   1.080   5.660   3.051
 6173SOL    HW119418   1.011   5.617   2.993
 6173SOL    HW219419   1.116   5.742   3.006
 6174SOL     OW19420   5.637   4.338   1.422
 6174SOL    HW119421   5.684   4.424   1.439
 6174SOL    HW219422   5.704   4.264   1.415
 6175SOL     OW19423   5.229   0.541   3.788
 6175SOL    HW119424   5.321   0.508   3.809
 6175SOL    HW219425   5.161   0.476   3.821
 6176SOL     OW19426   6.289   3.545   0.321
 6176SOL    HW119427   6.344   3.467   0.353
 6176SOL    HW219428   6.244   3.521   0.235
 6177SOL     OW19429   5.417   2.894   2.987
 6177SOL    HW119430   5.465   2.952   2.921
 6177SOL    HW219431   5.449   2.915   3.079
 6178SOL     OW19432   0.252   4.402   1.437
 6178SOL    HW119433   0.188   4.478   1.421
 6178SOL    HW219434   0.216   4.343   1.510
 6179SOL     OW19435   6.997   1.443   5.596
 6179SOL    HW119436   6.987   1.460   5.694
 6179SOL    HW219437   6.918   1.391   5.563
 6180SOL     OW19438   2.659   0.804   0.065
 6180SOL    HW119439   2.690   0.751   0.144
 6180SOL    HW219440   2.616   0.743   7.024
 6181SOL     OW19441   4.484   6.778   6.195
 6181SOL    HW119442   4.410   6.780   6.261
 6181SOL    HW219443   4.556   6.841   6.223
 6182SOL     OW19444   4.800   6.856   4.947
 6182SOL    HW119445   4.850   6.893   4.868
 6182SOL    HW219446   4.855   6.868   5.030
 6183SOL     OW19447   2.050   6.527   2.592
 6183SOL    HW119448   2.106   6.455   2.632
 6183SOL    HW219449   1.960   6.491   2.569
 6184SOL     OW19450   0.048   0.330   5.336
 6184SOL    HW119451   7.003   0.334   5.407
 6184SOL    HW219452   0.016   0.274   5.260
 6185SOL     OW19453   2.339   2.621   0.482
 6185SOL    HW119454   2.296   2.712   0.479
 6185SOL    HW219455   2.417   2.619   0.420
 6186SOL     OW19456   4.062   1.519   3.917
 6186SOL    HW119457   4.054   1.474   4.006
 6186SOL    HW219458   4.159   1.534   3.896
 6187SOL     OW19459   3.102   4.888   4.714
 6187SOL    HW119460   3.187   4.836   4.705
 6187SOL    HW219461   3.101   4.962   4.648
 6188SOL     OW19462   2.392   0.242   2.335
 6188SOL    HW119463   2.360   0.288   2.252
 6188SOL    HW219464   2.491   0.246   2.339
 6189SOL     OW19465   5.772   5.117   3.128
 6189SOL    HW119466   5.704   5.125   3.202
 6189SOL    HW219467   5.860   5.153   3.160
 6190SOL     OW19468   5.160   3.495   5.886
 6190SOL    HW119469   5.066   3.530   5.880
 6190SOL    HW219470   5.160   3.407   5.933
 6191SOL     OW19471   0.072   1.157   6.455
 6191SOL    HW119472   0.153   1.125   6.502
 6191SOL    HW219473   7.025   1.176   6.521
 6192SOL     OW19474   3.147   1.575   0.231
 6192SOL    HW119475   3.188   1.658   0.269
 6192SOL    HW219476   3.048   1.582   0.237
 6193SOL     OW19477   0.170   6.549   1.275
 6193SOL    HW119478   0.124   6.468   1.313
 6193SOL    HW219479   0.248   6.520   1.219
 6194SOL     OW19480   2.984   0.548   1.055
 6194SOL    HW119481   3.009   0.645   1.063
 6194SOL    HW219482   2.897   0.539   1.006
 6195SOL     OW19483   2.425   0.286   5.309
 6195SOL    HW119484   2.517   0.322   5.291
 6195SOL    HW219485   2.403   0.216   5.242
 6196SOL     OW19486   1.396   1.964   5.728
 6196SOL    HW119487   1.461   2.030   5.767
 6196SOL    HW219488   1.443   1.876   5.715
 6197SOL     OW19489   2.422   2.584   2.271
 6197SOL    HW119490   2.405   2.545   2.362
 6197SOL    HW219491   2.518   2.613   2.266
 6198SOL     OW19492   3.159   5.307   2.046
 6198SOL    HW119493   3.130   5.394   2.006
 6198SOL    HW219494   3.206   5.253   1.976
 6199SOL     OW19495   0.058   0.641   6.471
 6199SOL    HW119496   7.001   0.664   6.418
 6199SOL    HW219497   0.057   0.692   6.557
 6200SOL     OW19498   4.398   0.631   5.594
 6200SOL    HW119499   4.299   0.634   5.612
 6200SOL    HW219500   4.420   0.546   5.546
 6201SOL     OW19501   2.709   5.189   4.906
 6201SOL    HW119502   2.719   5.289   4.907
 6201SOL    HW219503   2.618   5.165   4.941
 6202SOL     OW19504   1.590   2.335   1.366
 6202SOL    HW119505   1.626   2.424   1.337
 6202SOL    HW219506   1.647   2.262   1.328
 6203SOL     OW19507   5.921   2.385   4.847
 6203SOL    HW119508   5.947   2.296   4.883
 6203SOL    HW219509   5.993   2.420   4.788
 6204SOL     OW19510   1.197   6.729   5.371
 6204SOL    HW119511   1.282   6.775   5.397
 6204SOL    HW219512   1.166   6.765   5.283
 6205SOL     OW19513   4.330   0.094   6.950
 6205SOL    HW119514   4.302   0.159   6.880
 6205SOL    HW219515   4.428   0.075   6.942
 6206SOL     OW19516   4.552   6.753   3.877
 6206SOL    HW119517   4.642   6.796   3.881
 6206SOL    HW219518   4.506   6.778   3.792
 6207SOL     OW19519   2.455   4.746   4.420
 6207SOL    HW119520   2.515   4.819   4.452
 6207SOL    HW219521   2.417   4.772   4.331
 6208SOL     OW19522   5.791   4.534   5.150
 6208SOL    HW119523   5.812   4.453   5.095
 6208SOL    HW219524   5.762   4.609   5.090
 6209SOL     OW19525   0.732   5.961   0.845
 6209SOL    HW119526   0.736   6.036   0.911
 6209SOL    HW219527   0.825   5.930   0.825
 6210SOL     OW19528   0.655   3.953   3.817
 6210SOL    HW119529   0.731   3.891   3.838
 6210SOL    HW219530   0.677   4.006   3.735
 6211SOL     OW19531   2.358   0.466   5.104
 6211SOL    HW119532   2.305   0.429   5.028
 6211SOL    HW219533   2.350   0.405   5.183
 6212SOL     OW19534   0.030   0.866   4.181
 6212SOL    HW119535   7.017   0.904   4.097
 6212SOL    HW219536   7.012   0.910   4.260
 6213SOL     OW19537   6.471   6.861   0.342
 6213SOL    HW119538   6.435   6.939   0.290
 6213SOL    HW219539   6.403   6.788   0.342
 6214SOL     OW19540   4.922   4.375   1.928
 6214SOL    HW119541   4.894   4.282   1.952
 6214SOL    HW219542   4.983   4.372   1.849
 6215SOL     OW19543   3.647   3.852   1.475
 6215SOL    HW119544   3.550   3.839   1.458
 6215SOL    HW219545   3.664   3.856   1.573
 6216SOL     OW19546   6.129   1.847   2.324
 6216SOL    HW119547   6.045   1.851   2.271
 6216SOL    HW219548   6.197   1.908   2.283
 6217SOL     OW19549   3.884   1.395   1.442
 6217SOL    HW119550   3.847   1.343   1.519
 6217SOL    HW219551   3.980   1.371   1.429
 6218SOL     OW19552   4.453   6.093   5.082
 6218SOL    HW119553   4.528   6.158   5.088
 6218SOL    HW219554   4.474   6.022   5.014
 6219SOL     OW19555   0.379   0.852   4.518
 6219SOL    HW119556   0.328   0.858   4.432
 6219SOL    HW219557   0.451   0.782   4.509
 6220SOL     OW19558   1.294   3.530   5.111
 6220SOL    HW119559   1.332   3.460   5.171
 6220SOL    HW219560   1.195   3.515   5.101
 6221SOL     OW19561   4.556   4.415   4.133
 6221SOL    HW119562   4.556   4.461   4.222
 6221SOL    HW219563   4.597   4.325   4.142
 6222SOL     OW19564   7.019   1.764   1.396
 6222SOL    HW119565   6.990   1.764   1.300
 6222SOL    HW219566   6.938   1.766   1.455
 6223SOL     OW19567   4.962   5.034   3.356
 6223SOL    HW119568   5.032   5.039   3.428
 6223SOL    HW219569   4.966   4.945   3.312
 6224SOL     OW19570   2.837   0.113   4.637
 6224SOL    HW119571   2.828   0.187   4.704
 6224SOL    HW219572   2.930   0.113   4.600
 6225SOL     OW19573   3.601   2.117   6.329
 6225SOL    HW119574   3.628   2.132   6.424
 6225SOL    HW219575   3.673   2.065   6.282
 6226SOL     OW19576   0.266   6.065   3.883
 6226SOL    HW119577   0.257   6.090   3.980
 6226SOL    HW219578   0.282   5.967   3.876
 6227SOL     OW19579   3.004   4.497   7.021
 6227SOL    HW119580   2.965   4.406   0.017
 6227SOL    HW219581   2.949   4.541   6.950
 6228SOL     OW19582   6.931   2.564   3.057
 6228SOL    HW119583   6.986   2.617   3.120
 6228SOL    HW219584   6.932   2.607   2.967
 6229SOL     OW19585   1.390   2.158   2.382
 6229SOL    HW119586   1.399   2.193   2.475
 6229SOL    HW219587   1.445   2.075   2.372
 6230SOL     OW19588   1.716   2.413   4.056
 6230SOL    HW119589   1.774   2.460   4.122
 6230SOL    HW219590   1.747   2.436   3.963
 6231SOL     OW19591   6.844   4.467   2.699
 6231SOL    HW119592   6.764   4.421   2.739
 6231SOL    HW219593   6.917   4.400   2.684
 6232SOL     OW19594   0.849   0.884   6.982
 6232SOL    HW119595   0.805   0.811   6.930
 6232SOL    HW219596   0.782   0.929   0.015
 6233SOL     OW19597   4.183   0.820   6.241
 6233SOL    HW119598   4.084   0.820   6.254
 6233SOL    HW219599   4.211   0.732   6.202
 6234SOL     OW19600   2.692   1.982   4.314
 6234SOL    HW119601   2.679   2.043   4.236
 6234SOL    HW219602   2.626   1.907   4.309
 6235SOL     OW19603   1.533   5.113   1.648
 6235SOL    HW119604   1.602   5.046   1.672
 6235SOL    HW219605   1.543   5.138   1.552
 6236SOL     OW19606   6.680   4.092   0.073
 6236SOL    HW119607   6.736   4.131   7.025
 6236SOL    HW219608   6.584   4.109   0.054
 6237SOL     OW19609   3.384   6.535   5.945
 6237SOL    HW119610   3.409   6.562   6.038
 6237SOL    HW219611   3.406   6.610   5.882
 6238SOL     OW19612   5.418   3.237   1.144
 6238SOL    HW119613   5.450   3.326   1.111
 6238SOL    HW219614   5.437   3.167   1.075
 6239SOL     OW19615   3.766   6.081   4.799
 6239SOL    HW119616   3.716   5.997   4.777
 6239SOL    HW219617   3.815   6.068   4.886
 6240SOL     OW19618   2.577   4.489   6.917
 6240SOL    HW119619   2.501   4.433   6.886
 6240SOL    HW219620   2.661   4.461   6.870
 6241SOL     OW19621   3.957   6.561   2.776
 6241SOL    HW119622   3.884   6.596   2.835
 6241SOL    HW219623   4.022   6.508   2.831
 6242SOL     OW19624   3.416   1.762   2.618
 6242SOL    HW119625   3.402   1.672   2.576
 6242SOL    HW219626   3.427   1.752   2.717
 6243SOL     OW19627   6.072   5.880   3.034
 6243SOL    HW119628   6.087   5.978   3.047
 6243SOL    HW219629   6.022   5.843   3.112
 6244SOL     OW19630   1.112   1.720   1.314
 6244SOL    HW119631   1.070   1.792   1.368
 6244SOL    HW219632   1.205   1.746   1.287
 6245SOL     OW19633   2.764   3.219   0.327
 6245SOL    HW119634   2.707   3.226   0.409
 6245SOL    HW219635   2.772   3.124   0.300
 6246SOL     OW19636   3.770   6.544   0.072
 6246SOL    HW119637   3.794   6.621   0.014
 6246SOL    HW219638   3.838   6.535   0.145
 6247SOL     OW19639   6.492   0.033   2.581
 6247SOL    HW119640   6.519   0.129   2.575
 6247SOL    HW219641   6.554   7.009   2.641
 6248SOL     OW19642   1.436   5.436   0.801
 6248SOL    HW119643   1.496   5.377   0.747
 6248SOL    HW219644   1.363   5.472   0.742
 6249SOL     OW19645   6.541   3.474   5.990
 6249SOL    HW119646   6.516   3.493   6.085
 6249SOL    HW219647   6.458   3.462   5.936
 6250SOL     OW19648   6.823   4.440   6.387
 6250SOL    HW119649   6.730   4.412   6.407
 6250SOL    HW219650   6.877   4.441   6.471
 6251SOL     OW19651   5.082   1.026   7.009
 6251SOL    HW119652   4.984   1.003   7.014
 6251SOL    HW219653   5.114   1.016   6.915
 6252SOL     OW19654   2.080   6.915   5.776
 6252SOL    HW119655   2.045   7.005   5.748
 6252SOL    HW219656   2.174   6.924   5.809
 6253SOL     OW19657   2.618   3.302   0.877
 6253SOL    HW119658   2.528   3.342   0.858
 6253SOL    HW219659   2.614   3.203   0.866
 6254SOL     OW19660   5.845   0.135   0.226
 6254SOL    HW119661   5.792   0.052   0.241
 6254SOL    HW219662   5.943   0.113   0.230
 6255SOL     OW19663   1.161   3.297   2.658
 6255SOL    HW119664   1.069   3.276   2.623
 6255SOL    HW219665   1.224   3.307   2.581
 6256SOL     OW19666   4.741   5.211   4.248
 6256SOL    HW119667   4.715   5.122   4.211
 6256SOL    HW219668   4.686   5.229   4.330
 6257SOL     OW19669   3.663   2.787   6.574
 6257SOL    HW119670   3.585   2.832   6.619
 6257SOL    HW219671   3.657   2.801   6.476
 6258SOL     OW19672   4.765   2.153   3.316
 6258SOL    HW119673   4.859   2.176   3.340
 6258SOL    HW219674   4.764   2.108   3.226
 6259SOL     OW19675   3.054   2.314   1.612
 6259SOL    HW119676   3.148   2.291   1.637
 6259SOL    HW219677   2.990   2.259   1.667
 6260SOL     OW19678   4.027   3.960   1.964
 6260SOL    HW119679   4.115   4.007   1.972
 6260SOL    HW219680   3.958   4.008   2.019
 6261SOL     OW19681   4.765   6.771   6.479
 6261SOL    HW119682   4.742   6.763   6.576
 6261SOL    HW219683   4.755   6.682   6.435
 6262SOL     OW19684   0.565   6.112   5.119
 6262SOL    HW119685   0.499   6.157   5.059
 6262SOL    HW219686   0.520   6.083   5.203
 6263SOL     OW19687   6.743   0.410   1.480
 6263SOL    HW119688   6.826   0.372   1.523
 6263SOL    HW219689   6.764   0.435   1.386
 6264SOL     OW19690   2.796   0.593   0.801
 6264SOL    HW119691   2.870   0.572   0.738
 6264SOL    HW219692   2.746   0.674   0.768
 6265SOL     OW19693   6.602   4.331   0.376
 6265SOL    HW119694   6.657   4.264   0.327
 6265SOL    HW219695   6.653   4.417   0.384
 6266SOL     OW19696   2.555   6.902   2.508
 6266SOL    HW119697   2.562   6.904   2.409
 6266SOL    HW219698   2.461   6.923   2.536
 6267SOL     OW19699   3.289   6.578   6.791
 6267SOL    HW119700   3.309   6.608   6.884
 6267SOL    HW219701   3.280   6.479   6.789
 6268SOL     OW19702   2.356   6.091   2.695
 6268SOL    HW119703   2.433   6.065   2.637
 6268SOL    HW219704   2.359   6.040   2.781
 6269SOL     OW19705   0.162   4.705   6.305
 6269SOL    HW119706   0.176   4.713   6.206
 6269SOL    HW219707   0.169   4.609   6.332
 6270SOL     OW19708   1.084   1.337   3.826
 6270SOL    HW119709   1.005   1.380   3.783
 6270SOL    HW219710   1.059   1.306   3.918
 6271SOL     OW19711   5.611   2.392   1.157
 6271SOL    HW119712   5.681   2.349   1.214
 6271SOL    HW219713   5.523   2.388   1.203
 6272SOL     OW19714   3.294   2.082   3.878
 6272SOL    HW119715   3.257   1.990   3.876
 6272SOL    HW219716   3.371   2.089   3.814
 6273SOL     OW19717   4.386   1.681   2.303
 6273SOL    HW119718   4.469   1.711   2.350
 6273SOL    HW219719   4.350   1.599   2.347
 6274SOL     OW19720   3.398   5.762   6.674
 6274SOL    HW119721   3.319   5.804   6.631
 6274SOL    HW219722   3.397   5.782   6.772
 6275SOL     OW19723   3.438   1.092   3.898
 6275SOL    HW119724   3.521   1.055   3.940
 6275SOL    HW219725   3.389   1.150   3.964
 6276SOL     OW19726   0.648   5.640   3.698
 6276SOL    HW119727   0.648   5.541   3.707
 6276SOL    HW219728   0.734   5.670   3.657
 6277SOL     OW19729   5.817   3.435   4.432
 6277SOL    HW119730   5.730   3.411   4.475
 6277SOL    HW219731   5.885   3.364   4.453
 6278SOL     OW19732   4.287   0.979   3.166
 6278SOL    HW119733   4.228   1.060   3.162
 6278SOL    HW219734   4.259   0.920   3.241
 6279SOL     OW19735   3.581   2.128   5.562
 6279SOL    HW119736   3.625   2.155   5.477
 6279SOL    HW219737   3.504   2.188   5.582
 6280SOL     OW19738   1.810   5.261   4.613
 6280SOL    HW119739   1.906   5.283   4.601
 6280SOL    HW219740   1.791   5.245   4.710
 6281SOL     OW19741   3.227   6.419   4.591
 6281SOL    HW119742   3.252   6.398   4.686
 6281SOL    HW219743   3.251   6.513   4.571
 6282SOL     OW19744   0.630   6.579   4.107
 6282SOL    HW119745   0.711   6.524   4.124
 6282SOL    HW219746   0.647   6.674   4.132
 6283SOL     OW19747   1.170   3.236   4.937
 6283SOL    HW119748   1.217   3.287   4.866
 6283SOL    HW219749   1.188   3.138   4.925
 6284SOL     OW19750   3.050   4.842   0.599
 6284SOL    HW119751   2.994   4.832   0.516
 6284SOL    HW219752   3.139   4.799   0.584
 6285SOL     OW19753   2.050   3.111   2.681
 6285SOL    HW119754   2.113   3.142   2.610
 6285SOL    HW219755   2.093   3.041   2.736
 6286SOL     OW19756   0.246   6.274   3.349
 6286SOL    HW119757   0.316   6.262   3.278
 6286SOL    HW219758   0.290   6.291   3.437
 6287SOL     OW19759   3.424   4.928   3.098
 6287SOL    HW119760   3.370   4.925   3.182
 6287SOL    HW219761   3.521   4.923   3.120
 6288SOL     OW19762   6.902   3.977   1.536
 6288SOL    HW119763   6.963   4.055   1.544
 6288SOL    HW219764   6.931   3.905   1.599
 6289SOL     OW19765   0.142   6.973   2.580
 6289SOL    HW119766   0.061   7.021   2.613
 6289SOL    HW219767   0.125   6.938   2.488
 6290SOL     OW19768   5.284   3.003   3.595
 6290SOL    HW119769   5.234   3.066   3.654
 6290SOL    HW219770   5.379   3.033   3.586
 6291SOL     OW19771   3.670   4.122   4.209
 6291SOL    HW119772   3.740   4.115   4.280
 6291SOL    HW219773   3.613   4.041   4.210
 6292SOL     OW19774   5.828   1.157   1.023
 6292SOL    HW119775   5.848   1.101   0.943
 6292SOL    HW219776   5.774   1.236   0.995
 6293SOL     OW19777   6.004   3.826   5.345
 6293SOL    HW119778   6.092   3.840   5.390
 6293SOL    HW219779   5.937   3.892   5.381
 6294SOL     OW19780   2.941   5.696   1.003
 6294SOL    HW119781   3.035   5.687   1.035
 6294SOL    HW219782   2.902   5.781   1.038
 6295SOL     OW19783   6.294   5.463   6.940
 6295SOL    HW119784   6.358   5.533   6.911
 6295SOL    HW219785   6.253   5.489   0.002
 6296SOL     OW19786   5.826   2.486   3.752
 6296SOL    HW119787   5.789   2.414   3.693
 6296SOL    HW219788   5.823   2.574   3.705
 6297SOL     OW19789   5.504   3.240   6.662
 6297SOL    HW119790   5.503   3.273   6.756
 6297SOL    HW219791   5.523   3.317   6.600
 6298SOL     OW19792   6.292   2.896   4.755
 6298SOL    HW119793   6.348   2.947   4.689
 6298SOL    HW219794   6.215   2.854   4.707
 6299SOL     OW19795   0.254   1.675   6.779
 6299SOL    HW119796   0.209   1.681   6.690
 6299SOL    HW219797   0.202   1.615   6.839
 6300SOL     OW19798   5.024   1.650   3.369
 6300SOL    HW119799   4.933   1.690   3.354
 6300SOL    HW219800   5.061   1.618   3.282
 6301SOL     OW19801   3.038   6.487   0.883
 6301SOL    HW119802   3.036   6.514   0.787
 6301SOL    HW219803   2.999   6.395   0.893
 6302SOL     OW19804   6.009   1.040   3.084
 6302SOL    HW119805   6.036   1.136   3.087
 6302SOL    HW219806   6.087   0.984   3.055
 6303SOL     OW19807   2.007   5.448   4.874
 6303SOL    HW119808   2.066   5.377   4.913
 6303SOL    HW219809   2.050   5.538   4.888
 6304SOL     OW19810   4.656   0.357   5.008
 6304SOL    HW119811   4.638   0.436   5.067
 6304SOL    HW219812   4.610   0.370   4.920
 6305SOL     OW19813   4.979   0.039   2.824
 6305SOL    HW119814   5.009   6.972   2.803
 6305SOL    HW219815   4.881   0.038   2.847
 6306SOL     OW19816   6.185   2.205   4.575
 6306SOL    HW119817   6.130   2.268   4.630
 6306SOL    HW219818   6.165   2.218   4.478
 6307SOL     OW19819   1.895   3.971   0.997
 6307SOL    HW119820   1.853   3.979   1.087
 6307SOL    HW219821   1.884   3.877   0.963
 6308SOL     OW19822   3.663   2.502   6.602
 6308SOL    HW119823   3.643   2.583   6.657
 6308SOL    HW219824   3.699   2.430   6.661
 6309SOL     OW19825   6.158   2.409   5.161
 6309SOL    HW119826   6.144   2.489   5.220
 6309SOL    HW219827   6.130   2.326   5.210
 6310SOL     OW19828   0.503   5.676   5.192
 6310SOL    HW119829   0.512   5.700   5.095
 6310SOL    HW219830   0.558   5.738   5.247
 6311SOL     OW19831   6.198   0.197   4.995
 6311SOL    HW119832   6.228   0.141   4.917
 6311SOL    HW219833   6.213   0.146   5.080
 6312SOL     OW19834   5.824   3.607   5.432
 6312SOL    HW119835   5.830   3.509   5.414
 6312SOL    HW219836   5.859   3.658   5.354
 6313SOL     OW19837   2.970   5.734   3.775
 6313SOL    HW119838   2.980   5.637   3.797
 6313SOL    HW219839   2.911   5.778   3.843
 6314SOL     OW19840   0.955   0.219   3.542
 6314SOL    HW119841   0.927   0.314   3.537
 6314SOL    HW219842   1.012   0.196   3.463
 6315SOL     OW19843   1.258   3.674   0.603
 6315SOL    HW119844   1.278   3.581   0.635
 6315SOL    HW219845   1.203   3.721   0.672
 6316SOL     OW19846   4.416   1.003   4.746
 6316SOL    HW119847   4.379   0.948   4.671
 6316SOL    HW219848   4.420   0.948   4.829
 6317SOL     OW19849   6.799   5.784   4.120
 6317SOL    HW119850   6.866   5.857   4.108
 6317SOL    HW219851   6.715   5.821   4.160
 6318SOL     OW19852   1.180   3.122   3.772
 6318SOL    HW119853   1.276   3.102   3.752
 6318SOL    HW219854   1.124   3.043   3.746
 6319SOL     OW19855   1.466   2.215   2.918
 6319SOL    HW119856   1.490   2.272   2.997
 6319SOL    HW219857   1.374   2.178   2.931
 6320SOL     OW19858   0.133   1.882   2.016
 6320SOL    HW119859   0.227   1.857   2.041
 6320SOL    HW219860   0.100   1.953   2.077
 6321SOL     OW19861   2.470   3.905   5.594
 6321SOL    HW119862   2.560   3.936   5.625
 6321SOL    HW219863   2.469   3.905   5.494
 6322SOL     OW19864   2.076   6.739   0.714
 6322SOL    HW119865   1.980   6.758   0.736
 6322SOL    HW219866   2.126   6.723   0.799
 6323SOL     OW19867   4.028   2.045   1.504
 6323SOL    HW119868   4.071   1.968   1.457
 6323SOL    HW219869   4.065   2.052   1.597
 6324SOL     OW19870   2.943   1.756   1.939
 6324SOL    HW119871   3.035   1.748   1.899
 6324SOL    HW219872   2.911   1.850   1.930
 6325SOL     OW19873   2.002   2.804   3.223
 6325SOL    HW119874   1.932   2.739   3.251
 6325SOL    HW219875   1.964   2.866   3.154
 6326SOL     OW19876   4.458   6.042   1.560
 6326SOL    HW119877   4.385   6.013   1.622
 6326SOL    HW219878   4.499   5.962   1.517
 6327SOL     OW19879   4.233   5.086   5.378
 6327SOL    HW119880   4.207   5.162   5.437
 6327SOL    HW219881   4.194   5.100   5.287
 6328SOL     OW19882   2.569   4.099   0.984
 6328SOL    HW119883   2.610   4.187   1.008
 6328SOL    HW219884   2.518   4.064   1.063
 6329SOL     OW19885   0.875   2.245   3.181
 6329SOL    HW119886   0.896   2.339   3.156
 6329SOL    HW219887   0.927   2.182   3.122
 6330SOL     OW19888   3.191   0.543   6.723
 6330SOL    HW119889   3.227   0.450   6.714
 6330SOL    HW219890   3.264   0.609   6.711
 6331SOL     OW19891   6.097   2.412   1.231
 6331SOL    HW119892   6.025   2.389   1.296
 6331SOL    HW219893   6.174   2.454   1.279
 6332SOL     OW19894   3.918   6.461   2.548
 6332SOL    HW119895   3.923   6.362   2.554
 6332SOL    HW219896   3.957   6.502   2.631
 6333SOL     OW19897   2.084   5.414   2.516
 6333SOL    HW119898   1.994   5.440   2.481
 6333SOL    HW219899   2.150   5.415   2.442
 6334SOL     OW19900   2.266   7.004   1.816
 6334SOL    HW119901   2.275   6.997   1.717
 6334SOL    HW219902   2.353   0.008   1.856
 6335SOL     OW19903   6.367   0.422   0.100
 6335SOL    HW119904   6.438   0.488   0.076
 6335SOL    HW219905   6.363   0.412   0.199
 6336SOL     OW19906   1.908   2.934   5.226
 6336SOL    HW119907   1.858   2.851   5.201
 6336SOL    HW219908   1.929   2.986   5.144
 6337SOL     OW19909   1.340   4.022   5.449
 6337SOL    HW119910   1.339   3.925   5.473
 6337SOL    HW219911   1.396   4.035   5.368
 6338SOL     OW19912   4.119   1.053   3.538
 6338SOL    HW119913   4.084   0.978   3.483
 6338SOL    HW219914   4.191   1.019   3.600
 6339SOL     OW19915   6.765   3.276   4.647
 6339SOL    HW119916   6.744   3.179   4.650
 6339SOL    HW219917   6.842   3.293   4.586
 6340SOL     OW19918   3.563   4.923   3.826
 6340SOL    HW119919   3.637   4.899   3.763
 6340SOL    HW219920   3.596   4.989   3.893
 6341SOL     OW19921   5.357   4.791   1.801
 6341SOL    HW119922   5.413   4.859   1.847
 6341SOL    HW219923   5.416   4.727   1.752
 6342SOL     OW19924   0.448   3.642   0.582
 6342SOL    HW119925   0.382   3.717   0.590
 6342SOL    HW219926   0.460   3.598   0.671
 6343SOL     OW19927   3.538   1.321   0.005
 6343SOL    HW119928   3.574   1.387   6.963
 6343SOL    HW219929   3.484   1.370   0.073
 6344SOL     OW19930   5.956   5.503   4.368
 6344SOL    HW119931   5.924   5.485   4.461
 6344SOL    HW219932   6.054   5.519   4.369
 6345SOL     OW19933   1.680   2.155   1.635
 6345SOL    HW119934   1.671   2.178   1.538
 6345SOL    HW219935   1.590   2.133   1.673
 6346SOL     OW19936   1.289   4.497   4.474
 6346SOL    HW119937   1.230   4.482   4.554
 6346SOL    HW219938   1.368   4.552   4.500
 6347SOL     OW19939   3.270   0.162   0.157
 6347SOL    HW119940   3.345   0.110   0.116
 6347SOL    HW219941   3.231   0.110   0.233
 6348SOL     OW19942   0.005   2.319   4.599
 6348SOL    HW119943   6.960   2.260   4.559
 6348SOL    HW219944   7.007   2.340   4.694
 6349SOL     OW19945   0.529   1.022   6.823
 6349SOL    HW119946   0.525   1.107   6.876
 6349SOL    HW219947   0.526   0.944   6.886
 6350SOL     OW19948   0.118   5.388   3.491
 6350SOL    HW119949   0.169   5.473   3.505
 6350SOL    HW219950   0.020   5.406   3.503
 6351SOL     OW19951   6.944   2.010   2.482
 6351SOL    HW119952   6.984   1.985   2.394
 6351SOL    HW219953   6.860   1.958   2.497
 6352SOL     OW19954   6.065   4.390   2.370
 6352SOL    HW119955   5.990   4.408   2.434
 6352SOL    HW219956   6.055   4.449   2.290
 6353SOL     OW19957   6.035   0.166   2.553
 6353SOL    HW119958   5.962   0.162   2.622
 6353SOL    HW219959   6.006   0.224   2.477
 6354SOL     OW19960   6.411   6.546   5.351
 6354SOL    HW119961   6.346   6.570   5.423
 6354SOL    HW219962   6.504   6.564   5.383
 6355SOL     OW19963   0.562   1.523   0.556
 6355SOL    HW119964   0.508   1.601   0.589
 6355SOL    HW219965   0.588   1.539   0.461
 6356SOL     OW19966   2.972   3.715   1.408
 6356SOL    HW119967   3.009   3.692   1.318
 6356SOL    HW219968   3.037   3.774   1.457
 6357SOL     OW19969   4.132   1.846   1.354
 6357SOL    HW119970   4.204   1.841   1.284
 6357SOL    HW219971   4.070   1.768   1.343
 6358SOL     OW19972   1.424   3.280   5.329
 6358SOL    HW119973   1.365   3.208   5.293
 6358SOL    HW219974   1.502   3.239   5.376
 6359SOL     OW19975   0.607   6.604   6.031
 6359SOL    HW119976   0.544   6.571   5.960
 6359SOL    HW219977   0.701   6.578   6.007
 6360SOL     OW19978   2.710   5.210   4.206
 6360SOL    HW119979   2.748   5.224   4.297
 6360SOL    HW219980   2.681   5.114   4.196
 6361SOL     OW19981   3.103   5.819   5.211
 6361SOL    HW119982   3.009   5.825   5.179
 6361SOL    HW219983   3.106   5.770   5.298
 6362SOL     OW19984   6.595   4.400   5.880
 6362SOL    HW119985   6.511   4.454   5.870
 6362SOL    HW219986   6.608   4.376   5.976
 6363SOL     OW19987   0.806   5.765   3.436
 6363SOL    HW119988   0.826   5.863   3.440
 6363SOL    HW219989   0.711   5.751   3.406
 6364SOL     OW19990   2.718   1.572   7.009
 6364SOL    HW119991   2.786   1.549   6.940
 6364SOL    HW219992   2.754   1.551   0.075
 6365SOL     OW19993   3.607   6.124   2.057
 6365SOL    HW119994   3.520   6.078   2.077
 6365SOL    HW219995   3.660   6.132   2.142
 6366SOL     OW19996   0.604   3.528   5.872
 6366SOL    HW119997   0.560   3.523   5.962
 6366SOL    HW219998   0.659   3.611   5.867
 6367SOL     OW19999   5.426   5.279   2.312
 6367SOL    HW120000   5.447   5.188   2.347
 6367SOL    HW220001   5.448   5.347   2.382
 6368SOL     OW20002   2.464   1.365   1.930
 6368SOL    HW120003   2.563   1.374   1.933
 6368SOL    HW220004   2.428   1.419   1.854
 6369SOL     OW20005   2.606   6.133   5.157
 6369SOL    HW120006   2.553   6.065   5.106
 6369SOL    HW220007   2.677   6.086   5.210
 6370SOL     OW20008   5.284   2.378   2.023
 6370SOL    HW120009   5.381   2.401   2.016
 6370SOL    HW220010   5.237   2.405   1.939
 6371SOL     OW20011   4.165   1.996   3.422
 6371SOL    HW120012   4.111   1.966   3.501
 6371SOL    HW220013   4.254   1.950   3.423
 6372SOL     OW20014   2.833   0.517   2.657
 6372SOL    HW120015   2.887   0.438   2.689
 6372SOL    HW220016   2.882   0.562   2.582
 6373SOL     OW20017   3.567   4.830   0.123
 6373SOL    HW120018   3.635   4.776   0.173
 6373SOL    HW220019   3.499   4.865   0.187
 6374SOL     OW20020   3.064   3.550   4.823
 6374SOL    HW120021   3.058   3.633   4.878
 6374SOL    HW220022   3.161   3.528   4.807
 6375SOL     OW20023   2.375   5.728   1.697
 6375SOL    HW120024   2.421   5.639   1.696
 6375SOL    HW220025   2.278   5.715   1.717
 6376SOL     OW20026   1.678   0.860   5.396
 6376SOL    HW120027   1.650   0.874   5.302
 6376SOL    HW220028   1.773   0.890   5.407
 6377SOL     OW20029   0.236   2.383   3.770
 6377SOL    HW120030   0.316   2.436   3.744
 6377SOL    HW220031   0.177   2.437   3.830
 6378SOL     OW20032   4.434   5.777   3.871
 6378SOL    HW120033   4.338   5.783   3.842
 6378SOL    HW220034   4.474   5.693   3.833
 6379SOL     OW20035   2.034   4.002   1.718
 6379SOL    HW120036   2.128   4.028   1.740
 6379SOL    HW220037   1.970   4.048   1.780
 6380SOL     OW20038   0.460   0.578   6.211
 6380SOL    HW120039   0.413   0.491   6.219
 6380SOL    HW220040   0.515   0.580   6.127
 6381SOL     OW20041   3.731   3.129   3.511
 6381SOL    HW120042   3.820   3.091   3.538
 6381SOL    HW220043   3.670   3.129   3.590
 6382SOL     OW20044   1.401   4.353   5.204
 6382SOL    HW120045   1.431   4.358   5.109
 6382SOL    HW220046   1.382   4.445   5.238
 6383SOL     OW20047   4.075   1.923   4.146
 6383SOL    HW120048   4.057   2.005   4.091
 6383SOL    HW220049   4.170   1.895   4.134
 6384SOL     OW20050   6.944   4.567   1.966
 6384SOL    HW120051   6.935   4.548   2.063
 6384SOL    HW220052   6.928   4.664   1.949
 6385SOL     OW20053   1.129   5.335   5.078
 6385SOL    HW120054   1.198   5.388   5.128
 6385SOL    HW220055   1.093   5.389   5.002
 6386SOL     OW20056   2.540   5.540   2.856
 6386SOL    HW120057   2.456   5.505   2.815
 6386SOL    HW220058   2.588   5.598   2.791
 6387SOL     OW20059   5.359   1.760   4.901
 6387SOL    HW120060   5.303   1.707   4.837
 6387SOL    HW220061   5.446   1.713   4.916
 6388SOL     OW20062   2.412   5.206   1.590
 6388SOL    HW120063   2.461   5.289   1.562
 6388SOL    HW220064   2.325   5.231   1.633
 6389SOL     OW20065   1.510   3.788   0.835
 6389SOL    HW120066   1.556   3.750   0.915
 6389SOL    HW220067   1.455   3.867   0.864
 6390SOL     OW20068   0.440   3.869   5.244
 6390SOL    HW120069   0.504   3.792   5.239
 6390SOL    HW220070   0.475   3.937   5.309
 6391SOL     OW20071   4.701   0.512   0.338
 6391SOL    HW120072   4.625   0.492   0.401
 6391SOL    HW220073   4.713   0.435   0.276
 6392SOL     OW20074   1.306   6.195   4.811
 6392SOL    HW120075   1.301   6.295   4.814
 6392SOL    HW220076   1.402   6.167   4.803
 6393SOL     OW20077   5.250   1.756   6.263
 6393SOL    HW120078   5.253   1.816   6.184
 6393SOL    HW220079   5.161   1.765   6.308
 6394SOL     OW20080   3.739   5.407   3.086
 6394SOL    HW120081   3.833   5.378   3.105
 6394SOL    HW220082   3.686   5.329   3.055
 6395SOL     OW20083   5.384   1.444   0.286
 6395SOL    HW120084   5.479   1.427   0.262
 6395SOL    HW220085   5.327   1.435   0.205
 6396SOL     OW20086   6.329   2.351   6.581
 6396SOL    HW120087   6.342   2.369   6.483
 6396SOL    HW220088   6.297   2.257   6.593
 6397SOL     OW20089   0.383   0.160   6.953
 6397SOL    HW120090   0.297   0.193   6.913
 6397SOL    HW220091   0.411   0.075   6.908
 6398SOL     OW20092   4.583   1.072   1.510
 6398SOL    HW120093   4.664   1.061   1.568
 6398SOL    HW220094   4.501   1.063   1.565
 6399SOL     OW20095   1.104   0.084   6.061
 6399SOL    HW120096   1.036   0.082   5.988
 6399SOL    HW220097   1.103   0.173   6.106
 6400SOL     OW20098   3.067   5.080   4.490
 6400SOL    HW120099   2.976   5.088   4.450
 6400SOL    HW220100   3.091   5.165   4.537
 6401SOL     OW20101   6.870   5.176   5.656
 6401SOL    HW120102   6.793   5.123   5.620
 6401SOL    HW220103   6.946   5.114   5.675
 6402SOL     OW20104   2.023   3.796   2.809
 6402SOL    HW120105   2.011   3.712   2.755
 6402SOL    HW220106   2.094   3.852   2.767
 6403SOL     OW20107   0.185   6.471   1.907
 6403SOL    HW120108   0.247   6.472   1.828
 6403SOL    HW220109   0.232   6.509   1.987
 6404SOL     OW20110   5.142   0.886   2.134
 6404SOL    HW120111   5.069   0.831   2.175
 6404SOL    HW220112   5.130   0.982   2.159
 6405SOL     OW20113   3.815   5.845   1.802
 6405SOL    HW120114   3.895   5.787   1.816
 6405SOL    HW220115   3.813   5.877   1.707
 6406SOL     OW20116   2.369   2.390   3.612
 6406SOL    HW120117   2.346   2.478   3.570
 6406SOL    HW220118   2.408   2.330   3.542
 6407SOL     OW20119   4.966   5.985   0.435
 6407SOL    HW120120   5.017   5.971   0.350
 6407SOL    HW220121   4.884   5.929   0.433
 6408SOL     OW20122   6.673   1.800   1.081
 6408SOL    HW120123   6.590   1.745   1.078
 6408SOL    HW220124   6.734   1.773   1.006
 6409SOL     OW20125   0.687   4.797   1.332
 6409SOL    HW120126   0.677   4.894   1.309
 6409SOL    HW220127   0.765   4.785   1.394
 6410SOL     OW20128   6.635   6.469   0.869
 6410SOL    HW120129   6.671   6.483   0.962
 6410SOL    HW220130   6.642   6.372   0.845
 6411SOL     OW20131   1.189   1.430   3.413
 6411SOL    HW120132   1.241   1.391   3.490
 6411SOL    HW220133   1.193   1.368   3.335
 6412SOL     OW20134   5.845   2.835   5.150
 6412SOL    HW120135   5.783   2.756   5.144
 6412SOL    HW220136   5.797   2.918   5.121
 6413SOL     OW20137   0.109   5.773   1.177
 6413SOL    HW120138   0.191   5.716   1.165
 6413SOL    HW220139   0.134   5.870   1.168
 6414SOL     OW20140   6.344   0.214   3.750
 6414SOL    HW120141   6.296   0.301   3.738
 6414SOL    HW220142   6.386   0.212   3.841
 6415SOL     OW20143   1.193   1.332   2.414
 6415SOL    HW120144   1.155   1.425   2.414
 6415SOL    HW220145   1.151   1.279   2.340
 6416SOL     OW20146   3.141   6.390   6.398
 6416SOL    HW120147   3.219   6.350   6.448
 6416SOL    HW220148   3.071   6.320   6.386
 6417SOL     OW20149   0.026   0.026   3.984
 6417SOL    HW120150   0.116   0.001   3.949
 6417SOL    HW220151   7.017   0.107   3.934
 6418SOL     OW20152   6.366   5.299   1.722
 6418SOL    HW120153   6.433   5.331   1.789
 6418SOL    HW220154   6.312   5.377   1.690
 6419SOL     OW20155   3.154   2.139   1.163
 6419SOL    HW120156   3.152   2.236   1.140
 6419SOL    HW220157   3.076   2.093   1.121
 6420SOL     OW20158   0.852   1.656   6.916
 6420SOL    HW120159   0.766   1.666   6.965
 6420SOL    HW220160   0.844   1.584   6.847
 6421SOL     OW20161   6.057   2.093   0.674
 6421SOL    HW120162   5.958   2.093   0.690
 6421SOL    HW220163   6.082   2.011   0.622
 6422SOL     OW20164   5.950   2.890   3.024
 6422SOL    HW120165   5.867   2.946   3.018
 6422SOL    HW220166   6.030   2.947   3.004
 6423SOL     OW20167   5.562   3.657   0.530
 6423SOL    HW120168   5.637   3.594   0.512
 6423SOL    HW220169   5.483   3.630   0.475
 6424SOL     OW20170   6.509   3.597   5.039
 6424SOL    HW120171   6.588   3.543   5.070
 6424SOL    HW220172   6.436   3.592   5.107
 6425SOL     OW20173   0.956   5.517   1.248
 6425SOL    HW120174   1.012   5.435   1.259
 6425SOL    HW220175   1.013   5.599   1.257
 6426SOL     OW20176   6.910   4.532   3.654
 6426SOL    HW120177   6.966   4.555   3.734
 6426SOL    HW220178   6.842   4.464   3.680
 6427SOL     OW20179   1.274   3.460   5.477
 6427SOL    HW120180   1.334   3.389   5.440
 6427SOL    HW220181   1.294   3.473   5.574
 6428SOL     OW20182   6.315   3.634   5.249
 6428SOL    HW120183   6.377   3.561   5.275
 6428SOL    HW220184   6.345   3.720   5.290
 6429SOL     OW20185   2.368   6.727   5.080
 6429SOL    HW120186   2.364   6.809   5.023
 6429SOL    HW220187   2.304   6.659   5.045
 6430SOL     OW20188   6.654   3.539   6.574
 6430SOL    HW120189   6.749   3.569   6.566
 6430SOL    HW220190   6.594   3.612   6.541
 6431SOL     OW20191   5.421   1.935   1.916
 6431SOL    HW120192   5.475   1.930   2.001
 6431SOL    HW220193   5.378   1.847   1.899
 6432SOL     OW20194   6.139   3.366   1.238
 6432SOL    HW120195   6.100   3.287   1.285
 6432SOL    HW220196   6.070   3.438   1.231
 6433SOL     OW20197   2.063   3.522   1.672
 6433SOL    HW120198   2.054   3.618   1.643
 6433SOL    HW220199   2.123   3.473   1.609
 6434SOL     OW20200   1.632   6.119   0.427
 6434SOL    HW120201   1.676   6.147   0.512
 6434SOL    HW220202   1.633   6.019   0.420
 6435SOL     OW20203   5.787   3.503   0.578
 6435SOL    HW120204   5.856   3.452   0.525
 6435SOL    HW220205   5.800   3.485   0.675
 6436SOL     OW20206   2.678   1.983   0.563
 6436SOL    HW120207   2.761   1.927   0.569
 6436SOL    HW220208   2.688   2.065   0.619
 6437SOL     OW20209   6.714   0.527   2.275
 6437SOL    HW120210   6.644   0.581   2.228
 6437SOL    HW220211   6.761   0.468   2.209
 6438SOL     OW20212   0.721   4.182   4.418
 6438SOL    HW120213   0.684   4.169   4.509
 6438SOL    HW220214   0.648   4.174   4.350
 6439SOL     OW20215   0.237   5.782   2.540
 6439SOL    HW120216   0.266   5.690   2.514
 6439SOL    HW220217   0.137   5.788   2.535
 6440SOL     OW20218   0.255   0.313   2.139
 6440SOL    HW120219   0.262   0.310   2.039
 6440SOL    HW220220   0.250   0.220   2.176
 6441SOL     OW20221   5.412   2.305   3.185
 6441SOL    HW120222   5.356   2.346   3.113
 6441SOL    HW220223   5.411   2.364   3.266
 6442SOL     OW20224   1.504   2.017   3.216
 6442SOL    HW120225   1.436   1.954   3.253
 6442SOL    HW220226   1.579   2.028   3.281
 6443SOL     OW20227   2.690   0.853   0.788
 6443SOL    HW120228   2.602   0.872   0.830
 6443SOL    HW220229   2.692   0.889   0.695
 6444SOL     OW20230   0.267   1.510   3.072
 6444SOL    HW120231   0.189   1.570   3.057
 6444SOL    HW220232   0.297   1.473   2.984
 6445SOL     OW20233   3.605   4.076   6.181
 6445SOL    HW120234   3.573   4.124   6.263
 6445SOL    HW220235   3.674   4.133   6.135
 6446SOL     OW20236   6.997   1.146   1.310
 6446SOL    HW120237   6.937   1.085   1.258
 6446SOL    HW220238   6.942   1.207   1.366
 6447SOL     OW20239   2.067   1.593   3.544
 6447SOL    HW120240   2.122   1.627   3.468
 6447SOL    HW220241   2.002   1.664   3.572
 6448SOL     OW20242   6.121   2.017   1.904
 6448SOL    HW120243   6.062   1.937   1.894
 6448SOL    HW220244   6.191   2.015   1.833
 6449SOL     OW20245   4.212   2.427   0.214
 6449SOL    HW120246   4.120   2.436   0.176
 6449SOL    HW220247   4.219   2.342   0.266
 6450SOL     OW20248   0.018   1.862   0.783
 6450SOL    HW120249   0.084   1.935   0.800
 6450SOL    HW220250   0.066   1.777   0.766
 6451SOL     OW20251   3.624   6.527   4.661
 6451SOL    HW120252   3.669   6.463   4.723
 6451SOL    HW220253   3.684   6.545   4.583
 6452SOL     OW20254   3.500   6.389   5.063
 6452SOL    HW120255   3.588   6.372   5.106
 6452SOL    HW220256   3.426   6.354   5.121
 6453SOL     OW20257   2.896   4.875   0.371
 6453SOL    HW120258   2.849   4.821   0.302
 6453SOL    HW220259   2.858   4.968   0.371
 6454SOL     OW20260   4.022   1.076   5.035
 6454SOL    HW120261   4.093   1.142   5.013
 6454SOL    HW220262   3.957   1.116   5.100
 6455SOL     OW20263   5.327   3.595   0.394
 6455SOL    HW120264   5.296   3.501   0.382
 6455SOL    HW220265   5.382   3.623   0.315
 6456SOL     OW20266   6.921   2.173   4.350
 6456SOL    HW120267   6.951   2.088   4.392
 6456SOL    HW220268   6.866   2.153   4.269
 6457SOL     OW20269   6.046   3.888   1.129
 6457SOL    HW120270   6.118   3.957   1.120
 6457SOL    HW220271   5.965   3.930   1.171
 6458SOL     OW20272   1.052   5.475   4.014
 6458SOL    HW120273   1.096   5.419   4.083
 6458SOL    HW220274   1.067   5.434   3.924
 6459SOL     OW20275   5.950   3.900   0.244
 6459SOL    HW120276   6.001   3.892   0.158
 6459SOL    HW220277   5.992   3.842   0.313
 6460SOL     OW20278   3.793   5.557   2.019
 6460SOL    HW120279   3.867   5.576   1.956
 6460SOL    HW220280   3.730   5.491   1.978
 6461SOL     OW20281   3.432   5.732   4.018
 6461SOL    HW120282   3.333   5.729   4.002
 6461SOL    HW220283   3.475   5.789   3.949
 6462SOL     OW20284   2.171   4.506   2.871
 6462SOL    HW120285   2.107   4.556   2.812
 6462SOL    HW220286   2.141   4.513   2.966
 6463SOL     OW20287   2.508   3.372   5.810
 6463SOL    HW120288   2.582   3.400   5.871
 6463SOL    HW220289   2.424   3.362   5.864
 6464SOL     OW20290   0.864   5.684   1.687
 6464SOL    HW120291   0.840   5.608   1.626
 6464SOL    HW220292   0.961   5.681   1.708
 6465SOL     OW20293   5.824   6.842   3.076
 6465SOL    HW120294   5.757   6.790   3.022
 6465SOL    HW220295   5.916   6.805   3.060
 6466SOL     OW20296   6.479   2.977   4.575
 6466SOL    HW120297   6.483   2.886   4.532
 6466SOL    HW220298   6.460   3.046   4.505
 6467SOL     OW20299   3.711   0.497   5.613
 6467SOL    HW120300   3.795   0.517   5.563
 6467SOL    HW220301   3.716   0.405   5.651
 6468SOL     OW20302   6.158   4.950   2.341
 6468SOL    HW120303   6.229   4.923   2.275
 6468SOL    HW220304   6.068   4.931   2.302
 6469SOL     OW20305   6.956   3.194   6.118
 6469SOL    HW120306   0.028   3.214   6.126
 6469SOL    HW220307   6.903   3.278   6.133
 6470SOL     OW20308   6.538   6.350   4.872
 6470SOL    HW120309   6.531   6.409   4.952
 6470SOL    HW220310   6.465   6.373   4.807
 6471SOL     OW20311   6.529   5.859   5.382
 6471SOL    HW120312   6.587   5.828   5.458
 6471SOL    HW220313   6.433   5.855   5.411
 6472SOL     OW20314   1.493   0.011   2.086
 6472SOL    HW120315   1.465   0.036   1.993
 6472SOL    HW220316   1.423   6.977   2.127
 6473SOL     OW20317   1.967   1.688   5.545
 6473SOL    HW120318   2.024   1.606   5.539
 6473SOL    HW220319   1.885   1.677   5.489
 6474SOL     OW20320   1.667   2.685   6.642
 6474SOL    HW120321   1.642   2.764   6.586
 6474SOL    HW220322   1.758   2.699   6.680
 6475SOL     OW20323   4.382   4.779   3.800
 6475SOL    HW120324   4.450   4.846   3.829
 6475SOL    HW220325   4.400   4.692   3.846
 6476SOL     OW20326   5.205   6.476   2.901
 6476SOL    HW120327   5.163   6.386   2.904
 6476SOL    HW220328   5.234   6.497   2.807
 6477SOL     OW20329   6.512   5.600   6.850
 6477SOL    HW120330   6.562   5.670   6.801
 6477SOL    HW220331   6.576   5.540   6.899
 6478SOL     OW20332   4.600   6.061   0.183
 6478SOL    HW120333   4.571   6.078   0.089
 6478SOL    HW220334   4.524   6.023   0.235
 6479SOL     OW20335   3.113   6.005   2.041
 6479SOL    HW120336   3.097   5.966   2.132
 6479SOL    HW220337   3.082   5.941   1.971
 6480SOL     OW20338   2.984   1.435   0.682
 6480SOL    HW120339   3.049   1.446   0.606
 6480SOL    HW220340   3.034   1.438   0.769
 6481SOL     OW20341   4.691   6.942   0.486
 6481SOL    HW120342   4.595   6.962   0.507
 6481SOL    HW220343   4.703   6.938   0.387
 6482SOL     OW20344   6.881   7.018   5.366
 6482SOL    HW120345   6.967   0.015   5.320
 6482SOL    HW220346   6.855   0.069   5.425
 6483SOL     OW20347   1.465   5.325   1.187
 6483SOL    HW120348   1.558   5.341   1.154
 6483SOL    HW220349   1.401   5.336   1.111
 6484SOL     OW20350   3.751   0.345   2.247
 6484SOL    HW120351   3.826   0.302   2.197
 6484SOL    HW220352   3.678   0.371   2.183
 6485SOL     OW20353   6.971   2.348   2.174
 6485SOL    HW120354   6.889   2.322   2.223
 6485SOL    HW220355   0.026   2.334   2.232
 6486SOL     OW20356   1.230   2.833   3.581
 6486SOL    HW120357   1.330   2.842   3.587
 6486SOL    HW220358   1.199   2.874   3.495
 6487SOL     OW20359   6.899   5.220   2.586
 6487SOL    HW120360   6.813   5.270   2.577
 6487SOL    HW220361   6.891   5.152   2.659
 6488SOL     OW20362   3.613   5.293   3.820
 6488SOL    HW120363   3.548   5.245   3.878
 6488SOL    HW220364   3.570   5.375   3.782
 6489SOL     OW20365   2.774   1.012   6.917
 6489SOL    HW120366   2.745   0.936   6.975
 6489SOL    HW220367   2.697   1.073   6.900
 6490SOL     OW20368   3.942   0.747   6.677
 6490SOL    HW120369   3.849   0.775   6.698
 6490SOL    HW220370   3.995   0.826   6.647
 6491SOL     OW20371   4.902   0.790   6.167
 6491SOL    HW120372   4.885   0.710   6.224
 6491SOL    HW220373   4.971   0.768   6.098
 6492SOL     OW20374   5.458   5.028   6.415
 6492SOL    HW120375   5.372   5.079   6.425
 6492SOL    HW220376   5.475   5.010   6.318
 6493SOL     OW20377   6.796   5.964   5.228
 6493SOL    HW120378   6.846   5.886   5.191
 6493SOL    HW220379   6.754   5.938   5.315
 6494SOL     OW20380   0.092   2.621   3.250
 6494SOL    HW120381   0.030   2.581   3.318
 6494SOL    HW220382   0.165   2.556   3.230
 6495SOL     OW20383   5.081   4.752   2.591
 6495SOL    HW120384   5.148   4.820   2.620
 6495SOL    HW220385   4.989   4.781   2.619
 6496SOL     OW20386   0.062   6.756   3.123
 6496SOL    HW120387   0.064   6.832   3.189
 6496SOL    HW220388   0.058   6.669   3.173
 6497SOL     OW20389   0.762   1.125   1.100
 6497SOL    HW120390   0.824   1.058   1.060
 6497SOL    HW220391   0.682   1.079   1.139
 6498SOL     OW20392   1.371   3.316   4.467
 6498SOL    HW120393   1.444   3.253   4.494
 6498SOL    HW220394   1.410   3.393   4.418
 6499SOL     OW20395   5.843   2.213   3.140
 6499SOL    HW120396   5.835   2.116   3.117
 6499SOL    HW220397   5.768   2.264   3.098
 6500SOL     OW20398   5.219   5.040   1.649
 6500SOL    HW120399   5.249   5.020   1.742
 6500SOL    HW220400   5.292   5.020   1.585
 6501SOL     OW20401   6.985   4.298   0.740
 6501SOL    HW120402   6.974   4.374   0.677
 6501SOL    HW220403   6.938   4.319   0.826
 6502SOL     OW20404   0.665   4.454   2.203
 6502SOL    HW120405   0.632   4.382   2.141
 6502SOL    HW220406   0.671   4.417   2.296
 6503SOL     OW20407   4.499   1.150   4.094
 6503SOL    HW120408   4.589   1.180   4.062
 6503SOL    HW220409   4.458   1.220   4.151
 6504SOL     OW20410   2.007   2.157   0.719
 6504SOL    HW120411   1.951   2.238   0.734
 6504SOL    HW220412   1.978   2.110   0.635
 6505SOL     OW20413   5.697   5.361   1.242
 6505SOL    HW120414   5.742   5.338   1.156
 6505SOL    HW220415   5.765   5.364   1.315
 6506SOL     OW20416   2.046   1.371   1.705
 6506SOL    HW120417   1.983   1.295   1.724
 6506SOL    HW220418   2.045   1.393   1.608
 6507SOL     OW20419   2.342   0.258   1.533
 6507SOL    HW120420   2.280   0.268   1.611
 6507SOL    HW220421   2.378   0.165   1.531
 6508SOL     OW20422   1.363   2.976   1.921
 6508SOL    HW120423   1.454   2.984   1.880
 6508SOL    HW220424   1.359   3.029   2.005
 6509SOL     OW20425   0.642   2.874   4.071
 6509SOL    HW120426   0.600   2.964   4.083
 6509SOL    HW220427   0.617   2.837   3.982
 6510SOL     OW20428   6.397   4.168   0.039
 6510SOL    HW120429   6.330   4.102   0.006
 6510SOL    HW220430   6.368   4.203   0.128
 6511SOL     OW20431   0.206   6.525   6.187
 6511SOL    HW120432   0.182   6.448   6.245
 6511SOL    HW220433   0.303   6.548   6.200
 6512SOL     OW20434   5.405   6.744   4.023
 6512SOL    HW120435   5.380   6.830   4.068
 6512SOL    HW220436   5.435   6.678   4.093
 6513SOL     OW20437   1.316   7.017   3.772
 6513SOL    HW120438   1.252   0.068   3.770
 6513SOL    HW220439   1.371   7.022   3.856
 6514SOL     OW20440   2.839   0.641   4.104
 6514SOL    HW120441   2.871   0.626   4.198
 6514SOL    HW220442   2.778   0.720   4.101
 6515SOL     OW20443   1.517   1.678   3.418
 6515SOL    HW120444   1.456   1.707   3.344
 6515SOL    HW220445   1.570   1.599   3.388
 6516SOL     OW20446   2.421   1.908   5.316
 6516SOL    HW120447   2.460   1.874   5.402
 6516SOL    HW220448   2.331   1.869   5.302
 6517SOL     OW20449   3.014   1.959   1.535
 6517SOL    HW120450   3.104   1.977   1.494
 6517SOL    HW220451   2.943   1.994   1.475
 6518SOL     OW20452   5.030   6.493   1.609
 6518SOL    HW120453   5.046   6.451   1.698
 6518SOL    HW220454   5.080   6.441   1.539
 6519SOL     OW20455   0.335   1.697   3.807
 6519SOL    HW120456   0.340   1.695   3.707
 6519SOL    HW220457   0.384   1.618   3.844
 6520SOL     OW20458   6.062   5.004   1.565
 6520SOL    HW120459   6.025   5.031   1.476
 6520SOL    HW220460   6.036   5.072   1.634
 6521SOL     OW20461   1.046   2.528   5.979
 6521SOL    HW120462   0.990   2.519   6.061
 6521SOL    HW220463   1.125   2.466   5.985
 6522SOL     OW20464   2.345   4.815   4.156
 6522SOL    HW120465   2.257   4.845   4.121
 6522SOL    HW220466   2.368   4.726   4.116
 6523SOL     OW20467   2.427   2.279   1.458
 6523SOL    HW120468   2.464   2.372   1.453
 6523SOL    HW220469   2.443   2.243   1.550
 6524SOL     OW20470   4.249   1.910   5.479
 6524SOL    HW120471   4.330   1.962   5.508
 6524SOL    HW220472   4.168   1.968   5.483
 6525SOL     OW20473   0.196   2.747   4.911
 6525SOL    HW120474   0.116   2.688   4.900
 6525SOL    HW220475   0.195   2.788   5.003
 6526SOL     OW20476   1.676   6.350   3.041
 6526SOL    HW120477   1.701   6.369   3.136
 6526SOL    HW220478   1.609   6.418   3.010
 6527SOL     OW20479   2.134   1.118   4.505
 6527SOL    HW120480   2.105   1.184   4.575
 6527SOL    HW220481   2.053   1.074   4.465
 6528SOL     OW20482   6.387   0.335   2.755
 6528SOL    HW120483   6.349   0.248   2.723
 6528SOL    HW220484   6.428   0.383   2.677
 6529SOL     OW20485   6.398   3.448   2.035
 6529SOL    HW120486   6.424   3.526   2.092
 6529SOL    HW220487   6.437   3.364   2.073
 6530SOL     OW20488   6.639   1.220   0.420
 6530SOL    HW120489   6.598   1.251   0.506
 6530SOL    HW220490   6.698   1.291   0.382
 6531SOL     OW20491   5.107   2.025   5.875
 6531SOL    HW120492   5.178   2.051   5.940
 6531SOL    HW220493   5.089   1.927   5.881
 6532SOL     OW20494   2.298   1.009   0.015
 6532SOL    HW120495   2.365   0.980   0.083
 6532SOL    HW220496   2.231   1.070   0.057
 6533SOL     OW20497   5.431   0.667   6.936
 6533SOL    HW120498   5.472   0.615   7.011
 6533SOL    HW220499   5.365   0.732   6.972
 6534SOL     OW20500   4.071   1.919   0.118
 6534SOL    HW120501   4.110   1.987   0.056
 6534SOL    HW220502   3.976   1.900   0.091
 6535SOL     OW20503   1.618   2.077   4.388
 6535SOL    HW120504   1.523   2.111   4.393
 6535SOL    HW220505   1.625   2.011   4.313
 6536SOL     OW20506   0.510   1.566   1.345
 6536SOL    HW120507   0.426   1.617   1.360
 6536SOL    HW220508   0.526   1.504   1.421
 6537SOL     OW20509   6.821   0.795   5.861
 6537SOL    HW120510   6.877   0.874   5.836
 6537SOL    HW220511   6.880   0.714   5.867
 6538SOL     OW20512   3.411   2.012   5.940
 6538SOL    HW120513   3.365   2.067   5.871
 6538SOL    HW220514   3.350   2.000   6.019
 6539SOL     OW20515   3.225   1.049   6.719
 6539SOL    HW120516   3.140   1.085   6.757
 6539SOL    HW220517   3.239   0.956   6.753
 6540SOL     OW20518   3.706   2.015   3.360
 6540SOL    HW120519   3.607   2.001   3.367
 6540SOL    HW220520   3.729   2.041   3.266
 6541SOL     OW20521   3.108   1.831   5.165
 6541SOL    HW120522   3.045   1.895   5.209
 6541SOL    HW220523   3.152   1.774   5.234
 6542SOL     OW20524   3.889   5.075   2.615
 6542SOL    HW120525   3.965   5.081   2.679
 6542SOL    HW220526   3.922   5.092   2.522
 6543SOL     OW20527   1.422   6.818   5.840
 6543SOL    HW120528   1.486   6.789   5.911
 6543SOL    HW220529   1.387   6.909   5.862
 6544SOL     OW20530   1.147   5.027   3.088
 6544SOL    HW120531   1.060   4.979   3.092
 6544SOL    HW220532   1.195   5.001   3.004
 6545SOL     OW20533   6.212   2.768   6.856
 6545SOL    HW120534   6.115   2.766   6.881
 6545SOL    HW220535   6.222   2.751   6.758
 6546SOL     OW20536   3.606   4.754   6.470
 6546SOL    HW120537   3.600   4.723   6.376
 6546SOL    HW220538   3.519   4.740   6.516
 6547SOL     OW20539   4.429   0.755   6.355
 6547SOL    HW120540   4.344   0.797   6.325
 6547SOL    HW220541   4.506   0.805   6.315
 6548SOL     OW20542   4.420   3.772   5.574
 6548SOL    HW120543   4.390   3.735   5.486
 6548SOL    HW220544   4.501   3.723   5.605
 6549SOL     OW20545   2.734   1.833   2.363
 6549SOL    HW120546   2.662   1.884   2.316
 6549SOL    HW220547   2.781   1.893   2.427
 6550SOL     OW20548   0.658   5.918   2.465
 6550SOL    HW120549   0.568   5.929   2.422
 6550SOL    HW220550   0.691   5.825   2.450
 6551SOL     OW20551   3.428   5.450   2.441
 6551SOL    HW120552   3.446   5.454   2.343
 6551SOL    HW220553   3.505   5.489   2.491
 6552SOL     OW20554   4.969   4.834   6.185
 6552SOL    HW120555   4.960   4.783   6.271
 6552SOL    HW220556   5.040   4.793   6.128
 6553SOL     OW20557   6.554   3.743   2.709
 6553SOL    HW120558   6.588   3.660   2.665
 6553SOL    HW220559   6.481   3.719   2.773
 6554SOL     OW20560   6.244   3.332   4.228
 6554SOL    HW120561   6.329   3.292   4.194
 6554SOL    HW220562   6.263   3.422   4.267
 6555SOL     OW20563   0.597   0.974   1.278
 6555SOL    HW120564   0.526   1.042   1.293
 6555SOL    HW220565   0.629   0.940   1.367
 6556SOL     OW20566   2.225   0.401   3.042
 6556SOL    HW120567   2.146   0.340   3.051
 6556SOL    HW220568   2.200   0.481   2.989
 6557SOL     OW20569   4.478   6.440   0.529
 6557SOL    HW120570   4.412   6.420   0.457
 6557SOL    HW220571   4.563   6.391   0.512
 6558SOL     OW20572   5.524   6.504   6.046
 6558SOL    HW120573   5.616   6.542   6.039
 6558SOL    HW220574   5.462   6.572   6.085
 6559SOL     OW20575   3.097   3.738   0.939
 6559SOL    HW120576   3.141   3.828   0.946
 6559SOL    HW220577   3.073   3.705   1.030
 6560SOL     OW20578   4.174   2.438   0.805
 6560SOL    HW120579   4.148   2.342   0.814
 6560SOL    HW220580   4.155   2.486   0.890
 6561SOL     OW20581   3.080   3.198   4.446
 6561SOL    HW120582   3.142   3.238   4.514
 6561SOL    HW220583   3.115   3.108   4.418
 6562SOL     OW20584   6.967   4.650   4.528
 6562SOL    HW120585   0.039   4.672   4.521
 6562SOL    HW220586   6.918   4.728   4.568
 6563SOL     OW20587   0.296   6.063   2.792
 6563SOL    HW120588   0.347   6.107   2.718
 6563SOL    HW220589   0.198   6.070   2.775
 6564SOL     OW20590   1.904   5.219   3.126
 6564SOL    HW120591   1.978   5.180   3.181
 6564SOL    HW220592   1.937   5.239   3.034
 6565SOL     OW20593   0.047   4.015   5.927
 6565SOL    HW120594   0.120   4.075   5.897
 6565SOL    HW220595   0.074   3.919   5.915
 6566SOL     OW20596   4.501   0.464   0.531
 6566SOL    HW120597   4.581   0.470   0.590
 6566SOL    HW220598   4.443   0.545   0.543
 6567SOL     OW20599   6.847   2.292   0.471
 6567SOL    HW120600   6.758   2.299   0.426
 6567SOL    HW220601   6.850   2.209   0.526
 6568SOL     OW20602   5.626   3.511   1.795
 6568SOL    HW120603   5.689   3.551   1.863
 6568SOL    HW220604   5.578   3.434   1.836
 6569SOL     OW20605   1.039   5.052   6.051
 6569SOL    HW120606   0.992   4.968   6.078
 6569SOL    HW220607   1.101   5.033   5.975
 6570SOL     OW20608   1.009   3.825   1.820
 6570SOL    HW120609   0.998   3.747   1.758
 6570SOL    HW220610   1.103   3.858   1.816
 6571SOL     OW20611   2.707   5.505   4.845
 6571SOL    HW120612   2.736   5.528   4.752
 6571SOL    HW220613   2.663   5.584   4.887
 6572SOL     OW20614   1.269   3.143   5.919
 6572SOL    HW120615   1.276   3.135   5.820
 6572SOL    HW220616   1.305   3.232   5.948
 6573SOL     OW20617   1.207   2.199   1.553
 6573SOL    HW120618   1.215   2.159   1.461
 6573SOL    HW220619   1.126   2.162   1.598
 6574SOL     OW20620   2.194   4.830   4.546
 6574SOL    HW120621   2.178   4.925   4.574
 6574SOL    HW220622   2.292   4.814   4.538
 6575SOL     OW20623   0.661   1.384   2.403
 6575SOL    HW120624   0.590   1.433   2.353
 6575SOL    HW220625   0.697   1.442   2.476
 6576SOL     OW20626   0.334   5.460   5.086
 6576SOL    HW120627   0.393   5.516   5.145
 6576SOL    HW220628   0.381   5.445   4.998
 6577SOL     OW20629   1.115   4.440   5.953
 6577SOL    HW120630   1.088   4.435   5.857
 6577SOL    HW220631   1.120   4.348   5.991
 6578SOL     OW20632   5.397   5.977   4.862
 6578SOL    HW120633   5.468   6.039   4.829
 6578SOL    HW220634   5.414   5.885   4.824
 6579SOL     OW20635   1.107   4.225   3.411
 6579SOL    HW120636   1.055   4.247   3.328
 6579SOL    HW220637   1.201   4.200   3.386
 6580SOL     OW20638   5.040   2.840   0.540
 6580SOL    HW120639   4.954   2.806   0.502
 6580SOL    HW220640   5.068   2.923   0.491
 6581SOL     OW20641   2.493   2.174   5.339
 6581SOL    HW120642   2.471   2.079   5.362
 6581SOL    HW220643   2.585   2.195   5.373
 6582SOL     OW20644   6.008   0.912   2.518
 6582SOL    HW120645   5.926   0.969   2.520
 6582SOL    HW220646   6.034   0.887   2.611
 6583SOL     OW20647   6.157   0.699   5.744
 6583SOL    HW120648   6.130   0.666   5.653
 6583SOL    HW220649   6.115   0.788   5.761
 6584SOL     OW20650   6.204   2.041   0.256
 6584SOL    HW120651   6.109   2.008   0.260
 6584SOL    HW220652   6.266   1.967   0.282
 6585SOL     OW20653   1.694   1.012   2.493
 6585SOL    HW120654   1.640   1.011   2.577
 6585SOL    HW220655   1.698   0.920   2.454
 6586SOL     OW20656   5.992   0.676   6.119
 6586SOL    HW120657   5.998   0.622   6.035
 6586SOL    HW220658   5.922   0.638   6.179
 6587SOL     OW20659   1.159   6.339   2.510
 6587SOL    HW120660   1.227   6.412   2.507
 6587SOL    HW220661   1.194   6.263   2.564
 6588SOL     OW20662   3.697   3.758   0.467
 6588SOL    HW120663   3.598   3.753   0.460
 6588SOL    HW220664   3.723   3.824   0.537
 6589SOL     OW20665   4.248   2.120   6.381
 6589SOL    HW120666   4.202   2.208   6.373
 6589SOL    HW220667   4.244   2.072   6.293
 6590SOL     OW20668   6.169   2.165   5.845
 6590SOL    HW120669   6.220   2.096   5.896
 6590SOL    HW220670   6.098   2.121   5.791
 6591SOL     OW20671   4.453   0.516   2.310
 6591SOL    HW120672   4.537   0.549   2.352
 6591SOL    HW220673   4.388   0.490   2.381
 6592SOL     OW20674   6.571   5.159   5.103
 6592SOL    HW120675   6.648   5.192   5.048
 6592SOL    HW220676   6.509   5.235   5.121
 6593SOL     OW20677   5.451   1.830   2.594
 6593SOL    HW120678   5.398   1.900   2.545
 6593SOL    HW220679   5.548   1.844   2.577
 6594SOL     OW20680   5.985   0.381   6.711
 6594SOL    HW120681   5.967   0.285   6.691
 6594SOL    HW220682   5.921   0.412   6.782
 6595SOL     OW20683   4.098   3.304   6.364
 6595SOL    HW120684   4.068   3.358   6.285
 6595SOL    HW220685   4.044   3.220   6.370
 6596SOL     OW20686   1.727   5.792   4.765
 6596SOL    HW120687   1.783   5.716   4.732
 6596SOL    HW220688   1.638   5.789   4.720
 6597SOL     OW20689   1.000   4.331   0.571
 6597SOL    HW120690   1.005   4.426   0.603
 6597SOL    HW220691   1.087   4.285   0.590
 6598SOL     OW20692   3.408   6.008   4.275
 6598SOL    HW120693   3.495   6.049   4.301
 6598SOL    HW220694   3.375   5.951   4.351
 6599SOL     OW20695   4.166   3.479   5.895
 6599SOL    HW120696   4.163   3.543   5.818
 6599SOL    HW220697   4.168   3.530   5.981
 6600SOL     OW20698   4.522   4.915   4.793
 6600SOL    HW120699   4.435   4.867   4.803
 6600SOL    HW220700   4.555   4.944   4.882
 6601SOL     OW20701   0.979   0.793   2.140
 6601SOL    HW120702   0.920   0.873   2.132
 6601SOL    HW220703   0.941   0.717   2.088
 6602SOL     OW20704   5.188   1.430   0.513
 6602SOL    HW120705   5.119   1.500   0.499
 6602SOL    HW220706   5.248   1.426   0.432
 6603SOL     OW20707   3.401   2.094   1.997
 6603SOL    HW120708   3.335   2.060   2.065
 6603SOL    HW220709   3.485   2.120   2.043
 6604SOL     OW20710   4.345   4.737   4.483
 6604SOL    HW120711   4.368   4.651   4.438
 6604SOL    HW220712   4.332   4.722   4.581
 6605SOL     OW20713   4.573   5.570   0.937
 6605SOL    HW120714   4.545   5.591   1.030
 6605SOL    HW220715   4.566   5.652   0.880
 6606SOL     OW20716   0.675   2.849   3.060
 6606SOL    HW120717   0.598   2.876   3.118
 6606SOL    HW220718   0.663   2.887   2.969
 6607SOL     OW20719   2.119   3.885   2.513
 6607SOL    HW120720   2.104   3.951   2.586
 6607SOL    HW220721   2.050   3.813   2.518
 6608SOL     OW20722   4.925   4.008   4.794
 6608SOL    HW120723   4.954   3.919   4.830
 6608SOL    HW220724   5.001   4.048   4.743
 6609SOL     OW20725   5.787   3.231   6.259
 6609SOL    HW120726   5.827   3.198   6.173
 6609SOL    HW220727   5.828   3.181   6.335
 6610SOL     OW20728   3.966   1.139   0.629
 6610SOL    HW120729   3.991   1.042   0.623
 6610SOL    HW220730   3.868   1.147   0.651
 6611SOL     OW20731   5.419   3.642   1.735
 6611SOL    HW120732   5.348   3.580   1.701
 6611SOL    HW220733   5.503   3.590   1.751
 6612SOL     OW20734   0.444   5.349   6.569
 6612SOL    HW120735   0.413   5.430   6.618
 6612SOL    HW220736   0.454   5.273   6.633
 6613SOL     OW20737   6.354   5.070   0.988
 6613SOL    HW120738   6.312   5.054   1.078
 6613SOL    HW220739   6.434   5.130   1.000
 6614SOL     OW20740   5.953   4.788   5.806
 6614SOL    HW120741   5.853   4.788   5.810
 6614SOL    HW220742   5.987   4.880   5.820
 6615SOL     OW20743   1.004   3.928   5.081
 6615SOL    HW120744   0.923   3.983   5.062
 6615SOL    HW220745   1.073   3.984   5.126
 6616SOL     OW20746   4.745   1.477   3.540
 6616SOL    HW120747   4.749   1.406   3.469
 6616SOL    HW220748   4.837   1.494   3.575
 6617SOL     OW20749   3.817   0.577   4.790
 6617SOL    HW120750   3.763   0.617   4.716
 6617SOL    HW220751   3.767   0.500   4.830
 6618SOL     OW20752   0.229   4.477   1.878
 6618SOL    HW120753   0.205   4.387   1.843
 6618SOL    HW220754   0.148   4.520   1.918
 6619SOL     OW20755   6.058   5.885   2.757
 6619SOL    HW120756   6.086   5.794   2.727
 6619SOL    HW220757   6.053   5.886   2.857
 6620SOL     OW20758   5.356   3.335   5.391
 6620SOL    HW120759   5.270   3.288   5.412
 6620SOL    HW220760   5.432   3.289   5.438
 6621SOL     OW20761   4.873   3.267   0.780
 6621SOL    HW120762   4.902   3.246   0.686
 6621SOL    HW220763   4.840   3.183   0.824
 6622SOL     OW20764   5.505   5.362   0.958
 6622SOL    HW120765   5.417   5.408   0.966
 6622SOL    HW220766   5.495   5.264   0.978
 6623SOL     OW20767   2.920   3.314   2.896
 6623SOL    HW120768   2.987   3.239   2.897
 6623SOL    HW220769   2.915   3.355   2.986
 6624SOL     OW20770   4.892   4.788   4.621
 6624SOL    HW120771   4.907   4.865   4.560
 6624SOL    HW220772   4.794   4.766   4.624
 6625SOL     OW20773   5.411   5.979   0.981
 6625SOL    HW120774   5.321   5.971   1.022
 6625SOL    HW220775   5.406   6.038   0.900
 6626SOL     OW20776   2.985   4.871   4.171
 6626SOL    HW120777   2.985   4.951   4.111
 6626SOL    HW220778   2.928   4.799   4.130
 6627SOL     OW20779   6.995   0.357   0.831
 6627SOL    HW120780   0.015   0.269   0.817
 6627SOL    HW220781   0.036   0.431   0.819
 6628SOL     OW20782   3.684   6.421   4.300
 6628SOL    HW120783   3.593   6.449   4.272
 6628SOL    HW220784   3.677   6.340   4.359
 6629SOL     OW20785   2.396   4.561   1.011
 6629SOL    HW120786   2.481   4.611   0.997
 6629SOL    HW220787   2.351   4.544   0.923
 6630SOL     OW20788   3.236   1.396   5.682
 6630SOL    HW120789   3.234   1.347   5.770
 6630SOL    HW220790   3.254   1.493   5.699
 6631SOL     OW20791   3.514   6.210   1.485
 6631SOL    HW120792   3.511   6.242   1.390
 6631SOL    HW220793   3.582   6.263   1.536
 6632SOL     OW20794   6.708   3.561   2.179
 6632SOL    HW120795   6.626   3.617   2.172
 6632SOL    HW220796   6.704   3.488   2.111
 6633SOL     OW20797   1.087   6.079   3.321
 6633SOL    HW120798   1.132   6.005   3.371
 6633SOL    HW220799   1.151   6.154   3.307
 6634SOL     OW20800   6.345   2.435   4.943
 6634SOL    HW120801   6.366   2.496   4.867
 6634SOL    HW220802   6.252   2.452   4.975
 6635SOL     OW20803   4.257   5.364   3.890
 6635SOL    HW120804   4.293   5.323   3.973
 6635SOL    HW220805   4.332   5.395   3.832
 6636SOL     OW20806   2.149   2.869   2.776
 6636SOL    HW120807   2.187   2.860   2.868
 6636SOL    HW220808   2.223   2.871   2.709
 6637SOL     OW20809   0.142   2.031   6.672
 6637SOL    HW120810   0.102   1.959   6.616
 6637SOL    HW220811   0.071   2.095   6.701
 6638SOL     OW20812   1.118   0.509   6.798
 6638SOL    HW120813   1.153   0.524   6.890
 6638SOL    HW220814   1.092   0.597   6.758
 6639SOL     OW20815   4.189   6.166   6.647
 6639SOL    HW120816   4.266   6.124   6.696
 6639SOL    HW220817   4.103   6.128   6.680
 6640SOL     OW20818   5.282   4.532   3.120
 6640SOL    HW120819   5.264   4.623   3.157
 6640SOL    HW220820   5.307   4.539   3.023
 6641SOL     OW20821   2.388   5.413   6.093
 6641SOL    HW120822   2.393   5.320   6.128
 6641SOL    HW220823   2.437   5.475   6.155
 6642SOL     OW20824   6.013   5.714   5.804
 6642SOL    HW120825   6.026   5.673   5.895
 6642SOL    HW220826   6.020   5.643   5.734
 6643SOL     OW20827   4.020   5.469   0.951
 6643SOL    HW120828   4.016   5.496   1.047
 6643SOL    HW220829   4.100   5.510   0.907
 6644SOL     OW20830   0.976   3.224   1.979
 6644SOL    HW120831   1.058   3.272   2.008
 6644SOL    HW220832   0.998   3.162   1.904
 6645SOL     OW20833   0.597   5.248   5.185
 6645SOL    HW120834   0.563   5.175   5.244
 6645SOL    HW220835   0.569   5.230   5.090
 6646SOL     OW20836   1.927   5.443   4.260
 6646SOL    HW120837   1.858   5.409   4.196
 6646SOL    HW220838   2.005   5.478   4.209
 6647SOL     OW20839   4.372   1.784   1.801
 6647SOL    HW120840   4.383   1.693   1.842
 6647SOL    HW220841   4.341   1.849   1.870
 6648SOL     OW20842   3.729   5.462   2.769
 6648SOL    HW120843   3.653   5.525   2.778
 6648SOL    HW220844   3.712   5.380   2.824
 6649SOL     OW20845   4.377   1.672   5.431
 6649SOL    HW120846   4.473   1.663   5.406
 6649SOL    HW220847   4.341   1.758   5.394
 6650SOL     OW20848   3.422   1.587   3.495
 6650SOL    HW120849   3.450   1.549   3.407
 6650SOL    HW220850   3.485   1.554   3.567
 6651SOL     OW20851   0.625   1.878   1.077
 6651SOL    HW120852   0.674   1.885   1.164
 6651SOL    HW220853   0.639   1.962   1.025
 6652SOL     OW20854   0.215   5.185   3.982
 6652SOL    HW120855   0.190   5.189   4.079
 6652SOL    HW220856   0.169   5.258   3.933
 6653SOL     OW20857   3.785   3.791   4.870
 6653SOL    HW120858   3.819   3.869   4.816
 6653SOL    HW220859   3.856   3.762   4.934
 6654SOL     OW20860   1.339   3.955   1.691
 6654SOL    HW120861   1.303   3.906   1.770
 6654SOL    HW220862   1.287   3.931   1.609
 6655SOL     OW20863   1.233   0.185   6.601
 6655SOL    HW120864   1.157   0.244   6.628
 6655SOL    HW220865   1.201   0.090   6.598
 6656SOL     OW20866   6.240   1.570   1.323
 6656SOL    HW120867   6.184   1.496   1.284
 6656SOL    HW220868   6.197   1.604   1.407
 6657SOL     OW20869   3.563   4.818   5.556
 6657SOL    HW120870   3.595   4.795   5.464
 6657SOL    HW220871   3.554   4.734   5.610
 6658SOL     OW20872   6.144   6.879   5.114
 6658SOL    HW120873   6.201   6.928   5.180
 6658SOL    HW220874   6.080   6.820   5.164
 6659SOL     OW20875   2.910   2.831   0.684
 6659SOL    HW120876   2.931   2.861   0.777
 6659SOL    HW220877   2.925   2.732   0.677
 6660SOL     OW20878   6.970   6.582   2.661
 6660SOL    HW120879   0.040   6.605   2.678
 6660SOL    HW220880   6.959   6.483   2.654
 6661SOL     OW20881   6.849   0.494   3.693
 6661SOL    HW120882   6.833   0.501   3.792
 6661SOL    HW220883   6.927   0.551   3.668
 6662SOL     OW20884   1.924   4.072   5.910
 6662SOL    HW120885   1.906   4.112   5.821
 6662SOL    HW220886   1.992   3.999   5.901
 6663SOL     OW20887   1.195   5.556   2.209
 6663SOL    HW120888   1.162   5.478   2.156
 6663SOL    HW220889   1.204   5.530   2.305
 6664SOL     OW20890   6.807   2.182   1.002
 6664SOL    HW120891   6.716   2.169   1.041
 6664SOL    HW220892   6.850   2.263   1.041
 6665SOL     OW20893   1.629   6.942   3.452
 6665SOL    HW120894   1.659   0.007   3.484
 6665SOL    HW220895   1.565   6.903   3.518
 6666SOL     OW20896   5.805   6.726   0.790
 6666SOL    HW120897   5.840   6.795   0.726
 6666SOL    HW220898   5.713   6.699   0.763
 6667SOL     OW20899   5.505   4.675   5.609
 6667SOL    HW120900   5.447   4.731   5.668
 6667SOL    HW220901   5.467   4.583   5.603
 6668SOL     OW20902   6.537   6.356   1.136
 6668SOL    HW120903   6.482   6.326   1.214
 6668SOL    HW220904   6.495   6.323   1.051
 6669SOL     OW20905   0.781   4.630   3.269
 6669SOL    HW120906   0.865   4.602   3.222
 6669SOL    HW220907   0.803   4.652   3.364
 6670SOL     OW20908   5.377   4.469   0.397
 6670SOL    HW120909   5.453   4.416   0.433
 6670SOL    HW220910   5.294   4.414   0.397
 6671SOL     OW20911   1.083   2.209   5.311
 6671SOL    HW120912   1.054   2.165   5.396
 6671SOL    HW220913   1.003   2.235   5.258
 6672SOL     OW20914   0.146   1.533   5.409
 6672SOL    HW120915   0.219   1.466   5.399
 6672SOL    HW220916   0.081   1.501   5.479
 6673SOL     OW20917   3.392   5.730   1.315
 6673SOL    HW120918   3.386   5.807   1.378
 6673SOL    HW220919   3.448   5.658   1.356
 6674SOL     OW20920   0.906   5.950   4.575
 6674SOL    HW120921   0.974   6.019   4.601
 6674SOL    HW220922   0.884   5.960   4.478
 6675SOL     OW20923   6.315   6.548   6.269
 6675SOL    HW120924   6.412   6.557   6.289
 6675SOL    HW220925   6.302   6.544   6.170
 6676SOL     OW20926   0.154   1.660   0.667
 6676SOL    HW120927   0.151   1.571   0.621
 6676SOL    HW220928   0.248   1.679   0.695
 6677SOL     OW20929   1.044   3.808   0.702
 6677SOL    HW120930   1.051   3.883   0.769
 6677SOL    HW220931   1.047   3.846   0.610
 6678SOL     OW20932   0.686   3.651   4.340
 6678SOL    HW120933   0.738   3.736   4.342
 6678SOL    HW220934   0.680   3.613   4.433
 6679SOL     OW20935   2.501   1.267   4.780
 6679SOL    HW120936   2.456   1.351   4.812
 6679SOL    HW220937   2.480   1.253   4.683
 6680SOL     OW20938   2.585   1.186   6.959
 6680SOL    HW120939   2.596   1.217   0.028
 6680SOL    HW220940   2.498   1.220   6.923
 6681SOL     OW20941   6.339   5.212   6.501
 6681SOL    HW120942   6.259   5.254   6.458
 6681SOL    HW220943   6.317   5.186   6.595
 6682SOL     OW20944   5.764   4.753   2.443
 6682SOL    HW120945   5.853   4.778   2.482
 6682SOL    HW220946   5.714   4.697   2.508
 6683SOL     OW20947   5.641   3.381   3.472
 6683SOL    HW120948   5.734   3.348   3.485
 6683SOL    HW220949   5.643   3.478   3.449
 6684SOL     OW20950   1.715   0.875   2.077
 6684SOL    HW120951   1.796   0.884   2.020
 6684SOL    HW220952   1.647   0.943   2.051
 6685SOL     OW20953   6.398   2.421   0.051
 6685SOL    HW120954   6.356   2.487   0.115
 6685SOL    HW220955   6.348   2.335   0.056
 6686SOL     OW20956   5.215   4.378   3.903
 6686SOL    HW120957   5.231   4.286   3.867
 6686SOL    HW220958   5.179   4.372   3.996
 6687SOL     OW20959   0.186   6.908   6.779
 6687SOL    HW120960   0.285   6.916   6.788
 6687SOL    HW220961   0.162   6.813   6.762
 6688SOL     OW20962   0.675   4.874   3.345
 6688SOL    HW120963   0.736   4.936   3.394
 6688SOL    HW220964   0.715   4.782   3.346
 6689SOL     OW20965   5.533   3.928   0.508
 6689SOL    HW120966   5.536   3.832   0.537
 6689SOL    HW220967   5.566   3.935   0.414
 6690SOL     OW20968   0.133   0.993   0.564
 6690SOL    HW120969   0.229   1.010   0.585
 6690SOL    HW220970   0.105   1.050   0.487
 6691SOL     OW20971   1.000   4.743   1.927
 6691SOL    HW120972   0.966   4.662   1.974
 6691SOL    HW220973   0.932   4.816   1.931
 6692SOL     OW20974   5.404   3.561   6.586
 6692SOL    HW120975   5.455   3.636   6.546
 6692SOL    HW220976   5.389   3.490   6.517
 6693SOL     OW20977   3.119   3.161   5.892
 6693SOL    HW120978   3.055   3.181   5.966
 6693SOL    HW220979   3.103   3.225   5.817
 6694SOL     OW20980   2.228   5.473   0.390
 6694SOL    HW120981   2.189   5.470   0.483
 6694SOL    HW220982   2.211   5.562   0.350
 6695SOL     OW20983   0.794   1.318   6.964
 6695SOL    HW120984   0.797   1.389   6.893
 6695SOL    HW220985   0.870   1.255   6.951
 6696SOL     OW20986   1.224   2.102   0.935
 6696SOL    HW120987   1.158   2.177   0.928
 6696SOL    HW220988   1.316   2.136   0.916
 6697SOL     OW20989   5.276   3.049   4.285
 6697SOL    HW120990   5.313   3.142   4.290
 6697SOL    HW220991   5.201   3.047   4.218
 6698SOL     OW20992   2.420   4.320   5.537
 6698SOL    HW120993   2.487   4.309   5.611
 6698SOL    HW220994   2.406   4.231   5.493
 6699SOL     OW20995   1.453   3.219   7.011
 6699SOL    HW120996   1.411   3.247   6.924
 6699SOL    HW220997   1.541   3.265   7.022
 6700SOL     OW20998   0.530   6.415   6.824
 6700SOL    HW120999   0.586   6.462   6.755
 6700SOL    HW221000   0.587   6.390   6.902
 6701SOL     OW21001   1.693   2.438   6.498
 6701SOL    HW121002   1.616   2.410   6.442
 6701SOL    HW221003   1.667   2.516   6.555
 6702SOL     OW21004   3.522   3.877   0.971
 6702SOL    HW121005   3.594   3.848   0.908
 6702SOL    HW221006   3.437   3.889   0.921
 6703SOL     OW21007   0.302   1.799   0.050
 6703SOL    HW121008   0.342   1.763   6.991
 6703SOL    HW221009   0.371   1.850   0.100
 6704SOL     OW21010   5.178   3.250   2.420
 6704SOL    HW121011   5.243   3.211   2.355
 6704SOL    HW221012   5.085   3.223   2.395
 6705SOL     OW21013   4.859   3.032   0.936
 6705SOL    HW121014   4.953   3.064   0.921
 6705SOL    HW221015   4.857   2.932   0.938
 6706SOL     OW21016   1.672   6.987   6.548
 6706SOL    HW121017   1.652   6.890   6.535
 6706SOL    HW221018   1.595   0.016   6.515
 6707SOL     OW21019   1.396   4.806   3.933
 6707SOL    HW121020   1.348   4.872   3.990
 6707SOL    HW221021   1.455   4.749   3.991
 6708SOL     OW21022   2.631   5.886   0.592
 6708SOL    HW121023   2.637   5.924   0.500
 6708SOL    HW221024   2.707   5.823   0.607
 6709SOL     OW21025   4.776   1.995   4.152
 6709SOL    HW121026   4.735   2.055   4.220
 6709SOL    HW221027   4.854   1.947   4.192
 6710SOL     OW21028   2.774   1.753   0.904
 6710SOL    HW121029   2.698   1.810   0.934
 6710SOL    HW221030   2.740   1.679   0.846
 6711SOL     OW21031   5.365   3.354   6.395
 6711SOL    HW121032   5.417   3.286   6.345
 6711SOL    HW221033   5.301   3.399   6.332
 6712SOL     OW21034   3.057   6.510   0.157
 6712SOL    HW121035   2.968   6.544   0.190
 6712SOL    HW221036   3.074   6.419   0.195
 6713SOL     OW21037   0.435   2.467   2.976
 6713SOL    HW121038   0.463   2.391   2.917
 6713SOL    HW221039   0.516   2.515   3.010
 6714SOL     OW21040   6.465   1.056   5.476
 6714SOL    HW121041   6.435   0.989   5.544
 6714SOL    HW221042   6.402   1.053   5.398
 6715SOL     OW21043   4.782   2.730   0.998
 6715SOL    HW121044   4.733   2.808   1.037
 6715SOL    HW221045   4.765   2.649   1.054
 6716SOL     OW21046   3.344   5.618   1.743
 6716SOL    HW121047   3.406   5.696   1.743
 6716SOL    HW221048   3.390   5.539   1.785
 6717SOL     OW21049   3.431   0.682   6.713
 6717SOL    HW121050   3.466   0.589   6.725
 6717SOL    HW221051   3.506   0.747   6.723
 6718SOL     OW21052   4.243   0.373   6.412
 6718SOL    HW121053   4.230   0.437   6.488
 6718SOL    HW221054   4.229   0.421   6.325
 6719SOL     OW21055   1.375   2.652   4.860
 6719SOL    HW121056   1.412   2.579   4.917
 6719SOL    HW221057   1.348   2.614   4.771
 6720SOL     OW21058   1.888   4.222   0.844
 6720SOL    HW121059   1.984   4.230   0.815
 6720SOL    HW221060   1.879   4.146   0.908
 6721SOL     OW21061   5.758   6.201   3.060
 6721SOL    HW121062   5.667   6.235   3.086
 6721SOL    HW221063   5.757   6.101   3.059
 6722SOL     OW21064   3.487   4.239   6.381
 6722SOL    HW121065   3.546   4.307   6.336
 6722SOL    HW221066   3.395   4.244   6.342
 6723SOL     OW21067   3.372   1.432   2.941
 6723SOL    HW121068   3.470   1.444   2.923
 6723SOL    HW221069   3.359   1.357   3.005
 6724SOL     OW21070   3.320   4.782   5.875
 6724SOL    HW121071   3.249   4.786   5.946
 6724SOL    HW221072   3.282   4.813   5.788
 6725SOL     OW21073   0.383   6.336   1.449
 6725SOL    HW121074   0.460   6.277   1.476
 6725SOL    HW221075   0.416   6.406   1.386
 6726SOL     OW21076   2.244   2.350   1.885
 6726SOL    HW121077   2.194   2.375   1.968
 6726SOL    HW221078   2.280   2.432   1.842
 6727SOL     OW21079   2.967   3.243   1.410
 6727SOL    HW121080   2.932   3.328   1.450
 6727SOL    HW221081   2.923   3.165   1.456
 6728SOL     OW21082   4.272   2.058   3.862
 6728SOL    HW121083   4.314   2.073   3.951
 6728SOL    HW221084   4.334   2.088   3.790
 6729SOL     OW21085   4.133   5.751   3.541
 6729SOL    HW121086   4.123   5.697   3.458
 6729SOL    HW221087   4.058   5.817   3.548
 6730SOL     OW21088   0.653   6.891   2.502
 6730SOL    HW121089   0.645   6.799   2.464
 6730SOL    HW221090   0.748   6.907   2.531
 6731SOL     OW21091   1.625   4.195   1.099
 6731SOL    HW121092   1.681   4.276   1.081
 6731SOL    HW221093   1.683   4.118   1.123
 6732SOL     OW21094   3.494   6.054   6.913
 6732SOL    HW121095   3.459   6.120   6.980
 6732SOL    HW221096   3.417   6.012   6.865
 6733SOL     OW21097   6.161   5.621   4.664
 6733SOL    HW121098   6.168   5.538   4.719
 6733SOL    HW221099   6.236   5.624   4.597
 6734SOL     OW21100   2.884   4.122   6.662
 6734SOL    HW121101   2.840   4.032   6.655
 6734SOL    HW221102   2.886   4.165   6.572
 6735SOL     OW21103   0.906   6.631   6.698
 6735SOL    HW121104   0.898   6.565   6.623
 6735SOL    HW221105   0.951   6.588   6.776
 6736SOL     OW21106   2.253   4.286   2.203
 6736SOL    HW121107   2.321   4.343   2.251
 6736SOL    HW221108   2.262   4.192   2.235
 6737SOL     OW21109   1.256   0.152   1.278
 6737SOL    HW121110   1.223   0.061   1.305
 6737SOL    HW221111   1.341   0.172   1.326
 6738SOL     OW21112   5.609   1.939   0.501
 6738SOL    HW121113   5.546   1.991   0.558
 6738SOL    HW221114   5.557   1.872   0.448
 6739SOL     OW21115   3.934   5.708   6.057
 6739SOL    HW121116   3.841   5.692   6.089
 6739SOL    HW221117   3.960   5.638   5.990
 6740SOL     OW21118   5.561   2.588   4.875
 6740SOL    HW121119   5.529   2.656   4.809
 6740SOL    HW221120   5.659   2.598   4.889
 6741SOL     OW21121   6.998   0.444   4.955
 6741SOL    HW121122   0.038   0.489   5.015
 6741SOL    HW221123   6.970   0.507   4.883
 6742SOL     OW21124   6.085   6.515   4.981
 6742SOL    HW121125   6.086   6.521   4.881
 6742SOL    HW221126   6.179   6.514   5.015
 6743SOL     OW21127   5.573   2.230   0.917
 6743SOL    HW121128   5.507   2.275   0.856
 6743SOL    HW221129   5.582   2.282   1.001
 6744SOL     OW21130   4.684   1.065   3.797
 6744SOL    HW121131   4.760   1.080   3.734
 6744SOL    HW221132   4.608   1.126   3.773
 6745SOL     OW21133   0.696   3.412   2.822
 6745SOL    HW121134   0.609   3.362   2.819
 6745SOL    HW221135   0.766   3.354   2.863
 6746SOL     OW21136   6.306   6.390   0.419
 6746SOL    HW121137   6.388   6.353   0.461
 6746SOL    HW221138   6.236   6.319   0.414
 6747SOL     OW21139   5.425   5.134   5.775
 6747SOL    HW121140   5.360   5.209   5.774
 6747SOL    HW221141   5.502   5.156   5.834
 6748SOL     OW21142   6.009   0.367   2.326
 6748SOL    HW121143   5.999   0.352   2.228
 6748SOL    HW221144   6.007   0.465   2.345
 6749SOL     OW21145   3.265   5.018   1.075
 6749SOL    HW121146   3.174   5.057   1.091
 6749SOL    HW221147   3.257   4.919   1.067
 6750SOL     OW21148   2.154   2.980   4.834
 6750SOL    HW121149   2.223   2.988   4.907
 6750SOL    HW221150   2.169   2.897   4.782
 6751SOL     OW21151   5.264   3.039   5.832
 6751SOL    HW121152   5.318   3.122   5.825
 6751SOL    HW221153   5.166   3.063   5.831
 6752SOL     OW21154   5.479   1.099   0.442
 6752SOL    HW121155   5.554   1.128   0.384
 6752SOL    HW221156   5.496   1.006   0.476
 6753SOL     OW21157   5.844   0.177   6.110
 6753SOL    HW121158   5.890   0.182   6.198
 6753SOL    HW221159   5.827   0.269   6.076
 6754SOL     OW21160   4.063   0.997   6.627
 6754SOL    HW121161   4.142   0.990   6.567
 6754SOL    HW221162   4.002   1.069   6.594
 6755SOL     OW21163   4.796   1.700   3.023
 6755SOL    HW121164   4.726   1.637   2.990
 6755SOL    HW221165   4.873   1.699   2.960
 6756SOL     OW21166   4.059   4.734   3.064
 6756SOL    HW121167   4.070   4.733   3.163
 6756SOL    HW221168   4.141   4.696   3.021
 6757SOL     OW21169   6.460   3.691   2.166
 6757SOL    HW121170   6.436   3.714   2.260
 6757SOL    HW221171   6.433   3.765   2.105
 6758SOL     OW21172   6.897   2.109   1.988
 6758SOL    HW121173   6.938   2.138   1.902
 6758SOL    HW221174   6.935   2.164   2.063
 6759SOL     OW21175   6.575   5.856   4.304
 6759SOL    HW121176   6.511   5.934   4.306
 6759SOL    HW221177   6.537   5.784   4.246
 6760SOL     OW21178   1.285   3.739   5.524
 6760SOL    HW121179   1.295   3.675   5.448
 6760SOL    HW221180   1.192   3.735   5.559
 6761SOL     OW21181   6.508   3.084   6.840
 6761SOL    HW121182   6.445   3.136   6.898
 6761SOL    HW221183   6.481   2.988   6.839
 6762SOL     OW21184   6.729   1.852   4.507
 6762SOL    HW121185   6.756   1.763   4.542
 6762SOL    HW221186   6.630   1.857   4.499
 6763SOL     OW21187   5.293   6.772   5.233
 6763SOL    HW121188   5.278   6.724   5.146
 6763SOL    HW221189   5.215   6.757   5.293
 6764SOL     OW21190   1.930   3.952   0.027
 6764SOL    HW121191   1.920   3.886   0.101
 6764SOL    HW221192   1.945   3.904   6.966
 6765SOL     OW21193   5.456   5.536   2.465
 6765SOL    HW121194   5.426   5.630   2.449
 6765SOL    HW221195   5.505   5.532   2.553
 6766SOL     OW21196   2.486   2.430   5.233
 6766SOL    HW121197   2.479   2.337   5.270
 6766SOL    HW221198   2.408   2.448   5.173
 6767SOL     OW21199   0.752   2.652   5.992
 6767SOL    HW121200   0.790   2.724   5.934
 6767SOL    HW221201   0.772   2.673   6.088
 6768SOL     OW21202   6.602   0.236   5.284
 6768SOL    HW121203   6.686   0.242   5.337
 6768SOL    HW221204   6.536   0.305   5.317
 6769SOL     OW21205   1.164   2.802   6.254
 6769SOL    HW121206   1.136   2.822   6.160
 6769SOL    HW221207   1.154   2.704   6.271
 6770SOL     OW21208   6.985   2.754   4.063
 6770SOL    HW121209   6.975   2.660   4.029
 6770SOL    HW221210   6.940   2.761   4.152
 6771SOL     OW21211   6.202   1.964   1.415
 6771SOL    HW121212   6.253   1.998   1.336
 6771SOL    HW221213   6.105   1.983   1.403
 6772SOL     OW21214   1.933   6.670   2.128
 6772SOL    HW121215   1.847   6.718   2.146
 6772SOL    HW221216   1.934   6.584   2.178
 6773SOL     OW21217   1.862   1.657   3.222
 6773SOL    HW121218   1.852   1.720   3.299
 6773SOL    HW221219   1.860   1.709   3.136
 6774SOL     OW21220   3.680   0.880   5.563
 6774SOL    HW121221   3.672   0.906   5.660
 6774SOL    HW221222   3.763   0.921   5.525
 6775SOL     OW21223   1.948   3.460   5.330
 6775SOL    HW121224   1.979   3.505   5.414
 6775SOL    HW221225   1.860   3.499   5.302
 6776SOL     OW21226   3.185   3.114   3.924
 6776SOL    HW121227   3.093   3.123   3.886
 6776SOL    HW221228   3.203   3.192   3.984
 6777SOL     OW21229   6.642   0.313   4.903
 6777SOL    HW121230   6.646   0.344   4.808
 6777SOL    HW221231   6.735   0.313   4.941
 6778SOL     OW21232   6.097   5.961   1.238
 6778SOL    HW121233   6.150   5.896   1.185
 6778SOL    HW221234   6.122   6.054   1.210
 6779SOL     OW21235   5.444   3.024   5.265
 6779SOL    HW121236   5.516   2.999   5.330
 6779SOL    HW221237   5.356   2.990   5.299
 6780SOL     OW21238   4.717   0.949   2.273
 6780SOL    HW121239   4.651   0.926   2.200
 6780SOL    HW221240   4.681   1.023   2.328
 6781SOL     OW21241   5.650   3.786   3.606
 6781SOL    HW121242   5.716   3.839   3.551
 6781SOL    HW221243   5.642   3.694   3.567
 6782SOL     OW21244   6.443   1.888   3.005
 6782SOL    HW121245   6.494   1.816   2.957
 6782SOL    HW221246   6.486   1.976   2.987
 6783SOL     OW21247   0.532   6.682   6.955
 6783SOL    HW121248   0.471   6.603   6.953
 6783SOL    HW221249   0.625   6.653   6.934
 6784SOL     OW21250   1.279   4.803   6.966
 6784SOL    HW121251   1.181   4.804   6.945
 6784SOL    HW221252   1.319   4.891   6.942
 6785SOL     OW21253   5.294   4.338   0.981
 6785SOL    HW121254   5.360   4.319   1.054
 6785SOL    HW221255   5.342   4.370   0.900
 6786SOL     OW21256   6.391   1.674   6.075
 6786SOL    HW121257   6.315   1.634   6.127
 6786SOL    HW221258   6.370   1.770   6.055
 6787SOL     OW21259   3.956   2.287   1.766
 6787SOL    HW121260   3.870   2.275   1.816
 6787SOL    HW221261   3.986   2.382   1.773
 6788SOL     OW21262   1.364   4.807   1.351
 6788SOL    HW121263   1.284   4.749   1.336
 6788SOL    HW221264   1.424   4.763   1.418
 6789SOL     OW21265   6.493   3.107   2.303
 6789SOL    HW121266   6.426   3.172   2.337
 6789SOL    HW221267   6.481   3.096   2.204
 6790SOL     OW21268   1.517   6.171   0.024
 6790SOL    HW121269   1.539   6.080   0.060
 6790SOL    HW221270   1.494   6.232   0.100
 6791SOL     OW21271   2.346   6.563   3.795
 6791SOL    HW121272   2.411   6.491   3.769
 6791SOL    HW221273   2.376   6.605   3.880
 6792SOL     OW21274   2.962   6.239   6.765
 6792SOL    HW121275   2.900   6.189   6.825
 6792SOL    HW221276   2.999   6.177   6.696
 6793SOL     OW21277   1.913   3.119   5.933
 6793SOL    HW121278   1.953   3.193   5.988
 6793SOL    HW221279   1.984   3.053   5.910
 6794SOL     OW21280   3.993   2.185   4.048
 6794SOL    HW121281   3.905   2.224   4.020
 6794SOL    HW221282   4.063   2.256   4.045
 6795SOL     OW21283   0.618   0.240   2.924
 6795SOL    HW121284   0.714   0.243   2.950
 6795SOL    HW221285   0.609   0.211   2.829
 6796SOL     OW21286   5.348   3.153   2.229
 6796SOL    HW121287   5.446   3.131   2.229
 6796SOL    HW221288   5.298   3.082   2.179
 6797SOL     OW21289   2.590   4.242   0.537
 6797SOL    HW121290   2.569   4.318   0.598
 6797SOL    HW221291   2.662   4.269   0.474
 6798SOL     OW21292   5.520   2.068   1.363
 6798SOL    HW121293   5.496   2.151   1.312
 6798SOL    HW221294   5.605   2.083   1.413
 6799SOL     OW21295   4.149   6.986   2.652
 6799SOL    HW121296   4.165   6.894   2.686
 6799SOL    HW221297   4.141   0.024   2.730
 6800SOL     OW21298   6.938   2.095   3.318
 6800SOL    HW121299   6.997   2.167   3.279
 6800SOL    HW221300   6.845   2.129   3.325
 6801SOL     OW21301   1.828   5.573   4.647
 6801SOL    HW121302   1.772   5.528   4.716
 6801SOL    HW221303   1.924   5.546   4.659
 6802SOL     OW21304   2.762   4.735   2.449
 6802SOL    HW121305   2.765   4.637   2.430
 6802SOL    HW221306   2.737   4.785   2.366
 6803SOL     OW21307   5.849   5.332   6.074
 6803SOL    HW121308   5.807   5.423   6.069
 6803SOL    HW221309   5.948   5.342   6.087
 6804SOL     OW21310   3.199   5.894   1.704
 6804SOL    HW121311   3.266   5.944   1.758
 6804SOL    HW221312   3.222   5.797   1.703
 6805SOL     OW21313   1.045   4.084   3.644
 6805SOL    HW121314   1.046   4.134   3.558
 6805SOL    HW221315   1.011   3.991   3.628
 6806SOL     OW21316   6.049   3.292   2.346
 6806SOL    HW121317   6.014   3.280   2.253
 6806SOL    HW221318   6.023   3.383   2.380
 6807SOL     OW21319   4.047   3.715   2.060
 6807SOL    HW121320   4.066   3.739   2.155
 6807SOL    HW221321   4.033   3.798   2.006
 6808SOL     OW21322   3.087   6.056   4.414
 6808SOL    HW121323   2.998   6.031   4.375
 6808SOL    HW221324   3.132   6.122   4.355
 6809SOL     OW21325   6.256   1.788   0.253
 6809SOL    HW121326   6.261   1.753   0.160
 6809SOL    HW221327   6.188   1.736   0.305
 6810SOL     OW21328   3.454   0.260   5.086
 6810SOL    HW121329   3.487   0.320   5.014
 6810SOL    HW221330   3.396   0.313   5.148
 6811SOL     OW21331   6.418   1.669   1.132
 6811SOL    HW121332   6.350   1.639   1.199
 6811SOL    HW221333   6.381   1.745   1.078
 6812SOL     OW21334   4.097   4.384   5.887
 6812SOL    HW121335   4.061   4.290   5.891
 6812SOL    HW221336   4.054   4.439   5.959
 6813SOL     OW21337   1.387   3.681   1.157
 6813SOL    HW121338   1.481   3.684   1.123
 6813SOL    HW221339   1.334   3.618   1.101
 6814SOL     OW21340   5.366   2.342   1.357
 6814SOL    HW121341   5.347   2.265   1.419
 6814SOL    HW221342   5.291   2.350   1.291
 6815SOL     OW21343   1.687   5.620   1.607
 6815SOL    HW121344   1.593   5.605   1.638
 6815SOL    HW221345   1.727   5.532   1.579
 6816SOL     OW21346   5.068   0.915   3.009
 6816SOL    HW121347   5.091   0.984   3.079
 6816SOL    HW221348   4.975   0.881   3.025
 6817SOL     OW21349   6.126   0.713   0.582
 6817SOL    HW121350   6.134   0.626   0.630
 6817SOL    HW221351   6.182   0.711   0.499
 6818SOL     OW21352   0.321   6.300   5.512
 6818SOL    HW121353   0.323   6.367   5.438
 6818SOL    HW221354   0.323   6.207   5.473
 6819SOL     OW21355   6.357   4.250   0.318
 6819SOL    HW121356   6.454   4.266   0.333
 6819SOL    HW221357   6.321   4.320   0.255
 6820SOL     OW21358   2.844   4.376   1.281
 6820SOL    HW121359   2.877   4.282   1.286
 6820SOL    HW221360   2.814   4.405   1.372
 6821SOL     OW21361   2.462   3.994   6.214
 6821SOL    HW121362   2.402   4.069   6.240
 6821SOL    HW221363   2.419   3.940   6.142
 6822SOL     OW21364   1.044   4.363   5.125
 6822SOL    HW121365   1.096   4.445   5.102
 6822SOL    HW221366   0.989   4.380   5.206
 6823SOL     OW21367   6.504   2.996   5.422
 6823SOL    HW121368   6.437   2.945   5.369
 6823SOL    HW221369   6.585   3.014   5.366
 6824SOL     OW21370   1.715   1.197   3.679
 6824SOL    HW121371   1.726   1.127   3.749
 6824SOL    HW221372   1.624   1.237   3.685
 6825SOL     OW21373   5.025   5.816   1.306
 6825SOL    HW121374   5.018   5.718   1.322
 6825SOL    HW221375   5.055   5.862   1.389
 6826SOL     OW21376   5.489   1.171   4.477
 6826SOL    HW121377   5.409   1.142   4.529
 6826SOL    HW221378   5.493   1.119   4.392
 6827SOL     OW21379   5.872   5.465   5.110
 6827SOL    HW121380   5.790   5.417   5.081
 6827SOL    HW221381   5.847   5.554   5.150
 6828SOL     OW21382   2.397   1.350   2.572
 6828SOL    HW121383   2.492   1.326   2.553
 6828SOL    HW221384   2.336   1.297   2.513
 6829SOL     OW21385   5.837   6.540   5.067
 6829SOL    HW121386   5.925   6.514   5.028
 6829SOL    HW221387   5.763   6.497   5.015
 6830SOL     OW21388   3.580   5.779   3.683
 6830SOL    HW121389   3.565   5.753   3.588
 6830SOL    HW221390   3.524   5.860   3.704
 6831SOL     OW21391   2.018   6.820   6.715
 6831SOL    HW121392   2.059   6.848   6.627
 6831SOL    HW221393   1.998   6.902   6.769
 6832SOL     OW21394   3.699   3.803   0.768
 6832SOL    HW121395   3.721   3.881   0.710
 6832SOL    HW221396   3.783   3.765   0.806
 6833SOL     OW21397   3.585   5.458   0.137
 6833SOL    HW121398   3.565   5.461   0.235
 6833SOL    HW221399   3.684   5.450   0.123
 6834SOL     OW21400   6.847   5.896   4.930
 6834SOL    HW121401   6.749   5.880   4.915
 6834SOL    HW221402   6.884   5.824   4.988
 6835SOL     OW21403   3.156   0.221   3.206
 6835SOL    HW121404   3.110   0.286   3.145
 6835SOL    HW221405   3.098   0.141   3.220
 6836SOL     OW21406   0.949   4.525   6.859
 6836SOL    HW121407   0.884   4.557   6.927
 6836SOL    HW221408   0.987   4.436   6.887
 6837SOL     OW21409   6.289   2.524   1.371
 6837SOL    HW121410   6.298   2.459   1.447
 6837SOL    HW221411   6.373   2.523   1.316
 6838SOL     OW21412   2.446   4.936   0.175
 6838SOL    HW121413   2.441   4.846   0.131
 6838SOL    HW221414   2.354   4.968   0.197
 6839SOL     OW21415   6.977   3.222   5.142
 6839SOL    HW121416   0.043   3.228   5.101
 6839SOL    HW221417   6.975   3.145   5.207
 6840SOL     OW21418   3.468   6.520   4.189
 6840SOL    HW121419   3.369   6.535   4.184
 6840SOL    HW221420   3.516   6.594   4.143
 6841SOL     OW21421   4.990   6.163   1.108
 6841SOL    HW121422   4.933   6.132   1.032
 6841SOL    HW221423   4.939   6.157   1.194
 6842SOL     OW21424   6.952   4.392   3.421
 6842SOL    HW121425   7.014   4.419   3.347
 6842SOL    HW221426   6.961   4.455   3.498
 6843SOL     OW21427   4.257   3.184   1.626
 6843SOL    HW121428   4.342   3.134   1.641
 6843SOL    HW221429   4.275   3.282   1.627
 6844SOL     OW21430   3.436   6.711   3.717
 6844SOL    HW121431   3.516   6.754   3.760
 6844SOL    HW221432   3.465   6.664   3.633
 6845SOL     OW21433   3.844   4.209   0.300
 6845SOL    HW121434   3.794   4.260   0.371
 6845SOL    HW221435   3.808   4.116   0.294
 6846SOL     OW21436   3.240   3.253   3.635
 6846SOL    HW121437   3.149   3.295   3.638
 6846SOL    HW221438   3.271   3.233   3.727
 6847SOL     OW21439   4.299   3.830   0.367
 6847SOL    HW121440   4.273   3.736   0.391
 6847SOL    HW221441   4.398   3.841   0.377
 6848SOL     OW21442   0.642   6.516   4.441
 6848SOL    HW121443   0.644   6.585   4.514
 6848SOL    HW221444   0.568   6.537   4.377
 6849SOL     OW21445   2.509   0.854   4.650
 6849SOL    HW121446   2.602   0.874   4.682
 6849SOL    HW221447   2.444   0.870   4.723
 6850SOL     OW21448   0.762   1.653   1.428
 6850SOL    HW121449   0.673   1.610   1.408
 6850SOL    HW221450   0.807   1.603   1.502
 6851SOL     OW21451   1.966   5.607   1.080
 6851SOL    HW121452   1.956   5.622   1.178
 6851SOL    HW221453   2.061   5.584   1.059
 6852SOL     OW21454   4.553   4.690   2.983
 6852SOL    HW121455   4.597   4.647   2.904
 6852SOL    HW221456   4.606   4.770   3.010
 6853SOL     OW21457   6.293   4.541   4.844
 6853SOL    HW121458   6.296   4.449   4.885
 6853SOL    HW221459   6.278   4.609   4.916
 6854SOL     OW21460   6.104   0.921   6.089
 6854SOL    HW121461   6.185   0.917   6.148
 6854SOL    HW221462   6.064   0.830   6.082
 6855SOL     OW21463   2.063   0.043   3.278
 6855SOL    HW121464   2.042   0.119   3.217
 6855SOL    HW221465   2.149   0.061   3.326
 6856SOL     OW21466   0.881   4.867   5.338
 6856SOL    HW121467   0.939   4.939   5.301
 6856SOL    HW221468   0.873   4.793   5.271
 6857SOL     OW21469   5.511   0.395   6.492
 6857SOL    HW121470   5.489   0.476   6.437
 6857SOL    HW221471   5.570   0.420   6.568
 6858SOL     OW21472   3.624   3.400   6.534
 6858SOL    HW121473   3.667   3.323   6.488
 6858SOL    HW221474   3.533   3.374   6.565
 6859SOL     OW21475   4.402   0.369   1.228
 6859SOL    HW121476   4.309   0.358   1.262
 6859SOL    HW221477   4.467   0.350   1.301
 6860SOL     OW21478   4.478   3.100   0.205
 6860SOL    HW121479   4.503   3.102   0.108
 6860SOL    HW221480   4.433   3.185   0.230
 6861SOL     OW21481   6.337   3.267   6.971
 6861SOL    HW121482   6.340   3.358   6.931
 6861SOL    HW221483   6.243   3.233   6.972
 6862SOL     OW21484   2.842   4.863   4.472
 6862SOL    HW121485   2.934   4.887   4.444
 6862SOL    HW221486   2.845   4.816   4.560
 6863SOL     OW21487   1.392   3.807   3.333
 6863SOL    HW121488   1.451   3.781   3.257
 6863SOL    HW221489   1.442   3.796   3.419
 6864SOL     OW21490   2.781   6.488   5.436
 6864SOL    HW121491   2.702   6.483   5.374
 6864SOL    HW221492   2.863   6.457   5.388
 6865SOL     OW21493   0.928   2.485   5.233
 6865SOL    HW121494   0.875   2.559   5.192
 6865SOL    HW221495   0.998   2.523   5.292
 6866SOL     OW21496   0.579   4.353   3.091
 6866SOL    HW121497   0.645   4.333   3.163
 6866SOL    HW221498   0.541   4.444   3.106
 6867SOL     OW21499   2.929   5.771   3.490
 6867SOL    HW121500   2.955   5.775   3.587
 6867SOL    HW221501   3.010   5.751   3.435
 6868SOL     OW21502   2.130   6.057   5.685
 6868SOL    HW121503   2.204   6.123   5.700
 6868SOL    HW221504   2.045   6.094   5.723
 6869SOL     OW21505   6.618   2.462   3.172
 6869SOL    HW121506   6.570   2.505   3.248
 6869SOL    HW221507   6.716   2.458   3.193
 6870SOL     OW21508   5.040   3.772   2.841
 6870SOL    HW121509   4.949   3.805   2.869
 6870SOL    HW221510   5.101   3.850   2.829
 6871SOL     OW21511   3.859   5.700   2.706
 6871SOL    HW121512   3.887   5.743   2.792
 6871SOL    HW221513   3.829   5.606   2.723
 6872SOL     OW21514   3.595   4.095   1.132
 6872SOL    HW121515   3.587   4.017   1.071
 6872SOL    HW221516   3.691   4.110   1.156
 6873SOL     OW21517   4.479   5.044   5.567
 6873SOL    HW121518   4.491   5.049   5.666
 6873SOL    HW221519   4.384   5.020   5.547
 6874SOL     OW21520   1.236   2.046   6.139
 6874SOL    HW121521   1.215   1.950   6.120
 6874SOL    HW221522   1.182   2.077   6.217
 6875SOL     OW21523   3.913   6.483   4.650
 6875SOL    HW121524   3.969   6.401   4.632
 6875SOL    HW221525   3.914   6.503   4.748
 6876SOL     OW21526   3.007   0.257   5.389
 6876SOL    HW121527   3.019   0.317   5.310
 6876SOL    HW221528   3.080   0.275   5.456
 6877SOL     OW21529   2.109   3.947   0.643
 6877SOL    HW121530   2.190   3.893   0.666
 6877SOL    HW221531   2.125   4.043   0.667
 6878SOL     OW21532   2.211   2.305   5.592
 6878SOL    HW121533   2.240   2.220   5.637
 6878SOL    HW221534   2.113   2.302   5.573
 6879SOL     OW21535   6.530   1.004   6.142
 6879SOL    HW121536   6.469   0.925   6.156
 6879SOL    HW221537   6.490   1.065   6.073
 6880SOL     OW21538   1.685   5.307   4.166
 6880SOL    HW121539   1.688   5.267   4.257
 6880SOL    HW221540   1.612   5.264   4.113
 6881SOL     OW21541   5.507   0.013   1.090
 6881SOL    HW121542   5.469   0.072   1.161
 6881SOL    HW221543   5.604   7.022   1.108
 6882SOL     OW21544   1.961   5.963   5.450
 6882SOL    HW121545   1.937   5.884   5.506
 6882SOL    HW221546   2.007   6.031   5.507
 6883SOL     OW21547   2.158   6.768   2.002
 6883SOL    HW121548   2.075   6.759   2.057
 6883SOL    HW221549   2.133   6.787   1.907
 6884SOL     OW21550   1.543   5.197   3.352
 6884SOL    HW121551   1.586   5.204   3.262
 6884SOL    HW221552   1.507   5.287   3.378
 6885SOL     OW21553   4.506   4.487   4.692
 6885SOL    HW121554   4.556   4.402   4.706
 6885SOL    HW221555   4.446   4.503   4.771
 6886SOL     OW21556   5.789   6.250   0.992
 6886SOL    HW121557   5.784   6.194   1.075
 6886SOL    HW221558   5.704   6.302   0.982
 6887SOL     OW21559   6.963   0.659   4.773
 6887SOL    HW121560   6.903   0.660   4.692
 6887SOL    HW221561   6.928   0.725   4.840
 6888SOL     OW21562   6.935   6.853   3.678
 6888SOL    HW121563   6.914   6.932   3.621
 6888SOL    HW221564   6.898   6.770   3.636
 6889SOL     OW21565   2.191   4.184   6.147
 6889SOL    HW121566   2.245   4.231   6.077
 6889SOL    HW221567   2.105   4.233   6.161
 6890SOL     OW21568   1.784   0.195   1.069
 6890SOL    HW121569   1.843   0.168   1.146
 6890SOL    HW221570   1.779   0.295   1.065
 6891SOL     OW21571   5.558   5.733   5.186
 6891SOL    HW121572   5.546   5.818   5.237
 6891SOL    HW221573   5.487   5.668   5.214
 6892SOL     OW21574   2.796   2.123   4.547
 6892SOL    HW121575   2.750   2.059   4.485
 6892SOL    HW221576   2.759   2.215   4.534
 6893SOL     OW21577   5.499   7.011   0.309
 6893SOL    HW121578   5.504   0.083   0.329
 6893SOL    HW221579   5.404   6.985   0.291
 6894SOL     OW21580   5.788   4.156   4.687
 6894SOL    HW121581   5.780   4.180   4.783
 6894SOL    HW221582   5.773   4.237   4.631
 6895SOL     OW21583   5.185   4.626   4.031
 6895SOL    HW121584   5.259   4.640   4.097
 6895SOL    HW221585   5.210   4.552   3.969
 6896SOL     OW21586   5.646   2.171   2.243
 6896SOL    HW121587   5.711   2.130   2.306
 6896SOL    HW221588   5.589   2.237   2.291
 6897SOL     OW21589   4.148   1.402   1.392
 6897SOL    HW121590   4.220   1.444   1.448
 6897SOL    HW221591   4.170   1.415   1.295
 6898SOL     OW21592   4.594   1.357   1.476
 6898SOL    HW121593   4.618   1.260   1.463
 6898SOL    HW221594   4.510   1.376   1.426
 6899SOL     OW21595   5.390   4.211   5.405
 6899SOL    HW121596   5.395   4.122   5.360
 6899SOL    HW221597   5.336   4.204   5.489
 6900SOL     OW21598   4.304   0.310   5.750
 6900SOL    HW121599   4.356   0.225   5.756
 6900SOL    HW221600   4.222   0.296   5.695
 6901SOL     OW21601   1.504   0.506   6.977
 6901SOL    HW121602   1.600   0.508   6.950
 6901SOL    HW221603   1.446   0.506   6.895
 6902SOL     OW21604   6.338   4.872   2.151
 6902SOL    HW121605   6.292   4.882   2.063
 6902SOL    HW221606   6.356   4.775   2.168
 6903SOL     OW21607   6.430   4.797   6.639
 6903SOL    HW121608   6.494   4.724   6.614
 6903SOL    HW221609   6.337   4.766   6.620
 6904SOL     OW21610   6.832   0.897   2.626
 6904SOL    HW121611   6.809   0.816   2.680
 6904SOL    HW221612   6.895   0.954   2.677
 6905SOL     OW21613   3.558   4.890   0.793
 6905SOL    HW121614   3.545   4.930   0.883
 6905SOL    HW221615   3.637   4.828   0.794
 6906SOL     OW21616   5.898   6.611   2.095
 6906SOL    HW121617   5.817   6.669   2.085
 6906SOL    HW221618   5.875   6.517   2.071
 6907SOL     OW21619   3.625   1.431   1.937
 6907SOL    HW121620   3.619   1.530   1.924
 6907SOL    HW221621   3.559   1.385   1.878
 6908SOL     OW21622   5.785   6.766   6.613
 6908SOL    HW121623   5.713   6.784   6.547
 6908SOL    HW221624   5.754   6.789   6.705
 6909SOL     OW21625   2.307   2.075   0.270
 6909SOL    HW121626   2.324   2.152   0.331
 6909SOL    HW221627   2.283   1.994   0.324
 6910SOL     OW21628   4.162   1.574   0.682
 6910SOL    HW121629   4.192   1.630   0.604
 6910SOL    HW221630   4.149   1.480   0.651
 6911SOL     OW21631   3.927   5.871   5.637
 6911SOL    HW121632   4.004   5.881   5.700
 6911SOL    HW221633   3.906   5.960   5.597
 6912SOL     OW21634   3.478   5.728   2.158
 6912SOL    HW121635   3.447   5.635   2.136
 6912SOL    HW221636   3.576   5.726   2.178
 6913SOL     OW21637   4.166   6.441   5.665
 6913SOL    HW121638   4.088   6.431   5.602
 6913SOL    HW221639   4.168   6.364   5.728
 6914SOL     OW21640   0.394   4.865   0.257
 6914SOL    HW121641   0.363   4.960   0.255
 6914SOL    HW221642   0.329   4.810   0.309
 6915SOL     OW21643   0.837   7.014   6.860
 6915SOL    HW121644   0.834   0.083   6.891
 6915SOL    HW221645   0.930   6.990   6.834
 6916SOL     OW21646   6.100   0.474   5.932
 6916SOL    HW121647   6.113   0.528   5.849
 6916SOL    HW221648   6.050   0.390   5.909
 6917SOL     OW21649   4.041   6.508   6.069
 6917SOL    HW121650   3.994   6.583   6.114
 6917SOL    HW221651   4.139   6.529   6.062
 6918SOL     OW21652   1.371   2.717   4.003
 6918SOL    HW121653   1.399   2.802   4.047
 6918SOL    HW221654   1.275   2.723   3.977
 6919SOL     OW21655   1.647   6.130   3.628
 6919SOL    HW121656   1.729   6.175   3.664
 6919SOL    HW221657   1.674   6.045   3.582
 6920SOL     OW21658   5.650   6.114   4.081
 6920SOL    HW121659   5.675   6.043   4.146
 6920SOL    HW221660   5.581   6.079   4.018
 6921SOL     OW21661   2.037   4.455   2.596
 6921SOL    HW121662   2.022   4.548   2.630
 6921SOL    HW221663   2.017   4.451   2.499
 6922SOL     OW21664   1.943   6.713   1.579
 6922SOL    HW121665   2.030   6.679   1.615
 6922SOL    HW221666   1.908   6.785   1.640
 6923SOL     OW21667   4.886   6.109   5.216
 6923SOL    HW121668   4.880   6.203   5.182
 6923SOL    HW221669   4.824   6.050   5.164
 6924SOL     OW21670   5.041   5.997   2.654
 6924SOL    HW121671   5.001   6.078   2.697
 6924SOL    HW221672   5.090   6.023   2.571
 6925SOL     OW21673   4.079   5.662   1.387
 6925SOL    HW121674   4.165   5.696   1.349
 6925SOL    HW221675   4.024   5.620   1.315
 6926SOL     OW21676   2.766   4.508   5.392
 6926SOL    HW121677   2.824   4.540   5.317
 6926SOL    HW221678   2.820   4.450   5.453
 6927SOL     OW21679   4.303   3.984   0.029
 6927SOL    HW121680   4.235   4.020   0.093
 6927SOL    HW221681   4.394   3.995   0.068
 6928SOL     OW21682   6.764   0.082   6.701
 6928SOL    HW121683   6.795   7.013   6.689
 6928SOL    HW221684   6.664   0.083   6.710
 6929SOL     OW21685   4.231   6.660   0.918
 6929SOL    HW121686   4.297   6.695   0.984
 6929SOL    HW221687   4.274   6.654   0.828
 6930SOL     OW21688   0.087   0.705   3.438
 6930SOL    HW121689   7.014   0.705   3.455
 6930SOL    HW221690   0.125   0.794   3.464
 6931SOL     OW21691   3.065   7.025   1.142
 6931SOL    HW121692   3.023   0.055   1.214
 6931SOL    HW221693   3.019   6.936   1.138
 6932SOL     OW21694   3.263   2.647   0.585
 6932SOL    HW121695   3.299   2.658   0.678
 6932SOL    HW221696   3.314   2.577   0.537
 6933SOL     OW21697   3.093   6.309   5.122
 6933SOL    HW121698   2.996   6.309   5.098
 6933SOL    HW221699   3.137   6.228   5.082
 6934SOL     OW21700   5.353   4.981   0.106
 6934SOL    HW121701   5.398   4.926   0.036
 6934SOL    HW221702   5.261   4.947   0.121
 6935SOL     OW21703   4.865   5.225   3.859
 6935SOL    HW121704   4.913   5.282   3.793
 6935SOL    HW221705   4.907   5.134   3.862
 6936SOL     OW21706   1.315   4.889   0.203
 6936SOL    HW121707   1.312   4.853   0.110
 6936SOL    HW221708   1.345   4.984   0.201
 6937SOL     OW21709   4.983   6.528   6.751
 6937SOL    HW121710   4.981   6.447   6.809
 6937SOL    HW221711   4.891   6.563   6.739
 6938SOL     OW21712   6.571   2.450   5.312
 6938SOL    HW121713   6.513   2.449   5.394
 6938SOL    HW221714   6.639   2.523   5.320
 6939SOL     OW21715   6.224   4.601   1.880
 6939SOL    HW121716   6.165   4.625   1.957
 6939SOL    HW221717   6.188   4.641   1.796
 6940SOL     OW21718   4.339   1.457   3.905
 6940SOL    HW121719   4.350   1.426   3.999
 6940SOL    HW221720   4.314   1.380   3.847
 6941SOL     OW21721   3.467   2.673   5.505
 6941SOL    HW121722   3.505   2.620   5.580
 6941SOL    HW221723   3.517   2.653   5.421
 6942SOL     OW21724   6.610   1.449   6.801
 6942SOL    HW121725   6.521   1.410   6.781
 6942SOL    HW221726   6.661   1.462   6.715
 6943SOL     OW21727   5.871   4.370   0.342
 6943SOL    HW121728   5.927   4.382   0.424
 6943SOL    HW221729   5.873   4.273   0.315
 6944SOL     OW21730   2.678   0.262   0.392
 6944SOL    HW121731   2.652   0.194   0.461
 6944SOL    HW221732   2.774   0.287   0.406
 6945SOL     OW21733   2.898   1.429   6.028
 6945SOL    HW121734   2.820   1.481   5.993
 6945SOL    HW221735   2.974   1.491   6.047
 6946SOL     OW21736   6.039   4.444   2.845
 6946SOL    HW121737   6.091   4.442   2.760
 6946SOL    HW221738   6.089   4.497   2.914
 6947SOL     OW21739   3.657   6.820   1.188
 6947SOL    HW121740   3.574   6.874   1.199
 6947SOL    HW221741   3.671   6.763   1.269
 6948SOL     OW21742   3.157   1.313   6.189
 6948SOL    HW121743   3.099   1.294   6.268
 6948SOL    HW221744   3.251   1.284   6.209
 6949SOL     OW21745   4.854   0.310   2.386
 6949SOL    HW121746   4.848   0.300   2.485
 6949SOL    HW221747   4.945   0.346   2.362
 6950SOL     OW21748   3.486   2.084   3.670
 6950SOL    HW121749   3.586   2.076   3.667
 6950SOL    HW221750   3.455   2.135   3.590
 6951SOL     OW21751   3.899   4.115   5.657
 6951SOL    HW121752   3.914   4.062   5.574
 6951SOL    HW221753   3.806   4.154   5.655
 6952SOL     OW21754   0.699   3.587   6.654
 6952SOL    HW121755   0.623   3.586   6.588
 6952SOL    HW221756   0.782   3.554   6.610
 6953SOL     OW21757   5.775   2.004   4.891
 6953SOL    HW121758   5.795   2.022   4.795
 6953SOL    HW221759   5.676   2.005   4.905
 6954SOL     OW21760   0.557   4.268   2.043
 6954SOL    HW121761   0.583   4.251   1.948
 6954SOL    HW221762   0.468   4.225   2.060
 6955SOL     OW21763   6.793   1.744   3.848
 6955SOL    HW121764   6.815   1.656   3.891
 6955SOL    HW221765   6.813   1.818   3.912
 6956SOL     OW21766   3.390   3.774   1.476
 6956SOL    HW121767   3.415   3.696   1.534
 6956SOL    HW221768   3.304   3.814   1.509
 6957SOL     OW21769   1.244   4.121   6.982
 6957SOL    HW121770   1.255   4.151   6.887
 6957SOL    HW221771   1.330   4.135   0.006
 6958SOL     OW21772   2.222   3.286   6.208
 6958SOL    HW121773   2.287   3.236   6.265
 6958SOL    HW221774   2.232   3.256   6.113
 6959SOL     OW21775   4.058   1.007   5.777
 6959SOL    HW121776   4.147   1.012   5.823
 6959SOL    HW221777   3.987   0.989   5.845
 6960SOL     OW21778   1.289   6.068   0.397
 6960SOL    HW121779   1.326   6.139   0.458
 6960SOL    HW221780   1.301   6.097   0.302
 6961SOL     OW21781   5.892   0.610   3.674
 6961SOL    HW121782   5.925   0.696   3.634
 6961SOL    HW221783   5.797   0.596   3.649
 6962SOL     OW21784   3.105   2.847   0.485
 6962SOL    HW121785   3.173   2.782   0.521
 6962SOL    HW221786   3.040   2.870   0.557
 6963SOL     OW21787   6.974   6.172   1.772
 6963SOL    HW121788   0.022   6.201   1.711
 6963SOL    HW221789   6.900   6.240   1.771
 6964SOL     OW21790   3.950   4.863   5.835
 6964SOL    HW121791   3.954   4.936   5.766
 6964SOL    HW221792   3.955   4.904   5.926
 6965SOL     OW21793   6.212   0.391   6.578
 6965SOL    HW121794   6.125   0.428   6.610
 6965SOL    HW221795   6.235   0.310   6.632
 6966SOL     OW21796   3.763   2.041   3.644
 6966SOL    HW121797   3.822   2.118   3.666
 6966SOL    HW221798   3.772   2.018   3.547
 6967SOL     OW21799   2.560   2.669   0.296
 6967SOL    HW121800   2.594   2.757   0.262
 6967SOL    HW221801   2.625   2.632   0.362
 6968SOL     OW21802   2.761   0.436   3.453
 6968SOL    HW121803   2.750   0.352   3.505
 6968SOL    HW221804   2.673   0.483   3.446
 6969SOL     OW21805   3.520   3.242   1.874
 6969SOL    HW121806   3.592   3.173   1.881
 6969SOL    HW221807   3.540   3.304   1.798
 6970SOL     OW21808   4.545   3.988   0.160
 6970SOL    HW121809   4.615   4.059   0.145
 6970SOL    HW221810   4.569   3.935   0.240
 6971SOL     OW21811   5.901   2.404   2.093
 6971SOL    HW121812   5.994   2.419   2.061
 6971SOL    HW221813   5.845   2.484   2.070
 6972SOL     OW21814   5.105   6.648   4.154
 6972SOL    HW121815   5.170   6.717   4.188
 6972SOL    HW221816   5.017   6.659   4.201
 6973SOL     OW21817   2.146   4.476   3.144
 6973SOL    HW121818   2.208   4.399   3.135
 6973SOL    HW221819   2.189   4.549   3.196
 6974SOL     OW21820   2.894   3.445   5.186
 6974SOL    HW121821   2.841   3.364   5.211
 6974SOL    HW221822   2.836   3.526   5.190
 6975SOL     OW21823   1.707   0.260   6.122
 6975SOL    HW121824   1.661   0.320   6.187
 6975SOL    HW221825   1.718   0.307   6.034
 6976SOL     OW21826   1.074   6.093   1.899
 6976SOL    HW121827   1.089   6.005   1.944
 6976SOL    HW221828   1.161   6.140   1.887
 6977SOL     OW21829   5.794   2.441   0.885
 6977SOL    HW121830   5.698   2.418   0.904
 6977SOL    HW221831   5.802   2.476   0.792
 6978SOL     OW21832   4.865   3.443   4.089
 6978SOL    HW121833   4.827   3.429   3.998
 6978SOL    HW221834   4.852   3.360   4.144
 6979SOL     OW21835   0.526   3.660   4.129
 6979SOL    HW121836   0.586   3.624   4.200
 6979SOL    HW221837   0.567   3.642   4.039
 6980SOL     OW21838   4.774   1.970   5.129
 6980SOL    HW121839   4.874   1.975   5.137
 6980SOL    HW221840   4.739   1.896   5.187
 6981SOL     OW21841   3.143   3.464   6.412
 6981SOL    HW121842   3.141   3.529   6.488
 6981SOL    HW221843   3.198   3.501   6.337
 6982SOL     OW21844   1.422   6.974   4.419
 6982SOL    HW121845   1.354   6.913   4.460
 6982SOL    HW221846   1.499   6.919   4.386
 6983SOL     OW21847   5.553   1.229   3.099
 6983SOL    HW121848   5.547   1.148   3.041
 6983SOL    HW221849   5.629   1.287   3.069
 6984SOL     OW21850   2.216   1.194   6.836
 6984SOL    HW121851   2.261   1.278   6.865
 6984SOL    HW221852   2.243   1.119   6.898
 6985SOL     OW21853   4.341   6.836   3.695
 6985SOL    HW121854   4.249   6.856   3.661
 6985SOL    HW221855   4.382   6.919   3.732
 6986SOL     OW21856   2.750   6.489   5.894
 6986SOL    HW121857   2.776   6.449   5.806
 6986SOL    HW221858   2.736   6.416   5.961
 6987SOL     OW21859   6.516   4.364   6.640
 6987SOL    HW121860   6.428   4.411   6.636
 6987SOL    HW221861   6.511   4.289   6.706
 6988SOL     OW21862   4.957   2.025   6.799
 6988SOL    HW121863   5.055   2.028   6.817
 6988SOL    HW221864   4.907   2.048   6.882
 6989SOL     OW21865   2.123   3.491   4.360
 6989SOL    HW121866   2.158   3.579   4.391
 6989SOL    HW221867   2.159   3.419   4.420
 6990SOL     OW21868   3.809   3.743   1.709
 6990SOL    HW121869   3.777   3.829   1.748
 6990SOL    HW221870   3.747   3.669   1.733
 6991SOL     OW21871   4.222   4.783   5.809
 6991SOL    HW121872   4.228   4.684   5.793
 6991SOL    HW221873   4.126   4.809   5.816
 6992SOL     OW21874   6.964   6.223   4.930
 6992SOL    HW121875   0.018   6.163   4.924
 6992SOL    HW221876   6.993   6.318   4.918
 6993SOL     OW21877   6.984   0.666   2.792
 6993SOL    HW121878   6.967   0.617   2.877
 6993SOL    HW221879   6.987   0.600   2.716
 6994SOL     OW21880   1.745   2.119   0.601
 6994SOL    HW121881   1.825   2.063   0.577
 6994SOL    HW221882   1.712   2.092   0.692
 6995SOL     OW21883   0.810   5.393   3.932
 6995SOL    HW121884   0.891   5.423   3.983
 6995SOL    HW221885   0.731   5.447   3.960
 6996SOL     OW21886   1.499   6.752   5.185
 6996SOL    HW121887   1.589   6.721   5.217
 6996SOL    HW221888   1.493   6.738   5.086
 6997SOL     OW21889   5.043   4.539   4.975
 6997SOL    HW121890   5.019   4.636   4.984
 6997SOL    HW221891   5.140   4.527   4.996
 6998SOL     OW21892   2.190   1.557   2.005
 6998SOL    HW121893   2.186   1.458   2.001
 6998SOL    HW221894   2.153   1.588   2.092
 6999SOL     OW21895   5.642   3.093   7.014
 6999SOL    HW121896   5.687   3.121   0.074
 6999SOL    HW221897   5.597   3.172   6.973
 7000SOL     OW21898   0.015   0.358   2.268
 7000SOL    HW121899   6.960   0.307   2.235
 7000SOL    HW221900   0.097   0.326   2.220
 7001SOL     OW21901   3.454   1.185   6.802
 7001SOL    HW121902   3.454   1.245   6.882
 7001SOL    HW221903   3.360   1.159   6.780
 7002SOL     OW21904   2.991   5.441   1.399
 7002SOL    HW121905   2.927   5.499   1.348
 7002SOL    HW221906   2.967   5.345   1.386
 7003SOL     OW21907   1.595   6.576   6.166
 7003SOL    HW121908   1.518   6.608   6.222
 7003SOL    HW221909   1.607   6.639   6.089
 7004SOL     OW21910   2.293   4.104   6.479
 7004SOL    HW121911   2.354   4.125   6.555
 7004SOL    HW221912   2.204   4.148   6.495
 7005SOL     OW21913   6.902   6.996   5.860
 7005SOL    HW121914   6.923   6.899   5.864
 7005SOL    HW221915   6.970   0.017   5.802
 7006SOL     OW21916   5.266   5.054   4.699
 7006SOL    HW121917   5.176   5.067   4.740
 7006SOL    HW221918   5.264   5.079   4.603
 7007SOL     OW21919   5.759   4.942   1.451
 7007SOL    HW121920   5.778   4.849   1.482
 7007SOL    HW221921   5.768   4.947   1.352
 7008SOL     OW21922   0.462   6.745   4.298
 7008SOL    HW121923   0.373   6.791   4.297
 7008SOL    HW221924   0.517   6.779   4.374
 7009SOL     OW21925   6.445   3.863   1.996
 7009SOL    HW121926   6.362   3.894   1.949
 7009SOL    HW221927   6.525   3.885   1.940
 7010SOL     OW21928   5.008   4.285   5.664
 7010SOL    HW121929   5.086   4.228   5.642
 7010SOL    HW221930   4.935   4.229   5.703
 7011SOL     OW21931   1.997   0.479   6.262
 7011SOL    HW121932   2.053   0.534   6.200
 7011SOL    HW221933   1.993   0.385   6.229
 7012SOL     OW21934   6.842   0.686   1.733
 7012SOL    HW121935   6.750   0.692   1.693
 7012SOL    HW221936   6.910   0.688   1.660
 7013SOL     OW21937   6.140   1.721   1.519
 7013SOL    HW121938   6.168   1.814   1.494
 7013SOL    HW221939   6.196   1.688   1.595
 7014SOL     OW21940   2.599   4.950   1.168
 7014SOL    HW121941   2.538   4.986   1.097
 7014SOL    HW221942   2.693   4.980   1.149
 7015SOL     OW21943   4.536   1.841   2.710
 7015SOL    HW121944   4.586   1.821   2.795
 7015SOL    HW221945   4.601   1.855   2.636
 7016SOL     OW21946   5.586   4.630   6.974
 7016SOL    HW121947   5.685   4.612   6.974
 7016SOL    HW221948   5.552   4.632   0.042
 7017SOL     OW21949   5.127   2.574   5.549
 7017SOL    HW121950   5.094   2.479   5.552
 7017SOL    HW221951   5.227   2.574   5.545
 7018SOL     OW21952   0.569   4.642   3.614
 7018SOL    HW121953   0.505   4.598   3.552
 7018SOL    HW221954   0.662   4.630   3.580
 7019SOL     OW21955   6.364   6.213   2.282
 7019SOL    HW121956   6.463   6.207   2.294
 7019SOL    HW221957   6.339   6.307   2.257
 7020SOL     OW21958   0.002   5.995   0.546
 7020SOL    HW121959   6.950   6.058   0.552
 7020SOL    HW221960   0.022   5.958   0.637
 7021SOL     OW21961   2.947   7.018   5.397
 7021SOL    HW121962   2.975   0.088   5.406
 7021SOL    HW221963   2.969   6.969   5.481
 7022SOL     OW21964   3.527   4.625   5.768
 7022SOL    HW121965   3.624   4.613   5.792
 7022SOL    HW221966   3.484   4.687   5.834
 7023SOL     OW21967   4.815   4.930   2.482
 7023SOL    HW121968   4.748   4.884   2.541
 7023SOL    HW221969   4.826   4.878   2.397
 7024SOL     OW21970   6.440   6.601   1.923
 7024SOL    HW121971   6.467   6.676   1.982
 7024SOL    HW221972   6.435   6.516   1.976
 7025SOL     OW21973   2.684   0.196   1.617
 7025SOL    HW121974   2.702   0.100   1.596
 7025SOL    HW221975   2.724   0.254   1.546
 7026SOL     OW21976   4.675   2.616   0.248
 7026SOL    HW121977   4.629   2.542   0.298
 7026SOL    HW221978   4.608   2.669   0.197
 7027SOL     OW21979   5.663   6.444   4.852
 7027SOL    HW121980   5.747   6.424   4.801
 7027SOL    HW221981   5.584   6.435   4.792
 7028SOL     OW21982   3.306   0.506   4.942
 7028SOL    HW121983   3.266   0.454   4.867
 7028SOL    HW221984   3.233   0.537   5.004
 7029SOL     OW21985   3.521   6.935   3.954
 7029SOL    HW121986   3.601   6.904   3.903
 7029SOL    HW221987   3.529   0.008   3.972
 7030SOL     OW21988   1.272   4.040   3.169
 7030SOL    HW121989   1.298   4.001   3.257
 7030SOL    HW221990   1.337   4.013   3.099
 7031SOL     OW21991   2.381   0.871   3.814
 7031SOL    HW121992   2.429   0.789   3.781
 7031SOL    HW221993   2.296   0.883   3.763
 7032SOL     OW21994   6.232   2.813   3.451
 7032SOL    HW121995   6.252   2.816   3.353
 7032SOL    HW221996   6.164   2.742   3.469
 7033SOL     OW21997   0.261   0.619   4.898
 7033SOL    HW121998   0.223   0.582   4.983
 7033SOL    HW221999   0.310   0.546   4.850
 7034SOL     OW22000   6.920   4.925   4.181
 7034SOL    HW122001   7.002   4.903   4.235
 7034SOL    HW222002   6.889   5.017   4.205
 7035SOL     OW22003   0.079   4.629   1.390
 7035SOL    HW122004   0.046   4.724   1.394
 7035SOL    HW222005   0.033   4.581   1.316
 7036SOL     OW22006   6.036   5.364   0.833
 7036SOL    HW122007   6.114   5.377   0.894
 7036SOL    HW222008   6.029   5.267   0.809
 7037SOL     OW22009   1.387   0.223   6.978
 7037SOL    HW122010   1.428   0.135   6.953
 7037SOL    HW222011   1.415   0.292   6.911
 7038SOL     OW22012   2.384   2.174   3.449
 7038SOL    HW122013   2.290   2.161   3.416
 7038SOL    HW222014   2.430   2.086   3.455
 7039SOL     OW22015   4.394   1.653   6.391
 7039SOL    HW122016   4.294   1.647   6.387
 7039SOL    HW222017   4.431   1.660   6.299
 7040SOL     OW22018   6.215   2.429   6.811
 7040SOL    HW122019   6.272   2.402   6.734
 7040SOL    HW222020   6.272   2.468   6.883
 7041SOL     OW22021   1.946   0.825   3.183
 7041SOL    HW122022   1.974   0.893   3.250
 7041SOL    HW222023   1.847   0.829   3.170
 7042SOL     OW22024   2.543   0.673   6.871
 7042SOL    HW122025   2.472   0.732   6.833
 7042SOL    HW222026   2.550   0.589   6.817
 7043SOL     OW22027   1.765   2.971   1.196
 7043SOL    HW122028   1.688   2.971   1.261
 7043SOL    HW222029   1.737   3.016   1.112
 7044SOL     OW22030   6.650   5.530   0.695
 7044SOL    HW122031   6.564   5.480   0.687
 7044SOL    HW222032   6.674   5.568   0.606
 7045SOL     OW22033   0.992   4.293   6.996
 7045SOL    HW122034   1.075   4.238   7.008
 7045SOL    HW222035   0.942   4.296   0.057
 7046SOL     OW22036   2.140   1.977   3.769
 7046SOL    HW122037   2.087   2.007   3.690
 7046SOL    HW222038   2.198   1.900   3.743
 7047SOL     OW22039   1.254   6.298   3.387
 7047SOL    HW122040   1.352   6.280   3.378
 7047SOL    HW222041   1.240   6.384   3.436
 7048SOL     OW22042   0.717   5.298   6.745
 7048SOL    HW122043   0.694   5.245   6.826
 7048SOL    HW222044   0.798   5.259   6.702
 7049SOL     OW22045   2.517   1.512   6.591
 7049SOL    HW122046   2.484   1.568   6.515
 7049SOL    HW222047   2.512   1.415   6.567
 7050SOL     OW22048   3.361   3.304   6.108
 7050SOL    HW122049   3.401   3.290   6.017
 7050SOL    HW222050   3.306   3.224   6.133
 7051SOL     OW22051   5.204   6.294   2.106
 7051SOL    HW122052   5.283   6.329   2.056
 7051SOL    HW222053   5.201   6.195   2.098
 7052SOL     OW22054   6.319   0.998   4.787
 7052SOL    HW122055   6.320   1.007   4.687
 7052SOL    HW222056   6.270   1.075   4.827
 7053SOL     OW22057   6.436   3.541   6.235
 7053SOL    HW122058   6.381   3.476   6.288
 7053SOL    HW222059   6.489   3.598   6.298
 7054SOL     OW22060   5.576   2.782   2.338
 7054SOL    HW122061   5.656   2.777   2.278
 7054SOL    HW222062   5.603   2.813   2.429
 7055SOL     OW22063   3.917   1.470   3.094
 7055SOL    HW122064   3.853   1.468   3.171
 7055SOL    HW222065   3.970   1.385   3.091
 7056SOL     OW22066   4.682   6.517   4.488
 7056SOL    HW122067   4.647   6.441   4.544
 7056SOL    HW222068   4.612   6.588   4.481
 7057SOL     OW22069   5.129   6.094   3.009
 7057SOL    HW122070   5.136   6.162   3.082
 7057SOL    HW222071   5.090   6.136   2.927
 7058SOL     OW22072   0.727   3.743   4.908
 7058SOL    HW122073   0.793   3.710   4.975
 7058SOL    HW222074   0.658   3.799   4.954
 7059SOL     OW22075   1.562   0.122   2.769
 7059SOL    HW122076   1.508   0.082   2.695
 7059SOL    HW222077   1.612   0.051   2.817
 7060SOL     OW22078   4.137   0.085   0.952
 7060SOL    HW122079   4.078   0.005   0.948
 7060SOL    HW222080   4.228   0.061   0.918
 7061SOL     OW22081   0.855   1.435   2.980
 7061SOL    HW122082   0.827   1.454   2.886
 7061SOL    HW222083   0.904   1.348   2.984
 7062SOL     OW22084   6.353   0.823   5.595
 7062SOL    HW122085   6.418   0.755   5.561
 7062SOL    HW222086   6.299   0.784   5.669
 7063SOL     OW22087   1.757   7.011   2.118
 7063SOL    HW122088   1.677   0.038   2.089
 7063SOL    HW222089   1.733   6.914   2.122
 7064SOL     OW22090   3.633   3.184   0.890
 7064SOL    HW122091   3.686   3.203   0.973
 7064SOL    HW222092   3.637   3.087   0.869
 7065SOL     OW22093   2.897   3.442   2.654
 7065SOL    HW122094   2.912   3.374   2.582
 7065SOL    HW222095   2.883   3.395   2.741
 7066SOL     OW22096   2.498   4.785   1.378
 7066SOL    HW122097   2.487   4.844   1.298
 7066SOL    HW222098   2.448   4.825   1.455
 7067SOL     OW22099   1.920   3.716   4.457
 7067SOL    HW122100   1.909   3.633   4.403
 7067SOL    HW222101   1.856   3.786   4.426
 7068SOL     OW22102   0.332   0.598   3.149
 7068SOL    HW122103   0.235   0.584   3.169
 7068SOL    HW222104   0.373   0.511   3.119
 7069SOL     OW22105   1.602   3.188   5.845
 7069SOL    HW122106   1.558   3.277   5.842
 7069SOL    HW222107   1.702   3.200   5.839
 7070SOL     OW22108   5.546   6.003   2.909
 7070SOL    HW122109   5.504   6.074   2.965
 7070SOL    HW222110   5.635   5.978   2.948
 7071SOL     OW22111   1.558   0.150   5.790
 7071SOL    HW122112   1.632   0.109   5.844
 7071SOL    HW222113   1.557   0.249   5.804
 7072SOL     OW22114   0.145   0.046   6.403
 7072SOL    HW122115   0.101   6.986   6.375
 7072SOL    HW222116   0.103   0.078   6.488
 7073SOL     OW22117   1.706   1.994   0.824
 7073SOL    HW122118   1.735   1.898   0.822
 7073SOL    HW222119   1.633   2.005   0.892
 7074SOL     OW22120   4.109   1.644   6.439
 7074SOL    HW122121   4.026   1.598   6.407
 7074SOL    HW222122   4.151   1.589   6.512
 7075SOL     OW22123   0.463   6.204   3.173
 7075SOL    HW122124   0.506   6.181   3.260
 7075SOL    HW222125   0.510   6.157   3.098
 7076SOL     OW22126   2.631   1.623   5.671
 7076SOL    HW122127   2.723   1.658   5.691
 7076SOL    HW222128   2.636   1.557   5.596
 7077SOL     OW22129   1.168   5.660   6.797
 7077SOL    HW122130   1.204   5.574   6.761
 7077SOL    HW222131   1.217   5.683   6.881
 7078SOL     OW22132   0.372   0.391   1.475
 7078SOL    HW122133   0.312   0.420   1.549
 7078SOL    HW222134   0.358   0.294   1.457
 7079SOL     OW22135   4.674   6.518   4.070
 7079SOL    HW122136   4.595   6.550   4.122
 7079SOL    HW222137   4.674   6.561   3.979
 7080SOL     OW22138   5.961   0.963   3.881
 7080SOL    HW122139   5.873   0.922   3.902
 7080SOL    HW222140   6.024   0.892   3.850
 7081SOL     OW22141   4.523   0.637   4.861
 7081SOL    HW122142   4.586   0.655   4.937
 7081SOL    HW222143   4.575   0.611   4.780
 7082SOL     OW22144   5.902   1.481   0.013
 7082SOL    HW122145   5.870   1.493   0.106
 7082SOL    HW222146   5.824   1.475   6.976
 7083SOL     OW22147   4.869   0.224   4.765
 7083SOL    HW122148   4.839   0.302   4.820
 7083SOL    HW222149   4.940   0.174   4.814
 7084SOL     OW22150   6.714   5.427   6.926
 7084SOL    HW122151   6.705   5.335   6.887
 7084SOL    HW222152   6.811   5.453   6.927
 7085SOL     OW22153   5.513   1.765   0.756
 7085SOL    HW122154   5.502   1.683   0.700
 7085SOL    HW222155   5.483   1.845   0.704
 7086SOL     OW22156   1.327   0.628   6.495
 7086SOL    HW122157   1.348   0.531   6.478
 7086SOL    HW222158   1.239   0.635   6.541
 7087SOL     OW22159   2.375   2.643   4.363
 7087SOL    HW122160   2.371   2.603   4.454
 7087SOL    HW222161   2.318   2.725   4.361
 7088SOL     OW22162   6.605   0.946   4.929
 7088SOL    HW122163   6.681   0.994   4.885
 7088SOL    HW222164   6.518   0.976   4.889
 7089SOL     OW22165   2.527   2.154   2.127
 7089SOL    HW122166   2.571   2.239   2.154
 7089SOL    HW222167   2.592   2.096   2.078
 7090SOL     OW22168   3.636   0.697   4.602
 7090SOL    HW122169   3.610   0.673   4.509
 7090SOL    HW222170   3.591   0.782   4.628
 7091SOL     OW22171   0.136   4.909   6.936
 7091SOL    HW122172   0.196   4.971   6.885
 7091SOL    HW222173   0.041   4.929   6.915
 7092SOL     OW22174   3.126   2.094   0.810
 7092SOL    HW122175   3.118   1.998   0.837
 7092SOL    HW222176   3.052   2.147   0.853
 7093SOL     OW22177   4.152   3.777   5.982
 7093SOL    HW122178   4.064   3.818   5.957
 7093SOL    HW222179   4.158   3.768   6.081
 7094SOL     OW22180   6.180   1.561   6.232
 7094SOL    HW122181   6.197   1.634   6.299
 7094SOL    HW222182   6.209   1.473   6.271
 7095SOL     OW22183   1.089   4.692   1.287
 7095SOL    HW122184   1.035   4.749   1.225
 7095SOL    HW222185   1.097   4.600   1.248
 7096SOL     OW22186   3.500   0.298   3.541
 7096SOL    HW122187   3.595   0.287   3.568
 7096SOL    HW222188   3.440   0.266   3.615
 7097SOL     OW22189   1.757   1.120   1.375
 7097SOL    HW122190   1.681   1.162   1.425
 7097SOL    HW222191   1.740   1.128   1.277
 7098SOL     OW22192   0.981   0.392   0.089
 7098SOL    HW122193   1.033   0.418   0.170
 7098SOL    HW222194   0.905   0.456   0.075
 7099SOL     OW22195   0.888   1.583   4.020
 7099SOL    HW122196   0.834   1.604   4.101
 7099SOL    HW222197   0.837   1.614   3.938
 7100SOL     OW22198   5.708   2.746   0.648
 7100SOL    HW122199   5.776   2.682   0.614
 7100SOL    HW222200   5.677   2.718   0.739
 7101SOL     OW22201   1.654   0.667   4.954
 7101SOL    HW122202   1.683   0.637   5.045
 7101SOL    HW222203   1.633   0.587   4.897
 7102SOL     OW22204   4.447   2.386   0.038
 7102SOL    HW122205   4.427   2.399   0.135
 7102SOL    HW222206   4.377   2.329   7.022
 7103SOL     OW22207   2.642   6.349   6.826
 7103SOL    HW122208   2.712   6.417   6.801
 7103SOL    HW222209   2.611   6.367   6.919
 7104SOL     OW22210   6.594   3.518   1.797
 7104SOL    HW122211   6.548   3.465   1.868
 7104SOL    HW222212   6.683   3.549   1.831
 7105SOL     OW22213   2.224   2.340   4.563
 7105SOL    HW122214   2.270   2.261   4.603
 7105SOL    HW222215   2.151   2.309   4.502
 7106SOL     OW22216   3.013   2.664   5.584
 7106SOL    HW122217   3.042   2.592   5.521
 7106SOL    HW222218   2.935   2.713   5.545
 7107SOL     OW22219   1.850   1.994   0.026
 7107SOL    HW122220   1.884   1.965   6.961
 7107SOL    HW222221   1.888   1.934   0.096
 7108SOL     OW22222   3.661   6.503   1.914
 7108SOL    HW122223   3.735   6.567   1.893
 7108SOL    HW222224   3.667   6.474   2.009
 7109SOL     OW22225   4.889   6.062   6.910
 7109SOL    HW122226   4.843   6.022   6.989
 7109SOL    HW222227   4.946   5.992   6.867
 7110SOL     OW22228   4.209   5.079   4.225
 7110SOL    HW122229   4.131   5.016   4.222
 7110SOL    HW222230   4.175   5.173   4.216
 7111SOL     OW22231   1.040   2.739   3.329
 7111SOL    HW122232   1.057   2.664   3.392
 7111SOL    HW222233   1.106   2.812   3.344
 7112SOL     OW22234   1.933   6.214   3.401
 7112SOL    HW122235   1.971   6.231   3.310
 7112SOL    HW222236   1.982   6.139   3.445
 7113SOL     OW22237   3.183   4.008   5.834
 7113SOL    HW122238   3.243   3.943   5.881
 7113SOL    HW222239   3.157   4.081   5.897
 7114SOL     OW22240   3.476   6.857   0.529
 7114SOL    HW122241   3.377   6.844   0.518
 7114SOL    HW222242   3.500   6.843   0.625
 7115SOL     OW22243   3.532   2.243   0.963
 7115SOL    HW122244   3.470   2.169   0.939
 7115SOL    HW222245   3.584   2.217   1.044
 7116SOL     OW22246   6.095   4.265   3.824
 7116SOL    HW122247   6.120   4.261   3.921
 7116SOL    HW222248   6.117   4.355   3.788
 7117SOL     OW22249   4.972   0.650   2.709
 7117SOL    HW122250   5.009   0.728   2.659
 7117SOL    HW222251   5.031   0.629   2.787
 7118SOL     OW22252   6.792   4.017   4.010
 7118SOL    HW122253   6.877   4.047   3.966
 7118SOL    HW222254   6.773   3.922   3.984
 7119SOL     OW22255   6.814   1.374   2.677
 7119SOL    HW122256   6.761   1.451   2.641
 7119SOL    HW222257   6.872   1.337   2.604
 7120SOL     OW22258   4.793   6.851   4.178
 7120SOL    HW122259   4.808   6.757   4.209
 7120SOL    HW222260   4.720   6.892   4.231
 7121SOL     OW22261   1.902   6.175   0.815
 7121SOL    HW122262   1.943   6.217   0.896
 7121SOL    HW222263   1.924   6.229   0.734
 7122SOL     OW22264   0.081   6.277   0.374
 7122SOL    HW122265   0.016   6.221   0.323
 7122SOL    HW222266   0.064   6.266   0.472
 7123SOL     OW22267   3.289   4.668   0.429
 7123SOL    HW122268   3.350   4.680   0.508
 7123SOL    HW222269   3.297   4.574   0.395
 7124SOL     OW22270   0.889   4.810   0.150
 7124SOL    HW122271   0.945   4.891   0.131
 7124SOL    HW222272   0.802   4.839   0.191
 7125SOL     OW22273   1.517   5.524   3.654
 7125SOL    HW122274   1.524   5.569   3.743
 7125SOL    HW222275   1.573   5.441   3.654
 7126SOL     OW22276   1.665   4.431   0.789
 7126SOL    HW122277   1.578   4.383   0.804
 7126SOL    HW222278   1.740   4.365   0.794
 7127SOL     OW22279   2.688   0.379   5.349
 7127SOL    HW122280   2.697   0.423   5.438
 7127SOL    HW222281   2.695   0.447   5.276
 7128SOL     OW22282   3.196   4.050   2.529
 7128SOL    HW122283   3.159   3.977   2.472
 7128SOL    HW222284   3.150   4.136   2.507
 7129SOL     OW22285   3.333   2.112   0.298
 7129SOL    HW122286   3.269   2.183   0.328
 7129SOL    HW222287   3.403   2.099   0.369
 7130SOL     OW22288   0.946   0.956   2.700
 7130SOL    HW122289   0.925   0.887   2.769
 7130SOL    HW222290   1.039   0.990   2.713
 7131SOL     OW22291   2.986   0.897   2.940
 7131SOL    HW122292   2.937   0.906   2.853
 7131SOL    HW222293   2.922   0.907   3.016
 7132SOL     OW22294   3.556   3.986   2.274
 7132SOL    HW122295   3.622   3.981   2.199
 7132SOL    HW222296   3.465   3.964   2.240
 7133SOL     OW22297   6.080   4.130   2.300
 7133SOL    HW122298   6.092   4.223   2.335
 7133SOL    HW222299   6.164   4.100   2.256
 7134SOL     OW22300   4.625   4.328   2.936
 7134SOL    HW122301   4.555   4.269   2.895
 7134SOL    HW222302   4.588   4.372   3.017
 7135SOL     OW22303   6.903   2.248   6.034
 7135SOL    HW122304   6.894   2.331   5.979
 7135SOL    HW222305   6.891   2.168   5.976
 7136SOL     OW22306   1.883   2.283   6.344
 7136SOL    HW122307   1.975   2.308   6.373
 7136SOL    HW222308   1.816   2.342   6.389
 7137SOL     OW22309   5.041   1.953   5.225
 7137SOL    HW122310   5.026   1.957   5.323
 7137SOL    HW222311   5.118   2.011   5.200
 7138SOL     OW22312   1.748   2.658   6.293
 7138SOL    HW122313   1.755   2.574   6.346
 7138SOL    HW222314   1.681   2.646   6.220
 7139SOL     OW22315   2.098   1.135   0.150
 7139SOL    HW122316   2.072   1.231   0.141
 7139SOL    HW222317   2.062   1.098   0.235
 7140SOL     OW22318   6.623   4.464   4.566
 7140SOL    HW122319   6.666   4.515   4.492
 7140SOL    HW222320   6.537   4.509   4.592
 7141SOL     OW22321   1.075   0.850   1.727
 7141SOL    HW122322   1.052   0.912   1.802
 7141SOL    HW222323   1.123   0.770   1.764
 7142SOL     OW22324   3.714   6.490   3.844
 7142SOL    HW122325   3.743   6.530   3.757
 7142SOL    HW222326   3.615   6.498   3.853
 7143SOL     OW22327   1.988   2.803   4.092
 7143SOL    HW122328   1.974   2.706   4.110
 7143SOL    HW222329   2.084   2.820   4.071
 7144SOL     OW22330   1.780   3.089   3.311
 7144SOL    HW122331   1.809   3.090   3.407
 7144SOL    HW222332   1.812   3.172   3.265
 7145SOL     OW22333   3.396   5.492   6.614
 7145SOL    HW122334   3.492   5.479   6.589
 7145SOL    HW222335   3.386   5.578   6.663
 7146SOL     OW22336   3.984   5.085   1.208
 7146SOL    HW122337   4.000   4.997   1.252
 7146SOL    HW222338   4.017   5.081   1.113
 7147SOL     OW22339   0.632   0.805   4.123
 7147SOL    HW122340   0.660   0.721   4.077
 7147SOL    HW222341   0.682   0.814   4.210
 7148SOL     OW22342   6.570   2.031   0.828
 7148SOL    HW122343   6.662   2.030   0.867
 7148SOL    HW222344   6.568   2.094   0.751
 7149SOL     OW22345   1.603   1.184   4.578
 7149SOL    HW122346   1.591   1.149   4.485
 7149SOL    HW222347   1.635   1.278   4.575
 7150SOL     OW22348   6.844   3.990   6.600
 7150SOL    HW122349   6.798   4.001   6.512
 7150SOL    HW222350   6.930   4.042   6.599
 7151SOL     OW22351   1.790   6.753   1.034
 7151SOL    HW122352   1.750   6.840   1.064
 7151SOL    HW222353   1.811   6.758   0.936
 7152SOL     OW22354   0.468   2.489   4.617
 7152SOL    HW122355   0.546   2.496   4.555
 7152SOL    HW222356   0.386   2.466   4.566
 7153SOL     OW22357   4.361   1.777   3.378
 7153SOL    HW122358   4.304   1.757   3.299
 7153SOL    HW222359   4.424   1.701   3.395
 7154SOL     OW22360   4.172   0.542   4.450
 7154SOL    HW122361   4.154   0.544   4.352
 7154SOL    HW222362   4.102   0.595   4.498
 7155SOL     OW22363   1.666   1.846   4.247
 7155SOL    HW122364   1.664   1.864   4.149
 7155SOL    HW222365   1.723   1.766   4.266
 7156SOL     OW22366   1.838   5.290   5.112
 7156SOL    HW122367   1.739   5.288   5.102
 7156SOL    HW222368   1.877   5.207   5.072
 7157SOL     OW22369   5.811   4.644   0.889
 7157SOL    HW122370   5.819   4.702   0.808
 7157SOL    HW222371   5.833   4.550   0.866
 7158SOL     OW22372   3.690   0.536   2.809
 7158SOL    HW122373   3.602   0.503   2.776
 7158SOL    HW222374   3.676   0.603   2.882
 7159SOL     OW22375   1.647   6.449   6.981
 7159SOL    HW122376   1.673   6.375   6.920
 7159SOL    HW222377   1.664   6.422   0.051
 7160SOL     OW22378   0.635   0.151   2.669
 7160SOL    HW122379   0.606   0.240   2.633
 7160SOL    HW222380   0.602   0.078   2.607
 7161SOL     OW22381   2.858   3.915   5.145
 7161SOL    HW122382   2.840   3.842   5.212
 7161SOL    HW222383   2.795   3.990   5.160
 7162SOL     OW22384   3.605   5.042   4.135
 7162SOL    HW122385   3.596   5.023   4.233
 7162SOL    HW222386   3.698   5.071   4.115
 7163SOL     OW22387   1.083   6.389   3.920
 7163SOL    HW122388   1.136   6.304   3.922
 7163SOL    HW222389   0.999   6.375   3.868
 7164SOL     OW22390   3.516   1.067   4.383
 7164SOL    HW122391   3.604   1.021   4.371
 7164SOL    HW222392   3.442   1.001   4.373
 7165SOL     OW22393   4.437   5.261   1.880
 7165SOL    HW122394   4.533   5.274   1.855
 7165SOL    HW222395   4.384   5.240   1.798
 7166SOL     OW22396   3.182   6.981   2.733
 7166SOL    HW122397   3.247   6.978   2.657
 7166SOL    HW222398   3.184   0.047   2.774
 7167SOL     OW22399   5.466   2.344   0.554
 7167SOL    HW122400   5.434   2.439   0.552
 7167SOL    HW222401   5.562   2.343   0.584
 7168SOL     OW22402   0.131   1.620   4.024
 7168SOL    HW122403   0.201   1.570   4.074
 7168SOL    HW222404   0.146   1.609   3.925
 7169SOL     OW22405   1.665   2.486   0.473
 7169SOL    HW122406   1.708   2.495   0.383
 7169SOL    HW222407   1.725   2.433   0.534
 7170SOL     OW22408   4.772   4.039   4.552
 7170SOL    HW122409   4.841   4.049   4.624
 7170SOL    HW222410   4.701   3.975   4.583
 7171SOL     OW22411   3.888   3.581   5.626
 7171SOL    HW122412   3.812   3.640   5.598
 7171SOL    HW222413   3.964   3.638   5.658
 7172SOL     OW22414   5.036   5.485   1.862
 7172SOL    HW122415   5.099   5.413   1.835
 7172SOL    HW222416   5.014   5.476   1.960
 7173SOL     OW22417   6.427   6.610   3.998
 7173SOL    HW122418   6.510   6.654   4.034
 7173SOL    HW222419   6.445   6.577   3.905
 7174SOL     OW22420   1.005   6.548   5.666
 7174SOL    HW122421   1.053   6.485   5.605
 7174SOL    HW222422   1.068   6.581   5.736
 7175SOL     OW22423   5.913   4.029   5.504
 7175SOL    HW122424   5.824   4.038   5.549
 7175SOL    HW222425   5.986   4.050   5.569
 7176SOL     OW22426   1.571   3.363   1.154
 7176SOL    HW122427   1.652   3.413   1.184
 7176SOL    HW222428   1.597   3.291   1.090
 7177SOL     OW22429   6.992   5.102   1.516
 7177SOL    HW122430   0.055   5.134   1.551
 7177SOL    HW222431   6.955   5.170   1.453
 7178SOL     OW22432   6.743   0.462   6.356
 7178SOL    HW122433   6.799   0.545   6.347
 7178SOL    HW222434   6.759   0.420   6.445
 7179SOL     OW22435   1.465   4.064   6.091
 7179SOL    HW122436   1.560   4.051   6.065
 7179SOL    HW222437   1.461   4.103   6.184
 7180SOL     OW22438   0.003   0.467   1.850
 7180SOL    HW122439   7.006   0.531   1.776
 7180SOL    HW222440   0.025   0.378   1.811
 7181SOL     OW22441   5.503   6.726   2.543
 7181SOL    HW122442   5.522   6.705   2.447
 7181SOL    HW222443   5.588   6.749   2.590
 7182SOL     OW22444   3.273   3.941   6.115
 7182SOL    HW122445   3.215   4.021   6.103
 7182SOL    HW222446   3.327   3.952   6.199
 7183SOL     OW22447   2.126   2.409   2.780
 7183SOL    HW122448   2.206   2.462   2.752
 7183SOL    HW222449   2.083   2.452   2.860
 7184SOL     OW22450   2.736   5.395   3.018
 7184SOL    HW122451   2.796   5.326   2.977
 7184SOL    HW222452   2.664   5.420   2.952
 7185SOL     OW22453   5.412   2.222   6.175
 7185SOL    HW122454   5.429   2.317   6.149
 7185SOL    HW222455   5.366   2.219   6.264
 7186SOL     OW22456   1.568   0.002   4.688
 7186SOL    HW122457   1.587   0.100   4.695
 7186SOL    HW222458   1.601   6.993   4.600
 7187SOL     OW22459   1.639   4.633   1.181
 7187SOL    HW122460   1.645   4.692   1.101
 7187SOL    HW222461   1.544   4.603   1.193
 7188SOL     OW22462   3.924   0.219   1.683
 7188SOL    HW122463   3.950   0.189   1.775
 7188SOL    HW222464   3.866   0.149   1.641
 7189SOL     OW22465   6.484   0.471   5.806
 7189SOL    HW122466   6.450   0.546   5.862
 7189SOL    HW222467   6.512   0.395   5.864
 7190SOL     OW22468   4.469   4.879   2.407
 7190SOL    HW122469   4.399   4.939   2.446
 7190SOL    HW222470   4.519   4.832   2.480
 7191SOL     OW22471   0.421   3.712   1.518
 7191SOL    HW122472   0.487   3.672   1.454
 7191SOL    HW222473   0.438   3.677   1.610
 7192SOL     OW22474   3.484   4.100   5.877
 7192SOL    HW122475   3.512   4.070   5.968
 7192SOL    HW222476   3.455   4.021   5.823
 7193SOL     OW22477   6.099   1.855   5.069
 7193SOL    HW122478   6.154   1.918   5.124
 7193SOL    HW222479   6.144   1.766   5.066
 7194SOL     OW22480   3.041   1.021   1.888
 7194SOL    HW122481   3.030   0.941   1.948
 7194SOL    HW222482   3.133   1.019   1.848
 7195SOL     OW22483   1.277   0.267   4.092
 7195SOL    HW122484   1.235   0.193   4.039
 7195SOL    HW222485   1.253   0.355   4.051
 7196SOL     OW22486   3.962   4.159   1.716
 7196SOL    HW122487   3.925   4.115   1.634
 7196SOL    HW222488   4.041   4.108   1.748
 7197SOL     OW22489   2.008   0.684   3.664
 7197SOL    HW122490   1.960   0.599   3.641
 7197SOL    HW222491   2.102   0.678   3.630
 7198SOL     OW22492   0.466   0.146   5.219
 7198SOL    HW122493   0.470   0.046   5.209
 7198SOL    HW222494   0.469   0.169   5.316
 7199SOL     OW22495   6.714   5.740   1.604
 7199SOL    HW122496   6.676   5.766   1.516
 7199SOL    HW222497   6.781   5.808   1.634
 7200SOL     OW22498   1.027   2.088   2.435
 7200SOL    HW122499   1.127   2.085   2.430
 7200SOL    HW222500   0.989   2.097   2.343
 7201SOL     OW22501   1.552   5.064   2.909
 7201SOL    HW122502   1.621   5.077   2.838
 7201SOL    HW222503   1.555   5.141   2.973
 7202SOL     OW22504   1.782   0.492   5.174
 7202SOL    HW122505   1.712   0.447   5.230
 7202SOL    HW222506   1.871   0.450   5.193
 7203SOL     OW22507   6.131   0.210   0.022
 7203SOL    HW122508   6.158   0.163   0.106
 7203SOL    HW222509   6.183   0.295   0.013
 7204SOL     OW22510   0.974   3.097   2.276
 7204SOL    HW122511   0.989   3.031   2.349
 7204SOL    HW222512   0.965   3.049   2.189
 7205SOL     OW22513   1.452   4.599   1.536
 7205SOL    HW122514   1.482   4.584   1.630
 7205SOL    HW222515   1.409   4.516   1.501
 7206SOL     OW22516   0.013   0.529   1.543
 7206SOL    HW122517   0.013   0.430   1.531
 7206SOL    HW222518   7.004   0.573   1.459
 7207SOL     OW22519   4.538   0.083   1.320
 7207SOL    HW122520   4.455   0.028   1.331
 7207SOL    HW222521   4.618   0.026   1.341
 7208SOL     OW22522   3.124   6.690   5.077
 7208SOL    HW122523   3.042   6.741   5.102
 7208SOL    HW222524   3.179   6.745   5.014
 7209SOL     OW22525   2.319   3.538   5.351
 7209SOL    HW122526   2.253   3.495   5.412
 7209SOL    HW222527   2.271   3.578   5.273
 7210SOL     OW22528   4.148   1.306   4.212
 7210SOL    HW122529   4.233   1.348   4.243
 7210SOL    HW222530   4.078   1.376   4.200
 7211SOL     OW22531   0.338   5.629   3.038
 7211SOL    HW122532   0.401   5.680   3.096
 7211SOL    HW222533   0.248   5.626   3.080
 7212SOL     OW22534   5.284   6.545   2.643
 7212SOL    HW122535   5.298   6.463   2.586
 7212SOL    HW222536   5.366   6.602   2.640
 7213SOL     OW22537   5.886   6.142   5.523
 7213SOL    HW122538   5.792   6.155   5.491
 7213SOL    HW222539   5.890   6.061   5.581
 7214SOL     OW22540   1.891   5.129   6.033
 7214SOL    HW122541   1.901   5.225   6.058
 7214SOL    HW222542   1.796   5.111   6.009
 7215SOL     OW22543   1.371   2.945   1.582
 7215SOL    HW122544   1.317   2.925   1.664
 7215SOL    HW222545   1.330   3.022   1.533
 7216SOL     OW22546   2.496   1.615   2.999
 7216SOL    HW122547   2.451   1.686   3.053
 7216SOL    HW222548   2.427   1.567   2.944
 7217SOL     OW22549   1.639   3.853   1.955
 7217SOL    HW122550   1.710   3.920   1.976
 7217SOL    HW222551   1.627   3.848   1.856
 7218SOL     OW22552   6.885   3.406   3.712
 7218SOL    HW122553   6.820   3.478   3.684
 7218SOL    HW222554   6.878   3.392   3.810
 7219SOL     OW22555   1.926   0.967   1.916
 7219SOL    HW122556   1.897   1.046   1.863
 7219SOL    HW222557   2.015   0.985   1.958
 7220SOL     OW22558   6.805   1.754   3.559
 7220SOL    HW122559   6.789   1.773   3.656
 7220SOL    HW222560   6.881   1.809   3.526
 7221SOL     OW22561   6.585   3.778   4.577
 7221SOL    HW122562   6.665   3.837   4.565
 7221SOL    HW222563   6.542   3.798   4.665
 7222SOL     OW22564   6.044   0.583   2.700
 7222SOL    HW122565   5.962   0.557   2.752
 7222SOL    HW222566   6.028   0.565   2.603
 7223SOL     OW22567   4.982   0.987   4.906
 7223SOL    HW122568   5.077   1.014   4.920
 7223SOL    HW222569   4.923   1.067   4.908
 7224SOL     OW22570   4.822   0.950   3.522
 7224SOL    HW122571   4.759   1.022   3.491
 7224SOL    HW222572   4.897   0.992   3.574
 7225SOL     OW22573   2.765   0.525   1.696
 7225SOL    HW122574   2.780   0.438   1.648
 7225SOL    HW222575   2.677   0.563   1.668
 7226SOL     OW22576   5.831   6.369   4.618
 7226SOL    HW122577   5.790   6.326   4.538
 7226SOL    HW222578   5.845   6.467   4.601
 7227SOL     OW22579   1.169   2.659   5.095
 7227SOL    HW122580   1.226   2.659   5.013
 7227SOL    HW222581   1.093   2.722   5.083
 7228SOL     OW22582   1.908   6.864   3.365
 7228SOL    HW122583   1.821   6.904   3.393
 7228SOL    HW222584   1.967   6.935   3.328
 7229SOL     OW22585   6.251   0.440   3.621
 7229SOL    HW122586   6.179   0.508   3.636
 7229SOL    HW222587   6.259   0.422   3.522
 7230SOL     OW22588   6.104   5.511   1.288
 7230SOL    HW122589   6.164   5.442   1.248
 7230SOL    HW222590   6.046   5.550   1.216
 7231SOL     OW22591   6.307   1.254   0.012
 7231SOL    HW122592   6.233   1.269   0.077
 7231SOL    HW222593   6.318   1.155   7.022
 7232SOL     OW22594   3.065   3.205   0.839
 7232SOL    HW122595   3.017   3.119   0.821
 7232SOL    HW222596   3.097   3.206   0.934
 7233SOL     OW22597   0.859   1.827   6.682
 7233SOL    HW122598   0.892   1.781   6.764
 7233SOL    HW222599   0.933   1.878   6.639
 7234SOL     OW22600   5.181   2.257   3.551
 7234SOL    HW122601   5.134   2.295   3.472
 7234SOL    HW222602   5.276   2.291   3.553
 7235SOL     OW22603   5.754   2.760   4.284
 7235SOL    HW122604   5.814   2.837   4.263
 7235SOL    HW222605   5.767   2.733   4.380
 7236SOL     OW22606   0.332   1.816   3.552
 7236SOL    HW122607   0.336   1.914   3.533
 7236SOL    HW222608   0.405   1.769   3.502
 7237SOL     OW22609   6.705   5.312   5.837
 7237SOL    HW122610   6.765   5.276   5.766
 7237SOL    HW222611   6.735   5.280   5.926
 7238SOL     OW22612   1.116   6.990   2.554
 7238SOL    HW122613   1.040   6.937   2.517
 7238SOL    HW222614   1.092   0.062   2.554
 7239SOL     OW22615   4.744   1.957   2.233
 7239SOL    HW122616   4.694   1.888   2.181
 7239SOL    HW222617   4.819   1.994   2.177
 7240SOL     OW22618   2.913   3.394   3.180
 7240SOL    HW122619   2.857   3.362   3.256
 7240SOL    HW222620   3.008   3.367   3.196
 7241SOL     OW22621   5.050   0.057   4.871
 7241SOL    HW122622   5.082   0.084   4.961
 7241SOL    HW222623   5.124   0.067   4.805
 7242SOL     OW22624   6.272   5.642   0.499
 7242SOL    HW122625   6.312   5.562   0.454
 7242SOL    HW222626   6.173   5.641   0.486
 7243SOL     OW22627   0.610   6.174   1.405
 7243SOL    HW122628   0.651   6.206   1.320
 7243SOL    HW222629   0.566   6.085   1.390
 7244SOL     OW22630   4.546   2.279   1.563
 7244SOL    HW122631   4.630   2.276   1.509
 7244SOL    HW222632   4.485   2.205   1.533
 7245SOL     OW22633   5.470   2.181   3.854
 7245SOL    HW122634   5.459   2.260   3.793
 7245SOL    HW222635   5.567   2.170   3.877
 7246SOL     OW22636   1.333   5.623   5.774
 7246SOL    HW122637   1.253   5.676   5.802
 7246SOL    HW222638   1.405   5.633   5.842
 7247SOL     OW22639   4.914   5.306   3.471
 7247SOL    HW122640   4.930   5.385   3.530
 7247SOL    HW222641   4.985   5.238   3.488
 7248SOL     OW22642   3.181   0.757   5.583
 7248SOL    HW122643   3.202   0.854   5.581
 7248SOL    HW222644   3.236   0.709   5.514
 7249SOL     OW22645   4.792   2.266   6.707
 7249SOL    HW122646   4.720   2.306   6.763
 7249SOL    HW222647   4.816   2.176   6.742
 7250SOL     OW22648   3.392   3.275   0.272
 7250SOL    HW122649   3.317   3.323   0.316
 7250SOL    HW222650   3.375   3.176   0.273
 7251SOL     OW22651   6.250   1.523   5.847
 7251SOL    HW122652   6.157   1.532   5.812
 7251SOL    HW222653   6.259   1.576   5.931
 7252SOL     OW22654   4.410   3.673   5.317
 7252SOL    HW122655   4.494   3.636   5.277
 7252SOL    HW222656   4.334   3.657   5.255
 7253SOL     OW22657   5.236   4.878   0.592
 7253SOL    HW122658   5.297   4.958   0.595
 7253SOL    HW222659   5.222   4.852   0.496
 7254SOL     OW22660   5.078   5.954   5.337
 7254SOL    HW122661   5.014   6.009   5.283
 7254SOL    HW222662   5.084   5.862   5.298
 7255SOL     OW22663   3.610   3.855   4.194
 7255SOL    HW122664   3.566   3.861   4.284
 7255SOL    HW222665   3.578   3.772   4.147
 7256SOL     OW22666   3.911   5.989   3.837
 7256SOL    HW122667   3.930   5.952   3.928
 7256SOL    HW222668   3.928   5.919   3.768
 7257SOL     OW22669   6.221   5.020   2.733
 7257SOL    HW122670   6.167   5.036   2.815
 7257SOL    HW222671   6.175   5.059   2.653
 7258SOL     OW22672   2.210   0.985   5.784
 7258SOL    HW122673   2.287   1.004   5.845
 7258SOL    HW222674   2.149   1.065   5.781
 7259SOL     OW22675   3.900   3.851   5.894
 7259SOL    HW122676   3.895   3.938   5.845
 7259SOL    HW222677   3.810   3.809   5.899
 7260SOL     OW22678   4.560   2.205   2.701
 7260SOL    HW122679   4.623   2.281   2.714
 7260SOL    HW222680   4.543   2.160   2.789
 7261SOL     OW22681   2.885   4.747   1.181
 7261SOL    HW122682   2.898   4.828   1.124
 7261SOL    HW222683   2.854   4.774   1.272
 7262SOL     OW22684   6.302   0.999   4.504
 7262SOL    HW122685   6.366   0.988   4.427
 7262SOL    HW222686   6.228   0.933   4.496
 7263SOL     OW22687   4.611   4.375   1.051
 7263SOL    HW122688   4.676   4.301   1.066
 7263SOL    HW222689   4.534   4.365   1.114
 7264SOL     OW22690   6.350   6.518   5.069
 7264SOL    HW122691   6.444   6.547   5.050
 7264SOL    HW222692   6.339   6.505   5.167
 7265SOL     OW22693   4.909   2.784   6.462
 7265SOL    HW122694   4.851   2.745   6.533
 7265SOL    HW222695   4.881   2.748   6.373
 7266SOL     OW22696   4.073   1.771   2.736
 7266SOL    HW122697   4.041   1.750   2.829
 7266SOL    HW222698   4.010   1.834   2.693
 7267SOL     OW22699   4.622   2.506   4.471
 7267SOL    HW122700   4.638   2.564   4.551
 7267SOL    HW222701   4.639   2.558   4.388
 7268SOL     OW22702   4.264   6.231   6.395
 7268SOL    HW122703   4.241   6.184   6.480
 7268SOL    HW222704   4.181   6.269   6.355
 7269SOL     OW22705   1.757   6.946   4.214
 7269SOL    HW122706   1.709   0.007   4.201
 7269SOL    HW222707   1.849   6.953   4.175
 7270SOL     OW22708   3.779   2.432   1.548
 7270SOL    HW122709   3.782   2.498   1.624
 7270SOL    HW222710   3.783   2.339   1.584
 7271SOL     OW22711   4.620   6.131   3.708
 7271SOL    HW122712   4.576   6.200   3.650
 7271SOL    HW222713   4.649   6.173   3.793
 7272SOL     OW22714   5.252   1.386   1.753
 7272SOL    HW122715   5.292   1.472   1.784
 7272SOL    HW222716   5.268   1.375   1.655
 7273SOL     OW22717   6.272   4.753   4.127
 7273SOL    HW122718   6.209   4.710   4.063
 7273SOL    HW222719   6.279   4.698   4.210
 7274SOL     OW22720   5.942   5.069   3.635
 7274SOL    HW122721   5.950   5.089   3.537
 7274SOL    HW222722   5.853   5.028   3.653
 7275SOL     OW22723   6.033   0.369   2.045
 7275SOL    HW122724   6.122   0.413   2.034
 7275SOL    HW222725   5.970   0.403   1.975
 7276SOL     OW22726   4.027   1.714   3.002
 7276SOL    HW122727   3.964   1.639   3.027
 7276SOL    HW222728   3.998   1.798   3.048
 7277SOL     OW22729   6.498   2.721   3.624
 7277SOL    HW122730   6.579   2.680   3.667
 7277SOL    HW222731   6.502   2.821   3.633
 7278SOL     OW22732   3.764   1.379   2.794
 7278SOL    HW122733   3.813   1.406   2.711
 7278SOL    HW222734   3.795   1.434   2.871
 7279SOL     OW22735   3.379   3.486   2.362
 7279SOL    HW122736   3.448   3.475   2.290
 7279SOL    HW222737   3.420   3.530   2.441
 7280SOL     OW22738   6.054   1.821   5.973
 7280SOL    HW122739   5.986   1.865   6.032
 7280SOL    HW222740   6.052   1.722   5.988
 7281SOL     OW22741   3.551   0.201   4.022
 7281SOL    HW122742   3.549   0.288   3.974
 7281SOL    HW222743   3.496   0.208   4.106
 7282SOL     OW22744   0.745   4.108   1.232
 7282SOL    HW122745   0.716   4.177   1.298
 7282SOL    HW222746   0.783   4.029   1.281
 7283SOL     OW22747   2.714   5.880   3.351
 7283SOL    HW122748   2.686   5.876   3.255
 7283SOL    HW222749   2.800   5.829   3.362
 7284SOL     OW22750   0.355   1.207   4.227
 7284SOL    HW122751   0.391   1.125   4.183
 7284SOL    HW222752   0.271   1.236   4.181
 7285SOL     OW22753   4.935   2.549   2.320
 7285SOL    HW122754   4.841   2.549   2.287
 7285SOL    HW222755   4.986   2.623   2.274
 7286SOL     OW22756   6.571   1.364   5.136
 7286SOL    HW122757   6.529   1.441   5.184
 7286SOL    HW222758   6.634   1.317   5.197
 7287SOL     OW22759   3.515   0.906   4.786
 7287SOL    HW122760   3.461   0.988   4.805
 7287SOL    HW222761   3.586   0.896   4.855
 7288SOL     OW22762   2.879   2.462   0.965
 7288SOL    HW122763   2.909   2.497   0.876
 7288SOL    HW222764   2.781   2.480   0.976
 7289SOL     OW22765   7.021   2.864   0.117
 7289SOL    HW122766   0.072   2.808   0.086
 7289SOL    HW222767   0.023   2.914   0.200
 7290SOL     OW22768   3.199   1.997   4.973
 7290SOL    HW122769   3.161   1.926   5.033
 7290SOL    HW222770   3.200   2.085   5.021
 7291SOL     OW22771   1.056   0.795   0.109
 7291SOL    HW122772   1.098   0.719   0.060
 7291SOL    HW222773   0.980   0.831   0.056
 7292SOL     OW22774   2.800   1.146   1.803
 7292SOL    HW122775   2.894   1.112   1.808
 7292SOL    HW222776   2.740   1.088   1.858
 7293SOL     OW22777   5.757   1.406   4.218
 7293SOL    HW122778   5.658   1.399   4.229
 7293SOL    HW222779   5.794   1.467   4.289
 7294SOL     OW22780   2.204   1.178   2.326
 7294SOL    HW122781   2.266   1.241   2.280
 7294SOL    HW222782   2.112   1.187   2.288
 7295SOL     OW22783   5.539   4.510   1.666
 7295SOL    HW122784   5.514   4.586   1.606
 7295SOL    HW222785   5.475   4.434   1.653
 7296SOL     OW22786   3.339   6.965   3.055
 7296SOL    HW122787   3.366   0.006   2.985
 7296SOL    HW222788   3.264   6.909   3.020
 7297SOL     OW22789   5.179   0.055   6.581
 7297SOL    HW122790   5.116   0.131   6.595
 7297SOL    HW222791   5.144   7.021   6.508
 7298SOL     OW22792   3.918   4.145   0.930
 7298SOL    HW122793   3.979   4.201   0.874
 7298SOL    HW222794   3.957   4.054   0.940
 7299SOL     OW22795   6.789   3.027   0.344
 7299SOL    HW122796   6.690   3.030   0.326
 7299SOL    HW222797   6.830   3.113   0.314
 7300SOL     OW22798   0.824   3.983   2.860
 7300SOL    HW122799   0.818   3.909   2.927
 7300SOL    HW222800   0.799   3.949   2.770
 7301SOL     OW22801   4.162   1.901   0.652
 7301SOL    HW122802   4.079   1.940   0.692
 7301SOL    HW222803   4.160   1.912   0.553
 7302SOL     OW22804   5.579   1.668   6.680
 7302SOL    HW122805   5.590   1.742   6.614
 7302SOL    HW222806   5.491   1.622   6.666
 7303SOL     OW22807   3.698   2.308   0.751
 7303SOL    HW122808   3.683   2.402   0.720
 7303SOL    HW222809   3.627   2.283   0.816
 7304SOL     OW22810   2.638   6.651   0.483
 7304SOL    HW122811   2.631   6.746   0.512
 7304SOL    HW222812   2.712   6.640   0.417
 7305SOL     OW22813   0.051   6.768   6.085
 7305SOL    HW122814   0.055   6.795   5.989
 7305SOL    HW222815   0.101   6.682   6.098
 7306SOL     OW22816   2.229   3.538   0.499
 7306SOL    HW122817   2.253   3.570   0.591
 7306SOL    HW222818   2.311   3.540   0.441
 7307SOL     OW22819   4.467   6.859   0.709
 7307SOL    HW122820   4.437   6.887   0.618
 7307SOL    HW222821   4.444   6.930   0.776
 7308SOL     OW22822   3.796   1.952   2.865
 7308SOL    HW122823   3.848   2.015   2.808
 7308SOL    HW222824   3.711   1.927   2.819
 7309SOL     OW22825   1.997   5.494   3.219
 7309SOL    HW122826   1.940   5.419   3.251
 7309SOL    HW222827   2.074   5.458   3.167
 7310SOL     OW22828   5.151   3.678   6.848
 7310SOL    HW122829   5.064   3.728   6.848
 7310SOL    HW222830   5.147   3.605   6.779
 7311SOL     OW22831   1.299   0.046   5.837
 7311SOL    HW122832   1.290   0.105   5.918
 7311SOL    HW222833   1.382   0.073   5.787
 7312SOL     OW22834   5.117   1.973   4.855
 7312SOL    HW122835   5.139   1.881   4.822
 7312SOL    HW222836   5.168   1.990   4.940
 7313SOL     OW22837   3.504   1.312   2.636
 7313SOL    HW122838   3.580   1.334   2.698
 7313SOL    HW222839   3.455   1.233   2.672
 7314SOL     OW22840   3.068   5.525   4.675
 7314SOL    HW122841   3.035   5.505   4.767
 7314SOL    HW222842   3.129   5.451   4.645
 7315SOL     OW22843   2.684   4.840   2.214
 7315SOL    HW122844   2.755   4.874   2.154
 7315SOL    HW222845   2.642   4.758   2.173
 7316SOL     OW22846   2.596   1.047   2.854
 7316SOL    HW122847   2.650   1.060   2.936
 7316SOL    HW222848   2.637   1.098   2.778
 7317SOL     OW22849   4.880   1.381   0.712
 7317SOL    HW122850   4.917   1.472   0.693
 7317SOL    HW222851   4.783   1.389   0.738
 7318SOL     OW22852   4.698   6.702   1.092
 7318SOL    HW122853   4.751   6.621   1.116
 7318SOL    HW222854   4.677   6.701   0.994
 7319SOL     OW22855   4.548   5.070   6.164
 7319SOL    HW122856   4.475   5.036   6.223
 7319SOL    HW222857   4.569   5.002   6.094
 7320SOL     OW22858   1.528   3.211   0.707
 7320SOL    HW122859   1.589   3.277   0.749
 7320SOL    HW222860   1.449   3.196   0.767
 7321SOL     OW22861   2.296   2.367   5.032
 7321SOL    HW122862   2.330   2.388   4.940
 7321SOL    HW222863   2.259   2.274   5.033
 7322SOL     OW22864   3.178   1.829   3.909
 7322SOL    HW122865   3.129   1.845   3.995
 7322SOL    HW222866   3.169   1.733   3.882
 7323SOL     OW22867   2.166   2.274   6.902
 7323SOL    HW122868   2.118   2.261   6.815
 7323SOL    HW222869   2.117   2.342   6.956
 7324SOL     OW22870   5.836   3.355   5.404
 7324SOL    HW122871   5.905   3.328   5.470
 7324SOL    HW222872   5.860   3.320   5.313
 7325SOL     OW22873   2.722   0.891   0.515
 7325SOL    HW122874   2.744   0.948   0.436
 7325SOL    HW222875   2.797   0.826   0.531
 7326SOL     OW22876   3.887   0.313   0.331
 7326SOL    HW122877   3.801   0.365   0.340
 7326SOL    HW222878   3.918   0.284   0.421
 7327SOL     OW22879   1.511   4.781   3.646
 7327SOL    HW122880   1.425   4.803   3.691
 7327SOL    HW222881   1.525   4.844   3.569
 7328SOL     OW22882   3.892   6.587   0.334
 7328SOL    HW122883   3.810   6.637   0.363
 7328SOL    HW222884   3.963   6.595   0.404
 7329SOL     OW22885   2.847   4.197   6.358
 7329SOL    HW122886   2.794   4.138   6.419
 7329SOL    HW222887   2.785   4.255   6.306
 7330SOL     OW22888   2.539   3.351   1.613
 7330SOL    HW122889   2.560   3.265   1.566
 7330SOL    HW222890   2.598   3.360   1.693
 7331SOL     OW22891   5.021   1.888   2.459
 7331SOL    HW122892   5.106   1.909   2.507
 7331SOL    HW222893   5.042   1.833   2.378
 7332SOL     OW22894   1.631   0.138   5.057
 7332SOL    HW122895   1.587   0.142   5.147
 7332SOL    HW222896   1.562   0.146   4.985
 7333SOL     OW22897   6.084   1.397   1.183
 7333SOL    HW122898   6.075   1.386   1.084
 7333SOL    HW222899   5.997   1.374   1.227
 7334SOL     OW22900   0.703   4.752   5.518
 7334SOL    HW122901   0.790   4.778   5.476
 7334SOL    HW222902   0.639   4.726   5.446
 7335SOL     OW22903   6.816   2.668   1.022
 7335SOL    HW122904   6.784   2.606   0.950
 7335SOL    HW222905   6.738   2.697   1.078
 7336SOL     OW22906   2.262   6.979   1.289
 7336SOL    HW122907   2.255   0.011   1.206
 7336SOL    HW222908   2.206   6.897   1.278
 7337SOL     OW22909   2.999   1.709   1.637
 7337SOL    HW122910   2.986   1.798   1.595
 7337SOL    HW222911   3.076   1.713   1.702
 7338SOL     OW22912   5.162   2.098   0.055
 7338SOL    HW122913   5.169   2.133   0.149
 7338SOL    HW222914   5.246   2.120   0.005
 7339SOL     OW22915   6.783   6.659   3.579
 7339SOL    HW122916   6.732   6.649   3.493
 7339SOL    HW222917   6.799   6.568   3.618
 7340SOL     OW22918   2.720   6.984   0.802
 7340SOL    HW122919   2.812   7.007   0.771
 7340SOL    HW222920   2.653   0.001   0.742
 7341SOL     OW22921   5.467   5.727   2.949
 7341SOL    HW122922   5.489   5.820   2.921
 7341SOL    HW222923   5.383   5.727   3.002
 7342SOL     OW22924   6.927   5.014   6.758
 7342SOL    HW122925   6.848   5.030   6.699
 7342SOL    HW222926   6.912   5.060   6.846
 7343SOL     OW22927   0.234   1.398   3.514
 7343SOL    HW122928   0.248   1.351   3.427
 7343SOL    HW222929   0.195   1.489   3.498
 7344SOL     OW22930   1.523   1.247   5.954
 7344SOL    HW122931   1.431   1.258   5.991
 7344SOL    HW222932   1.529   1.160   5.904
 7345SOL     OW22933   1.718   6.722   6.931
 7345SOL    HW122934   1.814   6.694   6.930
 7345SOL    HW222935   1.660   6.641   6.934
 7346SOL     OW22936   2.850   5.471   3.456
 7346SOL    HW122937   2.933   5.496   3.505
 7346SOL    HW222938   2.782   5.544   3.466
 7347SOL     OW22939   6.238   3.039   3.610
 7347SOL    HW122940   6.142   3.030   3.636
 7347SOL    HW222941   6.267   2.957   3.560
 7348SOL     OW22942   5.280   0.015   6.294
 7348SOL    HW122943   5.303   6.962   6.352
 7348SOL    HW222944   5.359   0.075   6.285
 7349SOL     OW22945   3.412   1.423   1.364
 7349SOL    HW122946   3.434   1.385   1.453
 7349SOL    HW222947   3.457   1.512   1.353
 7350SOL     OW22948   1.915   1.103   2.297
 7350SOL    HW122949   1.979   1.028   2.311
 7350SOL    HW222950   1.846   1.103   2.369
 7351SOL     OW22951   6.426   4.638   0.602
 7351SOL    HW122952   6.509   4.637   0.546
 7351SOL    HW222953   6.347   4.617   0.544
 7352SOL     OW22954   6.589   1.663   2.900
 7352SOL    HW122955   6.675   1.702   2.931
 7352SOL    HW222956   6.584   1.666   2.801
 7353SOL     OW22957   5.704   1.750   4.167
 7353SOL    HW122958   5.607   1.747   4.143
 7353SOL    HW222959   5.736   1.658   4.187
 7354SOL     OW22960   5.989   4.726   5.149
 7354SOL    HW122961   5.935   4.643   5.163
 7354SOL    HW222962   5.958   4.797   5.212
 7355SOL     OW22963   6.946   5.646   1.015
 7355SOL    HW122964   7.008   5.586   0.964
 7355SOL    HW222965   6.995   5.687   1.092
 7356SOL     OW22966   0.062   2.526   6.143
 7356SOL    HW122967   6.994   2.513   6.176
 7356SOL    HW222968   0.092   2.444   6.094
 7357SOL     OW22969   1.313   0.978   1.254
 7357SOL    HW122970   1.350   0.964   1.346
 7357SOL    HW222971   1.317   1.075   1.231
 7358SOL     OW22972   3.723   1.247   3.844
 7358SOL    HW122973   3.758   1.340   3.856
 7358SOL    HW222974   3.718   1.202   3.933
 7359SOL     OW22975   3.105   3.917   3.957
 7359SOL    HW122976   3.130   3.999   3.906
 7359SOL    HW222977   3.052   3.942   4.038
 7360SOL     OW22978   2.062   4.955   6.150
 7360SOL    HW122979   2.015   5.027   6.099
 7360SOL    HW222980   1.998   4.909   6.211
 7361SOL     OW22981   4.580   6.574   1.643
 7361SOL    HW122982   4.638   6.614   1.714
 7361SOL    HW222983   4.627   6.580   1.554
 7362SOL     OW22984   1.992   4.547   0.848
 7362SOL    HW122985   2.057   4.481   0.811
 7362SOL    HW222986   2.042   4.623   0.890
 7363SOL     OW22987   5.028   2.379   6.267
 7363SOL    HW122988   4.952   2.315   6.255
 7363SOL    HW222989   5.031   2.442   6.190
 7364SOL     OW22990   4.587   6.353   6.777
 7364SOL    HW122991   4.662   6.286   6.771
 7364SOL    HW222992   4.605   6.416   6.852
 7365SOL     OW22993   5.673   6.765   2.119
 7365SOL    HW122994   5.597   6.703   2.143
 7365SOL    HW222995   5.637   6.855   2.096
 7366SOL     OW22996   3.252   0.118   0.577
 7366SOL    HW122997   3.338   0.103   0.529
 7366SOL    HW222998   3.253   0.208   0.620
 7367SOL     OW22999   4.872   3.464   6.318
 7367SOL    HW123000   4.846   3.560   6.325
 7367SOL    HW223001   4.792   3.407   6.337
 7368SOL     OW23002   3.321   3.233   5.551
 7368SOL    HW123003   3.229   3.273   5.558
 7368SOL    HW223004   3.374   3.282   5.482
 7369SOL     OW23005   0.905   6.470   6.475
 7369SOL    HW123006   0.846   6.391   6.462
 7369SOL    HW223007   0.999   6.439   6.492
 7370SOL     OW23008   0.201   5.798   1.873
 7370SOL    HW123009   0.223   5.740   1.951
 7370SOL    HW223010   0.127   5.861   1.898
 7371SOL     OW23011   2.135   5.030   3.436
 7371SOL    HW123012   2.217   5.063   3.388
 7371SOL    HW223013   2.163   4.972   3.513
 7372SOL     OW23014   2.066   0.053   5.334
 7372SOL    HW123015   1.975   0.016   5.352
 7372SOL    HW223016   2.122   7.008   5.290
 7373SOL     OW23017   4.719   1.013   0.527
 7373SOL    HW123018   4.713   0.976   0.435
 7373SOL    HW223019   4.806   1.062   0.538
 7374SOL     OW23020   2.461   3.785   0.315
 7374SOL    HW123021   2.513   3.866   0.341
 7374SOL    HW223022   2.479   3.711   0.380
 7375SOL     OW23023   2.369   5.347   1.984
 7375SOL    HW123024   2.291   5.396   1.945
 7375SOL    HW223025   2.378   5.371   2.080
 7376SOL     OW23026   3.029   4.648   0.839
 7376SOL    HW123027   3.076   4.730   0.804
 7376SOL    HW223028   2.932   4.652   0.815
 7377SOL     OW23029   4.826   6.134   1.324
 7377SOL    HW123030   4.835   6.070   1.401
 7377SOL    HW223031   4.754   6.200   1.344
 7378SOL     OW23032   0.941   1.532   6.310
 7378SOL    HW123033   0.986   1.613   6.349
 7378SOL    HW223034   0.937   1.459   6.378
 7379SOL     OW23035   4.850   0.904   6.963
 7379SOL    HW123036   4.860   0.817   7.013
 7379SOL    HW223037   4.798   0.888   6.879
 7380SOL     OW23038   0.769   2.958   6.600
 7380SOL    HW123039   0.841   2.899   6.563
 7380SOL    HW223040   0.682   2.908   6.601
 7381SOL     OW23041   5.714   2.963   0.962
 7381SOL    HW123042   5.684   2.871   0.937
 7381SOL    HW223043   5.777   2.998   0.893
 7382SOL     OW23044   0.719   5.666   3.984
 7382SOL    HW123045   0.704   5.681   3.886
 7382SOL    HW223046   0.800   5.717   4.013
 7383SOL     OW23047   1.306   5.279   1.723
 7383SOL    HW123048   1.392   5.233   1.700
 7383SOL    HW223049   1.251   5.218   1.780
 7384SOL     OW23050   5.960   0.680   1.934
 7384SOL    HW123051   6.018   0.711   1.859
 7384SOL    HW223052   5.910   0.598   1.905
 7385SOL     OW23053   5.276   0.399   2.213
 7385SOL    HW123054   5.213   0.466   2.252
 7385SOL    HW223055   5.338   0.367   2.285
 7386SOL     OW23056   5.598   1.628   4.937
 7386SOL    HW123057   5.678   1.661   4.887
 7386SOL    HW223058   5.597   1.528   4.935
 7387SOL     OW23059   5.612   5.970   4.498
 7387SOL    HW123060   5.597   5.872   4.515
 7387SOL    HW223061   5.709   5.986   4.479
 7388SOL     OW23062   5.017   3.837   4.031
 7388SOL    HW123063   4.954   3.911   4.050
 7388SOL    HW223064   5.111   3.870   4.040
 7389SOL     OW23065   2.392   3.524   6.072
 7389SOL    HW123066   2.303   3.507   6.030
 7389SOL    HW223067   2.442   3.593   6.018
 7390SOL     OW23068   3.766   5.879   0.441
 7390SOL    HW123069   3.708   5.836   0.371
 7390SOL    HW223070   3.708   5.917   0.512
 7391SOL     OW23071   0.044   4.959   1.108
 7391SOL    HW123072   0.030   4.926   1.202
 7391SOL    HW223073   0.047   5.059   1.108
 7392SOL     OW23074   1.387   4.929   1.827
 7392SOL    HW123075   1.470   4.922   1.772
 7392SOL    HW223076   1.311   4.884   1.780
 7393SOL     OW23077   1.733   3.677   0.600
 7393SOL    HW123078   1.724   3.746   0.529
 7393SOL    HW223079   1.654   3.616   0.597
 7394SOL     OW23080   3.173   4.714   6.749
 7394SOL    HW123081   3.084   4.704   6.792
 7394SOL    HW223082   3.245   4.709   6.818
 7395SOL     OW23083   2.646   6.541   1.441
 7395SOL    HW123084   2.612   6.461   1.392
 7395SOL    HW223085   2.745   6.549   1.428
 7396SOL     OW23086   6.507   0.261   2.221
 7396SOL    HW123087   6.435   0.284   2.286
 7396SOL    HW223088   6.466   0.230   2.135
 7397SOL     OW23089   6.052   3.885   3.227
 7397SOL    HW123090   6.132   3.829   3.202
 7397SOL    HW223091   5.987   3.884   3.151
 7398SOL     OW23092   4.417   4.840   3.221
 7398SOL    HW123093   4.371   4.927   3.240
 7398SOL    HW223094   4.479   4.852   3.144
 7399SOL     OW23095   4.678   6.692   3.597
 7399SOL    HW123096   4.727   6.609   3.623
 7399SOL    HW223097   4.710   6.769   3.653
 7400SOL     OW23098   1.596   4.818   6.682
 7400SOL    HW123099   1.654   4.899   6.690
 7400SOL    HW223100   1.649   4.742   6.644
 7401SOL     OW23101   6.446   2.863   3.915
 7401SOL    HW123102   6.491   2.891   3.830
 7401SOL    HW223103   6.498   2.897   3.993
 7402SOL     OW23104   1.908   6.048   4.912
 7402SOL    HW123105   1.870   5.966   4.955
 7402SOL    HW223106   1.938   6.026   4.819
 7403SOL     OW23107   1.865   2.911   1.628
 7403SOL    HW123108   1.872   2.857   1.544
 7403SOL    HW223109   1.920   2.994   1.619
 7404SOL     OW23110   0.819   2.712   2.449
 7404SOL    HW123111   0.848   2.631   2.500
 7404SOL    HW223112   0.856   2.794   2.493
 7405SOL     OW23113   3.242   5.913   5.593
 7405SOL    HW123114   3.234   5.856   5.511
 7405SOL    HW223115   3.330   5.896   5.637
 7406SOL     OW23116   5.994   5.839   3.291
 7406SOL    HW123117   6.079   5.789   3.309
 7406SOL    HW223118   5.943   5.849   3.377
 7407SOL     OW23119   4.458   1.679   6.109
 7407SOL    HW123120   4.534   1.633   6.064
 7407SOL    HW223121   4.376   1.673   6.052
 7408SOL     OW23122   0.634   3.669   5.244
 7408SOL    HW123123   0.574   3.627   5.175
 7408SOL    HW223124   0.730   3.656   5.218
 7409SOL     OW23125   2.272   6.930   4.266
 7409SOL    HW123126   2.295   0.000   4.287
 7409SOL    HW223127   2.352   6.872   4.283
 7410SOL     OW23128   3.970   5.105   5.705
 7410SOL    HW123129   3.897   5.172   5.718
 7410SOL    HW223130   4.055   5.154   5.683
 7411SOL     OW23131   5.608   2.941   5.471
 7411SOL    HW123132   5.522   2.929   5.521
 7411SOL    HW223133   5.682   2.894   5.518
 7412SOL     OW23134   0.698   1.107   0.787
 7412SOL    HW123135   0.698   1.096   0.886
 7412SOL    HW223136   0.707   1.204   0.764
 7413SOL     OW23137   6.885   3.739   3.557
 7413SOL    HW123138   6.958   3.709   3.618
 7413SOL    HW223139   6.913   3.823   3.511
 7414SOL     OW23140   0.828   5.127   2.035
 7414SOL    HW123141   0.847   5.059   1.963
 7414SOL    HW223142   0.893   5.115   2.110
 7415SOL     OW23143   2.631   1.526   3.240
 7415SOL    HW123144   2.562   1.562   3.176
 7415SOL    HW223145   2.691   1.601   3.268
 7416SOL     OW23146   6.792   0.396   2.007
 7416SOL    HW123147   6.873   0.406   1.950
 7416SOL    HW223148   6.748   0.308   1.987
 7417SOL     OW23149   0.341   5.895   1.668
 7417SOL    HW123150   0.439   5.881   1.679
 7417SOL    HW223151   0.292   5.854   1.745
 7418SOL     OW23152   1.984   2.967   0.910
 7418SOL    HW123153   2.038   2.996   0.989
 7418SOL    HW223154   1.892   3.005   0.917
 7419SOL     OW23155   5.844   2.180   6.093
 7419SOL    HW123156   5.910   2.240   6.047
 7419SOL    HW223157   5.768   2.160   6.031
 7420SOL     OW23158   1.127   6.537   1.841
 7420SOL    HW123159   1.093   6.612   1.898
 7420SOL    HW223160   1.189   6.480   1.895
 7421SOL     OW23161   4.612   2.110   0.947
 7421SOL    HW123162   4.696   2.069   0.983
 7421SOL    HW223163   4.546   2.122   1.020
 7422SOL     OW23164   0.726   2.182   0.532
 7422SOL    HW123165   0.670   2.191   0.450
 7422SOL    HW223166   0.735   2.271   0.576
 7423SOL     OW23167   2.847   3.951   0.611
 7423SOL    HW123168   2.760   3.962   0.562
 7423SOL    HW223169   2.862   3.855   0.631
 7424SOL     OW23170   5.566   6.365   3.842
 7424SOL    HW123171   5.635   6.389   3.910
 7424SOL    HW223172   5.475   6.383   3.878
 7425SOL     OW23173   4.328   6.929   4.844
 7425SOL    HW123174   4.263   6.996   4.807
 7425SOL    HW223175   4.305   6.838   4.811
 7426SOL     OW23176   0.229   0.001   6.029
 7426SOL    HW123177   0.315   6.975   6.035
 7426SOL    HW223178   0.159   6.981   6.086
 7427SOL     OW23179   5.250   4.677   6.243
 7427SOL    HW123180   5.240   4.632   6.332
 7427SOL    HW223181   5.209   4.621   6.172
 7428SOL     OW23182   5.276   2.033   5.070
 7428SOL    HW123183   5.355   1.986   5.108
 7428SOL    HW223184   5.306   2.117   5.025
 7429SOL     OW23185   5.372   6.440   3.302
 7429SOL    HW123186   5.468   6.436   3.277
 7429SOL    HW223187   5.326   6.509   3.246
 7430SOL     OW23188   0.552   4.356   4.987
 7430SOL    HW123189   0.635   4.355   4.931
 7430SOL    HW223190   0.532   4.264   5.020
 7431SOL     OW23191   0.428   4.056   3.461
 7431SOL    HW123192   0.376   4.055   3.375
 7431SOL    HW223193   0.477   3.969   3.471
 7432SOL     OW23194   1.958   6.657   5.803
 7432SOL    HW123195   1.952   6.756   5.790
 7432SOL    HW223196   2.052   6.632   5.828
 7433SOL     OW23197   1.345   6.275   1.494
 7433SOL    HW123198   1.308   6.357   1.538
 7433SOL    HW223199   1.392   6.219   1.563
 7434SOL     OW23200   4.444   6.647   0.147
 7434SOL    HW123201   4.436   6.553   0.115
 7434SOL    HW223202   4.353   6.685   0.164
 7435SOL     OW23203   0.580   3.873   6.639
 7435SOL    HW123204   0.554   3.962   6.677
 7435SOL    HW223205   0.672   3.849   6.669
 7436SOL     OW23206   5.263   3.089   6.450
 7436SOL    HW123207   5.336   3.148   6.482
 7436SOL    HW223208   5.179   3.110   6.500
 7437SOL     OW23209   7.011   6.501   5.293
 7437SOL    HW123210   7.007   6.566   5.369
 7437SOL    HW223211   6.978   6.412   5.324
 7438SOL     OW23212   6.389   4.047   1.246
 7438SOL    HW123213   6.399   4.048   1.345
 7438SOL    HW223214   6.476   4.018   1.204
 7439SOL     OW23215   1.448   6.465   2.881
 7439SOL    HW123216   1.394   6.397   2.931
 7439SOL    HW223217   1.448   6.442   2.784
 7440SOL     OW23218   1.750   0.695   4.439
 7440SOL    HW123219   1.708   0.720   4.526
 7440SOL    HW223220   1.786   0.777   4.394
 7441SOL     OW23221   6.585   1.731   3.375
 7441SOL    HW123222   6.661   1.744   3.438
 7441SOL    HW223223   6.593   1.642   3.330
 7442SOL     OW23224   1.479   1.203   0.423
 7442SOL    HW123225   1.565   1.173   0.382
 7442SOL    HW223226   1.453   1.291   0.384
 7443SOL     OW23227   6.064   0.948   0.845
 7443SOL    HW123228   5.975   0.943   0.800
 7443SOL    HW223229   6.136   0.941   0.777
 7444SOL     OW23230   2.694   2.386   4.503
 7444SOL    HW123231   2.626   2.410   4.434
 7444SOL    HW223232   2.740   2.469   4.535
 7445SOL     OW23233   6.398   2.472   2.459
 7445SOL    HW123234   6.301   2.464   2.438
 7445SOL    HW223235   6.409   2.506   2.553
 7446SOL     OW23236   4.400   4.642   2.263
 7446SOL    HW123237   4.460   4.599   2.195
 7446SOL    HW223238   4.445   4.724   2.300
 7447SOL     OW23239   1.974   2.902   6.890
 7447SOL    HW123240   1.913   2.829   6.919
 7447SOL    HW223241   1.924   2.965   6.831
 7448SOL     OW23242   0.031   0.648   5.454
 7448SOL    HW123243   0.048   0.621   5.359
 7448SOL    HW223244   6.960   0.668   5.466
 7449SOL     OW23245   3.031   1.266   2.719
 7449SOL    HW123246   3.081   1.264   2.632
 7449SOL    HW223247   3.053   1.349   2.769
 7450SOL     OW23248   3.800   1.929   2.037
 7450SOL    HW123249   3.752   2.016   2.028
 7450SOL    HW223250   3.856   1.913   1.955
 7451SOL     OW23251   1.076   0.473   1.588
 7451SOL    HW123252   1.037   0.523   1.665
 7451SOL    HW223253   1.162   0.517   1.560
 7452SOL     OW23254   2.309   5.585   3.045
 7452SOL    HW123255   2.408   5.593   3.037
 7452SOL    HW223256   2.285   5.494   3.078
 7453SOL     OW23257   6.564   4.049   4.962
 7453SOL    HW123258   6.563   4.131   4.905
 7453SOL    HW223259   6.530   3.971   4.909
 7454SOL     OW23260   2.762   1.511   0.557
 7454SOL    HW123261   2.691   1.441   0.563
 7454SOL    HW223262   2.835   1.491   0.623
 7455SOL     OW23263   5.257   6.558   0.238
 7455SOL    HW123264   5.168   6.519   0.214
 7455SOL    HW223265   5.327   6.521   0.177
 7456SOL     OW23266   1.394   2.555   6.735
 7456SOL    HW123267   1.490   2.580   6.745
 7456SOL    HW223268   1.346   2.626   6.683
 7457SOL     OW23269   0.372   6.712   5.032
 7457SOL    HW123270   0.279   6.687   5.057
 7457SOL    HW223271   0.420   6.630   4.999
 7458SOL     OW23272   3.322   0.218   2.002
 7458SOL    HW123273   3.381   0.139   1.982
 7458SOL    HW223274   3.235   0.207   1.953
 7459SOL     OW23275   4.201   4.937   3.948
 7459SOL    HW123276   4.242   4.897   3.866
 7459SOL    HW223277   4.156   5.023   3.924
 7460SOL     OW23278   1.517   5.158   6.075
 7460SOL    HW123279   1.424   5.173   6.042
 7460SOL    HW223280   1.558   5.080   6.026
 7461SOL     OW23281   3.417   1.457   3.950
 7461SOL    HW123282   3.421   1.391   4.025
 7461SOL    HW223283   3.505   1.459   3.903
 7462SOL     OW23284   0.936   2.474   4.040
 7462SOL    HW123285   0.860   2.527   4.080
 7462SOL    HW223286   0.957   2.397   4.101
 7463SOL     OW23287   3.839   3.549   2.515
 7463SOL    HW123288   3.812   3.617   2.446
 7463SOL    HW223289   3.835   3.591   2.606
 7464SOL     OW23290   4.487   5.525   0.468
 7464SOL    HW123291   4.522   5.467   0.394
 7464SOL    HW223292   4.408   5.480   0.510
 7465SOL     OW23293   2.846   0.933   2.719
 7465SOL    HW123294   2.824   1.030   2.716
 7465SOL    HW223295   2.854   0.897   2.626
 7466SOL     OW23296   7.002   6.442   0.926
 7466SOL    HW123297   6.915   6.411   0.965
 7466SOL    HW223298   6.989   6.533   0.886
 7467SOL     OW23299   3.648   2.571   0.713
 7467SOL    HW123300   3.662   2.637   0.638
 7467SOL    HW223301   3.594   2.614   0.785
 7468SOL     OW23302   5.088   4.934   4.979
 7468SOL    HW123303   5.058   4.977   4.893
 7468SOL    HW223304   5.067   4.995   5.056
 7469SOL     OW23305   5.226   2.279   0.875
 7469SOL    HW123306   5.307   2.334   0.858
 7469SOL    HW223307   5.156   2.335   0.920
 7470SOL     OW23308   1.021   3.320   3.114
 7470SOL    HW123309   0.948   3.268   3.069
 7470SOL    HW223310   0.996   3.416   3.118
 7471SOL     OW23311   0.199   4.485   5.703
 7471SOL    HW123312   0.160   4.420   5.638
 7471SOL    HW223313   0.199   4.445   5.795
 7472SOL     OW23314   3.483   5.955   2.852
 7472SOL    HW123315   3.518   5.989   2.765
 7472SOL    HW223316   3.542   5.985   2.927
 7473SOL     OW23317   1.439   2.466   6.016
 7473SOL    HW123318   1.457   2.557   6.054
 7473SOL    HW223319   1.522   2.410   6.024
 7474SOL     OW23320   2.488   1.083   1.634
 7474SOL    HW123321   2.426   1.154   1.666
 7474SOL    HW223322   2.552   1.122   1.568
 7475SOL     OW23323   5.856   1.080   6.209
 7475SOL    HW123324   5.868   1.112   6.303
 7475SOL    HW223325   5.930   1.017   6.185
 7476SOL     OW23326   2.135   6.878   4.737
 7476SOL    HW123327   2.204   6.811   4.712
 7476SOL    HW223328   2.048   6.853   4.694
 7477SOL     OW23329   4.828   3.943   5.143
 7477SOL    HW123330   4.813   4.003   5.064
 7477SOL    HW223331   4.746   3.941   5.199
 7478SOL     OW23332   6.454   4.059   1.524
 7478SOL    HW123333   6.511   3.999   1.580
 7478SOL    HW223334   6.509   4.134   1.488
 7479SOL     OW23335   4.160   6.803   4.653
 7479SOL    HW123336   4.187   6.711   4.625
 7479SOL    HW223337   4.103   6.844   4.581
 7480SOL     OW23338   6.364   4.947   6.890
 7480SOL    HW123339   6.370   4.888   6.810
 7480SOL    HW223340   6.370   4.890   6.973
 7481SOL     OW23341   5.875   6.717   0.391
 7481SOL    HW123342   5.837   6.625   0.381
 7481SOL    HW223343   5.832   6.779   0.325
 7482SOL     OW23344   5.296   0.141   5.055
 7482SOL    HW123345   5.267   0.228   5.094
 7482SOL    HW223346   5.353   0.157   4.975
 7483SOL     OW23347   3.516   6.955   6.031
 7483SOL    HW123348   3.436   6.905   6.063
 7483SOL    HW223349   3.595   6.893   6.027
 7484SOL     OW23350   3.070   6.174   1.460
 7484SOL    HW123351   3.014   6.149   1.539
 7484SOL    HW223352   3.150   6.225   1.490
 7485SOL     OW23353   1.365   0.281   5.056
 7485SOL    HW123354   1.351   0.355   4.989
 7485SOL    HW223355   1.328   0.196   5.019
 7486SOL     OW23356   1.978   1.925   4.967
 7486SOL    HW123357   1.926   1.845   4.937
 7486SOL    HW223358   1.919   2.006   4.963
 7487SOL     OW23359   1.664   6.266   2.657
 7487SOL    HW123360   1.737   6.228   2.713
 7487SOL    HW223361   1.576   6.232   2.690
 7488SOL     OW23362   4.882   2.239   4.580
 7488SOL    HW123363   4.925   2.328   4.567
 7488SOL    HW223364   4.792   2.251   4.622
 7489SOL     OW23365   1.317   3.381   3.333
 7489SOL    HW123366   1.295   3.435   3.414
 7489SOL    HW223367   1.253   3.306   3.325
 7490SOL     OW23368   5.578   1.213   2.600
 7490SOL    HW123369   5.573   1.200   2.501
 7490SOL    HW223370   5.487   1.200   2.639
 7491SOL     OW23371   1.049   6.904   0.925
 7491SOL    HW123372   1.135   6.894   0.874
 7491SOL    HW223373   1.007   6.992   0.902
 7492SOL     OW23374   1.686   2.195   3.107
 7492SOL    HW123375   1.720   2.260   3.175
 7492SOL    HW223376   1.624   2.131   3.151
 7493SOL     OW23377   5.847   4.465   6.531
 7493SOL    HW123378   5.757   4.492   6.497
 7493SOL    HW223379   5.908   4.544   6.530
 7494SOL     OW23380   5.029   2.422   1.011
 7494SOL    HW123381   4.932   2.398   1.007
 7494SOL    HW223382   5.042   2.516   0.979
 7495SOL     OW23383   1.496   2.363   3.561
 7495SOL    HW123384   1.476   2.345   3.465
 7495SOL    HW223385   1.527   2.279   3.605
 7496SOL     OW23386   0.324   5.293   5.882
 7496SOL    HW123387   0.410   5.275   5.834
 7496SOL    HW223388   0.337   5.367   5.947
 7497SOL     OW23389   0.521   4.593   3.183
 7497SOL    HW123390   0.480   4.536   3.255
 7497SOL    HW223391   0.601   4.641   3.220
 7498SOL     OW23392   5.118   1.790   4.630
 7498SOL    HW123393   5.188   1.787   4.560
 7498SOL    HW223394   5.050   1.860   4.607
 7499SOL     OW23395   3.802   4.887   3.622
 7499SOL    HW123396   3.816   4.986   3.619
 7499SOL    HW223397   3.858   4.848   3.695
 7500SOL     OW23398   4.672   3.829   1.005
 7500SOL    HW123399   4.586   3.854   1.049
 7500SOL    HW223400   4.654   3.771   0.925
 7501SOL     OW23401   1.332   4.563   3.274
 7501SOL    HW123402   1.329   4.535   3.370
 7501SOL    HW223403   1.331   4.483   3.215
 7502SOL     OW23404   1.614   1.951   4.926
 7502SOL    HW123405   1.524   1.930   4.963
 7502SOL    HW223406   1.674   1.872   4.936
 7503SOL     OW23407   2.452   2.079   1.143
 7503SOL    HW123408   2.496   1.991   1.127
 7503SOL    HW223409   2.354   2.067   1.151
 7504SOL     OW23410   5.424   5.321   6.190
 7504SOL    HW123411   5.462   5.413   6.187
 7504SOL    HW223412   5.445   5.280   6.279
 7505SOL     OW23413   1.180   1.761   3.029
 7505SOL    HW123414   1.182   1.661   3.033
 7505SOL    HW223415   1.204   1.791   2.937
 7506SOL     OW23416   3.502   0.430   3.084
 7506SOL    HW123417   3.430   0.422   3.154
 7506SOL    HW223418   3.586   0.387   3.118
 7507SOL     OW23419   2.160   6.195   4.989
 7507SOL    HW123420   2.186   6.255   5.064
 7507SOL    HW223421   2.061   6.181   4.989
 7508SOL     OW23422   4.761   6.392   3.321
 7508SOL    HW123423   4.788   6.302   3.286
 7508SOL    HW223424   4.674   6.384   3.370
 7509SOL     OW23425   2.370   4.676   6.721
 7509SOL    HW123426   2.420   4.654   6.805
 7509SOL    HW223427   2.407   4.760   6.681
 7510SOL     OW23428   4.024   3.067   4.181
 7510SOL    HW123429   3.934   3.031   4.159
 7510SOL    HW223430   4.025   3.166   4.172
 7511SOL     OW23431   1.618   0.724   1.849
 7511SOL    HW123432   1.648   0.810   1.890
 7511SOL    HW223433   1.689   0.655   1.863
 7512SOL     OW23434   1.516   3.073   2.463
 7512SOL    HW123435   1.561   2.992   2.500
 7512SOL    HW223436   1.556   3.096   2.375
 7513SOL     OW23437   2.371   3.006   0.176
 7513SOL    HW123438   2.274   2.993   0.156
 7513SOL    HW223439   2.406   3.085   0.125
 7514SOL     OW23440   2.891   5.171   2.951
 7514SOL    HW123441   2.935   5.096   3.001
 7514SOL    HW223442   2.812   5.136   2.901
 7515SOL     OW23443   6.212   5.211   3.775
 7515SOL    HW123444   6.224   5.206   3.874
 7515SOL    HW223445   6.246   5.127   3.733
 7516SOL     OW23446   1.713   3.139   0.992
 7516SOL    HW123447   1.759   3.223   0.965
 7516SOL    HW223448   1.656   3.107   0.917
 7517SOL     OW23449   0.848   5.764   2.197
 7517SOL    HW123450   0.855   5.665   2.215
 7517SOL    HW223451   0.870   5.782   2.101
 7518SOL     OW23452   5.292   3.900   2.176
 7518SOL    HW123453   5.226   3.975   2.180
 7518SOL    HW223454   5.293   3.862   2.084
 7519SOL     OW23455   1.926   0.907   4.481
 7519SOL    HW123456   1.897   0.964   4.558
 7519SOL    HW223457   2.013   0.864   4.503
 7520SOL     OW23458   1.752   0.479   4.255
 7520SOL    HW123459   1.660   0.468   4.216
 7520SOL    HW223460   1.755   0.560   4.313
 7521SOL     OW23461   3.954   2.528   5.815
 7521SOL    HW123462   3.908   2.449   5.775
 7521SOL    HW223463   3.985   2.506   5.907
 7522SOL     OW23464   1.788   6.493   2.512
 7522SOL    HW123465   1.769   6.588   2.534
 7522SOL    HW223466   1.716   6.435   2.550
 7523SOL     OW23467   6.639   6.058   6.346
 7523SOL    HW123468   6.687   6.126   6.401
 7523SOL    HW223469   6.561   6.023   6.398
 7524SOL     OW23470   6.053   3.069   6.366
 7524SOL    HW123471   5.993   3.111   6.433
 7524SOL    HW223472   6.147   3.100   6.381
 7525SOL     OW23473   0.420   0.465   0.504
 7525SOL    HW123474   0.498   0.515   0.466
 7525SOL    HW223475   0.429   0.461   0.604
 7526SOL     OW23476   3.581   3.492   5.830
 7526SOL    HW123477   3.643   3.441   5.771
 7526SOL    HW223478   3.497   3.513   5.780
 7527SOL     OW23479   2.560   6.315   1.347
 7527SOL    HW123480   2.468   6.288   1.319
 7527SOL    HW223481   2.592   6.254   1.419
 7528SOL     OW23482   5.930   2.017   0.293
 7528SOL    HW123483   5.899   1.927   0.260
 7528SOL    HW223484   5.852   2.068   0.330
 7529SOL     OW23485   1.198   0.363   4.364
 7529SOL    HW123486   1.204   0.347   4.265
 7529SOL    HW223487   1.281   0.329   4.408
 7530SOL     OW23488   0.421   3.601   2.456
 7530SOL    HW123489   0.389   3.532   2.391
 7530SOL    HW223490   0.520   3.607   2.452
 7531SOL     OW23491   1.719   2.342   4.371
 7531SOL    HW123492   1.690   2.251   4.343
 7531SOL    HW223493   1.815   2.340   4.398
 7532SOL     OW23494   4.573   4.487   2.127
 7532SOL    HW123495   4.668   4.478   2.157
 7532SOL    HW223496   4.543   4.400   2.087
 7533SOL     OW23497   3.367   0.379   5.316
 7533SOL    HW123498   3.461   0.349   5.330
 7533SOL    HW223499   3.310   0.348   5.393
 7534SOL     OW23500   4.309   0.276   3.805
 7534SOL    HW123501   4.231   0.288   3.866
 7534SOL    HW223502   4.285   0.308   3.713
 7535SOL     OW23503   3.219   4.342   6.574
 7535SOL    HW123504   3.162   4.419   6.547
 7535SOL    HW223505   3.189   4.308   6.663
 7536SOL     OW23506   4.542   4.843   0.007
 7536SOL    HW123507   4.509   4.754   0.037
 7536SOL    HW223508   4.633   4.834   6.993
 7537SOL     OW23509   1.976   4.548   4.910
 7537SOL    HW123510   1.943   4.464   4.867
 7537SOL    HW223511   1.983   4.620   4.840
 7538SOL     OW23512   3.519   3.970   5.567
 7538SOL    HW123513   3.482   3.987   5.476
 7538SOL    HW223514   3.558   4.054   5.604
 7539SOL     OW23515   1.248   3.020   4.363
 7539SOL    HW123516   1.252   3.117   4.339
 7539SOL    HW223517   1.329   2.973   4.328
 7540SOL     OW23518   2.954   0.713   0.567
 7540SOL    HW123519   2.953   0.615   0.586
 7540SOL    HW223520   2.998   0.730   0.479
 7541SOL     OW23521   0.446   1.991   5.992
 7541SOL    HW123522   0.399   1.938   6.063
 7541SOL    HW223523   0.527   2.036   6.031
 7542SOL     OW23524   1.903   0.620   4.069
 7542SOL    HW123525   1.857   0.538   4.105
 7542SOL    HW223526   1.962   0.658   4.140
 7543SOL     OW23527   1.969   1.991   2.358
 7543SOL    HW123528   1.997   1.896   2.373
 7543SOL    HW223529   2.012   2.050   2.425
 7544SOL     OW23530   1.182   2.252   2.837
 7544SOL    HW123531   1.107   2.258   2.771
 7544SOL    HW223532   1.228   2.341   2.842
 7545SOL     OW23533   3.799   0.255   3.878
 7545SOL    HW123534   3.881   0.308   3.858
 7545SOL    HW223535   3.820   0.185   3.946
 7546SOL     OW23536   4.769   6.266   4.779
 7546SOL    HW123537   4.833   6.276   4.703
 7546SOL    HW223538   4.676   6.278   4.746
 7547SOL     OW23539   1.531   6.680   1.349
 7547SOL    HW123540   1.458   6.664   1.416
 7547SOL    HW223541   1.550   6.595   1.299
 7548SOL     OW23542   2.819   4.000   0.907
 7548SOL    HW123543   2.816   3.987   0.808
 7548SOL    HW223544   2.733   4.041   0.937
 7549SOL     OW23545   5.950   6.917   2.084
 7549SOL    HW123546   5.999   6.942   2.167
 7549SOL    HW223547   5.896   6.834   2.102
 7550SOL     OW23548   0.968   5.458   0.901
 7550SOL    HW123549   0.925   5.543   0.873
 7550SOL    HW223550   1.059   5.477   0.939
 7551SOL     OW23551   5.088   3.813   5.779
 7551SOL    HW123552   5.185   3.787   5.776
 7551SOL    HW223553   5.064   3.844   5.871
 7552SOL     OW23554   3.989   5.296   4.512
 7552SOL    HW123555   3.969   5.225   4.444
 7552SOL    HW223556   3.903   5.327   4.554
 7553SOL     OW23557   4.537   4.636   5.717
 7553SOL    HW123558   4.479   4.584   5.780
 7553SOL    HW223559   4.567   4.577   5.642
 7554SOL     OW23560   6.737   0.589   0.868
 7554SOL    HW123561   6.675   0.668   0.874
 7554SOL    HW223562   6.832   0.620   0.874
 7555SOL     OW23563   3.252   6.279   6.791
 7555SOL    HW123564   3.270   6.278   6.693
 7555SOL    HW223565   3.154   6.289   6.807
 7556SOL     OW23566   0.305   4.268   3.178
 7556SOL    HW123567   0.386   4.283   3.122
 7556SOL    HW223568   0.293   4.170   3.195
 7557SOL     OW23569   4.478   4.192   0.861
 7557SOL    HW123570   4.553   4.154   0.915
 7557SOL    HW223571   4.473   4.291   0.875
 7558SOL     OW23572   1.515   3.839   3.611
 7558SOL    HW123573   1.586   3.769   3.617
 7558SOL    HW223574   1.443   3.819   3.677
 7559SOL     OW23575   1.502   5.147   0.594
 7559SOL    HW123576   1.439   5.200   0.537
 7559SOL    HW223577   1.506   5.052   0.561
 7560SOL     OW23578   4.519   0.136   6.223
 7560SOL    HW123579   4.498   0.121   6.126
 7560SOL    HW223580   4.572   0.059   6.258
 7561SOL     OW23581   1.492   3.081   0.470
 7561SOL    HW123582   1.505   3.125   0.559
 7561SOL    HW223583   1.569   3.105   0.410
 7562SOL     OW23584   4.498   6.334   5.360
 7562SOL    HW123585   4.575   6.276   5.384
 7562SOL    HW223586   4.413   6.281   5.366
 7563SOL     OW23587   2.476   1.302   3.138
 7563SOL    HW123588   2.559   1.351   3.165
 7563SOL    HW223589   2.403   1.320   3.204
 7564SOL     OW23590   6.538   5.565   3.727
 7564SOL    HW123591   6.576   5.638   3.783
 7564SOL    HW223592   6.445   5.588   3.700
 7565SOL     OW23593   4.469   5.002   6.598
 7565SOL    HW123594   4.457   4.980   6.695
 7565SOL    HW223595   4.442   4.924   6.543
 7566SOL     OW23596   1.801   5.652   4.401
 7566SOL    HW123597   1.843   5.577   4.349
 7566SOL    HW223598   1.796   5.626   4.498
 7567SOL     OW23599   2.641   4.401   0.143
 7567SOL    HW123600   2.553   4.370   0.180
 7567SOL    HW223601   2.627   4.445   0.055
 7568SOL     OW23602   4.229   4.746   4.141
 7568SOL    HW123603   4.149   4.763   4.197
 7568SOL    HW223604   4.216   4.788   4.051
 7569SOL     OW23605   3.399   0.193   2.888
 7569SOL    HW123606   3.418   0.169   2.793
 7569SOL    HW223607   3.432   0.286   2.906
 7570SOL     OW23608   6.247   5.232   5.029
 7570SOL    HW123609   6.292   5.275   5.106
 7570SOL    HW223610   6.163   5.187   5.059
 7571SOL     OW23611   6.819   4.734   0.688
 7571SOL    HW123612   6.863   4.778   0.767
 7571SOL    HW223613   6.776   4.648   0.717
 7572SOL     OW23614   6.069   1.492   3.396
 7572SOL    HW123615   6.147   1.437   3.369
 7572SOL    HW223616   5.991   1.474   3.335
 7573SOL     OW23617   3.282   4.912   3.814
 7573SOL    HW123618   3.248   4.825   3.849
 7573SOL    HW223619   3.381   4.906   3.802
 7574SOL     OW23620   4.135   6.048   1.428
 7574SOL    HW123621   4.201   6.073   1.356
 7574SOL    HW223622   4.176   5.978   1.487
 7575SOL     OW23623   5.296   3.638   3.884
 7575SOL    HW123624   5.241   3.605   3.960
 7575SOL    HW223625   5.237   3.664   3.808
 7576SOL     OW23626   0.188   4.964   2.030
 7576SOL    HW123627   0.275   4.939   2.073
 7576SOL    HW223628   0.176   4.910   1.947
 7577SOL     OW23629   3.897   1.668   3.765
 7577SOL    HW123630   3.958   1.627   3.833
 7577SOL    HW223631   3.913   1.767   3.761
 7578SOL     OW23632   2.192   5.215   5.800
 7578SOL    HW123633   2.136   5.205   5.718
 7578SOL    HW223634   2.251   5.135   5.810
 7579SOL     OW23635   4.041   2.094   4.670
 7579SOL    HW123636   3.968   2.083   4.737
 7579SOL    HW223637   4.003   2.091   4.578
 7580SOL     OW23638   1.620   3.087   2.871
 7580SOL    HW123639   1.680   3.035   2.810
 7580SOL    HW223640   1.591   3.171   2.826
 7581SOL     OW23641   5.504   1.157   0.736
 7581SOL    HW123642   5.408   1.176   0.753
 7581SOL    HW223643   5.513   1.086   0.666
 7582SOL     OW23644   3.593   3.388   1.548
 7582SOL    HW123645   3.524   3.455   1.574
 7582SOL    HW223646   3.620   3.403   1.453
 7583SOL     OW23647   6.047   4.780   2.880
 7583SOL    HW123648   6.131   4.826   2.909
 7583SOL    HW223649   5.971   4.845   2.885
 7584SOL     OW23650   1.646   2.619   2.247
 7584SOL    HW123651   1.550   2.609   2.273
 7584SOL    HW223652   1.657   2.597   2.150
 7585SOL     OW23653   3.225   3.998   0.460
 7585SOL    HW123654   3.163   3.972   0.386
 7585SOL    HW223655   3.174   4.049   0.529
 7586SOL     OW23656   1.220   2.477   3.024
 7586SOL    HW123657   1.249   2.413   3.095
 7586SOL    HW223658   1.122   2.497   3.034
 7587SOL     OW23659   2.577   0.698   5.643
 7587SOL    HW123660   2.652   0.761   5.625
 7587SOL    HW223661   2.515   0.739   5.710
 7588SOL     OW23662   0.640   3.871   1.877
 7588SOL    HW123663   0.644   3.970   1.890
 7588SOL    HW223664   0.585   3.830   1.949
 7589SOL     OW23665   4.400   6.045   6.231
 7589SOL    HW123666   4.336   6.108   6.275
 7589SOL    HW223667   4.410   5.962   6.285
 7590SOL     OW23668   2.224   1.101   5.234
 7590SOL    HW123669   2.314   1.057   5.230
 7590SOL    HW223670   2.233   1.195   5.266
 7591SOL     OW23671   0.302   5.811   6.174
 7591SOL    HW123672   0.316   5.815   6.273
 7591SOL    HW223673   0.390   5.814   6.127
 7592SOL     OW23674   4.826   4.361   6.592
 7592SOL    HW123675   4.760   4.320   6.655
 7592SOL    HW223676   4.845   4.297   6.517
 7593SOL     OW23677   6.814   4.936   0.289
 7593SOL    HW123678   6.902   4.912   0.249
 7593SOL    HW223679   6.748   4.950   0.215
 7594SOL     OW23680   1.316   0.762   4.800
 7594SOL    HW123681   1.371   0.813   4.865
 7594SOL    HW223682   1.345   0.783   4.707
 7595SOL     OW23683   0.337   4.121   0.020
 7595SOL    HW123684   0.279   4.047   7.012
 7595SOL    HW223685   0.410   4.083   0.077
 7596SOL     OW23686   5.746   5.136   2.054
 7596SOL    HW123687   5.676   5.197   2.017
 7596SOL    HW223688   5.708   5.083   2.130
 7597SOL     OW23689   2.470   4.541   2.643
 7597SOL    HW123690   2.471   4.571   2.738
 7597SOL    HW223691   2.444   4.444   2.639
 7598SOL     OW23692   6.162   1.720   2.745
 7598SOL    HW123693   6.185   1.806   2.790
 7598SOL    HW223694   6.150   1.648   2.814
 7599SOL     OW23695   5.383   3.970   1.342
 7599SOL    HW123696   5.452   3.999   1.276
 7599SOL    HW223697   5.407   4.005   1.433
 7600SOL     OW23698   1.826   2.673   2.950
 7600SOL    HW123699   1.779   2.646   2.866
 7600SOL    HW223700   1.807   2.770   2.969
 7601SOL     OW23701   1.525   0.754   5.723
 7601SOL    HW123702   1.453   0.729   5.789
 7601SOL    HW223703   1.508   0.708   5.636
 7602SOL     OW23704   2.369   2.900   5.411
 7602SOL    HW123705   2.289   2.860   5.366
 7602SOL    HW223706   2.429   2.941   5.342
 7603SOL     OW23707   5.610   1.445   1.383
 7603SOL    HW123708   5.606   1.507   1.305
 7603SOL    HW223709   5.706   1.426   1.406
 7604SOL     OW23710   6.115   5.538   6.405
 7604SOL    HW123711   6.163   5.565   6.488
 7604SOL    HW223712   6.164   5.575   6.325
 7605SOL     OW23713   4.709   3.076   5.478
 7605SOL    HW123714   4.781   3.146   5.465
 7605SOL    HW223715   4.660   3.094   5.563
 7606SOL     OW23716   4.969   1.274   3.465
 7606SOL    HW123717   5.050   1.220   3.443
 7606SOL    HW223718   4.926   1.306   3.380
 7607SOL     OW23719   4.750   6.124   6.211
 7607SOL    HW123720   4.841   6.157   6.188
 7607SOL    HW223721   4.716   6.173   6.291
 7608SOL     OW23722   3.571   2.978   5.084
 7608SOL    HW123723   3.656   2.954   5.038
 7608SOL    HW223724   3.507   2.901   5.079
 7609SOL     OW23725   0.937   2.778   3.056
 7609SOL    HW123726   0.840   2.802   3.061
 7609SOL    HW223727   0.980   2.793   3.145
 7610SOL     OW23728   6.025   6.904   2.359
 7610SOL    HW123729   5.977   6.941   2.439
 7610SOL    HW223730   6.120   6.938   2.358
 7611SOL     OW23731   1.443   2.049   1.827
 7611SOL    HW123732   1.411   1.985   1.758
 7611SOL    HW223733   1.504   2.002   1.891
 7612SOL     OW23734   3.497   1.003   2.663
 7612SOL    HW123735   3.458   1.006   2.570
 7612SOL    HW223736   3.427   1.028   2.729
 7613SOL     OW23737   6.747   0.959   2.004
 7613SOL    HW123738   6.843   0.937   2.021
 7613SOL    HW223739   6.689   0.883   2.034
 7614SOL     OW23740   4.300   1.438   0.204
 7614SOL    HW123741   4.236   1.376   0.249
 7614SOL    HW223742   4.306   1.415   0.107
 7615SOL     OW23743   4.722   5.068   6.422
 7615SOL    HW123744   4.674   5.122   6.353
 7615SOL    HW223745   4.683   4.976   6.426
 7616SOL     OW23746   0.161   5.666   3.863
 7616SOL    HW123747   0.067   5.686   3.834
 7616SOL    HW223748   0.178   5.568   3.853
 7617SOL     OW23749   4.055   5.171   3.822
 7617SOL    HW123750   4.112   5.250   3.846
 7617SOL    HW223751   3.962   5.202   3.803
 7618SOL     OW23752   3.753   1.190   0.225
 7618SOL    HW123753   3.690   1.243   0.168
 7618SOL    HW223754   3.839   1.240   0.234
 7619SOL     OW23755   5.853   3.542   5.992
 7619SOL    HW123756   5.913   3.515   6.067
 7619SOL    HW223757   5.907   3.547   5.907
 7620SOL     OW23758   2.544   5.493   1.743
 7620SOL    HW123759   2.590   5.557   1.805
 7620SOL    HW223760   2.481   5.435   1.795
 7621SOL     OW23761   2.200   3.216   1.300
 7621SOL    HW123762   2.255   3.233   1.218
 7621SOL    HW223763   2.107   3.193   1.274
 7622SOL     OW23764   5.218   1.784   0.647
 7622SOL    HW123765   5.174   1.767   0.735
 7622SOL    HW223766   5.215   1.702   0.591
 7623SOL     OW23767   6.963   6.769   5.425
 7623SOL    HW123768   0.026   6.811   5.446
 7623SOL    HW223769   6.890   6.836   5.439
 7624SOL     OW23770   6.741   1.636   4.664
 7624SOL    HW123771   6.680   1.575   4.716
 7624SOL    HW223772   6.836   1.620   4.692
 7625SOL     OW23773   1.899   4.570   0.303
 7625SOL    HW123774   1.964   4.644   0.321
 7625SOL    HW223775   1.881   4.520   0.388
 7626SOL     OW23776   2.506   3.745   5.330
 7626SOL    HW123777   2.424   3.689   5.322
 7626SOL    HW223778   2.494   3.831   5.280
 7627SOL     OW23779   6.902   6.867   6.648
 7627SOL    HW123780   6.941   6.796   6.706
 7627SOL    HW223781   6.934   6.854   6.554
 7628SOL     OW23782   4.518   1.616   0.830
 7628SOL    HW123783   4.581   1.686   0.796
 7628SOL    HW223784   4.569   1.533   0.853
 7629SOL     OW23785   5.912   5.529   2.050
 7629SOL    HW123786   5.992   5.581   2.078
 7629SOL    HW223787   5.940   5.440   2.014
 7630SOL     OW23788   5.503   2.381   2.355
 7630SOL    HW123789   5.462   2.372   2.446
 7630SOL    HW223790   5.600   2.400   2.364
 7631SOL     OW23791   0.930   0.397   4.347
 7631SOL    HW123792   1.029   0.408   4.363
 7631SOL    HW223793   0.890   0.349   4.425
 7632SOL     OW23794   5.279   1.060   4.901
 7632SOL    HW123795   5.261   1.060   4.803
 7632SOL    HW223796   5.323   1.147   4.927
 7633SOL     OW23797   5.733   3.662   6.350
 7633SOL    HW123798   5.736   3.663   6.250
 7633SOL    HW223799   5.686   3.744   6.382
 7634SOL     OW23800   0.751   1.575   2.121
 7634SOL    HW123801   0.739   1.567   2.022
 7634SOL    HW223802   0.840   1.616   2.141
 7635SOL     OW23803   2.152   4.631   5.761
 7635SOL    HW123804   2.122   4.723   5.786
 7635SOL    HW223805   2.109   4.564   5.822
 7636SOL     OW23806   0.740   1.759   3.279
 7636SOL    HW123807   0.832   1.797   3.274
 7636SOL    HW223808   0.677   1.815   3.226
 7637SOL     OW23809   3.457   6.566   3.469
 7637SOL    HW123810   3.518   6.490   3.443
 7637SOL    HW223811   3.420   6.608   3.386
 7638SOL     OW23812   4.453   5.435   1.462
 7638SOL    HW123813   4.506   5.352   1.478
 7638SOL    HW223814   4.356   5.416   1.478
 7639SOL     OW23815   0.825   1.970   4.136
 7639SOL    HW123816   0.875   2.033   4.076
 7639SOL    HW223817   0.764   1.913   4.080
 7640SOL     OW23818   2.411   2.697   6.689
 7640SOL    HW123819   2.334   2.695   6.752
 7640SOL    HW223820   2.497   2.689   6.740
 7641SOL     OW23821   6.522   2.505   1.229
 7641SOL    HW123822   6.610   2.485   1.272
 7641SOL    HW223823   6.525   2.596   1.189
 7642SOL     OW23824   1.111   3.201   3.343
 7642SOL    HW123825   1.085   3.238   3.253
 7642SOL    HW223826   1.051   3.125   3.366
 7643SOL     OW23827   5.841   3.919   3.478
 7643SOL    HW123828   5.921   3.875   3.518
 7643SOL    HW223829   5.853   3.927   3.379
 7644SOL     OW23830   6.767   3.099   3.791
 7644SOL    HW123831   6.841   3.123   3.853
 7644SOL    HW223832   6.802   3.095   3.697
 7645SOL     OW23833   3.365   2.950   0.792
 7645SOL    HW123834   3.307   2.977   0.870
 7645SOL    HW223835   3.362   3.021   0.722
 7646SOL     OW23836   0.360   0.496   2.378
 7646SOL    HW123837   0.285   0.551   2.413
 7646SOL    HW223838   0.325   0.432   2.309
 7647SOL     OW23839   2.512   4.902   6.878
 7647SOL    HW123840   2.596   4.911   6.932
 7647SOL    HW223841   2.536   4.892   6.781
 7648SOL     OW23842   2.580   0.395   3.700
 7648SOL    HW123843   2.498   0.374   3.753
 7648SOL    HW223844   2.658   0.405   3.762
 7649SOL     OW23845   3.394   1.962   1.045
 7649SOL    HW123846   3.318   2.024   1.063
 7649SOL    HW223847   3.460   1.968   1.120
 7650SOL     OW23848   0.310   4.647   1.088
 7650SOL    HW123849   0.345   4.722   1.032
 7650SOL    HW223850   0.309   4.674   1.185
 7651SOL     OW23851   5.409   2.617   5.842
 7651SOL    HW123852   5.385   2.624   5.745
 7651SOL    HW223853   5.381   2.701   5.889
 7652SOL     OW23854   0.416   2.556   2.122
 7652SOL    HW123855   0.445   2.616   2.196
 7652SOL    HW223856   0.366   2.610   2.053
 7653SOL     OW23857   5.123   2.416   1.260
 7653SOL    HW123858   5.058   2.400   1.334
 7653SOL    HW223859   5.074   2.419   1.173
 7654SOL     OW23860   5.668   3.777   4.798
 7654SOL    HW123861   5.726   3.704   4.763
 7654SOL    HW223862   5.718   3.829   4.867
 7655SOL     OW23863   5.200   3.783   6.175
 7655SOL    HW123864   5.188   3.807   6.271
 7655SOL    HW223865   5.200   3.684   6.164
 7656SOL     OW23866   6.564   0.053   5.091
 7656SOL    HW123867   6.520   0.101   5.015
 7656SOL    HW223868   6.586   0.118   5.163
 7657SOL     OW23869   3.743   2.123   3.096
 7657SOL    HW123870   3.834   2.162   3.104
 7657SOL    HW223871   3.744   2.047   3.030
 7658SOL     OW23872   4.512   1.194   5.572
 7658SOL    HW123873   4.583   1.152   5.514
 7658SOL    HW223874   4.481   1.279   5.530
 7659SOL     OW23875   4.993   5.864   6.759
 7659SOL    HW123876   4.922   5.795   6.770
 7659SOL    HW223877   5.046   5.845   6.677
 7660SOL     OW23878   5.615   5.481   4.072
 7660SOL    HW123879   5.601   5.502   3.975
 7660SOL    HW223880   5.569   5.550   4.128
 7661SOL     OW23881   5.915   3.327   3.448
 7661SOL    HW123882   5.970   3.382   3.510
 7661SOL    HW223883   5.929   3.359   3.354
 7662SOL     OW23884   5.922   5.415   3.316
 7662SOL    HW123885   5.993   5.466   3.268
 7662SOL    HW223886   5.964   5.348   3.376
 7663SOL     OW23887   1.151   6.271   0.070
 7663SOL    HW123888   1.188   6.340   0.131
 7663SOL    HW223889   1.115   6.316   7.013
 7664SOL     OW23890   5.297   4.683   5.024
 7664SOL    HW123891   5.327   4.770   4.985
 7664SOL    HW223892   5.307   4.610   4.956
 7665SOL     OW23893   2.261   6.085   4.211
 7665SOL    HW123894   2.218   6.001   4.177
 7665SOL    HW223895   2.360   6.081   4.195
 7666SOL     OW23896   2.168   0.037   2.300
 7666SOL    HW123897   2.252   0.088   2.320
 7666SOL    HW223898   2.142   0.054   2.204
 7667SOL     OW23899   5.884   0.185   5.387
 7667SOL    HW123900   5.931   0.111   5.435
 7667SOL    HW223901   5.825   0.147   5.317
 7668SOL     OW23902   3.713   4.048   3.097
 7668SOL    HW123903   3.701   3.954   3.129
 7668SOL    HW223904   3.624   4.093   3.094
 7669SOL     OW23905   4.188   6.218   5.093
 7669SOL    HW123906   4.278   6.173   5.097
 7669SOL    HW223907   4.178   6.264   5.005
 7670SOL     OW23908   1.349   5.853   0.585
 7670SOL    HW123909   1.378   5.923   0.519
 7670SOL    HW223910   1.272   5.889   0.639
 7671SOL     OW23911   4.785   2.546   4.895
 7671SOL    HW123912   4.826   2.463   4.933
 7671SOL    HW223913   4.823   2.564   4.804
 7672SOL     OW23914   5.338   0.032   1.659
 7672SOL    HW123915   5.436   0.051   1.659
 7672SOL    HW223916   5.288   0.118   1.662
 7673SOL     OW23917   2.157   3.921   6.269
 7673SOL    HW123918   2.165   4.018   6.250
 7673SOL    HW223919   2.200   3.900   6.357
 7674SOL     OW23920   6.414   1.722   6.415
 7674SOL    HW123921   6.478   1.657   6.373
 7674SOL    HW223922   6.378   1.683   6.499
 7675SOL     OW23923   5.630   6.699   3.521
 7675SOL    HW123924   5.571   6.736   3.593
 7675SOL    HW223925   5.662   6.608   3.548
 7676SOL     OW23926   2.445   0.514   0.102
 7676SOL    HW123927   2.456   0.518   0.002
 7676SOL    HW223928   2.352   0.486   0.125
 7677SOL     OW23929   1.334   1.802   2.548
 7677SOL    HW123930   1.278   1.874   2.588
 7677SOL    HW223931   1.366   1.832   2.458
 7678SOL     OW23932   4.790   6.885   5.597
 7678SOL    HW123933   4.888   6.867   5.603
 7678SOL    HW223934   4.766   6.963   5.653
 7679SOL     OW23935   2.034   5.015   4.344
 7679SOL    HW123936   2.057   5.040   4.438
 7679SOL    HW223937   2.118   4.990   4.295
 7680SOL     OW23938   5.046   0.250   0.765
 7680SOL    HW123939   4.976   0.194   0.807
 7680SOL    HW223940   5.123   0.262   0.828
 7681SOL     OW23941   4.521   2.461   5.322
 7681SOL    HW123942   4.488   2.537   5.378
 7681SOL    HW223943   4.536   2.381   5.381
 7682SOL     OW23944   3.635   1.016   6.899
 7682SOL    HW123945   3.721   1.065   6.887
 7682SOL    HW223946   3.559   1.077   6.876
 7683SOL     OW23947   6.475   3.880   3.304
 7683SOL    HW123948   6.558   3.836   3.269
 7683SOL    HW223949   6.414   3.901   3.228
 7684SOL     OW23950   3.792   2.361   6.799
 7684SOL    HW123951   3.776   2.453   6.836
 7684SOL    HW223952   3.854   2.311   6.860
 7685SOL     OW23953   4.628   4.005   1.735
 7685SOL    HW123954   4.562   4.073   1.766
 7685SOL    HW223955   4.579   3.923   1.706
 7686SOL     OW23956   2.266   0.528   2.265
 7686SOL    HW123957   2.279   0.582   2.348
 7686SOL    HW223958   2.355   0.506   2.225
 7687SOL     OW23959   4.879   4.417   5.422
 7687SOL    HW123960   4.934   4.365   5.488
 7687SOL    HW223961   4.900   4.386   5.329
 7688SOL     OW23962   0.071   0.216   3.791
 7688SOL    HW123963   0.146   0.260   3.841
 7688SOL    HW223964   0.082   0.233   3.693
 7689SOL     OW23965   3.515   0.090   4.742
 7689SOL    HW123966   3.420   0.093   4.771
 7689SOL    HW223967   3.564   0.021   4.794
 7690SOL     OW23968   1.087   5.448   3.303
 7690SOL    HW123969   1.164   5.397   3.265
 7690SOL    HW223970   1.062   5.523   3.241
 7691SOL     OW23971   0.124   4.258   5.549
 7691SOL    HW123972   0.062   4.278   5.474
 7691SOL    HW223973   0.141   4.159   5.553
 7692SOL     OW23974   1.537   6.403   1.768
 7692SOL    HW123975   1.603   6.342   1.724
 7692SOL    HW223976   1.564   6.418   1.863
 7693SOL     OW23977   3.917   1.561   0.105
 7693SOL    HW123978   3.941   1.542   0.200
 7693SOL    HW223979   4.000   1.564   0.049
 7694SOL     OW23980   5.497   5.649   4.254
 7694SOL    HW123981   5.432   5.704   4.306
 7694SOL    HW223982   5.575   5.626   4.312
 7695SOL     OW23983   5.119   6.523   6.272
 7695SOL    HW123984   5.066   6.569   6.201
 7695SOL    HW223985   5.095   6.560   6.362
 7696SOL     OW23986   1.427   4.241   5.877
 7696SOL    HW123987   1.446   4.207   5.785
 7696SOL    HW223988   1.440   4.167   5.944
 7697SOL     OW23989   4.015   0.061   1.894
 7697SOL    HW123990   4.106   0.022   1.906
 7697SOL    HW223991   3.946   7.019   1.918
 7698SOL     OW23992   0.246   2.671   6.302
 7698SOL    HW123993   0.186   2.733   6.353
 7698SOL    HW223994   0.191   2.603   6.254
 7699SOL     OW23995   2.770   3.472   1.763
 7699SOL    HW123996   2.703   3.545   1.768
 7699SOL    HW223997   2.806   3.452   1.854
 7700SOL     OW23998   5.676   1.314   5.775
 7700SOL    HW123999   5.665   1.268   5.863
 7700SOL    HW224000   5.673   1.413   5.789
 7701SOL     OW24001   6.505   2.635   5.088
 7701SOL    HW124002   6.447   2.715   5.073
 7701SOL    HW224003   6.580   2.659   5.149
 7702SOL     OW24004   1.141   6.039   0.639
 7702SOL    HW124005   1.182   5.996   0.559
 7702SOL    HW224006   1.105   6.129   0.613
 7703SOL     OW24007   1.093   2.901   0.423
 7703SOL    HW124008   1.052   2.989   0.445
 7703SOL    HW224009   1.120   2.900   0.327
 7704SOL     OW24010   4.028   3.504   1.888
 7704SOL    HW124011   3.941   3.519   1.841
 7704SOL    HW224012   4.044   3.579   1.952
 7705SOL     OW24013   3.976   2.928   5.513
 7705SOL    HW124014   4.023   2.875   5.442
 7705SOL    HW224015   3.959   2.869   5.592
 7706SOL     OW24016   5.869   1.425   5.559
 7706SOL    HW124017   5.931   1.348   5.545
 7706SOL    HW224018   5.787   1.394   5.607
 7707SOL     OW24019   0.532   5.091   6.324
 7707SOL    HW124020   0.532   5.120   6.229
 7707SOL    HW224021   0.623   5.103   6.364
 7708SOL     OW24022   5.181   1.250   5.855
 7708SOL    HW124023   5.132   1.298   5.782
 7708SOL    HW224024   5.115   1.212   5.920
 7709SOL     OW24025   4.169   2.522   1.752
 7709SOL    HW124026   4.248   2.517   1.692
 7709SOL    HW224027   4.148   2.618   1.771
 7710SOL     OW24028   3.218   1.243   5.925
 7710SOL    HW124029   3.184   1.281   6.011
 7710SOL    HW224030   3.166   1.162   5.901
 7711SOL     OW24031   5.477   6.722   4.621
 7711SOL    HW124032   5.570   6.759   4.623
 7711SOL    HW224033   5.428   6.749   4.704
 7712SOL     OW24034   6.389   4.180   6.128
 7712SOL    HW124035   6.472   4.175   6.073
 7712SOL    HW224036   6.336   4.261   6.102
 7713SOL     OW24037   1.299   5.219   6.463
 7713SOL    HW124038   1.397   5.237   6.453
 7713SOL    HW224039   1.255   5.222   6.373
 7714SOL     OW24040   6.479   4.585   5.278
 7714SOL    HW124041   6.505   4.495   5.311
 7714SOL    HW224042   6.559   4.631   5.240
 7715SOL     OW24043   3.158   1.314   1.336
 7715SOL    HW124044   3.239   1.357   1.374
 7715SOL    HW224045   3.086   1.311   1.405
 7716SOL     OW24046   3.671   2.077   4.345
 7716SOL    HW124047   3.573   2.093   4.356
 7716SOL    HW224048   3.687   2.023   4.262
 7717SOL     OW24049   3.091   6.301   0.383
 7717SOL    HW124050   3.182   6.343   0.376
 7717SOL    HW224051   3.094   6.226   0.449
 7718SOL     OW24052   1.398   6.062   3.188
 7718SOL    HW124053   1.493   6.082   3.214
 7718SOL    HW224054   1.342   6.055   3.270
 7719SOL     OW24055   5.343   2.860   6.005
 7719SOL    HW124056   5.315   2.931   5.941
 7719SOL    HW224057   5.262   2.819   6.047
 7720SOL     OW24058   4.625   6.290   1.308
 7720SOL    HW124059   4.559   6.227   1.268
 7720SOL    HW224060   4.578   6.373   1.340
 7721SOL     OW24061   0.654   4.930   3.800
 7721SOL    HW124062   0.673   5.001   3.868
 7721SOL    HW224063   0.584   4.868   3.836
 7722SOL     OW24064   0.532   6.011   3.373
 7722SOL    HW124065   0.493   6.022   3.465
 7722SOL    HW224066   0.632   6.019   3.379
 7723SOL     OW24067   0.151   2.369   5.688
 7723SOL    HW124068   0.199   2.287   5.658
 7723SOL    HW224069   0.143   2.434   5.612
 7724SOL     OW24070   2.787   6.060   6.918
 7724SOL    HW124071   2.826   5.979   6.875
 7724SOL    HW224072   2.699   6.081   6.874
 7725SOL     OW24073   4.902   4.112   3.903
 7725SOL    HW124074   4.990   4.087   3.862
 7725SOL    HW224075   4.906   4.206   3.936
 7726SOL     OW24076   5.235   6.019   3.319
 7726SOL    HW124077   5.335   6.021   3.317
 7726SOL    HW224078   5.199   6.087   3.255
 7727SOL     OW24079   5.768   3.837   2.761
 7727SOL    HW124080   5.735   3.922   2.803
 7727SOL    HW224081   5.814   3.858   2.675
 7728SOL     OW24082   1.963   3.340   2.771
 7728SOL    HW124083   1.899   3.377   2.704
 7728SOL    HW224084   2.001   3.254   2.737
 7729SOL     OW24085   5.677   1.221   6.032
 7729SOL    HW124086   5.664   1.310   6.074
 7729SOL    HW224087   5.754   1.174   6.075
 7730SOL     OW24088   4.432   5.964   3.173
 7730SOL    HW124089   4.463   5.970   3.268
 7730SOL    HW224090   4.337   5.932   3.171
 7731SOL     OW24091   6.278   1.319   3.292
 7731SOL    HW124092   6.296   1.232   3.337
 7731SOL    HW224093   6.348   1.335   3.222
 7732SOL     OW24094   3.976   4.850   0.924
 7732SOL    HW124095   4.041   4.924   0.908
 7732SOL    HW224096   3.955   4.846   1.022
 7733SOL     OW24097   3.580   5.472   1.344
 7733SOL    HW124098   3.650   5.402   1.359
 7733SOL    HW224099   3.605   5.529   1.267
 7734SOL     OW24100   1.389   2.754   2.382
 7734SOL    HW124101   1.361   2.677   2.439
 7734SOL    HW224102   1.478   2.787   2.413
 7735SOL     OW24103   5.983   4.410   0.599
 7735SOL    HW124104   6.071   4.400   0.645
 7735SOL    HW224105   5.909   4.389   0.662
 7736SOL     OW24106   6.025   4.674   6.526
 7736SOL    HW124107   6.065   4.736   6.458
 7736SOL    HW224108   6.069   4.689   6.615
 7737SOL     OW24109   5.167   3.460   6.657
 7737SOL    HW124110   5.138   3.373   6.615
 7737SOL    HW224111   5.266   3.465   6.656
 7738SOL     OW24112   1.593   4.783   6.276
 7738SOL    HW124113   1.537   4.842   6.334
 7738SOL    HW224114   1.561   4.788   6.182
 7739SOL     OW24115   5.965   4.912   2.162
 7739SOL    HW124116   5.955   4.921   2.063
 7739SOL    HW224117   5.903   4.976   2.208
 7740SOL     OW24118   6.673   5.917   3.374
 7740SOL    HW124119   6.574   5.918   3.358
 7740SOL    HW224120   6.704   6.009   3.399
 7741SOL     OW24121   2.139   5.708   3.359
 7741SOL    HW124122   2.214   5.721   3.294
 7741SOL    HW224123   2.070   5.647   3.319
 7742SOL     OW24124   6.580   0.678   4.350
 7742SOL    HW124125   6.483   0.663   4.329
 7742SOL    HW224126   6.633   0.602   4.314
 7743SOL     OW24127   4.891   3.804   2.109
 7743SOL    HW124128   4.950   3.778   2.185
 7743SOL    HW224129   4.795   3.796   2.136
 7744SOL     OW24130   0.050   6.630   3.386
 7744SOL    HW124131   0.137   6.636   3.337
 7744SOL    HW224132   0.063   6.663   3.480
 7745SOL     OW24133   6.377   2.654   5.543
 7745SOL    HW124134   6.294   2.632   5.594
 7745SOL    HW224135   6.436   2.713   5.598
 7746SOL     OW24136   2.166   0.231   6.531
 7746SOL    HW124137   2.179   0.226   6.630
 7746SOL    HW224138   2.070   0.212   6.509
 7747SOL     OW24139   4.471   4.931   0.899
 7747SOL    HW124140   4.419   4.846   0.891
 7747SOL    HW224141   4.568   4.912   0.886
 7748SOL     OW24142   1.376   3.908   6.766
 7748SOL    HW124143   1.322   3.851   6.828
 7748SOL    HW224144   1.445   3.957   6.819
 7749SOL     OW24145   5.882   3.149   6.003
 7749SOL    HW124146   5.914   3.158   5.909
 7749SOL    HW224147   5.798   3.095   6.005
 7750SOL     OW24148   4.107   5.856   2.828
 7750SOL    HW124149   4.143   5.763   2.834
 7750SOL    HW224150   4.012   5.858   2.859
 7751SOL     OW24151   1.043   2.444   1.493
 7751SOL    HW124152   1.038   2.535   1.536
 7751SOL    HW224153   1.116   2.391   1.536
 7752SOL     OW24154   2.773   1.205   2.734
 7752SOL    HW124155   2.727   1.292   2.755
 7752SOL    HW224156   2.870   1.222   2.719
 7753SOL     OW24157   5.074   0.356   5.051
 7753SOL    HW124158   5.130   0.410   4.988
 7753SOL    HW224159   4.985   0.401   5.063
 7754SOL     OW24160   4.416   6.170   1.178
 7754SOL    HW124161   4.449   6.078   1.155
 7754SOL    HW224162   4.407   6.224   1.095
 7755SOL     OW24163   1.544   3.000   6.303
 7755SOL    HW124164   1.489   3.080   6.324
 7755SOL    HW224165   1.570   3.001   6.206
 7756SOL     OW24166   1.444   4.586   2.300
 7756SOL    HW124167   1.522   4.539   2.343
 7756SOL    HW224168   1.477   4.661   2.243
 7757SOL     OW24169   0.283   4.500   0.573
 7757SOL    HW124170   0.292   4.568   0.646
 7757SOL    HW224171   0.186   4.487   0.552
 7758SOL     OW24172   6.895   1.340   4.912
 7758SOL    HW124173   6.833   1.418   4.900
 7758SOL    HW224174   6.982   1.359   4.867
 7759SOL     OW24175   3.153   1.252   2.485
 7759SOL    HW124176   3.212   1.171   2.483
 7759SOL    HW224177   3.174   1.310   2.407
 7760SOL     OW24178   5.372   3.122   0.425
 7760SOL    HW124179   5.426   3.142   0.506
 7760SOL    HW224180   5.410   3.041   0.379
 7761SOL     OW24181   4.703   5.124   2.716
 7761SOL    HW124182   4.738   5.201   2.769
 7761SOL    HW224183   4.749   5.040   2.745
 7762SOL     OW24184   4.709   1.128   0.056
 7762SOL    HW124185   4.773   1.053   0.070
 7762SOL    HW224186   4.621   1.091   0.024
 7763SOL     OW24187   1.493   0.794   2.968
 7763SOL    HW124188   1.508   0.705   3.011
 7763SOL    HW224189   1.485   0.864   3.039
 7764SOL     OW24190   3.664   4.220   5.352
 7764SOL    HW124191   3.760   4.236   5.331
 7764SOL    HW224192   3.624   4.302   5.392
 7765SOL     OW24193   6.188   4.409   4.052
 7765SOL    HW124194   6.282   4.429   4.025
 7765SOL    HW224195   6.186   4.326   4.109
 7766SOL     OW24196   0.428   3.112   5.599
 7766SOL    HW124197   0.453   3.020   5.570
 7766SOL    HW224198   0.477   3.135   5.683
 7767SOL     OW24199   4.080   0.709   2.769
 7767SOL    HW124200   4.051   0.671   2.681
 7767SOL    HW224201   4.042   0.800   2.781
 7768SOL     OW24202   3.193   5.961   4.145
 7768SOL    HW124203   3.215   5.891   4.078
 7768SOL    HW224204   3.277   5.995   4.186
 7769SOL     OW24205   4.032   1.739   6.119
 7769SOL    HW124206   4.013   1.710   6.025
 7769SOL    HW224207   3.973   1.688   6.182
 7770SOL     OW24208   1.462   3.084   3.682
 7770SOL    HW124209   1.475   3.145   3.604
 7770SOL    HW224210   1.552   3.053   3.715
 7771SOL     OW24211   1.289   3.058   5.223
 7771SOL    HW124212   1.194   3.062   5.192
 7771SOL    HW224213   1.301   2.981   5.285
 7772SOL     OW24214   5.358   0.054   2.182
 7772SOL    HW124215   5.313   6.991   2.197
 7772SOL    HW224216   5.333   0.089   2.092
 7773SOL     OW24217   2.494   0.057   6.107
 7773SOL    HW124218   2.423   0.086   6.172
 7773SOL    HW224219   2.556   7.018   6.152
 7774SOL     OW24220   5.312   1.421   2.225
 7774SOL    HW124221   5.327   1.509   2.181
 7774SOL    HW224222   5.278   1.355   2.158
 7775SOL     OW24223   4.028   2.328   1.393
 7775SOL    HW124224   4.038   2.244   1.447
 7775SOL    HW224225   3.951   2.382   1.429
 7776SOL     OW24226   2.824   1.888   3.576
 7776SOL    HW124227   2.920   1.859   3.579
 7776SOL    HW224228   2.784   1.882   3.667
 7777SOL     OW24229   4.695   4.541   2.791
 7777SOL    HW124230   4.758   4.535   2.714
 7777SOL    HW224231   4.680   4.450   2.830
 7778SOL     OW24232   0.942   3.601   1.620
 7778SOL    HW124233   1.039   3.576   1.629
 7778SOL    HW224234   0.903   3.552   1.542
 7779SOL     OW24235   2.661   1.334   4.192
 7779SOL    HW124236   2.726   1.370   4.259
 7779SOL    HW224237   2.571   1.328   4.234
 7780SOL     OW24238   6.590   5.802   3.871
 7780SOL    HW124239   6.562   5.828   3.778
 7780SOL    HW224240   6.656   5.868   3.906
 7781SOL     OW24241   3.422   3.177   1.564
 7781SOL    HW124242   3.330   3.201   1.533
 7781SOL    HW224243   3.478   3.259   1.570
 7782SOL     OW24244   5.071   5.331   2.948
 7782SOL    HW124245   5.150   5.299   2.896
 7782SOL    HW224246   5.098   5.409   3.004
 7783SOL     OW24247   0.310   6.416   3.611
 7783SOL    HW124248   0.350   6.359   3.683
 7783SOL    HW224249   0.304   6.510   3.643
 7784SOL     OW24250   0.367   2.684   2.487
 7784SOL    HW124251   0.313   2.685   2.403
 7784SOL    HW224252   0.324   2.623   2.553
 7785SOL     OW24253   6.058   0.875   2.775
 7785SOL    HW124254   6.091   0.833   2.860
 7785SOL    HW224255   6.005   0.957   2.797
 7786SOL     OW24256   5.766   0.635   6.296
 7786SOL    HW124257   5.704   0.582   6.238
 7786SOL    HW224258   5.825   0.572   6.347
 7787SOL     OW24259   0.868   2.081   0.850
 7787SOL    HW124260   0.780   2.084   0.898
 7787SOL    HW224261   0.887   2.170   0.809
 7788SOL     OW24262   0.858   4.103   2.416
 7788SOL    HW124263   0.803   4.120   2.334
 7788SOL    HW224264   0.895   4.189   2.450
 7789SOL     OW24265   4.324   6.982   6.590
 7789SOL    HW124266   4.302   6.917   6.517
 7789SOL    HW224267   4.358   0.042   6.551
 7790SOL     OW24268   4.124   4.886   4.979
 7790SOL    HW124269   4.038   4.835   4.985
 7790SOL    HW224270   4.198   4.832   5.019
 7791SOL     OW24271   2.142   6.397   1.679
 7791SOL    HW124272   2.155   6.421   1.583
 7791SOL    HW224273   2.191   6.463   1.736
 7792SOL     OW24274   1.347   1.497   1.753
 7792SOL    HW124275   1.410   1.527   1.825
 7792SOL    HW224276   1.325   1.574   1.694
 7793SOL     OW24277   4.948   1.157   0.568
 7793SOL    HW124278   5.030   1.153   0.512
 7793SOL    HW224279   4.918   1.252   0.578
 7794SOL     OW24280   1.325   1.691   2.792
 7794SOL    HW124281   1.329   1.732   2.701
 7794SOL    HW224282   1.239   1.640   2.802
 7795SOL     OW24283   4.465   3.148   1.327
 7795SOL    HW124284   4.537   3.191   1.382
 7795SOL    HW224285   4.506   3.079   1.267
 7796SOL     OW24286   3.721   2.048   0.109
 7796SOL    HW124287   3.650   1.977   0.103
 7796SOL    HW224288   3.678   2.136   0.129
 7797SOL     OW24289   1.652   5.922   2.698
 7797SOL    HW124290   1.630   5.943   2.603
 7797SOL    HW224291   1.568   5.911   2.751
 7798SOL     OW24292   2.038   2.752   0.720
 7798SOL    HW124293   2.054   2.673   0.779
 7798SOL    HW224294   1.998   2.826   0.775
 7799SOL     OW24295   2.437   6.215   4.515
 7799SOL    HW124296   2.486   6.270   4.583
 7799SOL    HW224297   2.346   6.254   4.500
 7800SOL     OW24298   0.543   1.354   1.693
 7800SOL    HW124299   0.557   1.309   1.604
 7800SOL    HW224300   0.448   1.342   1.722
 7801SOL     OW24301   2.603   2.487   0.907
 7801SOL    HW124302   2.618   2.521   0.815
 7801SOL    HW224303   2.507   2.459   0.918
 7802SOL     OW24304   0.241   4.401   4.479
 7802SOL    HW124305   0.235   4.354   4.567
 7802SOL    HW224306   0.192   4.348   4.409
 7803SOL     OW24307   2.982   2.079   6.079
 7803SOL    HW124308   2.938   2.081   6.169
 7803SOL    HW224309   3.080   2.097   6.089
 7804SOL     OW24310   3.560   1.788   5.268
 7804SOL    HW124311   3.522   1.777   5.360
 7804SOL    HW224312   3.499   1.747   5.201
 7805SOL     OW24313   6.923   1.921   6.233
 7805SOL    HW124314   6.932   2.020   6.241
 7805SOL    HW224315   6.826   1.896   6.238
 7806SOL     OW24316   6.338   2.849   5.265
 7806SOL    HW124317   6.360   2.878   5.172
 7806SOL    HW224318   6.239   2.834   5.272
 7807SOL     OW24319   2.250   6.549   5.769
 7807SOL    HW124320   2.274   6.486   5.844
 7807SOL    HW224321   2.332   6.569   5.715
 7808SOL     OW24322   0.543   3.183   4.721
 7808SOL    HW124323   0.495   3.145   4.801
 7808SOL    HW224324   0.506   3.273   4.700
 7809SOL     OW24325   2.848   0.241   3.164
 7809SOL    HW124326   2.825   0.317   3.225
 7809SOL    HW224327   2.884   0.164   3.218
 7810SOL     OW24328   2.703   6.914   5.637
 7810SOL    HW124329   2.660   6.960   5.715
 7810SOL    HW224330   2.714   6.979   5.562
 7811SOL     OW24331   1.252   5.874   3.428
 7811SOL    HW124332   1.273   5.899   3.523
 7811SOL    HW224333   1.192   5.794   3.427
 7812SOL     OW24334   3.107   0.512   5.725
 7812SOL    HW124335   3.143   0.598   5.690
 7812SOL    HW224336   3.036   0.478   5.663
 7813SOL     OW24337   5.202   1.168   0.462
 7813SOL    HW124338   5.301   1.154   0.471
 7813SOL    HW224339   5.173   1.240   0.525
 7814SOL     OW24340   6.718   2.077   1.534
 7814SOL    HW124341   6.658   2.032   1.468
 7814SOL    HW224342   6.716   2.026   1.620
 7815SOL     OW24343   4.795   5.729   3.710
 7815SOL    HW124344   4.836   5.652   3.661
 7815SOL    HW224345   4.744   5.785   3.645
 7816SOL     OW24346   1.278   1.483   5.282
 7816SOL    HW124347   1.344   1.470   5.356
 7816SOL    HW224348   1.234   1.396   5.261
 7817SOL     OW24349   5.144   0.758   5.717
 7817SOL    HW124350   5.050   0.724   5.723
 7817SOL    HW224351   5.164   0.782   5.622
 7818SOL     OW24352   3.603   0.025   3.060
 7818SOL    HW124353   3.515   0.002   3.101
 7818SOL    HW224354   3.621   6.990   2.982
 7819SOL     OW24355   3.071   2.254   4.264
 7819SOL    HW124356   3.115   2.188   4.204
 7819SOL    HW224357   3.101   2.239   4.358
 7820SOL     OW24358   1.971   0.805   6.998
 7820SOL    HW124359   2.000   0.806   0.068
 7820SOL    HW224360   2.051   0.805   6.939
 7821SOL     OW24361   2.976   6.025   5.531
 7821SOL    HW124362   2.967   6.098   5.599
 7821SOL    HW224363   3.057   5.971   5.551
 7822SOL     OW24364   0.666   1.338   4.417
 7822SOL    HW124365   0.750   1.346   4.471
 7822SOL    HW224366   0.622   1.251   4.436
 7823SOL     OW24367   1.896   2.262   5.288
 7823SOL    HW124368   1.930   2.349   5.254
 7823SOL    HW224369   1.844   2.216   5.216
 7824SOL     OW24370   6.580   4.384   2.675
 7824SOL    HW124371   6.505   4.328   2.710
 7824SOL    HW224372   6.543   4.462   2.626
 7825SOL     OW24373   2.913   3.725   3.927
 7825SOL    HW124374   2.882   3.698   4.018
 7825SOL    HW224375   2.986   3.792   3.935
 7826SOL     OW24376   6.241   6.879   1.019
 7826SOL    HW124377   6.207   6.896   1.111
 7826SOL    HW224378   6.189   6.935   0.954
 7827SOL     OW24379   4.642   3.781   0.327
 7827SOL    HW124380   4.723   3.742   0.282
 7827SOL    HW224381   4.655   3.779   0.426
 7828SOL     OW24382   1.013   5.445   0.331
 7828SOL    HW124383   0.926   5.456   0.282
 7828SOL    HW224384   1.006   5.367   0.393
 7829SOL     OW24385   3.245   3.939   2.801
 7829SOL    HW124386   3.236   3.993   2.717
 7829SOL    HW224387   3.175   3.967   2.866
 7830SOL     OW24388   0.001   4.845   0.152
 7830SOL    HW124389   0.022   4.753   0.185
 7830SOL    HW224390   0.076   4.877   0.094
 7831SOL     OW24391   3.421   3.815   0.514
 7831SOL    HW124392   3.354   3.888   0.501
 7831SOL    HW224393   3.425   3.788   0.610
 7832SOL     OW24394   4.236   2.769   5.751
 7832SOL    HW124395   4.231   2.715   5.835
 7832SOL    HW224396   4.143   2.783   5.716
 7833SOL     OW24397   6.957   6.819   1.986
 7833SOL    HW124398   6.939   6.759   1.908
 7833SOL    HW224399   6.981   6.764   2.066
 7834SOL     OW24400   4.505   0.989   0.951
 7834SOL    HW124401   4.531   1.013   0.857
 7834SOL    HW224402   4.460   0.901   0.951
 7835SOL     OW24403   2.018   2.286   4.341
 7835SOL    HW124404   1.998   2.189   4.358
 7835SOL    HW224405   2.074   2.295   4.259
 7836SOL     OW24406   2.304   6.826   0.114
 7836SOL    HW124407   2.379   6.820   0.047
 7836SOL    HW224408   2.236   6.755   0.094
 7837SOL     OW24409   5.210   6.819   1.609
 7837SOL    HW124410   5.206   6.780   1.517
 7837SOL    HW224411   5.253   6.910   1.604
 7838SOL     OW24412   3.391   5.153   3.968
 7838SOL    HW124413   3.429   5.125   4.056
 7838SOL    HW224414   3.377   5.073   3.910
 7839SOL     OW24415   0.113   5.654   3.180
 7839SOL    HW124416   0.067   5.565   3.187
 7839SOL    HW224417   0.048   5.723   3.150
 7840SOL     OW24418   4.184   2.981   6.192
 7840SOL    HW124419   4.257   3.000   6.258
 7840SOL    HW224420   4.212   3.011   6.101
 7841SOL     OW24421   1.006   1.318   5.475
 7841SOL    HW124422   0.951   1.391   5.434
 7841SOL    HW224423   1.075   1.359   5.536
 7842SOL     OW24424   0.754   0.672   2.411
 7842SOL    HW124425   0.731   0.622   2.328
 7842SOL    HW224426   0.795   0.609   2.477
 7843SOL     OW24427   6.496   1.910   2.162
 7843SOL    HW124428   6.513   1.846   2.087
 7843SOL    HW224429   6.415   1.965   2.141
 7844SOL     OW24430   3.636   1.499   3.009
 7844SOL    HW124431   3.667   1.594   3.003
 7844SOL    HW224432   3.685   1.453   3.083
 7845SOL     OW24433   1.119   0.986   4.549
 7845SOL    HW124434   1.210   0.946   4.559
 7845SOL    HW224435   1.115   1.075   4.593
 7846SOL     OW24436   5.554   0.077   2.878
 7846SOL    HW124437   5.467   0.026   2.878
 7846SOL    HW224438   5.555   0.140   2.955
 7847SOL     OW24439   0.734   6.515   5.658
 7847SOL    HW124440   0.694   6.602   5.687
 7847SOL    HW224441   0.831   6.528   5.636
 7848SOL     OW24442   4.151   2.884   1.102
 7848SOL    HW124443   4.200   2.827   1.167
 7848SOL    HW224444   4.070   2.835   1.069
 7849SOL     OW24445   6.866   4.857   5.979
 7849SOL    HW124446   6.855   4.846   6.078
 7849SOL    HW224447   6.778   4.844   5.934
 7850SOL     OW24448   1.545   2.789   5.110
 7850SOL    HW124449   1.545   2.791   5.010
 7850SOL    HW224450   1.635   2.762   5.144
 7851SOL     OW24451   2.723   6.006   0.334
 7851SOL    HW124452   2.779   5.974   0.257
 7851SOL    HW224453   2.779   6.064   0.393
 7852SOL     OW24454   2.523   6.400   0.404
 7852SOL    HW124455   2.505   6.478   0.343
 7852SOL    HW224456   2.618   6.404   0.435
 7853SOL     OW24457   2.597   2.151   6.785
 7853SOL    HW124458   2.629   2.137   6.879
 7853SOL    HW224459   2.497   2.145   6.783
 7854SOL     OW24460   4.054   3.870   4.747
 7854SOL    HW124461   4.087   3.802   4.813
 7854SOL    HW224462   4.085   3.961   4.773
 7855SOL     OW24463   3.095   0.098   5.055
 7855SOL    HW124464   3.170   0.074   5.117
 7855SOL    HW224465   3.065   0.192   5.073
 7856SOL     OW24466   2.633   2.385   6.226
 7856SOL    HW124467   2.651   2.308   6.286
 7856SOL    HW224468   2.542   2.375   6.185
 7857SOL     OW24469   0.318   3.594   4.836
 7857SOL    HW124470   0.347   3.597   4.931
 7857SOL    HW224471   0.232   3.543   4.829
 7858SOL     OW24472   5.245   2.644   3.245
 7858SOL    HW124473   5.302   2.609   3.319
 7858SOL    HW224474   5.216   2.737   3.267
 7859SOL     OW24475   7.014   6.376   6.856
 7859SOL    HW124476   6.950   6.426   6.915
 7859SOL    HW224477   6.969   6.293   6.822
 7860SOL     OW24478   4.167   0.049   0.139
 7860SOL    HW124479   4.186   6.993   0.194
 7860SOL    HW224480   4.241   0.064   0.074
 7861SOL     OW24481   6.383   4.078   0.529
 7861SOL    HW124482   6.453   4.017   0.492
 7861SOL    HW224483   6.354   4.142   0.458
 7862SOL     OW24484   2.923   4.652   1.636
 7862SOL    HW124485   2.900   4.596   1.715
 7862SOL    HW224486   2.845   4.708   1.609
 7863SOL     OW24487   4.604   5.519   2.329
 7863SOL    HW124488   4.692   5.488   2.367
 7863SOL    HW224489   4.601   5.619   2.329
 7864SOL     OW24490   2.251   5.571   5.446
 7864SOL    HW124491   2.281   5.617   5.362
 7864SOL    HW224492   2.201   5.635   5.503
 7865SOL     OW24493   4.728   0.457   3.027
 7865SOL    HW124494   4.743   0.387   3.097
 7865SOL    HW224495   4.782   0.434   2.946
 7866SOL     OW24496   2.779   0.512   5.622
 7866SOL    HW124497   2.697   0.569   5.633
 7866SOL    HW224498   2.847   0.564   5.570
 7867SOL     OW24499   6.896   2.313   7.013
 7867SOL    HW124500   6.816   2.252   7.012
 7867SOL    HW224501   6.916   2.340   0.082
 7868SOL     OW24502   5.566   0.172   1.567
 7868SOL    HW124503   5.522   0.250   1.522
 7868SOL    HW224504   5.654   0.153   1.522
 7869SOL     OW24505   5.991   1.754   4.437
 7869SOL    HW124506   6.068   1.736   4.499
 7869SOL    HW224507   5.988   1.851   4.415
 7870SOL     OW24508   5.915   0.495   3.406
 7870SOL    HW124509   5.880   0.502   3.499
 7870SOL    HW224510   5.992   0.558   3.395
 7871SOL     OW24511   5.801   2.628   2.724
 7871SOL    HW124512   5.851   2.551   2.685
 7871SOL    HW224513   5.828   2.640   2.819
 7872SOL     OW24514   5.428   4.186   3.748
 7872SOL    HW124515   5.442   4.102   3.695
 7872SOL    HW224516   5.494   4.256   3.717
 7873SOL     OW24517   7.012   6.232   4.478
 7873SOL    HW124518   6.982   6.198   4.390
 7873SOL    HW224519   0.069   6.183   4.507
 7874SOL     OW24520   5.778   6.260   0.448
 7874SOL    HW124521   5.726   6.180   0.420
 7874SOL    HW224522   5.868   6.231   0.482
 7875SOL     OW24523   5.339   2.580   0.624
 7875SOL    HW124524   5.323   2.677   0.641
 7875SOL    HW224525   5.274   2.547   0.555
 7876SOL     OW24526   0.111   2.788   5.192
 7876SOL    HW124527   0.140   2.827   5.279
 7876SOL    HW224528   0.011   2.787   5.187
 7877SOL     OW24529   5.988   3.506   1.653
 7877SOL    HW124530   5.890   3.522   1.653
 7877SOL    HW224531   6.007   3.410   1.630
 7878SOL     OW24532   4.118   3.789   2.318
 7878SOL    HW124533   4.054   3.863   2.343
 7878SOL    HW224534   4.170   3.761   2.399
 7879SOL     OW24535   6.689   1.475   5.517
 7879SOL    HW124536   6.591   1.495   5.526
 7879SOL    HW224537   6.701   1.383   5.481
 7880SOL     OW24538   2.065   5.996   6.361
 7880SOL    HW124539   2.023   5.911   6.328
 7880SOL    HW224540   2.056   6.067   6.291
 7881SOL     OW24541   0.021   4.820   5.588
 7881SOL    HW124542   0.046   4.917   5.588
 7881SOL    HW224543   0.100   4.766   5.559
 7882SOL     OW24544   0.962   4.807   0.627
 7882SOL    HW124545   0.981   4.855   0.713
 7882SOL    HW224546   1.033   4.830   0.560
 7883SOL     OW24547   3.205   2.141   2.954
 7883SOL    HW124548   3.217   2.141   2.854
 7883SOL    HW224549   3.294   2.156   2.998
 7884SOL     OW24550   6.328   2.336   5.701
 7884SOL    HW124551   6.267   2.411   5.677
 7884SOL    HW224552   6.277   2.269   5.756
 7885SOL     OW24553   4.651   4.950   2.184
 7885SOL    HW124554   4.598   4.962   2.101
 7885SOL    HW224555   4.590   4.924   2.259
 7886SOL     OW24556   3.884   5.183   3.400
 7886SOL    HW124557   3.793   5.180   3.358
 7886SOL    HW224558   3.949   5.134   3.343
 7887SOL     OW24559   0.008   3.604   0.563
 7887SOL    HW124560   0.069   3.539   0.518
 7887SOL    HW224561   0.041   3.697   0.548
 7888SOL     OW24562   0.612   1.065   5.570
 7888SOL    HW124563   0.617   1.128   5.493
 7888SOL    HW224564   0.701   1.060   5.616
 7889SOL     OW24565   6.192   4.540   0.437
 7889SOL    HW124566   6.195   4.440   0.437
 7889SOL    HW224567   6.119   4.571   0.498
 7890SOL     OW24568   1.212   2.805   1.765
 7890SOL    HW124569   1.269   2.725   1.783
 7890SOL    HW224570   1.247   2.883   1.816
 7891SOL     OW24571   0.200   1.217   5.188
 7891SOL    HW124572   0.260   1.281   5.141
 7891SOL    HW224573   0.247   1.182   5.270
 7892SOL     OW24574   0.574   2.003   4.623
 7892SOL    HW124575   0.659   2.003   4.570
 7892SOL    HW224576   0.552   2.096   4.652
 7893SOL     OW24577   5.874   5.853   0.627
 7893SOL    HW124578   5.909   5.931   0.679
 7893SOL    HW224579   5.891   5.769   0.678
 7894SOL     OW24580   2.999   6.892   6.241
 7894SOL    HW124581   3.098   6.908   6.245
 7894SOL    HW224582   2.979   6.821   6.174
 7895SOL     OW24583   4.688   0.100   2.250
 7895SOL    HW124584   4.746   0.165   2.298
 7895SOL    HW224585   4.599   0.142   2.232
 7896SOL     OW24586   2.560   1.857   1.474
 7896SOL    HW124587   2.472   1.891   1.505
 7896SOL    HW224588   2.601   1.800   1.546
 7897SOL     OW24589   5.070   0.771   1.524
 7897SOL    HW124590   5.126   0.735   1.449
 7897SOL    HW224591   5.115   0.851   1.563
 7898SOL     OW24592   3.792   6.188   3.316
 7898SOL    HW124593   3.737   6.107   3.293
 7898SOL    HW224594   3.844   6.171   3.399
 7899SOL     OW24595   5.652   4.520   2.619
 7899SOL    HW124596   5.674   4.545   2.713
 7899SOL    HW224597   5.559   4.482   2.616
 7900SOL     OW24598   0.262   4.290   0.901
 7900SOL    HW124599   0.241   4.195   0.881
 7900SOL    HW224600   0.345   4.317   0.852
 7901SOL     OW24601   6.953   3.294   6.484
 7901SOL    HW124602   6.970   3.376   6.430
 7901SOL    HW224603   7.012   3.220   6.453
 7902SOL     OW24604   1.312   0.930   1.575
 7902SOL    HW124605   1.226   0.908   1.622
 7902SOL    HW224606   1.307   1.022   1.537
 7903SOL     OW24607   3.317   2.147   5.716
 7903SOL    HW124608   3.275   2.234   5.691
 7903SOL    HW224609   3.293   2.077   5.649
 7904SOL     OW24610   5.884   3.337   2.996
 7904SOL    HW124611   5.952   3.410   3.006
 7904SOL    HW224612   5.848   3.312   3.086
 7905SOL     OW24613   0.035   2.126   0.873
 7905SOL    HW124614   6.962   2.123   0.892
 7905SOL    HW224615   0.067   2.220   0.879
 7906SOL     OW24616   6.826   5.840   6.298
 7906SOL    HW124617   6.922   5.853   6.324
 7906SOL    HW224618   6.772   5.918   6.330
 7907SOL     OW24619   4.849   5.625   3.038
 7907SOL    HW124620   4.882   5.545   3.089
 7907SOL    HW224621   4.828   5.598   2.944
 7908SOL     OW24622   1.886   0.260   6.561
 7908SOL    HW124623   1.821   0.194   6.599
 7908SOL    HW224624   1.899   0.335   6.626
 7909SOL     OW24625   0.331   3.773   3.416
 7909SOL    HW124626   0.403   3.722   3.370
 7909SOL    HW224627   0.266   3.807   3.349
 7910SOL     OW24628   1.662   3.800   4.149
 7910SOL    HW124629   1.652   3.853   4.065
 7910SOL    HW224630   1.706   3.712   4.128
 7911SOL     OW24631   5.996   4.041   6.319
 7911SOL    HW124632   5.921   4.106   6.312
 7911SOL    HW224633   5.968   3.952   6.284
 7912SOL     OW24634   5.469   5.671   1.849
 7912SOL    HW124635   5.493   5.700   1.942
 7912SOL    HW224636   5.515   5.730   1.783
 7913SOL     OW24637   0.494   3.720   6.421
 7913SOL    HW124638   0.574   3.744   6.366
 7913SOL    HW224639   0.504   3.759   6.513
 7914SOL     OW24640   1.322   0.503   4.891
 7914SOL    HW124641   1.334   0.601   4.902
 7914SOL    HW224642   1.294   0.482   4.797
 7915SOL     OW24643   2.680   6.242   1.557
 7915SOL    HW124644   2.594   6.233   1.608
 7915SOL    HW224645   2.737   6.311   1.601
 7916SOL     OW24646   2.104   0.171   2.847
 7916SOL    HW124647   2.200   0.144   2.839
 7916SOL    HW224648   2.086   0.248   2.786
 7917SOL     OW24649   4.325   1.356   2.679
 7917SOL    HW124650   4.363   1.342   2.587
 7917SOL    HW224651   4.298   1.451   2.689
 7918SOL     OW24652   1.597   2.682   2.737
 7918SOL    HW124653   1.567   2.610   2.674
 7918SOL    HW224654   1.531   2.691   2.812
 7919SOL     OW24655   1.220   0.389   4.670
 7919SOL    HW124656   1.154   0.443   4.618
 7919SOL    HW224657   1.243   0.306   4.618
 7920SOL     OW24658   5.157   6.949   1.217
 7920SOL    HW124659   5.082   6.972   1.279
 7920SOL    HW224660   5.150   7.003   1.133
 7921SOL     OW24661   6.382   3.152   1.210
 7921SOL    HW124662   6.320   3.074   1.222
 7921SOL    HW224663   6.352   3.228   1.266
 7922SOL     OW24664   1.988   6.595   3.296
 7922SOL    HW124665   1.946   6.524   3.353
 7922SOL    HW224666   1.945   6.683   3.315
 7923SOL     OW24667   5.926   0.059   6.903
 7923SOL    HW124668   5.986   0.105   6.968
 7923SOL    HW224669   5.965   6.995   6.879
 7924SOL     OW24670   5.677   5.728   6.760
 7924SOL    HW124671   5.741   5.758   6.688
 7924SOL    HW224672   5.707   5.640   6.796
 7925SOL     OW24673   2.649   4.344   6.182
 7925SOL    HW124674   2.661   4.260   6.130
 7925SOL    HW224675   2.557   4.379   6.168
 7926SOL     OW24676   4.750   5.434   0.263
 7926SOL    HW124677   4.736   5.431   0.164
 7926SOL    HW224678   4.755   5.529   0.293
 7927SOL     OW24679   4.786   6.887   3.838
 7927SOL    HW124680   4.774   6.950   3.915
 7927SOL    HW224681   4.883   6.867   3.827
 7928SOL     OW24682   5.641   3.176   4.049
 7928SOL    HW124683   5.608   3.149   3.959
 7928SOL    HW224684   5.580   3.244   4.089
 7929SOL     OW24685   4.241   4.212   5.609
 7929SOL    HW124686   4.196   4.123   5.605
 7929SOL    HW224687   4.205   4.271   5.537
 7930SOL     OW24688   3.737   5.155   1.088
 7930SOL    HW124689   3.827   5.174   1.127
 7930SOL    HW224690   3.721   5.215   1.010
 7931SOL     OW24691   5.583   0.513   0.079
 7931SOL    HW124692   5.553   0.427   0.120
 7931SOL    HW224693   5.624   0.572   0.150
 7932SOL     OW24694   0.913   3.601   0.831
 7932SOL    HW124695   0.977   3.667   0.792
 7932SOL    HW224696   0.825   3.645   0.847
 7933SOL     OW24697   2.238   1.492   6.889
 7933SOL    HW124698   2.336   1.473   6.885
 7933SOL    HW224699   2.223   1.576   6.941
 7934SOL     OW24700   6.452   5.005   0.552
 7934SOL    HW124701   6.531   4.965   0.598
 7934SOL    HW224702   6.407   5.071   0.613
 7935SOL     OW24703   6.224   4.500   3.736
 7935SOL    HW124704   6.223   4.503   3.636
 7935SOL    HW224705   6.239   4.592   3.772
 7936SOL     OW24706   2.205   5.493   4.174
 7936SOL    HW124707   2.238   5.421   4.235
 7936SOL    HW224708   2.230   5.471   4.080
 7937SOL     OW24709   4.061   0.570   1.693
 7937SOL    HW124710   4.022   0.626   1.620
 7937SOL    HW224711   4.153   0.540   1.667
 7938SOL     OW24712   1.649   0.186   3.562
 7938SOL    HW124713   1.570   0.244   3.581
 7938SOL    HW224714   1.706   0.230   3.492
 7939SOL     OW24715   1.847   0.446   3.615
 7939SOL    HW124716   1.834   0.438   3.517
 7939SOL    HW224717   1.856   0.355   3.656
 7940SOL     OW24718   6.797   1.112   6.088
 7940SOL    HW124719   6.703   1.081   6.099
 7940SOL    HW224720   6.826   1.096   5.993
 7941SOL     OW24721   2.707   0.320   0.992
 7941SOL    HW124722   2.721   0.298   0.896
 7941SOL    HW224723   2.666   0.411   1.000
 7942SOL     OW24724   1.526   3.541   0.731
 7942SOL    HW124725   1.445   3.494   0.696
 7942SOL    HW224726   1.498   3.624   0.779
 7943SOL     OW24727   1.662   5.814   6.386
 7943SOL    HW124728   1.571   5.825   6.426
 7943SOL    HW224729   1.731   5.829   6.457
 7944SOL     OW24730   1.201   2.252   0.619
 7944SOL    HW124731   1.194   2.154   0.605
 7944SOL    HW224732   1.281   2.287   0.571
 7945SOL     OW24733   6.263   4.481   3.484
 7945SOL    HW124734   6.197   4.447   3.418
 7945SOL    HW224735   6.356   4.463   3.451
 7946SOL     OW24736   5.322   1.043   5.726
 7946SOL    HW124737   5.272   1.123   5.758
 7946SOL    HW224738   5.396   1.022   5.791
 7947SOL     OW24739   0.921   4.311   0.244
 7947SOL    HW124740   1.002   4.262   0.275
 7947SOL    HW224741   0.842   4.249   0.245
 7948SOL     OW24742   1.322   5.666   1.064
 7948SOL    HW124743   1.405   5.659   1.119
 7948SOL    HW224744   1.242   5.670   1.124
 7949SOL     OW24745   3.845   5.285   5.450
 7949SOL    HW124746   3.777   5.218   5.422
 7949SOL    HW224747   3.932   5.266   5.405
 7950SOL     OW24748   5.791   2.268   6.444
 7950SOL    HW124749   5.783   2.245   6.541
 7950SOL    HW224750   5.803   2.367   6.434
 7951SOL     OW24751   2.906   0.373   2.945
 7951SOL    HW124752   2.875   0.460   2.984
 7951SOL    HW224753   2.902   0.302   3.014
 7952SOL     OW24754   0.265   3.514   5.766
 7952SOL    HW124755   0.335   3.499   5.696
 7952SOL    HW224756   0.183   3.552   5.724
 7953SOL     OW24757   0.667   1.105   6.588
 7953SOL    HW124758   0.634   1.198   6.568
 7953SOL    HW224759   0.623   1.072   6.672
 7954SOL     OW24760   3.819   2.365   1.004
 7954SOL    HW124761   3.775   2.296   0.945
 7954SOL    HW224762   3.773   2.366   1.093
 7955SOL     OW24763   6.803   6.468   0.005
 7955SOL    HW124764   6.772   6.405   0.076
 7955SOL    HW224765   6.725   6.497   6.975
 7956SOL     OW24766   0.469   6.846   1.449
 7956SOL    HW124767   0.422   6.847   1.537
 7956SOL    HW224768   0.565   6.871   1.462
 7957SOL     OW24769   6.060   2.129   6.406
 7957SOL    HW124770   5.961   2.147   6.402
 7957SOL    HW224771   6.075   2.032   6.426
 7958SOL     OW24772   4.912   2.220   5.855
 7958SOL    HW124773   4.977   2.150   5.884
 7958SOL    HW224774   4.843   2.232   5.926
 7959SOL     OW24775   5.521   2.697   0.390
 7959SOL    HW124776   5.472   2.754   0.325
 7959SOL    HW224777   5.550   2.754   0.468
 7960SOL     OW24778   0.888   3.132   5.005
 7960SOL    HW124779   0.919   3.044   4.967
 7960SOL    HW224780   0.940   3.151   5.088
 7961SOL     OW24781   6.338   0.049   5.955
 7961SOL    HW124782   6.383   6.985   5.959
 7961SOL    HW224783   6.239   0.037   5.956
 7962SOL     OW24784   6.091   0.852   4.451
 7962SOL    HW124785   6.066   0.781   4.517
 7962SOL    HW224786   6.011   0.909   4.431
 7963SOL     OW24787   5.837   6.269   2.799
 7963SOL    HW124788   5.937   6.264   2.807
 7963SOL    HW224789   5.796   6.261   2.889
 7964SOL     OW24790   1.165   5.063   1.914
 7964SOL    HW124791   1.146   5.033   2.007
 7964SOL    HW224792   1.242   5.011   1.877
 7965SOL     OW24793   4.736   1.919   6.606
 7965SOL    HW124794   4.720   1.884   6.698
 7965SOL    HW224795   4.724   1.845   6.539
 7966SOL     OW24796   5.974   4.078   5.201
 7966SOL    HW124797   5.915   4.107   5.277
 7966SOL    HW224798   6.053   4.028   5.238
 7967SOL     OW24799   1.780   4.362   2.025
 7967SOL    HW124800   1.761   4.281   1.970
 7967SOL    HW224801   1.746   4.443   1.978
 7968SOL     OW24802   2.127   2.189   3.336
 7968SOL    HW124803   2.179   2.234   3.264
 7968SOL    HW224804   2.066   2.120   3.296
 7969SOL     OW24805   2.631   3.997   6.437
 7969SOL    HW124806   2.549   3.978   6.383
 7969SOL    HW224807   2.676   3.911   6.460
 7970SOL     OW24808   6.498   2.314   2.747
 7970SOL    HW124809   6.437   2.237   2.765
 7970SOL    HW224810   6.491   2.381   2.821
 7971SOL     OW24811   2.553   0.073   0.258
 7971SOL    HW124812   2.613   0.046   0.183
 7971SOL    HW224813   2.593   0.150   0.307
 7972SOL     OW24814   3.377   2.968   4.067
 7972SOL    HW124815   3.389   2.883   4.016
 7972SOL    HW224816   3.305   3.023   4.024
 7973SOL     OW24817   1.275   5.462   2.446
 7973SOL    HW124818   1.374   5.465   2.429
 7973SOL    HW224819   1.259   5.431   2.540
 7974SOL     OW24820   0.348   3.034   3.965
 7974SOL    HW124821   0.368   2.973   4.041
 7974SOL    HW224822   0.418   3.022   3.894
 7975SOL     OW24823   3.595   0.432   6.622
 7975SOL    HW124824   3.607   0.364   6.550
 7975SOL    HW224825   3.542   0.393   6.697
 7976SOL     OW24826   6.441   0.306   0.632
 7976SOL    HW124827   6.522   0.355   0.599
 7976SOL    HW224828   6.414   0.342   0.722
 7977SOL     OW24829   5.294   5.118   3.100
 7977SOL    HW124830   5.345   5.134   3.015
 7977SOL    HW224831   5.279   5.205   3.147
 7978SOL     OW24832   0.293   4.033   1.679
 7978SOL    HW124833   0.247   3.992   1.600
 7978SOL    HW224834   0.392   4.032   1.663
 7979SOL     OW24835   3.952   2.809   5.763
 7979SOL    HW124836   3.965   2.867   5.844
 7979SOL    HW224837   3.924   2.718   5.791
 7980SOL     OW24838   3.978   6.223   2.610
 7980SOL    HW124839   4.058   6.171   2.640
 7980SOL    HW224840   3.913   6.232   2.686
 7981SOL     OW24841   0.918   3.092   3.582
 7981SOL    HW124842   0.931   3.019   3.516
 7981SOL    HW224843   0.933   3.057   3.674
 7982SOL     OW24844   6.469   6.909   0.595
 7982SOL    HW124845   6.473   6.890   0.497
 7982SOL    HW224846   6.479   6.823   0.646
 7983SOL     OW24847   3.877   2.040   0.720
 7983SOL    HW124848   3.777   2.044   0.713
 7983SOL    HW224849   3.910   2.120   0.769
 7984SOL     OW24850   5.593   1.115   1.887
 7984SOL    HW124851   5.504   1.070   1.885
 7984SOL    HW224852   5.590   1.197   1.831
 7985SOL     OW24853   3.010   3.528   6.061
 7985SOL    HW124854   2.951   3.567   6.132
 7985SOL    HW224855   3.098   3.502   6.101
 7986SOL     OW24856   2.173   1.370   3.656
 7986SOL    HW124857   2.134   1.457   3.626
 7986SOL    HW224858   2.264   1.387   3.695
 7987SOL     OW24859   0.418   2.733   6.760
 7987SOL    HW124860   0.506   2.745   6.806
 7987SOL    HW224861   0.424   2.766   6.666
 7988SOL     OW24862   6.166   0.009   1.891
 7988SOL    HW124863   6.128   6.973   1.960
 7988SOL    HW224864   6.218   6.981   1.824
 7989SOL     OW24865   0.848   4.970   1.805
 7989SOL    HW124866   0.781   5.029   1.760
 7989SOL    HW224867   0.940   5.004   1.785
 7990SOL     OW24868   4.190   4.813   5.345
 7990SOL    HW124869   4.105   4.771   5.377
 7990SOL    HW224870   4.194   4.907   5.377
 7991SOL     OW24871   5.102   0.603   4.141
 7991SOL    HW124872   5.111   0.508   4.112
 7991SOL    HW224873   5.100   0.662   4.060
 7992SOL     OW24874   3.300   0.355   0.691
 7992SOL    HW124875   3.242   0.390   0.764
 7992SOL    HW224876   3.370   0.423   0.668
 7993SOL     OW24877   6.012   4.756   1.382
 7993SOL    HW124878   5.974   4.757   1.289
 7993SOL    HW224879   6.028   4.850   1.412
 7994SOL     OW24880   0.685   0.830   4.821
 7994SOL    HW124881   0.704   0.809   4.917
 7994SOL    HW224882   0.616   0.902   4.815
 7995SOL     OW24883   0.659   5.675   0.569
 7995SOL    HW124884   0.645   5.702   0.474
 7995SOL    HW224885   0.755   5.650   0.583
 7996SOL     OW24886   1.626   6.315   4.223
 7996SOL    HW124887   1.582   6.228   4.244
 7996SOL    HW224888   1.702   6.300   4.160
 7997SOL     OW24889   2.279   0.814   6.185
 7997SOL    HW124890   2.327   0.750   6.245
 7997SOL    HW224891   2.252   0.895   6.237
 7998SOL     OW24892   2.016   2.179   2.144
 7998SOL    HW124893   1.970   2.113   2.204
 7998SOL    HW224894   2.062   2.130   2.070
 7999SOL     OW24895   6.643   0.646   2.781
 7999SOL    HW124896   6.592   0.617   2.700
 7999SOL    HW224897   6.713   0.578   2.803
 8000SOL     OW24898   4.673   5.455   7.024
 8000SOL    HW124899   4.600   5.512   6.987
 8000SOL    HW224900   4.652   5.359   7.008
 8001SOL     OW24901   5.195   5.158   2.195
 8001SOL    HW124902   5.269   5.184   2.257
 8001SOL    HW224903   5.162   5.066   2.219
 8002SOL     OW24904   1.405   0.716   5.152
 8002SOL    HW124905   1.496   0.734   5.113
 8002SOL    HW224906   1.368   0.800   5.191
 8003SOL     OW24907   2.245   5.347   3.202
 8003SOL    HW124908   2.276   5.294   3.122
 8003SOL    HW224909   2.308   5.331   3.278
 8004SOL     OW24910   2.088   3.750   3.562
 8004SOL    HW124911   2.048   3.797   3.641
 8004SOL    HW224912   2.141   3.816   3.509
 8005SOL     OW24913   2.789   0.313   4.856
 8005SOL    HW124914   2.795   0.255   4.938
 8005SOL    HW224915   2.724   0.386   4.873
 8006SOL     OW24916   4.562   5.542   6.158
 8006SOL    HW124917   4.614   5.459   6.138
 8006SOL    HW224918   4.464   5.522   6.155
 8007SOL     OW24919   0.670   0.316   1.115
 8007SOL    HW124920   0.761   0.292   1.081
 8007SOL    HW224921   0.662   0.288   1.211
 8008SOL     OW24922   4.397   5.196   1.245
 8008SOL    HW124923   4.461   5.250   1.299
 8008SOL    HW224924   4.432   5.184   1.153
 8009SOL     OW24925   5.682   0.220   1.822
 8009SOL    HW124926   5.631   0.195   1.740
 8009SOL    HW224927   5.766   0.166   1.826
 8010SOL     OW24928   3.234   6.750   0.484
 8010SOL    HW124929   3.160   6.744   0.551
 8010SOL    HW224930   3.234   6.668   0.426
 8011SOL     OW24931   3.958   1.267   1.959
 8011SOL    HW124932   4.030   1.335   1.965
 8011SOL    HW224933   3.913   1.258   2.048
 8012SOL     OW24934   5.938   0.940   5.174
 8012SOL    HW124935   6.015   0.969   5.231
 8012SOL    HW224936   5.937   0.994   5.090
 8013SOL     OW24937   3.443   0.754   3.499
 8013SOL    HW124938   3.450   0.845   3.541
 8013SOL    HW224939   3.352   0.716   3.518
 8014SOL     OW24940   1.756   2.327   3.331
 8014SOL    HW124941   1.830   2.385   3.294
 8014SOL    HW224942   1.704   2.379   3.398
 8015SOL     OW24943   4.019   5.500   5.313
 8015SOL    HW124944   3.968   5.441   5.250
 8015SOL    HW224945   3.964   5.580   5.335
 8016SOL     OW24946   2.771   3.589   5.538
 8016SOL    HW124947   2.766   3.494   5.570
 8016SOL    HW224948   2.761   3.651   5.617
 8017SOL     OW24949   5.658   6.458   1.804
 8017SOL    HW124950   5.629   6.488   1.713
 8017SOL    HW224951   5.757   6.466   1.812
 8018SOL     OW24952   3.238   2.969   1.211
 8018SOL    HW124953   3.196   3.059   1.198
 8018SOL    HW224954   3.321   2.979   1.266
 8019SOL     OW24955   3.391   3.116   0.564
 8019SOL    HW124956   3.371   3.070   0.477
 8019SOL    HW224957   3.320   3.184   0.583
 8020SOL     OW24958   0.823   6.760   6.972
 8020SOL    HW124959   0.862   6.759   0.039
 8020SOL    HW224960   0.811   6.855   6.943
 8021SOL     OW24961   1.210   2.018   0.494
 8021SOL    HW124962   1.280   2.058   0.435
 8021SOL    HW224963   1.146   1.964   0.438
 8022SOL     OW24964   3.969   6.697   2.416
 8022SOL    HW124965   3.948   6.609   2.459
 8022SOL    HW224966   4.066   6.717   2.427
 8023SOL     OW24967   3.470   5.210   2.589
 8023SOL    HW124968   3.453   5.297   2.543
 8023SOL    HW224969   3.502   5.143   2.523
 8024SOL     OW24970   2.575   0.967   6.646
 8024SOL    HW124971   2.498   0.939   6.702
 8024SOL    HW224972   2.655   0.911   6.668
 8025SOL     OW24973   1.234   6.518   1.568
 8025SOL    HW124974   1.297   6.595   1.579
 8025SOL    HW224975   1.191   6.498   1.656
 8026SOL     OW24976   0.658   6.481   5.288
 8026SOL    HW124977   0.704   6.406   5.239
 8026SOL    HW224978   0.727   6.547   5.319
 8027SOL     OW24979   3.905   0.177   6.372
 8027SOL    HW124980   3.897   0.271   6.340
 8027SOL    HW224981   3.939   0.176   6.466
 8028SOL     OW24982   3.147   5.820   5.848
 8028SOL    HW124983   3.096   5.741   5.815
 8028SOL    HW224984   3.172   5.878   5.770
 8029SOL     OW24985   1.608   6.933   1.400
 8029SOL    HW124986   1.615   6.833   1.404
 8029SOL    HW224987   1.622   6.963   1.305
 8030SOL     OW24988   0.663   3.552   0.443
 8030SOL    HW124989   0.602   3.616   0.490
 8030SOL    HW224990   0.727   3.603   0.385
 8031SOL     OW24991   0.375   0.586   4.316
 8031SOL    HW124992   0.457   0.633   4.350
 8031SOL    HW224993   0.301   0.651   4.305
 8032SOL     OW24994   0.829   3.466   1.422
 8032SOL    HW124995   0.907   3.441   1.364
 8032SOL    HW224996   0.748   3.479   1.366
 8033SOL     OW24997   3.511   4.991   0.539
 8033SOL    HW124998   3.540   4.934   0.616
 8033SOL    HW224999   3.592   5.028   0.493
 8034SOL     OW25000   1.361   1.838   5.038
 8034SOL    HW125001   1.359   1.897   5.119
 8034SOL    HW225002   1.325   1.888   4.960
 8035SOL     OW25003   5.008   0.412   3.507
 8035SOL    HW125004   5.070   0.339   3.477
 8035SOL    HW225005   5.038   0.499   3.469
 8036SOL     OW25006   5.388   5.067   5.490
 8036SOL    HW125007   5.406   5.061   5.588
 8036SOL    HW225008   5.417   4.983   5.445
 8037SOL     OW25009   3.707   1.018   6.566
 8037SOL    HW125010   3.669   0.951   6.629
 8037SOL    HW225011   3.675   0.998   6.473
 8038SOL     OW25012   5.621   5.814   2.399
 8038SOL    HW125013   5.582   5.854   2.482
 8038SOL    HW225014   5.669   5.729   2.422
 8039SOL     OW25015   2.092   2.691   4.920
 8039SOL    HW125016   2.101   2.621   4.991
 8039SOL    HW225017   2.178   2.740   4.911
 8040SOL     OW25018   0.779   6.887   4.961
 8040SOL    HW125019   0.689   6.900   4.919
 8040SOL    HW225020   0.780   6.799   5.010
 8041SOL     OW25021   3.215   1.908   3.130
 8041SOL    HW125022   3.208   1.999   3.088
 8041SOL    HW225023   3.311   1.884   3.143
 8042SOL     OW25024   5.270   4.687   6.638
 8042SOL    HW125025   5.250   4.770   6.585
 8042SOL    HW225026   5.185   4.649   6.674
 8043SOL     OW25027   6.023   5.200   0.229
 8043SOL    HW125028   5.964   5.280   0.214
 8043SOL    HW225029   6.082   5.187   0.149
 8044SOL     OW25030   1.319   3.401   1.306
 8044SOL    HW125031   1.343   3.482   1.361
 8044SOL    HW225032   1.391   3.385   1.238
 8045SOL     OW25033   5.890   2.988   4.806
 8045SOL    HW125034   5.862   3.009   4.900
 8045SOL    HW225035   5.821   3.021   4.742
 8046SOL     OW25036   0.327   4.128   1.984
 8046SOL    HW125037   0.294   4.088   1.898
 8046SOL    HW225038   0.256   4.187   2.023
 8047SOL     OW25039   2.884   5.893   0.148
 8047SOL    HW125040   2.894   5.926   0.055
 8047SOL    HW225041   2.860   5.796   0.147
 8048SOL     OW25042   4.629   2.200   6.965
 8048SOL    HW125043   4.559   2.271   6.972
 8048SOL    HW225044   4.714   2.234   7.005
 8049SOL     OW25045   2.399   1.664   0.262
 8049SOL    HW125046   2.426   1.569   0.276
 8049SOL    HW225047   2.436   1.720   0.336
 8050SOL     OW25048   0.066   4.744   5.867
 8050SOL    HW125049   7.005   4.778   5.904
 8050SOL    HW225050   0.073   4.772   5.771
 8051SOL     OW25051   4.554   6.256   3.453
 8051SOL    HW125052   4.549   6.209   3.365
 8051SOL    HW225053   4.462   6.271   3.489
 8052SOL     OW25054   2.086   1.486   3.202
 8052SOL    HW125055   2.010   1.550   3.214
 8052SOL    HW225056   2.051   1.398   3.169
 8053SOL     OW25057   1.938   1.183   6.783
 8053SOL    HW125058   2.032   1.215   6.792
 8053SOL    HW225059   1.908   1.144   6.870
 8054SOL     OW25060   4.957   3.784   4.933
 8054SOL    HW125061   4.913   3.695   4.924
 8054SOL    HW225062   4.922   3.830   5.015
 8055SOL     OW25063   6.974   1.388   6.214
 8055SOL    HW125064   7.014   1.335   6.140
 8055SOL    HW225065   6.904   1.334   6.261
 8056SOL     OW25066   1.461   2.482   2.579
 8056SOL    HW125067   1.471   2.388   2.612
 8056SOL    HW225068   1.453   2.482   2.480
 8057SOL     OW25069   3.167   1.557   2.069
 8057SOL    HW125070   3.256   1.594   2.093
 8057SOL    HW225071   3.097   1.626   2.084
 8058SOL     OW25072   3.084   5.903   1.427
 8058SOL    HW125073   3.118   5.997   1.427
 8058SOL    HW225074   3.125   5.852   1.503
 8059SOL     OW25075   4.657   4.268   5.158
 8059SOL    HW125076   4.715   4.255   5.078
 8059SOL    HW225077   4.640   4.180   5.202
 8060SOL     OW25078   0.376   1.549   4.657
 8060SOL    HW125079   0.373   1.522   4.560
 8060SOL    HW225080   0.439   1.489   4.706
 8061SOL     OW25081   6.912   0.281   0.530
 8061SOL    HW125082   6.909   0.243   0.623
 8061SOL    HW225083   7.000   0.327   0.516
 8062SOL     OW25084   4.777   4.270   6.871
 8062SOL    HW125085   4.690   4.318   6.855
 8062SOL    HW225086   4.844   4.335   6.907
 8063SOL     OW25087   2.552   4.611   2.109
 8063SOL    HW125088   2.632   4.601   2.051
 8063SOL    HW225089   2.515   4.520   2.131
 8064SOL     OW25090   6.712   2.080   6.864
 8064SOL    HW125091   6.654   2.161   6.862
 8064SOL    HW225092   6.656   1.999   6.843
 8065SOL     OW25093   5.931   0.126   6.629
 8065SOL    HW125094   5.943   0.042   6.577
 8065SOL    HW225095   5.927   0.104   6.727
 8066SOL     OW25096   6.977   1.025   5.832
 8066SOL    HW125097   6.982   1.073   5.745
 8066SOL    HW225098   0.016   0.948   5.831
 8067SOL     OW25099   5.554   0.825   4.467
 8067SOL    HW125100   5.549   0.904   4.405
 8067SOL    HW225101   5.473   0.768   4.454
 8068SOL     OW25102   6.799   4.319   1.388
 8068SOL    HW125103   6.872   4.383   1.364
 8068SOL    HW225104   6.797   4.244   1.321
 8069SOL     OW25105   0.666   2.414   1.560
 8069SOL    HW125106   0.741   2.479   1.549
 8069SOL    HW225107   0.617   2.434   1.645
 8070SOL     OW25108   5.502   4.116   0.720
 8070SOL    HW125109   5.430   4.082   0.781
 8070SOL    HW225110   5.527   4.045   0.654
 8071SOL     OW25111   1.894   6.999   6.391
 8071SOL    HW125112   1.885   0.039   6.316
 8071SOL    HW225113   1.818   7.009   6.455
 8072SOL     OW25114   2.429   1.574   5.842
 8072SOL    HW125115   2.514   1.592   5.792
 8072SOL    HW225116   2.397   1.658   5.886
 8073SOL     OW25117   5.472   5.332   0.260
 8073SOL    HW125118   5.496   5.235   0.266
 8073SOL    HW225119   5.490   5.365   0.167
 8074SOL     OW25120   6.577   0.805   0.859
 8074SOL    HW125121   6.581   0.900   0.828
 8074SOL    HW225122   6.559   0.802   0.957
 8075SOL     OW25123   0.360   6.786   1.182
 8075SOL    HW125124   0.395   6.847   1.253
 8075SOL    HW225125   0.260   6.789   1.182
 8076SOL     OW25126   6.765   5.786   0.275
 8076SOL    HW125127   6.790   5.766   0.370
 8076SOL    HW225128   6.701   5.715   0.242
 8077SOL     OW25129   6.094   4.350   1.480
 8077SOL    HW125130   6.023   4.415   1.504
 8077SOL    HW225131   6.138   4.316   1.564
 8078SOL     OW25132   4.933   1.716   1.479
 8078SOL    HW125133   5.001   1.710   1.406
 8078SOL    HW225134   4.890   1.627   1.493
 8079SOL     OW25135   6.966   1.455   5.867
 8079SOL    HW125136   6.883   1.467   5.922
 8079SOL    HW225137   0.006   1.398   5.917
 8080SOL     OW25138   0.038   4.173   3.498
 8080SOL    HW125139   7.020   4.247   3.447
 8080SOL    HW225140   0.035   4.089   3.443
 8081SOL     OW25141   5.554   1.301   5.148
 8081SOL    HW125142   5.490   1.339   5.081
 8081SOL    HW225143   5.563   1.202   5.134
 8082SOL     OW25144   5.054   2.605   5.176
 8082SOL    HW125145   4.976   2.562   5.221
 8082SOL    HW225146   5.026   2.695   5.140
 8083SOL     OW25147   0.248   3.262   3.859
 8083SOL    HW125148   0.286   3.185   3.910
 8083SOL    HW225149   0.203   3.325   3.923
 8084SOL     OW25150   5.748   1.492   6.787
 8084SOL    HW125151   5.814   1.458   6.720
 8084SOL    HW225152   5.699   1.570   6.750
 8085SOL     OW25153   1.525   6.206   4.524
 8085SOL    HW125154   1.428   6.186   4.527
 8085SOL    HW225155   1.571   6.141   4.463
 8086SOL     OW25156   6.820   1.927   1.757
 8086SOL    HW125157   6.838   2.006   1.815
 8086SOL    HW225158   6.903   1.900   1.709
 8087SOL     OW25159   6.298   1.094   6.438
 8087SOL    HW125160   6.285   1.023   6.368
 8087SOL    HW225161   6.380   1.073   6.492
 8088SOL     OW25162   6.458   6.974   5.520
 8088SOL    HW125163   6.555   6.952   5.507
 8088SOL    HW225164   6.450   0.031   5.576
 8089SOL     OW25165   6.400   1.414   0.362
 8089SOL    HW125166   6.429   1.443   0.454
 8089SOL    HW225167   6.454   1.335   0.334
 8090SOL     OW25168   3.607   2.041   4.648
 8090SOL    HW125169   3.518   2.032   4.695
 8090SOL    HW225170   3.592   2.054   4.550
 8091SOL     OW25171   1.000   3.436   5.470
 8091SOL    HW125172   0.990   3.371   5.545
 8091SOL    HW225173   1.098   3.451   5.452
 8092SOL     OW25174   4.946   5.941   5.580
 8092SOL    HW125175   4.990   5.934   5.491
 8092SOL    HW225176   5.001   5.998   5.641
 8093SOL     OW25177   3.884   0.511   3.414
 8093SOL    HW125178   3.805   0.548   3.364
 8093SOL    HW225179   3.861   0.421   3.451
 8094SOL     OW25180   2.577   5.137   3.073
 8094SOL    HW125181   2.642   5.213   3.067
 8094SOL    HW225182   2.627   5.053   3.095
 8095SOL     OW25183   0.473   4.863   5.146
 8095SOL    HW125184   0.412   4.899   5.074
 8095SOL    HW225185   0.418   4.831   5.223
 8096SOL     OW25186   1.486   5.089   0.863
 8096SOL    HW125187   1.476   5.129   0.772
 8096SOL    HW225188   1.403   5.038   0.886
 8097SOL     OW25189   5.643   0.303   6.741
 8097SOL    HW125190   5.721   0.283   6.801
 8097SOL    HW225191   5.562   0.254   6.775
 8098SOL     OW25192   3.067   6.450   4.849
 8098SOL    HW125193   3.144   6.458   4.912
 8098SOL    HW225194   3.045   6.353   4.835
 8099SOL     OW25195   2.732   4.913   3.154
 8099SOL    HW125196   2.791   4.872   3.084
 8099SOL    HW225197   2.774   4.904   3.244
 8100SOL     OW25198   0.053   6.577   0.622
 8100SOL    HW125199   0.076   6.662   0.670
 8100SOL    HW225200   0.092   6.579   0.530
 8101SOL     OW25201   3.345   4.890   6.456
 8101SOL    HW125202   3.369   4.864   6.363
 8101SOL    HW225203   3.333   4.807   6.511
 8102SOL     OW25204   1.076   4.474   3.575
 8102SOL    HW125205   1.070   4.386   3.530
 8102SOL    HW225206   1.159   4.478   3.631
 8103SOL     OW25207   5.331   0.506   1.525
 8103SOL    HW125208   5.365   0.571   1.594
 8103SOL    HW225209   5.279   0.555   1.456
 8104SOL     OW25210   1.976   5.874   0.392
 8104SOL    HW125211   1.882   5.846   0.372
 8104SOL    HW225212   1.985   5.973   0.378
 8105SOL     OW25213   6.619   6.882   3.076
 8105SOL    HW125214   6.531   6.863   3.120
 8105SOL    HW225215   6.658   6.797   3.042
 8106SOL     OW25216   4.050   0.047   6.828
 8106SOL    HW125217   4.138   0.089   6.847
 8106SOL    HW225218   4.010   0.012   6.912
 8107SOL     OW25219   0.619   5.845   6.930
 8107SOL    HW125220   0.674   5.859   7.013
 8107SOL    HW225221   0.551   5.917   6.923
 8108SOL     OW25222   1.963   1.212   1.099
 8108SOL    HW125223   1.976   1.138   1.166
 8108SOL    HW225224   1.871   1.250   1.109
 8109SOL     OW25225   0.534   3.925   2.327
 8109SOL    HW125226   0.438   3.950   2.322
 8109SOL    HW225227   0.591   4.001   2.296
 8110SOL     OW25228   5.365   4.054   6.539
 8110SOL    HW125229   5.418   4.083   6.619
 8110SOL    HW225230   5.268   4.046   6.564
 8111SOL     OW25231   5.267   2.047   2.509
 8111SOL    HW125232   5.237   2.132   2.552
 8111SOL    HW225233   5.282   2.062   2.412
 8112SOL     OW25234   1.922   4.149   6.447
 8112SOL    HW125235   1.890   4.169   6.539
 8112SOL    HW225236   1.856   4.088   6.401
 8113SOL     OW25237   6.090   4.831   0.001
 8113SOL    HW125238   6.024   4.834   0.076
 8113SOL    HW225239   6.183   4.829   0.038
 8114SOL     OW25240   1.687   2.395   2.792
 8114SOL    HW125241   1.741   2.432   2.716
 8114SOL    HW225242   1.601   2.358   2.757
 8115SOL     OW25243   2.450   2.099   5.926
 8115SOL    HW125244   2.458   2.104   5.827
 8115SOL    HW225245   2.530   2.051   5.963
 8116SOL     OW25246   3.810   3.083   1.655
 8116SOL    HW125247   3.898   3.038   1.665
 8116SOL    HW225248   3.739   3.029   1.701
 8117SOL     OW25249   1.016   1.184   2.266
 8117SOL    HW125250   0.946   1.226   2.209
 8117SOL    HW225251   0.982   1.097   2.302
 8118SOL     OW25252   5.738   1.938   6.907
 8118SOL    HW125253   5.819   1.911   6.959
 8118SOL    HW225254   5.754   2.027   6.865
 8119SOL     OW25255   5.442   5.215   6.698
 8119SOL    HW125256   5.492   5.130   6.717
 8119SOL    HW225257   5.476   5.256   6.613
 8120SOL     OW25258   1.985   6.815   2.616
 8120SOL    HW125259   2.042   6.810   2.698
 8120SOL    HW225260   2.003   6.736   2.558
 8121SOL     OW25261   1.685   2.075   3.403
 8121SOL    HW125262   1.717   2.160   3.363
 8121SOL    HW225263   1.640   2.093   3.490
 8122SOL     OW25264   0.570   5.489   1.381
 8122SOL    HW125265   0.658   5.494   1.429
 8122SOL    HW225266   0.526   5.402   1.402
 8123SOL     OW25267   6.898   0.258   6.233
 8123SOL    HW125268   6.842   0.175   6.231
 8123SOL    HW225269   6.856   0.324   6.295
 8124SOL     OW25270   6.996   5.614   5.885
 8124SOL    HW125271   6.968   5.586   5.977
 8124SOL    HW225272   7.020   5.534   5.831
 8125SOL     OW25273   1.039   5.830   1.490
 8125SOL    HW125274   1.090   5.760   1.539
 8125SOL    HW225275   0.981   5.881   1.553
 8126SOL     OW25276   3.555   5.293   5.218
 8126SOL    HW125277   3.586   5.253   5.304
 8126SOL    HW225278   3.466   5.255   5.193
 8127SOL     OW25279   4.613   1.808   5.271
 8127SOL    HW125280   4.532   1.770   5.225
 8127SOL    HW225281   4.647   1.742   5.338
 8128SOL     OW25282   3.650   3.034   0.609
 8128SOL    HW125283   3.552   3.018   0.605
 8128SOL    HW225284   3.675   3.107   0.545
 8129SOL     OW25285   6.554   3.425   3.697
 8129SOL    HW125286   6.514   3.362   3.630
 8129SOL    HW225287   6.517   3.406   3.788
 8130SOL     OW25288   0.189   6.533   0.324
 8130SOL    HW125289   0.162   6.444   0.359
 8130SOL    HW225290   0.285   6.550   0.345
 8131SOL     OW25291   2.797   1.921   0.256
 8131SOL    HW125292   2.788   1.964   0.347
 8131SOL    HW225293   2.730   1.962   0.194
 8132SOL     OW25294   6.458   1.876   4.521
 8132SOL    HW125295   6.398   1.884   4.441
 8132SOL    HW225296   6.407   1.839   4.598
 8133SOL     OW25297   4.249   5.781   0.690
 8133SOL    HW125298   4.273   5.874   0.661
 8133SOL    HW225299   4.161   5.756   0.652
 8134SOL     OW25300   6.323   1.690   6.941
 8134SOL    HW125301   6.274   1.777   6.940
 8134SOL    HW225302   6.273   1.623   6.996
 8135SOL     OW25303   2.871   6.078   1.662
 8135SOL    HW125304   2.905   6.105   1.753
 8135SOL    HW225305   2.792   6.135   1.638
 8136SOL     OW25306   4.203   4.811   2.168
 8136SOL    HW125307   4.264   4.735   2.190
 8136SOL    HW225308   4.249   4.898   2.184
 8137SOL     OW25309   3.435   1.241   6.255
 8137SOL    HW125310   3.472   1.152   6.228
 8137SOL    HW225311   3.435   1.249   6.354
 8138SOL     OW25312   6.442   1.139   2.841
 8138SOL    HW125313   6.409   1.172   2.753
 8138SOL    HW225314   6.436   1.039   2.844
 8139SOL     OW25315   1.388   1.573   5.039
 8139SOL    HW125316   1.365   1.670   5.030
 8139SOL    HW225317   1.361   1.540   5.129
 8140SOL     OW25318   4.789   2.524   3.243
 8140SOL    HW125319   4.876   2.482   3.269
 8140SOL    HW225320   4.791   2.547   3.146
 8141SOL     OW25321   6.465   4.388   4.051
 8141SOL    HW125322   6.500   4.481   4.036
 8141SOL    HW225323   6.539   4.330   4.085
 8142SOL     OW25324   0.364   6.252   0.408
 8142SOL    HW125325   0.276   6.264   0.360
 8142SOL    HW225326   0.421   6.189   0.356
 8143SOL     OW25327   6.790   2.975   6.176
 8143SOL    HW125328   6.840   3.059   6.152
 8143SOL    HW225329   6.696   2.997   6.201
 8144SOL     OW25330   4.203   6.072   0.393
 8144SOL    HW125331   4.290   6.039   0.429
 8144SOL    HW225332   4.128   6.032   0.446
 8145SOL     OW25333   4.469   0.319   4.303
 8145SOL    HW125334   4.502   0.290   4.214
 8145SOL    HW225335   4.397   0.256   4.334
 8146SOL     OW25336   3.119   1.493   2.840
 8146SOL    HW125337   3.217   1.473   2.852
 8146SOL    HW225338   3.090   1.557   2.910
 8147SOL     OW25339   4.873   1.818   3.776
 8147SOL    HW125340   4.774   1.803   3.778
 8147SOL    HW225341   4.891   1.914   3.752
 8148SOL     OW25342   0.688   3.228   3.317
 8148SOL    HW125343   0.607   3.255   3.265
 8148SOL    HW225344   0.741   3.310   3.341
 8149SOL     OW25345   4.224   5.471   4.563
 8149SOL    HW125346   4.125   5.489   4.557
 8149SOL    HW225347   4.243   5.378   4.532
 8150SOL     OW25348   1.678   5.839   0.417
 8150SOL    HW125349   1.653   5.817   0.511
 8150SOL    HW225350   1.722   5.759   0.375
 8151SOL     OW25351   1.008   1.563   4.955
 8151SOL    HW125352   0.940   1.622   4.911
 8151SOL    HW225353   1.084   1.547   4.892
 8152SOL     OW25354   0.267   0.893   3.119
 8152SOL    HW125355   0.173   0.893   3.086
 8152SOL    HW225356   0.299   0.799   3.131
 8153SOL     OW25357   1.738   6.367   6.672
 8153SOL    HW125358   1.647   6.408   6.664
 8153SOL    HW225359   1.804   6.436   6.702
 8154SOL     OW25360   2.175   6.743   4.017
 8154SOL    HW125361   2.097   6.732   3.956
 8154SOL    HW225362   2.175   6.836   4.054
 8155SOL     OW25363   4.198   3.518   5.212
 8155SOL    HW125364   4.110   3.519   5.259
 8155SOL    HW225365   4.238   3.427   5.217
 8156SOL     OW25366   0.923   6.418   4.907
 8156SOL    HW125367   0.959   6.340   4.957
 8156SOL    HW225368   0.992   6.451   4.842
 8157SOL     OW25369   5.694   2.774   6.445
 8157SOL    HW125370   5.633   2.718   6.389
 8157SOL    HW225371   5.710   2.728   6.532
 8158SOL     OW25372   0.859   5.471   2.189
 8158SOL    HW125373   0.772   5.423   2.200
 8158SOL    HW225374   0.930   5.423   2.240
 8159SOL     OW25375   0.464   6.820   0.431
 8159SOL    HW125376   0.456   6.882   0.352
 8159SOL    HW225377   0.381   6.827   0.486
 8160SOL     OW25378   6.238   2.272   0.584
 8160SOL    HW125379   6.307   2.241   0.519
 8160SOL    HW225380   6.199   2.194   0.632
 8161SOL     OW25381   3.605   3.915   1.793
 8161SOL    HW125382   3.618   4.012   1.775
 8161SOL    HW225383   3.508   3.897   1.812
 8162SOL     OW25384   5.587   0.326   1.268
 8162SOL    HW125385   5.510   0.263   1.275
 8162SOL    HW225386   5.635   0.309   1.181
 8163SOL     OW25387   2.682   3.061   5.331
 8163SOL    HW125388   2.619   3.139   5.342
 8163SOL    HW225389   2.652   3.005   5.254
 8164SOL     OW25390   5.451   4.260   1.190
 8164SOL    HW125391   5.462   4.162   1.175
 8164SOL    HW225392   5.479   4.283   1.283
 8165SOL     OW25393   1.595   3.866   1.691
 8165SOL    HW125394   1.503   3.905   1.683
 8165SOL    HW225395   1.655   3.908   1.622
 8166SOL     OW25396   2.750   0.170   2.776
 8166SOL    HW125397   2.806   0.244   2.814
 8166SOL    HW225398   2.667   0.209   2.736
 8167SOL     OW25399   5.068   2.977   4.123
 8167SOL    HW125400   5.142   2.925   4.079
 8167SOL    HW225401   4.981   2.930   4.108
 8168SOL     OW25402   2.942   1.087   2.330
 8168SOL    HW125403   2.908   1.161   2.273
 8168SOL    HW225404   3.002   1.124   2.402
 8169SOL     OW25405   5.651   4.040   5.650
 8169SOL    HW125406   5.645   4.111   5.579
 8169SOL    HW225407   5.643   4.082   5.740
 8170SOL     OW25408   0.631   4.759   4.411
 8170SOL    HW125409   0.700   4.737   4.479
 8170SOL    HW225410   0.549   4.704   4.428
 8171SOL     OW25411   2.229   0.451   6.768
 8171SOL    HW125412   2.213   0.359   6.805
 8171SOL    HW225413   2.318   0.453   6.722
 8172SOL     OW25414   0.089   5.170   2.394
 8172SOL    HW125415   0.042   5.174   2.482
 8172SOL    HW225416   0.121   5.077   2.378
 8173SOL     OW25417   0.232   3.688   6.719
 8173SOL    HW125418   0.151   3.631   6.708
 8173SOL    HW225419   0.228   3.763   6.653
 8174SOL     OW25420   5.242   6.839   2.294
 8174SOL    HW125421   5.292   6.827   2.380
 8174SOL    HW225422   5.146   6.814   2.307
 8175SOL     OW25423   1.152   2.255   3.505
 8175SOL    HW125424   1.225   2.296   3.560
 8175SOL    HW225425   1.125   2.167   3.545
 8176SOL     OW25426   4.803   4.194   3.109
 8176SOL    HW125427   4.744   4.228   3.036
 8176SOL    HW225428   4.895   4.230   3.097
 8177SOL     OW25429   2.080   0.655   6.080
 8177SOL    HW125430   2.136   0.724   6.127
 8177SOL    HW225431   2.051   0.691   5.991
 8178SOL     OW25432   1.911   6.259   0.048
 8178SOL    HW125433   1.911   6.340   7.014
 8178SOL    HW225434   1.858   6.279   0.131
 8179SOL     OW25435   4.098   0.075   4.795
 8179SOL    HW125436   4.041   7.025   4.762
 8179SOL    HW225437   4.101   0.148   4.726
 8180SOL     OW25438   4.687   4.235   4.414
 8180SOL    HW125439   4.701   4.220   4.316
 8180SOL    HW225440   4.735   4.164   4.466
 8181SOL     OW25441   2.021   1.911   3.199
 8181SOL    HW125442   1.998   1.840   3.266
 8181SOL    HW225443   1.961   1.903   3.119
 8182SOL     OW25444   5.820   3.084   5.051
 8182SOL    HW125445   5.886   3.145   5.096
 8182SOL    HW225446   5.729   3.126   5.055
 8183SOL     OW25447   1.971   3.798   3.998
 8183SOL    HW125448   1.994   3.701   3.993
 8183SOL    HW225449   1.996   3.834   4.087
 8184SOL     OW25450   6.413   6.158   5.561
 8184SOL    HW125451   6.315   6.141   5.547
 8184SOL    HW225452   6.438   6.137   5.655
 8185SOL     OW25453   0.242   2.183   3.309
 8185SOL    HW125454   0.167   2.175   3.376
 8185SOL    HW225455   0.254   2.279   3.284
 8186SOL     OW25456   4.206   3.315   6.601
 8186SOL    HW125457   4.167   3.328   6.510
 8186SOL    HW225458   4.136   3.331   6.670
 8187SOL     OW25459   2.556   1.753   6.738
 8187SOL    HW125460   2.503   1.745   6.822
 8187SOL    HW225461   2.546   1.670   6.684
 8188SOL     OW25462   5.153   3.265   3.092
 8188SOL    HW125463   5.083   3.205   3.052
 8188SOL    HW225464   5.221   3.287   3.023
 8189SOL     OW25465   0.516   5.772   3.234
 8189SOL    HW125466   0.486   5.852   3.287
 8189SOL    HW225467   0.596   5.797   3.180
 8190SOL     OW25468   5.189   3.449   2.756
 8190SOL    HW125469   5.181   3.350   2.766
 8190SOL    HW225470   5.110   3.494   2.797
 8191SOL     OW25471   5.983   4.438   1.242
 8191SOL    HW125472   6.034   4.433   1.328
 8191SOL    HW225473   5.920   4.360   1.237
 8192SOL     OW25474   2.355   1.447   0.754
 8192SOL    HW125475   2.303   1.400   0.683
 8192SOL    HW225476   2.292   1.498   0.813
 8193SOL     OW25477   3.765   6.541   5.912
 8193SOL    HW125478   3.856   6.524   5.950
 8193SOL    HW225479   3.711   6.457   5.919
 8194SOL     OW25480   0.040   0.959   2.423
 8194SOL    HW125481   0.070   0.921   2.510
 8194SOL    HW225482   6.970   0.989   2.430
 8195SOL     OW25483   6.251   0.968   0.632
 8195SOL    HW125484   6.235   0.874   0.601
 8195SOL    HW225485   6.339   1.000   0.597
 8196SOL     OW25486   2.330   0.498   0.808
 8196SOL    HW125487   2.279   0.581   0.829
 8196SOL    HW225488   2.403   0.485   0.876
 8197SOL     OW25489   0.677   6.946   0.653
 8197SOL    HW125490   0.645   0.009   0.619
 8197SOL    HW225491   0.736   6.960   0.732
 8198SOL     OW25492   2.445   0.536   2.740
 8198SOL    HW125493   2.392   0.580   2.813
 8198SOL    HW225494   2.540   0.566   2.745
 8199SOL     OW25495   5.956   4.667   1.119
 8199SOL    HW125496   5.963   4.578   1.164
 8199SOL    HW225497   5.882   4.665   1.052
 8200SOL     OW25498   3.264   4.836   1.347
 8200SOL    HW125499   3.354   4.806   1.315
 8200SOL    HW225500   3.225   4.767   1.407
 8201SOL     OW25501   0.809   1.024   4.395
 8201SOL    HW125502   0.829   0.959   4.468
 8201SOL    HW225503   0.714   1.056   4.404
 8202SOL     OW25504   2.009   3.183   4.402
 8202SOL    HW125505   1.943   3.109   4.413
 8202SOL    HW225506   2.064   3.166   4.320
 8203SOL     OW25507   6.282   4.501   6.539
 8203SOL    HW125508   6.268   4.511   6.637
 8203SOL    HW225509   6.221   4.429   6.504
 8204SOL     OW25510   2.536   6.555   1.843
 8204SOL    HW125511   2.441   6.541   1.870
 8204SOL    HW225512   2.590   6.475   1.868
 8205SOL     OW25513   3.477   6.647   3.045
 8205SOL    HW125514   3.397   6.678   3.096
 8205SOL    HW225515   3.450   6.616   2.954
 8206SOL     OW25516   3.786   1.799   4.684
 8206SOL    HW125517   3.804   1.877   4.744
 8206SOL    HW225518   3.715   1.824   4.618
 8207SOL     OW25519   2.455   6.328   0.074
 8207SOL    HW125520   2.378   6.370   0.122
 8207SOL    HW225521   2.485   6.247   0.124
 8208SOL     OW25522   1.106   5.772   1.217
 8208SOL    HW125523   1.113   5.852   1.159
 8208SOL    HW225524   1.116   5.799   1.313
 8209SOL     OW25525   0.601   6.180   4.013
 8209SOL    HW125526   0.603   6.092   3.967
 8209SOL    HW225527   0.534   6.178   4.088
 8210SOL     OW25528   2.433   0.114   1.085
 8210SOL    HW125529   2.439   0.191   1.149
 8210SOL    HW225530   2.524   0.080   1.064
 8211SOL     OW25531   3.121   4.073   4.621
 8211SOL    HW125532   3.066   4.155   4.602
 8211SOL    HW225533   3.065   3.992   4.607
 8212SOL     OW25534   3.620   5.189   6.337
 8212SOL    HW125535   3.622   5.270   6.279
 8212SOL    HW225536   3.529   5.180   6.379
 8213SOL     OW25537   4.878   4.027   1.794
 8213SOL    HW125538   4.792   4.036   1.745
 8213SOL    HW225539   4.938   3.964   1.745
 8214SOL     OW25540   4.152   4.811   3.329
 8214SOL    HW125541   4.110   4.891   3.373
 8214SOL    HW225542   4.198   4.755   3.397
 8215SOL     OW25543   2.826   6.288   5.099
 8215SOL    HW125544   2.736   6.328   5.084
 8215SOL    HW225545   2.816   6.207   5.158
 8216SOL     OW25546   6.610   4.749   6.999
 8216SOL    HW125547   6.640   4.831   0.022
 8216SOL    HW225548   6.652   4.746   6.908
 8217SOL     OW25549   3.950   5.941   3.458
 8217SOL    HW125550   4.030   5.980   3.411
 8217SOL    HW225551   3.893   6.015   3.493
 8218SOL     OW25552   1.704   5.840   3.791
 8218SOL    HW125553   1.771   5.775   3.753
 8218SOL    HW225554   1.662   5.800   3.872
 8219SOL     OW25555   3.987   3.277   4.969
 8219SOL    HW125556   3.969   3.251   4.874
 8219SOL    HW225557   3.934   3.358   4.993
 8220SOL     OW25558   4.558   3.966   5.724
 8220SOL    HW125559   4.507   3.913   5.656
 8220SOL    HW225560   4.632   3.910   5.761
 8221SOL     OW25561   6.468   3.548   4.017
 8221SOL    HW125562   6.401   3.568   3.945
 8221SOL    HW225563   6.479   3.629   4.075
 8222SOL     OW25564   5.315   1.479   5.971
 8222SOL    HW125565   5.324   1.382   5.946
 8222SOL    HW225566   5.249   1.488   6.045
 8223SOL     OW25567   1.555   6.652   5.670
 8223SOL    HW125568   1.511   6.616   5.588
 8223SOL    HW225569   1.487   6.702   5.724
 8224SOL     OW25570   4.808   0.981   4.566
 8224SOL    HW125571   4.753   1.020   4.640
 8224SOL    HW225572   4.866   1.052   4.527
 8225SOL     OW25573   6.363   1.361   6.756
 8225SOL    HW125574   6.366   1.264   6.734
 8225SOL    HW225575   6.308   1.376   6.838
 8226SOL     OW25576   3.812   0.626   6.439
 8226SOL    HW125577   3.863   0.677   6.508
 8226SOL    HW225578   3.714   0.639   6.455
 8227SOL     OW25579   5.932   3.517   2.702
 8227SOL    HW125580   5.845   3.519   2.653
 8227SOL    HW225581   6.004   3.483   2.642
 8228SOL     OW25582   3.206   1.627   5.316
 8228SOL    HW125583   3.285   1.670   5.360
 8228SOL    HW225584   3.238   1.559   5.250
 8229SOL     OW25585   4.525   3.720   0.729
 8229SOL    HW125586   4.578   3.659   0.670
 8229SOL    HW225587   4.462   3.666   0.785
 8230SOL     OW25588   6.203   1.349   6.389
 8230SOL    HW125589   6.210   1.391   6.479
 8230SOL    HW225590   6.246   1.258   6.391
 8231SOL     OW25591   3.071   0.903   1.397
 8231SOL    HW125592   2.999   0.930   1.461
 8231SOL    HW225593   3.109   0.984   1.353
 8232SOL     OW25594   4.151   5.997   4.220
 8232SOL    HW125595   4.223   6.058   4.189
 8232SOL    HW225596   4.170   5.966   4.314
 8233SOL     OW25597   2.941   0.489   0.190
 8233SOL    HW125598   2.963   0.468   0.095
 8233SOL    HW225599   2.842   0.495   0.201
 8234SOL     OW25600   0.081   2.772   5.876
 8234SOL    HW125601   0.118   2.859   5.909
 8234SOL    HW225602   0.077   2.707   5.952
 8235SOL     OW25603   1.627   6.083   6.828
 8235SOL    HW125604   1.727   6.085   6.824
 8235SOL    HW225605   1.596   6.130   6.911
 8236SOL     OW25606   0.395   0.763   0.570
 8236SOL    HW125607   0.444   0.746   0.656
 8236SOL    HW225608   0.325   0.693   0.557
 8237SOL     OW25609   5.084   4.168   5.990
 8237SOL    HW125610   5.119   4.259   5.968
 8237SOL    HW225611   4.986   4.164   5.968
 8238SOL     OW25612   0.212   5.460   0.133
 8238SOL    HW125613   0.263   5.451   0.219
 8238SOL    HW225614   0.274   5.492   0.061
 8239SOL     OW25615   5.071   2.744   3.611
 8239SOL    HW125616   5.057   2.759   3.513
 8239SOL    HW225617   5.165   2.711   3.626
 8240SOL     OW25618   3.269   3.420   5.072
 8240SOL    HW125619   3.242   3.488   5.140
 8240SOL    HW225620   3.189   3.369   5.042
 8241SOL     OW25621   0.807   2.728   5.170
 8241SOL    HW125622   0.819   2.784   5.251
 8241SOL    HW225623   0.819   2.785   5.088
 8242SOL     OW25624   0.821   4.014   3.361
 8242SOL    HW125625   0.759   3.936   3.368
 8242SOL    HW225626   0.878   4.003   3.280
 8243SOL     OW25627   2.263   5.749   4.196
 8243SOL    HW125628   2.227   5.789   4.111
 8243SOL    HW225629   2.273   5.650   4.185
 8244SOL     OW25630   5.833   6.916   4.742
 8244SOL    HW125631   5.841   6.924   4.643
 8244SOL    HW225632   5.879   6.994   4.785
 8245SOL     OW25633   5.033   4.285   1.691
 8245SOL    HW125634   4.984   4.336   1.620
 8245SOL    HW225635   5.003   4.190   1.691
 8246SOL     OW25636   1.814   4.038   0.402
 8246SOL    HW125637   1.906   4.001   0.393
 8246SOL    HW225638   1.814   4.109   0.473
 8247SOL     OW25639   1.862   4.834   3.801
 8247SOL    HW125640   1.942   4.893   3.801
 8247SOL    HW225641   1.819   4.836   3.892
 8248SOL     OW25642   6.063   1.183   2.807
 8248SOL    HW125643   6.053   1.191   2.906
 8248SOL    HW225644   6.159   1.167   2.784
 8249SOL     OW25645   3.530   6.752   5.514
 8249SOL    HW125646   3.539   6.850   5.532
 8249SOL    HW225647   3.485   6.738   5.425
 8250SOL     OW25648   2.290   1.164   0.360
 8250SOL    HW125649   2.239   1.173   0.275
 8250SOL    HW225650   2.349   1.084   0.356
 8251SOL     OW25651   1.896   1.530   6.477
 8251SOL    HW125652   1.869   1.542   6.381
 8251SOL    HW225653   1.986   1.487   6.480
 8252SOL     OW25654   0.787   0.918   6.205
 8252SOL    HW125655   0.737   1.004   6.217
 8252SOL    HW225656   0.734   0.843   6.244
 8253SOL     OW25657   6.892   3.727   4.373
 8253SOL    HW125658   6.917   3.801   4.310
 8253SOL    HW225659   6.875   3.765   4.464
 8254SOL     OW25660   4.659   4.154   0.524
 8254SOL    HW125661   4.735   4.162   0.589
 8254SOL    HW225662   4.602   4.076   0.548
 8255SOL     OW25663   1.407   6.146   5.604
 8255SOL    HW125664   1.378   6.129   5.510
 8255SOL    HW225665   1.326   6.158   5.662
 8256SOL     OW25666   1.753   5.908   3.517
 8256SOL    HW125667   1.713   5.832   3.466
 8256SOL    HW225668   1.771   5.879   3.611
 8257SOL     OW25669   5.003   4.748   3.576
 8257SOL    HW125670   4.955   4.662   3.558
 8257SOL    HW225671   5.001   4.767   3.674
 8258SOL     OW25672   0.482   2.786   4.432
 8258SOL    HW125673   0.453   2.785   4.528
 8258SOL    HW225674   0.549   2.714   4.417
 8259SOL     OW25675   5.248   3.968   4.033
 8259SOL    HW125676   5.335   3.919   4.040
 8259SOL    HW225677   5.253   4.052   4.087
 8260SOL     OW25678   4.713   2.206   6.034
 8260SOL    HW125679   4.723   2.247   6.125
 8260SOL    HW225680   4.647   2.259   5.981
 8261SOL     OW25681   4.949   2.248   2.877
 8261SOL    HW125682   4.913   2.195   2.954
 8261SOL    HW225683   5.043   2.220   2.858
 8262SOL     OW25684   5.132   4.119   2.176
 8262SOL    HW125685   5.045   4.128   2.129
 8262SOL    HW225686   5.159   4.208   2.213
 8263SOL     OW25687   6.803   1.673   0.063
 8263SOL    HW125688   6.737   1.684   7.014
 8263SOL    HW225689   6.758   1.630   0.141
 8264SOL     OW25690   3.334   1.993   1.749
 8264SOL    HW125691   3.398   1.926   1.713
 8264SOL    HW225692   3.362   2.021   1.840
 8265SOL     OW25693   6.351   5.219   6.789
 8265SOL    HW125694   6.361   5.127   6.827
 8265SOL    HW225695   6.358   5.286   6.862
 8266SOL     OW25696   4.394   2.332   2.504
 8266SOL    HW125697   4.450   2.274   2.563
 8266SOL    HW225698   4.436   2.422   2.496
 8267SOL     OW25699   1.581   3.582   2.494
 8267SOL    HW125700   1.611   3.559   2.402
 8267SOL    HW225701   1.617   3.671   2.520
 8268SOL     OW25702   2.337   5.135   1.257
 8268SOL    HW125703   2.396   5.096   1.327
 8268SOL    HW225704   2.393   5.164   1.179
 8269SOL     OW25705   6.143   2.541   2.990
 8269SOL    HW125706   6.050   2.578   2.996
 8269SOL    HW225707   6.157   2.475   3.063
 8270SOL     OW25708   4.495   5.104   0.508
 8270SOL    HW125709   4.527   5.043   0.435
 8270SOL    HW225710   4.561   5.104   0.583
 8271SOL     OW25711   2.659   0.341   6.140
 8271SOL    HW125712   2.662   0.342   6.240
 8271SOL    HW225713   2.665   0.247   6.107
 8272SOL     OW25714   6.784   1.210   2.236
 8272SOL    HW125715   6.761   1.215   2.139
 8272SOL    HW225716   6.743   1.128   2.276
 8273SOL     OW25717   5.792   0.661   5.691
 8273SOL    HW125718   5.836   0.736   5.641
 8273SOL    HW225719   5.751   0.597   5.626
 8274SOL     OW25720   5.092   0.311   4.190
 8274SOL    HW125721   5.006   0.276   4.225
 8274SOL    HW225722   5.168   0.262   4.233
 8275SOL     OW25723   5.211   0.879   4.321
 8275SOL    HW125724   5.113   0.871   4.340
 8275SOL    HW225725   5.244   0.794   4.280
 8276SOL     OW25726   4.470   2.455   6.620
 8276SOL    HW125727   4.382   2.503   6.611
 8276SOL    HW225728   4.481   2.393   6.542
 8277SOL     OW25729   1.014   6.766   1.620
 8277SOL    HW125730   0.991   6.675   1.585
 8277SOL    HW225731   1.051   6.759   1.712
 8278SOL     OW25732   1.477   1.499   1.435
 8278SOL    HW125733   1.514   1.592   1.437
 8278SOL    HW225734   1.391   1.498   1.385
 8279SOL     OW25735   5.708   4.699   6.315
 8279SOL    HW125736   5.770   4.651   6.253
 8279SOL    HW225737   5.650   4.633   6.363
 8280SOL     OW25738   7.012   5.044   0.730
 8280SOL    HW125739   6.912   5.046   0.722
 8280SOL    HW225740   0.012   5.068   0.824
 8281SOL     OW25741   1.790   4.409   0.074
 8281SOL    HW125742   1.772   4.319   0.114
 8281SOL    HW225743   1.858   4.457   0.130
 8282SOL     OW25744   4.493   2.860   0.509
 8282SOL    HW125745   4.444   2.775   0.488
 8282SOL    HW225746   4.481   2.924   0.433
 8283SOL     OW25747   0.794   2.003   2.846
 8283SOL    HW125748   0.808   1.943   2.767
 8283SOL    HW225749   0.727   1.960   2.908
 8284SOL     OW25750   3.889   2.695   0.807
 8284SOL    HW125751   3.830   2.615   0.798
 8284SOL    HW225752   3.984   2.669   0.786
 8285SOL     OW25753   0.679   4.497   0.266
 8285SOL    HW125754   0.653   4.507   0.362
 8285SOL    HW225755   0.756   4.434   0.258
 8286SOL     OW25756   6.531   1.962   6.585
 8286SOL    HW125757   6.525   1.884   6.522
 8286SOL    HW225758   6.584   2.035   6.543
 8287SOL     OW25759   0.913   1.821   2.491
 8287SOL    HW125760   0.842   1.790   2.428
 8287SOL    HW225761   0.922   1.920   2.484
 8288SOL     OW25762   1.982   6.196   2.489
 8288SOL    HW125763   1.967   6.244   2.576
 8288SOL    HW225764   2.018   6.105   2.507
 8289SOL     OW25765   5.326   6.153   0.228
 8289SOL    HW125766   5.253   6.085   0.226
 8289SOL    HW225767   5.345   6.178   0.322
 8290SOL     OW25768   4.475   2.980   1.633
 8290SOL    HW125769   4.555   2.992   1.575
 8290SOL    HW225770   4.501   2.993   1.729
 8291SOL     OW25771   5.901   6.018   5.264
 8291SOL    HW125772   5.993   6.009   5.226
 8291SOL    HW225773   5.905   6.074   5.347
 8292SOL     OW25774   1.139   4.175   6.131
 8292SOL    HW125775   1.071   4.117   6.086
 8292SOL    HW225776   1.231   4.141   6.111
 8293SOL     OW25777   3.770   5.503   3.446
 8293SOL    HW125778   3.674   5.503   3.417
 8293SOL    HW225779   3.826   5.456   3.377
 8294SOL     OW25780   6.030   3.671   5.655
 8294SOL    HW125781   6.076   3.600   5.708
 8294SOL    HW225782   5.945   3.635   5.616
 8295SOL     OW25783   3.779   4.949   1.803
 8295SOL    HW125784   3.801   4.852   1.791
 8295SOL    HW225785   3.680   4.960   1.807
 8296SOL     OW25786   3.515   0.395   2.055
 8296SOL    HW125787   3.470   0.472   2.100
 8296SOL    HW225788   3.448   0.323   2.036
 8297SOL     OW25789   5.168   4.661   1.649
 8297SOL    HW125790   5.202   4.745   1.692
 8297SOL    HW225791   5.218   4.644   1.564
 8298SOL     OW25792   6.811   5.803   0.806
 8298SOL    HW125793   6.834   5.736   0.876
 8298SOL    HW225794   6.790   5.891   0.850
 8299SOL     OW25795   1.297   1.433   6.840
 8299SOL    HW125796   1.345   1.393   6.918
 8299SOL    HW225797   1.259   1.360   6.784
 8300SOL     OW25798   4.799   5.688   5.595
 8300SOL    HW125799   4.851   5.773   5.584
 8300SOL    HW225800   4.729   5.702   5.666
 8301SOL     OW25801   5.968   4.231   6.665
 8301SOL    HW125802   5.984   4.260   6.760
 8301SOL    HW225803   5.937   4.310   6.611
 8302SOL     OW25804   3.519   6.499   6.641
 8302SOL    HW125805   3.593   6.564   6.627
 8302SOL    HW225806   3.450   6.538   6.702
 8303SOL     OW25807   6.757   4.578   4.355
 8303SOL    HW125808   6.711   4.664   4.332
 8303SOL    HW225809   6.840   4.597   4.407
 8304SOL     OW25810   5.383   2.674   3.586
 8304SOL    HW125811   5.443   2.597   3.611
 8304SOL    HW225812   5.418   2.758   3.628
 8305SOL     OW25813   4.622   6.347   5.700
 8305SOL    HW125814   4.691   6.368   5.630
 8305SOL    HW225815   4.557   6.423   5.706
 8306SOL     OW25816   4.212   0.816   3.404
 8306SOL    HW125817   4.166   0.742   3.357
 8306SOL    HW225818   4.246   0.784   3.492
 8307SOL     OW25819   1.058   4.997   3.946
 8307SOL    HW125820   1.009   4.916   3.979
 8307SOL    HW225821   0.993   5.061   3.906
 8308SOL     OW25822   2.068   3.933   0.394
 8308SOL    HW125823   2.076   3.955   0.491
 8308SOL    HW225824   2.138   3.983   0.343
 8309SOL     OW25825   5.631   5.298   2.533
 8309SOL    HW125826   5.657   5.220   2.477
 8309SOL    HW225827   5.668   5.287   2.625
 8310SOL     OW25828   2.565   5.799   3.579
 8310SOL    HW125829   2.474   5.840   3.583
 8310SOL    HW225830   2.611   5.829   3.495
 8311SOL     OW25831   4.765   6.915   2.425
 8311SOL    HW125832   4.698   6.911   2.499
 8311SOL    HW225833   4.734   6.980   2.356
 8312SOL     OW25834   6.242   6.443   1.071
 8312SOL    HW125835   6.288   6.513   1.125
 8312SOL    HW225836   6.201   6.485   0.989
 8313SOL     OW25837   5.173   1.886   5.549
 8313SOL    HW125838   5.108   1.817   5.520
 8313SOL    HW225839   5.127   1.974   5.559
 8314SOL     OW25840   5.204   5.647   5.730
 8314SOL    HW125841   5.150   5.725   5.760
 8314SOL    HW225842   5.144   5.583   5.681
 8315SOL     OW25843   3.351   1.513   6.818
 8315SOL    HW125844   3.336   1.590   6.880
 8315SOL    HW225845   3.449   1.503   6.801
 8316SOL     OW25846   1.400   0.981   4.953
 8316SOL    HW125847   1.413   1.025   5.042
 8316SOL    HW225848   1.304   0.991   4.925
 8317SOL     OW25849   2.773   1.714   6.322
 8317SOL    HW125850   2.865   1.740   6.292
 8317SOL    HW225851   2.737   1.786   6.382
 8318SOL     OW25852   4.718   6.129   5.001
 8318SOL    HW125853   4.711   6.031   4.986
 8318SOL    HW225854   4.737   6.175   4.914
 8319SOL     OW25855   3.278   6.115   6.285
 8319SOL    HW125856   3.231   6.054   6.222
 8319SOL    HW225857   3.347   6.168   6.236
 8320SOL     OW25858   3.972   4.716   5.470
 8320SOL    HW125859   3.940   4.807   5.497
 8320SOL    HW225860   4.028   4.677   5.543
 8321SOL     OW25861   0.905   6.412   0.338
 8321SOL    HW125862   0.969   6.363   0.278
 8321SOL    HW225863   0.910   6.510   0.319
 8322SOL     OW25864   2.740   0.175   1.993
 8322SOL    HW125865   2.763   0.265   1.957
 8322SOL    HW225866   2.767   0.169   2.089
 8323SOL     OW25867   0.054   5.934   6.867
 8323SOL    HW125868   6.996   5.912   6.815
 8323SOL    HW225869   0.029   5.987   6.948
 8324SOL     OW25870   0.064   5.590   4.679
 8324SOL    HW125871   0.029   5.619   4.590
 8324SOL    HW225872   7.014   5.585   4.744
 8325SOL     OW25873   1.622   5.228   4.420
 8325SOL    HW125874   1.555   5.300   4.436
 8325SOL    HW225875   1.696   5.236   4.487
 8326SOL     OW25876   3.222   0.868   0.192
 8326SOL    HW125877   3.237   0.954   0.142
 8326SOL    HW225878   3.252   0.791   0.135
 8327SOL     OW25879   0.956   6.299   5.320
 8327SOL    HW125880   0.901   6.248   5.254
 8327SOL    HW225881   0.905   6.306   5.406
 8328SOL     OW25882   1.539   6.972   0.788
 8328SOL    HW125883   1.478   7.010   0.858
 8328SOL    HW225884   1.577   0.022   0.733
 8329SOL     OW25885   1.581   1.962   6.100
 8329SOL    HW125886   1.510   1.898   6.129
 8329SOL    HW225887   1.632   1.924   6.024
 8330SOL     OW25888   2.776   6.842   0.191
 8330SOL    HW125889   2.784   6.743   0.204
 8330SOL    HW225890   2.780   6.862   0.093
 8331SOL     OW25891   1.940   3.007   6.622
 8331SOL    HW125892   2.027   2.958   6.623
 8331SOL    HW225893   1.883   2.973   6.548
 8332SOL     OW25894   4.910   4.642   0.826
 8332SOL    HW125895   4.837   4.590   0.781
 8332SOL    HW225896   4.956   4.583   0.893
 8333SOL     OW25897   1.955   4.307   5.700
 8333SOL    HW125898   2.043   4.261   5.703
 8333SOL    HW225899   1.938   4.340   5.607
 8334SOL     OW25900   3.394   2.810   6.197
 8334SOL    HW125901   3.493   2.813   6.210
 8334SOL    HW225902   3.369   2.866   6.118
 8335SOL     OW25903   7.002   2.971   0.536
 8335SOL    HW125904   7.011   2.875   0.510
 8335SOL    HW225905   6.918   3.009   0.497
 8336SOL     OW25906   0.749   4.103   3.620
 8336SOL    HW125907   0.794   4.189   3.645
 8336SOL    HW225908   0.787   4.070   3.533
 8337SOL     OW25909   6.756   6.878   4.526
 8337SOL    HW125910   6.686   6.933   4.480
 8337SOL    HW225911   6.711   6.808   4.582
 8338SOL     OW25912   2.158   4.334   0.759
 8338SOL    HW125913   2.207   4.251   0.784
 8338SOL    HW225914   2.193   4.368   0.672
 8339SOL     OW25915   6.550   0.043   1.689
 8339SOL    HW125916   6.565   6.973   1.713
 8339SOL    HW225917   6.586   0.102   1.761
 8340SOL     OW25918   5.806   2.509   6.121
 8340SOL    HW125919   5.783   2.412   6.110
 8340SOL    HW225920   5.881   2.518   6.186
 8341SOL     OW25921   3.756   6.755   0.910
 8341SOL    HW125922   3.745   6.656   0.902
 8341SOL    HW225923   3.730   6.784   1.002
 8342SOL     OW25924   4.005   0.953   1.258
 8342SOL    HW125925   4.094   0.994   1.276
 8342SOL    HW225926   3.936   1.025   1.245
 8343SOL     OW25927   4.796   5.887   3.143
 8343SOL    HW125928   4.823   5.798   3.105
 8343SOL    HW225929   4.724   5.927   3.086
 8344SOL     OW25930   2.107   4.159   5.113
 8344SOL    HW125931   2.135   4.251   5.087
 8344SOL    HW225932   2.186   4.097   5.107
 8345SOL     OW25933   6.870   0.333   4.087
 8345SOL    HW125934   6.879   0.299   4.181
 8345SOL    HW225935   6.961   0.353   4.050
 8346SOL     OW25936   5.233   4.205   2.772
 8346SOL    HW125937   5.267   4.177   2.682
 8346SOL    HW225938   5.272   4.147   2.843
 8347SOL     OW25939   1.947   1.604   6.866
 8347SOL    HW125940   2.030   1.576   6.817
 8347SOL    HW225941   1.890   1.523   6.882
 8348SOL     OW25942   2.509   6.468   0.873
 8348SOL    HW125943   2.512   6.541   0.941
 8348SOL    HW225944   2.559   6.389   0.908
 8349SOL     OW25945   4.430   6.426   1.015
 8349SOL    HW125946   4.506   6.397   0.957
 8349SOL    HW225947   4.362   6.473   0.959
 8350SOL     OW25948   2.375   0.924   6.451
 8350SOL    HW125949   2.403   0.829   6.437
 8350SOL    HW225950   2.429   0.964   6.525
 8351SOL     OW25951   1.290   4.734   3.047
 8351SOL    HW125952   1.237   4.698   2.971
 8351SOL    HW225953   1.276   4.676   3.127
 8352SOL     OW25954   2.439   6.768   6.639
 8352SOL    HW125955   2.380   6.732   6.566
 8352SOL    HW225956   2.531   6.781   6.603
 8353SOL     OW25957   2.248   5.840   3.110
 8353SOL    HW125958   2.152   5.854   3.134
 8353SOL    HW225959   2.264   5.743   3.094
 8354SOL     OW25960   5.163   3.195   3.759
 8354SOL    HW125961   5.106   3.269   3.723
 8354SOL    HW225962   5.186   3.215   3.854
 8355SOL     OW25963   3.664   3.735   5.556
 8355SOL    HW125964   3.585   3.673   5.556
 8355SOL    HW225965   3.632   3.829   5.549
 8356SOL     OW25966   3.616   2.849   2.269
 8356SOL    HW125967   3.674   2.808   2.199
 8356SOL    HW225968   3.648   2.941   2.290
 8357SOL     OW25969   3.691   6.953   4.863
 8357SOL    HW125970   3.710   6.993   4.953
 8357SOL    HW225971   3.768   6.969   4.802
 8358SOL     OW25972   6.970   0.976   4.491
 8358SOL    HW125973   6.976   1.070   4.524
 8358SOL    HW225974   0.012   0.919   4.539
 8359SOL     OW25975   5.089   2.839   5.531
 8359SOL    HW125976   5.096   2.740   5.543
 8359SOL    HW225977   5.017   2.874   5.591
 8360SOL     OW25978   3.413   0.504   2.437
 8360SOL    HW125979   3.326   0.455   2.444
 8360SOL    HW225980   3.487   0.443   2.466
 8361SOL     OW25981   5.030   1.874   0.135
 8361SOL    HW125982   5.024   1.876   0.234
 8361SOL    HW225983   5.054   1.965   0.101
 8362SOL     OW25984   0.466   4.523   1.742
 8362SOL    HW125985   0.390   4.492   1.799
 8362SOL    HW225986   0.490   4.617   1.767
 8363SOL     OW25987   3.472   2.203   1.461
 8363SOL    HW125988   3.547   2.193   1.526
 8363SOL    HW225989   3.490   2.281   1.401
 8364SOL     OW25990   0.857   1.571   3.564
 8364SOL    HW125991   0.865   1.482   3.519
 8364SOL    HW225992   0.888   1.643   3.503
 8365SOL     OW25993   2.026   2.391   1.230
 8365SOL    HW125994   2.104   2.426   1.179
 8365SOL    HW225995   1.990   2.310   1.184
 8366SOL     OW25996   5.181   5.998   1.148
 8366SOL    HW125997   5.112   6.065   1.121
 8366SOL    HW225998   5.145   5.940   1.220
 8367SOL     OW25999   0.705   4.846   4.167
 8367SOL    HW126000   0.692   4.794   4.252
 8367SOL    HW226001   0.689   4.943   4.185
 8368SOL     OW26002   0.644   3.826   6.199
 8368SOL    HW126003   0.722   3.765   6.188
 8368SOL    HW226004   0.673   3.908   6.248
 8369SOL     OW26005   1.273   1.115   0.298
 8369SOL    HW126006   1.186   1.129   0.346
 8369SOL    HW226007   1.348   1.150   0.353
 8370SOL     OW26008   2.282   3.435   1.486
 8370SOL    HW126009   2.237   3.374   1.421
 8370SOL    HW226010   2.369   3.394   1.516
 8371SOL     OW26011   2.533   4.396   5.303
 8371SOL    HW126012   2.610   4.441   5.348
 8371SOL    HW226013   2.473   4.357   5.373
 8372SOL     OW26014   1.515   6.966   3.180
 8372SOL    HW126015   1.584   6.933   3.116
 8372SOL    HW226016   1.543   6.943   3.274
 8373SOL     OW26017   6.241   0.717   4.811
 8373SOL    HW126018   6.274   0.809   4.789
 8373SOL    HW226019   6.151   0.723   4.854
 8374SOL     OW26020   0.361   2.147   3.744
 8374SOL    HW126021   0.338   2.082   3.816
 8374SOL    HW226022   0.313   2.233   3.760
 8375SOL     OW26023   1.470   2.071   5.493
 8375SOL    HW126024   1.418   2.020   5.561
 8375SOL    HW226025   1.508   2.154   5.534
 8376SOL     OW26026   1.046   0.885   3.383
 8376SOL    HW126027   1.130   0.852   3.340
 8376SOL    HW226028   1.068   0.959   3.446
 8377SOL     OW26029   4.470   5.628   1.951
 8377SOL    HW126030   4.471   5.639   1.851
 8377SOL    HW226031   4.564   5.637   1.986
 8378SOL     OW26032   4.128   5.917   5.812
 8378SOL    HW126033   4.059   5.916   5.883
 8378SOL    HW226034   4.212   5.875   5.846
 8379SOL     OW26035   6.445   2.495   1.689
 8379SOL    HW126036   6.467   2.409   1.644
 8379SOL    HW226037   6.519   2.560   1.675
 8380SOL     OW26038   1.506   5.320   2.612
 8380SOL    HW126039   1.564   5.388   2.656
 8380SOL    HW226040   1.525   5.230   2.651
 8381SOL     OW26041   0.583   2.635   2.685
 8381SOL    HW126042   0.580   2.714   2.746
 8381SOL    HW226043   0.532   2.654   2.602
 8382SOL     OW26044   0.878   0.541   2.005
 8382SOL    HW126045   0.884   0.446   2.037
 8382SOL    HW226046   0.783   0.571   2.008
 8383SOL     OW26047   2.609   6.895   4.760
 8383SOL    HW126048   2.516   6.879   4.794
 8383SOL    HW226049   2.619   6.990   4.732
 8384SOL     OW26050   0.844   3.708   3.918
 8384SOL    HW126051   0.846   3.655   4.003
 8384SOL    HW226052   0.935   3.747   3.901
 8385SOL     OW26053   3.558   1.989   1.313
 8385SOL    HW126054   3.529   2.056   1.380
 8385SOL    HW226055   3.583   1.904   1.359
 8386SOL     OW26056   6.278   5.572   2.595
 8386SOL    HW126057   6.326   5.572   2.683
 8386SOL    HW226058   6.180   5.587   2.610
 8387SOL     OW26059   0.664   2.105   3.828
 8387SOL    HW126060   0.572   2.110   3.790
 8387SOL    HW226061   0.678   2.015   3.869
 8388SOL     OW26062   3.534   5.928   1.159
 8388SOL    HW126063   3.445   5.893   1.187
 8388SOL    HW226064   3.604   5.896   1.223
 8389SOL     OW26065   0.736   2.999   4.745
 8389SOL    HW126066   0.699   2.966   4.832
 8389SOL    HW226067   0.692   3.086   4.722
 8390SOL     OW26068   1.370   6.545   6.914
 8390SOL    HW126069   1.324   6.503   6.836
 8390SOL    HW226070   1.464   6.510   6.921
 8391SOL     OW26071   5.099   6.410   1.118
 8391SOL    HW126072   5.061   6.318   1.129
 8391SOL    HW226073   5.194   6.403   1.088
 8392SOL     OW26074   3.343   5.822   0.118
 8392SOL    HW126075   3.322   5.870   0.033
 8392SOL    HW226076   3.260   5.816   0.174
 8393SOL     OW26077   1.228   6.495   2.167
 8393SOL    HW126078   1.234   6.397   2.148
 8393SOL    HW226079   1.318   6.537   2.156
 8394SOL     OW26080   1.837   1.641   4.265
 8394SOL    HW126081   1.902   1.630   4.190
 8394SOL    HW226082   1.828   1.554   4.313
 8395SOL     OW26083   2.142   6.126   0.050
 8395SOL    HW126084   2.194   6.159   0.129
 8395SOL    HW226085   2.053   6.171   0.047
 8396SOL     OW26086   4.745   2.088   0.336
 8396SOL    HW126087   4.686   2.063   0.259
 8396SOL    HW226088   4.711   2.172   0.377
 8397SOL     OW26089   0.636   4.417   3.804
 8397SOL    HW126090   0.566   4.363   3.758
 8397SOL    HW226091   0.624   4.514   3.781
 8398SOL     OW26092   5.526   2.188   6.597
 8398SOL    HW126093   5.587   2.220   6.670
 8398SOL    HW226094   5.579   2.134   6.531
 8399SOL     OW26095   5.433   6.993   5.213
 8399SOL    HW126096   5.379   6.909   5.202
 8399SOL    HW226097   5.412   0.031   5.139
 8400SOL     OW26098   5.668   5.847   3.239
 8400SOL    HW126099   5.743   5.824   3.300
 8400SOL    HW226100   5.634   5.764   3.194
 8401SOL     OW26101   1.946   3.645   5.014
 8401SOL    HW126102   1.916   3.558   5.053
 8401SOL    HW226103   1.929   3.646   4.916
 8402SOL     OW26104   4.954   0.987   4.105
 8402SOL    HW126105   4.989   1.081   4.099
 8402SOL    HW226106   4.967   0.953   4.198
 8403SOL     OW26107   0.978   2.021   5.975
 8403SOL    HW126108   1.057   2.031   5.914
 8403SOL    HW226109   0.993   1.945   6.037
 8404SOL     OW26110   4.865   5.179   5.627
 8404SOL    HW126111   4.912   5.221   5.705
 8404SOL    HW226112   4.932   5.153   5.558
 8405SOL     OW26113   0.334   3.333   6.299
 8405SOL    HW126114   0.303   3.336   6.204
 8405SOL    HW226115   0.261   3.364   6.360
 8406SOL     OW26116   5.671   3.998   1.941
 8406SOL    HW126117   5.749   4.050   1.977
 8406SOL    HW226118   5.594   4.006   2.004
 8407SOL     OW26119   5.501   3.908   1.737
 8407SOL    HW126120   5.575   3.922   1.803
 8407SOL    HW226121   5.478   3.811   1.733
 8408SOL     OW26122   5.571   3.973   4.598
 8408SOL    HW126123   5.652   4.030   4.613
 8408SOL    HW226124   5.569   3.900   4.667
 8409SOL     OW26125   0.888   2.088   3.663
 8409SOL    HW126126   0.866   2.061   3.569
 8409SOL    HW226127   0.810   2.133   3.704
 8410SOL     OW26128   1.294   5.485   1.890
 8410SOL    HW126129   1.314   5.407   1.830
 8410SOL    HW226130   1.206   5.471   1.935
 8411SOL     OW26131   2.136   3.515   2.859
 8411SOL    HW126132   2.209   3.538   2.796
 8411SOL    HW226133   2.074   3.450   2.816
 8412SOL     OW26134   5.680   2.842   2.616
 8412SOL    HW126135   5.704   2.766   2.677
 8412SOL    HW226136   5.605   2.894   2.657
 8413SOL     OW26137   1.730   5.291   1.960
 8413SOL    HW126138   1.707   5.268   2.054
 8413SOL    HW226139   1.768   5.210   1.915
 8414SOL     OW26140   6.841   0.207   3.721
 8414SOL    HW126141   6.819   0.296   3.682
 8414SOL    HW226142   6.924   0.215   3.777
 8415SOL     OW26143   0.426   4.728   1.325
 8415SOL    HW126144   0.430   4.666   1.403
 8415SOL    HW226145   0.519   4.753   1.298
 8416SOL     OW26146   4.010   4.762   2.720
 8416SOL    HW126147   4.092   4.711   2.747
 8416SOL    HW226148   3.993   4.750   2.623
 8417SOL     OW26149   0.830   5.480   0.046
 8417SOL    HW126150   0.842   5.536   6.989
 8417SOL    HW226151   0.733   5.458   0.057
 8418SOL     OW26152   5.632   6.426   3.269
 8418SOL    HW126153   5.708   6.489   3.250
 8418SOL    HW226154   5.667   6.349   3.323
 8419SOL     OW26155   2.342   1.648   3.432
 8419SOL    HW126156   2.377   1.710   3.362
 8419SOL    HW226157   2.384   1.558   3.420
 8420SOL     OW26158   4.992   1.308   5.655
 8420SOL    HW126159   4.901   1.340   5.628
 8420SOL    HW226160   5.012   1.223   5.606
 8421SOL     OW26161   6.919   1.357   1.493
 8421SOL    HW126162   6.840   1.399   1.448
 8421SOL    HW226163   6.895   1.336   1.588
 8422SOL     OW26164   2.784   0.919   1.050
 8422SOL    HW126165   2.749   0.911   0.956
 8422SOL    HW226166   2.715   0.962   1.108
 8423SOL     OW26167   1.481   4.723   2.037
 8423SOL    HW126168   1.538   4.805   2.038
 8423SOL    HW226169   1.396   4.742   1.989
 8424SOL     OW26170   2.630   2.380   2.236
 8424SOL    HW126171   2.709   2.346   2.185
 8424SOL    HW226172   2.639   2.356   2.332
 8425SOL     OW26173   0.181   5.688   5.712
 8425SOL    HW126174   0.138   5.655   5.628
 8425SOL    HW226175   0.113   5.690   5.786
 8426SOL     OW26176   3.655   4.065   3.398
 8426SOL    HW126177   3.621   3.974   3.372
 8426SOL    HW226178   3.726   4.093   3.333
 8427SOL     OW26179   2.356   0.884   6.809
 8427SOL    HW126180   2.356   0.935   6.895
 8427SOL    HW226181   2.268   0.841   6.795
 8428SOL     OW26182   0.104   2.695   1.863
 8428SOL    HW126183   0.198   2.727   1.876
 8428SOL    HW226184   0.062   2.675   1.951
 8429SOL     OW26185   1.379   6.679   3.035
 8429SOL    HW126186   1.413   6.660   3.127
 8429SOL    HW226187   1.373   6.593   2.983
 8430SOL     OW26188   3.503   6.221   3.621
 8430SOL    HW126189   3.487   6.125   3.645
 8430SOL    HW226190   3.489   6.278   3.701
 8431SOL     OW26191   3.483   3.423   3.186
 8431SOL    HW126192   3.436   3.457   3.104
 8431SOL    HW226193   3.426   3.440   3.267
 8432SOL     OW26194   3.967   5.662   0.006
 8432SOL    HW126195   4.034   5.609   6.979
 8432SOL    HW226196   3.913   5.718   6.968
 8433SOL     OW26197   6.405   1.933   3.541
 8433SOL    HW126198   6.367   1.844   3.569
 8433SOL    HW226199   6.431   1.929   3.445
 8434SOL     OW26200   5.321   6.465   6.756
 8434SOL    HW126201   5.275   6.386   6.715
 8434SOL    HW226202   5.270   6.495   6.836
 8435SOL     OW26203   5.008   3.585   0.566
 8435SOL    HW126204   5.054   3.662   0.523
 8435SOL    HW226205   5.076   3.520   0.599
 8436SOL     OW26206   3.225   4.362   1.305
 8436SOL    HW126207   3.308   4.400   1.346
 8436SOL    HW226208   3.151   4.430   1.309
 8437SOL     OW26209   0.291   3.130   0.774
 8437SOL    HW126210   0.194   3.117   0.794
 8437SOL    HW226211   0.309   3.108   0.678
 8438SOL     OW26212   2.701   5.845   1.629
 8438SOL    HW126213   2.777   5.909   1.643
 8438SOL    HW226214   2.632   5.859   1.699
 8439SOL     OW26215   5.414   0.785   2.104
 8439SOL    HW126216   5.456   0.697   2.087
 8439SOL    HW226217   5.315   0.778   2.088
 8440SOL     OW26218   1.390   4.149   3.419
 8440SOL    HW126219   1.425   4.220   3.358
 8440SOL    HW226220   1.422   4.166   3.512
 8441SOL     OW26221   4.404   5.922   0.939
 8441SOL    HW126222   4.321   5.882   0.978
 8441SOL    HW226223   4.482   5.902   0.999
 8442SOL     OW26224   2.861   3.059   0.559
 8442SOL    HW126225   2.880   3.039   0.463
 8442SOL    HW226226   2.862   2.974   0.612
 8443SOL     OW26227   6.793   2.734   0.315
 8443SOL    HW126228   6.773   2.716   0.219
 8443SOL    HW226229   6.787   2.833   0.332
 8444SOL     OW26230   5.508   2.519   2.791
 8444SOL    HW126231   5.461   2.591   2.841
 8444SOL    HW226232   5.603   2.514   2.821
 8445SOL     OW26233   3.335   5.272   3.480
 8445SOL    HW126234   3.365   5.178   3.492
 8445SOL    HW226235   3.373   5.308   3.394
 8446SOL     OW26236   5.809   3.871   3.092
 8446SOL    HW126237   5.729   3.912   3.137
 8446SOL    HW226238   5.779   3.795   3.034
 8447SOL     OW26239   5.560   4.888   0.714
 8447SOL    HW126240   5.549   4.926   0.622
 8447SOL    HW226241   5.572   4.962   0.779
 8448SOL     OW26242   1.362   4.758   5.497
 8448SOL    HW126243   1.341   4.793   5.588
 8448SOL    HW226244   1.381   4.660   5.502
 8449SOL     OW26245   2.047   1.210   5.781
 8449SOL    HW126246   1.978   1.267   5.736
 8449SOL    HW226247   2.138   1.251   5.767
 8450SOL     OW26248   1.846   5.923   0.797
 8450SOL    HW126249   1.875   6.018   0.802
 8450SOL    HW226250   1.836   5.896   0.701
 8451SOL     OW26251   2.738   4.350   1.588
 8451SOL    HW126252   2.833   4.323   1.602
 8451SOL    HW226253   2.729   4.449   1.599
 8452SOL     OW26254   0.073   5.501   2.838
 8452SOL    HW126255   0.108   5.594   2.823
 8452SOL    HW226256   6.999   5.501   2.825
 8453SOL     OW26257   0.837   4.077   5.367
 8453SOL    HW126258   0.837   4.177   5.364
 8453SOL    HW226259   0.929   4.044   5.387
 8454SOL     OW26260   2.300   0.176   6.281
 8454SOL    HW126261   2.281   0.235   6.203
 8454SOL    HW226262   2.238   0.199   6.356
 8455SOL     OW26263   6.236   2.193   0.017
 8455SOL    HW126264   6.203   2.169   0.109
 8455SOL    HW226265   6.273   2.112   6.998
 8456SOL     OW26266   5.959   4.716   3.498
 8456SOL    HW126267   5.894   4.647   3.464
 8456SOL    HW226268   5.969   4.789   3.430
 8457SOL     OW26269   5.658   6.122   6.297
 8457SOL    HW126270   5.573   6.167   6.271
 8457SOL    HW226271   5.733   6.189   6.297
 8458SOL     OW26272   1.220   1.200   1.507
 8458SOL    HW126273   1.253   1.267   1.441
 8458SOL    HW226274   1.120   1.209   1.516
 8459SOL     OW26275   1.965   4.868   2.965
 8459SOL    HW126276   1.897   4.797   2.948
 8459SOL    HW226277   1.975   4.882   3.064
 8460SOL     OW26278   3.306   1.260   1.018
 8460SOL    HW126279   3.232   1.246   1.084
 8460SOL    HW226280   3.385   1.204   1.044
 8461SOL     OW26281   5.233   4.785   3.166
 8461SOL    HW126282   5.148   4.763   3.215
 8461SOL    HW226283   5.249   4.884   3.170
 8462SOL     OW26284   1.994   3.275   0.256
 8462SOL    HW126285   2.073   3.257   0.314
 8462SOL    HW226286   1.940   3.349   0.296
 8463SOL     OW26287   0.589   6.388   2.333
 8463SOL    HW126288   0.625   6.320   2.398
 8463SOL    HW226289   0.517   6.346   2.277
 8464SOL     OW26290   6.748   3.009   6.748
 8464SOL    HW126291   6.817   3.081   6.747
 8464SOL    HW226292   6.659   3.048   6.771
 8465SOL     OW26293   5.925   4.008   0.758
 8465SOL    HW126294   5.949   4.073   0.830
 8465SOL    HW226295   5.865   4.053   0.692
 8466SOL     OW26296   0.402   1.816   4.754
 8466SOL    HW126297   0.466   1.875   4.704
 8466SOL    HW226298   0.385   1.733   4.701
 8467SOL     OW26299   3.438   0.583   0.663
 8467SOL    HW126300   3.466   0.598   0.567
 8467SOL    HW226301   3.386   0.662   0.695
 8468SOL     OW26302   0.004   3.584   2.036
 8468SOL    HW126303   0.059   3.501   2.038
 8468SOL    HW226304   6.968   3.586   2.116
 8469SOL     OW26305   3.342   3.004   5.710
 8469SOL    HW126306   3.433   2.963   5.715
 8469SOL    HW226307   3.341   3.074   5.639
 8470SOL     OW26308   1.765   5.166   0.490
 8470SOL    HW126309   1.749   5.094   0.422
 8470SOL    HW226310   1.681   5.184   0.540
 8471SOL     OW26311   3.456   1.787   3.948
 8471SOL    HW126312   3.359   1.810   3.950
 8471SOL    HW226313   3.469   1.701   3.899
 8472SOL     OW26314   6.308   1.621   6.642
 8472SOL    HW126315   6.296   1.656   6.735
 8472SOL    HW226316   6.338   1.526   6.646
 8473SOL     OW26317   4.696   5.060   5.844
 8473SOL    HW126318   4.775   5.077   5.784
 8473SOL    HW226319   4.724   5.003   5.921
 8474SOL     OW26320   3.068   4.259   6.798
 8474SOL    HW126321   3.115   4.174   6.823
 8474SOL    HW226322   2.971   4.239   6.784
 8475SOL     OW26323   0.596   1.904   3.014
 8475SOL    HW126324   0.595   1.807   2.991
 8475SOL    HW226325   0.556   1.917   3.105
 8476SOL     OW26326   6.682   0.508   2.518
 8476SOL    HW126327   6.771   0.519   2.563
 8476SOL    HW226328   6.695   0.501   2.420
 8477SOL     OW26329   6.464   0.434   0.885
 8477SOL    HW126330   6.481   0.359   0.948
 8477SOL    HW226331   6.544   0.494   0.882
 8478SOL     OW26332   2.139   6.595   0.055
 8478SOL    HW126333   2.078   6.674   0.062
 8478SOL    HW226334   2.159   6.578   6.983
 8479SOL     OW26335   1.690   1.722   0.229
 8479SOL    HW126336   1.679   1.743   0.131
 8479SOL    HW226337   1.611   1.756   0.279
 8480SOL     OW26338   3.183   4.477   1.627
 8480SOL    HW126339   3.158   4.498   1.532
 8480SOL    HW226340   3.177   4.561   1.682
 8481SOL     OW26341   5.673   3.317   1.577
 8481SOL    HW126342   5.670   3.386   1.649
 8481SOL    HW226343   5.583   3.306   1.536
 8482SOL     OW26344   5.222   0.106   5.357
 8482SOL    HW126345   5.137   0.097   5.305
 8482SOL    HW226346   5.275   0.021   5.348
 8483SOL     OW26347   4.595   5.259   3.800
 8483SOL    HW126348   4.536   5.252   3.881
 8483SOL    HW226349   4.691   5.252   3.828
 8484SOL     OW26350   5.959   6.792   5.340
 8484SOL    HW126351   5.876   6.781   5.284
 8484SOL    HW226352   5.939   6.853   5.417
 8485SOL     OW26353   3.373   0.682   5.798
 8485SOL    HW126354   3.337   0.767   5.759
 8485SOL    HW226355   3.379   0.691   5.897
 8486SOL     OW26356   5.035   2.447   4.539
 8486SOL    HW126357   5.067   2.488   4.453
 8486SOL    HW226358   4.962   2.502   4.578
 8487SOL     OW26359   1.152   1.675   5.433
 8487SOL    HW126360   1.177   1.615   5.509
 8487SOL    HW226361   1.190   1.638   5.348
 8488SOL     OW26362   4.048   5.648   3.268
 8488SOL    HW126363   4.090   5.585   3.204
 8488SOL    HW226364   3.962   5.683   3.230
 8489SOL     OW26365   6.259   2.273   1.775
 8489SOL    HW126366   6.333   2.338   1.756
 8489SOL    HW226367   6.272   2.191   1.718
 8490SOL     OW26368   4.379   0.471   0.140
 8490SOL    HW126369   4.378   0.544   0.209
 8490SOL    HW226370   4.382   0.382   0.186
 8491SOL     OW26371   3.261   6.264   1.623
 8491SOL    HW126372   3.295   6.209   1.699
 8491SOL    HW226373   3.339   6.300   1.571
 8492SOL     OW26374   6.214   6.952   3.944
 8492SOL    HW126375   6.309   6.977   3.965
 8492SOL    HW226376   6.153   7.017   3.989
 8493SOL     OW26377   5.011   0.106   5.177
 8493SOL    HW126378   4.917   0.117   5.147
 8493SOL    HW226379   5.067   0.181   5.141
 8494SOL     OW26380   0.394   3.277   1.924
 8494SOL    HW126381   0.396   3.369   1.963
 8494SOL    HW226382   0.466   3.268   1.856
 8495SOL     OW26383   3.964   5.676   4.623
 8495SOL    HW126384   3.972   5.775   4.611
 8495SOL    HW226385   3.927   5.635   4.540
 8496SOL     OW26386   4.186   2.167   2.093
 8496SOL    HW126387   4.101   2.120   2.070
 8496SOL    HW226388   4.194   2.175   2.192
 8497SOL     OW26389   5.857   1.238   3.302
 8497SOL    HW126390   5.769   1.195   3.321
 8497SOL    HW226391   5.853   1.289   3.216
 8498SOL     OW26392   6.153   6.098   5.556
 8498SOL    HW126393   6.150   6.064   5.650
 8498SOL    HW226394   6.063   6.133   5.530
 8499SOL     OW26395   6.591   6.834   6.147
 8499SOL    HW126396   6.557   6.908   6.205
 8499SOL    HW226397   6.519   6.805   6.083
 8500SOL     OW26398   0.383   0.450   5.501
 8500SOL    HW126399   0.401   0.511   5.423
 8500SOL    HW226400   0.295   0.472   5.541
 8501SOL     OW26401   3.790   6.932   4.423
 8501SOL    HW126402   3.799   6.832   4.419
 8501SOL    HW226403   3.763   6.966   4.333
 8502SOL     OW26404   0.005   2.692   0.483
 8502SOL    HW126405   6.953   2.683   0.420
 8502SOL    HW226406   0.090   2.690   0.431
 8503SOL     OW26407   4.633   2.507   5.924
 8503SOL    HW126408   4.543   2.500   5.882
 8503SOL    HW226409   4.703   2.522   5.854
 8504SOL     OW26410   1.599   1.128   3.219
 8504SOL    HW126411   1.650   1.129   3.304
 8504SOL    HW226412   1.582   1.221   3.187
 8505SOL     OW26413   6.281   1.554   2.549
 8505SOL    HW126414   6.202   1.512   2.505
 8505SOL    HW226415   6.249   1.619   2.619
 8506SOL     OW26416   2.369   1.052   4.349
 8506SOL    HW126417   2.287   1.073   4.402
 8506SOL    HW226418   2.352   0.972   4.292
 8507SOL     OW26419   4.225   5.625   0.117
 8507SOL    HW126420   4.188   5.547   0.168
 8507SOL    HW226421   4.150   5.681   0.083
 8508SOL     OW26422   2.556   1.229   6.248
 8508SOL    HW126423   2.548   1.138   6.289
 8508SOL    HW226424   2.614   1.286   6.307
 8509SOL     OW26425   4.126   1.660   2.152
 8509SOL    HW126426   4.053   1.663   2.220
 8509SOL    HW226427   4.214   1.646   2.198
 8510SOL     OW26428   0.738   2.626   5.617
 8510SOL    HW126429   0.822   2.584   5.652
 8510SOL    HW226430   0.762   2.691   5.544
 8511SOL     OW26431   6.031   1.998   3.394
 8511SOL    HW126432   6.052   1.912   3.441
 8511SOL    HW226433   5.982   2.059   3.457
 8512SOL     OW26434   2.704   6.970   6.236
 8512SOL    HW126435   2.716   6.874   6.261
 8512SOL    HW226436   2.791   7.017   6.245
 8513SOL     OW26437   3.602   6.405   6.934
 8513SOL    HW126438   3.512   6.390   6.973
 8513SOL    HW226439   3.665   6.435   7.005
 8514SOL     OW26440   4.652   5.714   4.385
 8514SOL    HW126441   4.662   5.621   4.350
 8514SOL    HW226442   4.619   5.774   4.312
 8515SOL     OW26443   5.377   2.844   2.037
 8515SOL    HW126444   5.436   2.923   2.023
 8515SOL    HW226445   5.287   2.876   2.069
 8516SOL     OW26446   0.105   2.836   1.540
 8516SOL    HW126447   0.093   2.860   1.636
 8516SOL    HW226448   0.191   2.788   1.527
 8517SOL     OW26449   0.781   3.726   4.637
 8517SOL    HW126450   0.767   3.722   4.736
 8517SOL    HW226451   0.875   3.702   4.615
 8518SOL     OW26452   3.269   5.465   1.521
 8518SOL    HW126453   3.317   5.500   1.602
 8518SOL    HW226454   3.195   5.406   1.550
 8519SOL     OW26455   3.058   6.130   3.086
 8519SOL    HW126456   3.095   6.164   3.173
 8519SOL    HW226457   3.051   6.206   3.021
 8520SOL     OW26458   3.674   5.457   6.601
 8520SOL    HW126459   3.742   5.476   6.531
 8520SOL    HW226460   3.705   5.494   6.689
 8521SOL     OW26461   0.435   0.987   4.083
 8521SOL    HW126462   0.467   1.047   4.009
 8521SOL    HW226463   0.502   0.913   4.097
 8522SOL     OW26464   2.950   6.134   4.877
 8522SOL    HW126465   2.867   6.174   4.915
 8522SOL    HW226466   2.927   6.071   4.803
 8523SOL     OW26467   1.992   5.315   0.162
 8523SOL    HW126468   2.048   5.233   0.145
 8523SOL    HW226469   2.024   5.390   0.104
 8524SOL     OW26470   2.084   1.075   6.215
 8524SOL    HW126471   2.149   1.137   6.171
 8524SOL    HW226472   2.124   1.040   6.300
 8525SOL     OW26473   6.077   3.723   5.073
 8525SOL    HW126474   6.154   3.672   5.110
 8525SOL    HW226475   6.050   3.794   5.139
 8526SOL     OW26476   6.790   2.818   1.394
 8526SOL    HW126477   6.722   2.850   1.329
 8526SOL    HW226478   6.790   2.877   1.474
 8527SOL     OW26479   4.645   1.182   4.782
 8527SOL    HW126480   4.635   1.212   4.877
 8527SOL    HW226481   4.574   1.115   4.761
 8528SOL     OW26482   6.328   6.634   0.305
 8528SOL    HW126483   6.296   6.556   0.360
 8528SOL    HW226484   6.367   6.600   0.219
 8529SOL     OW26485   0.009   1.534   4.447
 8529SOL    HW126486   6.947   1.487   4.431
 8529SOL    HW226487   0.022   1.605   4.378
 8530SOL     OW26488   1.344   5.858   5.332
 8530SOL    HW126489   1.385   5.794   5.399
 8530SOL    HW226490   1.284   5.807   5.271
 8531SOL     OW26491   2.979   5.445   3.216
 8531SOL    HW126492   2.903   5.462   3.154
 8531SOL    HW226493   2.946   5.444   3.310
 8532SOL     OW26494   1.339   2.963   6.826
 8532SOL    HW126495   1.242   2.970   6.848
 8532SOL    HW226496   1.356   3.003   6.737
 8533SOL     OW26497   2.916   0.391   6.952
 8533SOL    HW126498   2.906   0.484   6.918
 8533SOL    HW226499   2.969   0.337   6.886
 8534SOL     OW26500   3.338   2.492   0.950
 8534SOL    HW126501   3.396   2.413   0.930
 8534SOL    HW226502   3.394   2.575   0.953
 8535SOL     OW26503   0.079   2.247   5.193
 8535SOL    HW126504   0.092   2.346   5.183
 8535SOL    HW226505   7.008   2.224   5.178
 8536SOL     OW26506   6.346   0.265   6.191
 8536SOL    HW126507   6.416   0.336   6.189
 8536SOL    HW226508   6.338   0.223   6.100
 8537SOL     OW26509   3.266   6.264   3.466
 8537SOL    HW126510   3.357   6.283   3.505
 8537SOL    HW226511   3.209   6.221   3.536
 8538SOL     OW26512   3.844   1.804   5.198
 8538SOL    HW126513   3.887   1.714   5.203
 8538SOL    HW226514   3.754   1.800   5.243
 8539SOL     OW26515   0.535   2.879   2.803
 8539SOL    HW126516   0.550   2.962   2.749
 8539SOL    HW226517   0.439   2.852   2.797
 8540SOL     OW26518   4.447   6.114   5.851
 8540SOL    HW126519   4.501   6.147   5.773
 8540SOL    HW226520   4.350   6.119   5.828
 8541SOL     OW26521   3.635   6.186   5.663
 8541SOL    HW126522   3.621   6.243   5.744
 8541SOL    HW226523   3.578   6.219   5.588
 8542SOL     OW26524   1.775   4.955   4.313
 8542SOL    HW126525   1.713   5.010   4.369
 8542SOL    HW226526   1.868   4.990   4.322
 8543SOL     OW26527   3.618   1.852   5.662
 8543SOL    HW126528   3.600   1.950   5.649
 8543SOL    HW226529   3.560   1.800   5.599
 8544SOL     OW26530   4.715   4.077   5.523
 8544SOL    HW126531   4.807   4.039   5.527
 8544SOL    HW226532   4.670   4.065   5.612
 8545SOL     OW26533   2.131   0.746   6.779
 8545SOL    HW126534   2.112   0.747   6.681
 8545SOL    HW226535   2.157   0.653   6.807
 8546SOL     OW26536   2.898   1.550   4.184
 8546SOL    HW126537   2.895   1.481   4.256
 8546SOL    HW226538   2.823   1.535   4.120
 8547SOL     OW26539   5.675   4.770   5.871
 8547SOL    HW126540   5.596   4.801   5.819
 8547SOL    HW226541   5.674   4.812   5.962
 8548SOL     OW26542   1.646   4.080   3.595
 8548SOL    HW126543   1.709   4.047   3.666
 8548SOL    HW226544   1.585   4.007   3.568
 8549SOL     OW26545   2.794   0.164   3.523
 8549SOL    HW126546   2.883   0.164   3.477
 8549SOL    HW226547   2.760   0.070   3.531
 8550SOL     OW26548   0.095   3.598   5.165
 8550SOL    HW126549   0.038   3.561   5.092
 8550SOL    HW226550   0.141   3.523   5.213
 8551SOL     OW26551   3.408   2.137   4.400
 8551SOL    HW126552   3.326   2.149   4.457
 8551SOL    HW226553   3.382   2.115   4.307
 8552SOL     OW26554   4.140   1.468   1.933
 8552SOL    HW126555   4.083   1.543   1.966
 8552SOL    HW226556   4.227   1.504   1.900
 8553SOL     OW26557   6.037   2.290   0.423
 8553SOL    HW126558   6.110   2.277   0.490
 8553SOL    HW226559   5.984   2.205   0.414
 8554SOL     OW26560   0.274   1.020   6.216
 8554SOL    HW126561   0.329   1.044   6.136
 8554SOL    HW226562   0.217   0.941   6.194
 8555SOL     OW26563   3.517   1.283   4.200
 8555SOL    HW126564   3.540   1.208   4.262
 8555SOL    HW226565   3.502   1.367   4.252
 8556SOL     OW26566   1.294   3.623   6.872
 8556SOL    HW126567   1.333   3.593   6.785
 8556SOL    HW226568   1.215   3.566   6.895
 8557SOL     OW26569   6.200   6.758   0.734
 8557SOL    HW126570   6.209   6.819   0.812
 8557SOL    HW226571   6.179   6.812   0.652
 8558SOL     OW26572   1.828   6.181   4.044
 8558SOL    HW126573   1.834   6.275   4.011
 8558SOL    HW226574   1.760   6.131   3.989
 8559SOL     OW26575   1.491   2.201   2.650
 8559SOL    HW126576   1.502   2.189   2.748
 8559SOL    HW226577   1.545   2.131   2.602
 8560SOL     OW26578   3.290   4.692   1.743
 8560SOL    HW126579   3.292   4.676   1.842
 8560SOL    HW226580   3.376   4.734   1.714
 8561SOL     OW26581   3.701   1.213   2.432
 8561SOL    HW126582   3.623   1.260   2.471
 8561SOL    HW226583   3.725   1.254   2.344
 8562SOL     OW26584   6.038   4.102   5.895
 8562SOL    HW126585   6.098   4.181   5.877
 8562SOL    HW226586   5.988   4.118   5.980
 8563SOL     OW26587   0.397   4.030   3.792
 8563SOL    HW126588   0.495   4.013   3.800
 8563SOL    HW226589   0.382   4.125   3.763
 8564SOL     OW26590   4.007   6.654   6.757
 8564SOL    HW126591   4.038   6.561   6.740
 8564SOL    HW226592   4.037   6.713   6.682
 8565SOL     OW26593   1.489   4.897   1.121
 8565SOL    HW126594   1.475   4.867   1.215
 8565SOL    HW226595   1.572   4.952   1.115
 8566SOL     OW26596   2.714   1.052   3.714
 8566SOL    HW126597   2.618   1.049   3.742
 8566SOL    HW226598   2.769   1.091   3.788
 8567SOL     OW26599   1.597   2.597   0.034
 8567SOL    HW126600   1.574   2.617   0.129
 8567SOL    HW226601   1.575   2.501   0.015
 8568SOL     OW26602   6.059   0.209   5.739
 8568SOL    HW126603   6.120   0.279   5.703
 8568SOL    HW226604   6.036   0.143   5.667
 8569SOL     OW26605   4.505   1.933   5.982
 8569SOL    HW126606   4.495   1.853   6.042
 8569SOL    HW226607   4.601   1.946   5.960
 8570SOL     OW26608   1.189   1.944   4.299
 8570SOL    HW126609   1.123   1.872   4.320
 8570SOL    HW226610   1.261   1.907   4.240
 8571SOL     OW26611   1.283   0.757   3.289
 8571SOL    HW126612   1.332   0.834   3.250
 8571SOL    HW226613   1.245   0.701   3.214
 8572SOL     OW26614   2.824   3.092   6.510
 8572SOL    HW126615   2.793   3.007   6.470
 8572SOL    HW226616   2.769   3.114   6.591
 8573SOL     OW26617   2.037   6.413   5.202
 8573SOL    HW126618   2.122   6.451   5.238
 8573SOL    HW226619   2.005   6.470   5.126
 8574SOL     OW26620   6.380   2.456   5.964
 8574SOL    HW126621   6.350   2.551   5.955
 8574SOL    HW226622   6.367   2.409   5.877
 8575SOL     OW26623   1.565   6.527   4.423
 8575SOL    HW126624   1.596   6.471   4.346
 8575SOL    HW226625   1.617   6.504   4.505
 8576SOL     OW26626   1.327   4.228   4.305
 8576SOL    HW126627   1.279   4.157   4.356
 8576SOL    HW226628   1.329   4.312   4.359
 8577SOL     OW26629   1.609   1.123   1.688
 8577SOL    HW126630   1.580   1.080   1.602
 8577SOL    HW226631   1.544   1.195   1.712
 8578SOL     OW26632   1.839   0.655   6.403
 8578SOL    HW126633   1.766   0.709   6.361
 8578SOL    HW226634   1.894   0.612   6.332
 8579SOL     OW26635   2.758   6.808   3.196
 8579SOL    HW126636   2.676   6.830   3.250
 8579SOL    HW226637   2.781   6.886   3.139
 8580SOL     OW26638   1.113   6.987   1.879
 8580SOL    HW126639   1.120   6.904   1.935
 8580SOL    HW226640   1.033   0.015   1.908
 8581SOL     OW26641   4.023   3.098   3.904
 8581SOL    HW126642   4.024   3.044   3.988
 8581SOL    HW226643   4.107   3.081   3.852
 8582SOL     OW26644   5.585   5.084   0.213
 8582SOL    HW126645   5.640   5.106   0.132
 8582SOL    HW226646   5.497   5.046   0.183
 8583SOL     OW26647   3.636   6.830   2.005
 8583SOL    HW126648   3.711   6.828   1.939
 8583SOL    HW226649   3.674   6.829   2.098
 8584SOL     OW26650   6.279   2.740   6.590
 8584SOL    HW126651   6.355   2.804   6.575
 8584SOL    HW226652   6.304   2.650   6.554
 8585SOL     OW26653   5.300   2.917   2.561
 8585SOL    HW126654   5.209   2.925   2.603
 8585SOL    HW226655   5.299   2.844   2.493
 8586SOL     OW26656   6.066   6.598   5.779
 8586SOL    HW126657   6.056   6.545   5.863
 8586SOL    HW226658   6.109   6.541   5.709
 8587SOL     OW26659   5.811   7.013   1.059
 8587SOL    HW126660   5.840   6.920   1.080
 8587SOL    HW226661   5.820   0.004   0.961
 8588SOL     OW26662   1.695   2.757   5.699
 8588SOL    HW126663   1.739   2.683   5.647
 8588SOL    HW226664   1.598   2.737   5.710
 8589SOL     OW26665   6.268   3.384   6.346
 8589SOL    HW126666   6.191   3.429   6.391
 8589SOL    HW226667   6.297   3.306   6.401
 8590SOL     OW26668   1.016   1.262   2.622
 8590SOL    HW126669   1.039   1.231   2.530
 8590SOL    HW226670   1.001   1.361   2.621
 8591SOL     OW26671   1.020   4.650   6.390
 8591SOL    HW126672   0.948   4.713   6.361
 8591SOL    HW226673   1.004   4.560   6.351
 8592SOL     OW26674   0.056   1.933   4.766
 8592SOL    HW126675   6.998   1.883   4.790
 8592SOL    HW226676   0.087   1.987   4.845
 8593SOL     OW26677   0.407   0.855   0.328
 8593SOL    HW126678   0.437   0.950   0.327
 8593SOL    HW226679   0.399   0.823   0.423
 8594SOL     OW26680   5.817   2.696   0.207
 8594SOL    HW126681   5.866   2.690   0.294
 8594SOL    HW226682   5.792   2.604   0.177
 8595SOL     OW26683   5.601   6.754   1.659
 8595SOL    HW126684   5.520   6.794   1.702
 8595SOL    HW226685   5.682   6.774   1.714
 8596SOL     OW26686   0.444   2.838   5.504
 8596SOL    HW126687   0.445   2.813   5.408
 8596SOL    HW226688   0.472   2.760   5.560
 8597SOL     OW26689   6.089   3.335   6.077
 8597SOL    HW126690   6.004   3.285   6.095
 8597SOL    HW226691   6.119   3.380   6.162
 8598SOL     OW26692   6.713   6.923   5.672
 8598SOL    HW126693   6.777   6.961   5.739
 8598SOL    HW226694   6.702   6.825   5.688
 8599SOL     OW26695   6.375   4.513   5.787
 8599SOL    HW126696   6.391   4.593   5.845
 8599SOL    HW226697   6.387   4.539   5.691
 8600SOL     OW26698   3.679   3.005   1.890
 8600SOL    HW126699   3.627   2.921   1.907
 8600SOL    HW226700   3.742   3.021   1.966
 8601SOL     OW26701   4.734   4.575   1.354
 8601SOL    HW126702   4.816   4.553   1.407
 8601SOL    HW226703   4.753   4.654   1.295
 8602SOL     OW26704   2.492   6.254   5.498
 8602SOL    HW126705   2.570   6.284   5.552
 8602SOL    HW226706   2.407   6.270   5.549
 8603SOL     OW26707   0.321   1.276   6.334
 8603SOL    HW126708   0.311   1.184   6.296
 8603SOL    HW226709   0.244   1.295   6.395
 8604SOL     OW26710   1.793   5.914   6.142
 8604SOL    HW126711   1.852   5.992   6.164
 8604SOL    HW226712   1.716   5.913   6.205
 8605SOL     OW26713   0.425   4.983   4.435
 8605SOL    HW126714   0.336   4.954   4.399
 8605SOL    HW226715   0.497   4.933   4.388
 8606SOL     OW26716   0.069   0.378   6.487
 8606SOL    HW126717   0.087   0.347   6.394
 8606SOL    HW226718   0.073   0.478   6.490
 8607SOL     OW26719   2.866   2.200   1.786
 8607SOL    HW126720   2.856   2.292   1.823
 8607SOL    HW226721   2.777   2.154   1.788
 8608SOL     OW26722   1.501   5.581   2.067
 8608SOL    HW126723   1.527   5.501   2.121
 8608SOL    HW226724   1.409   5.567   2.030
 8609SOL     OW26725   5.482   2.377   4.358
 8609SOL    HW126726   5.572   2.344   4.328
 8609SOL    HW226727   5.461   2.336   4.447
 8610SOL     OW26728   0.594   5.407   2.444
 8610SOL    HW126729   0.574   5.352   2.525
 8610SOL    HW226730   0.615   5.346   2.367
 8611SOL     OW26731   2.136   1.425   6.496
 8611SOL    HW126732   2.193   1.455   6.419
 8611SOL    HW226733   2.173   1.340   6.533
 8612SOL     OW26734   3.335   3.076   6.294
 8612SOL    HW126735   3.243   3.057   6.327
 8612SOL    HW226736   3.377   2.992   6.260
 8613SOL     OW26737   3.556   3.097   3.718
 8613SOL    HW126738   3.530   3.168   3.784
 8613SOL    HW226739   3.476   3.042   3.695
 8614SOL     OW26740   0.646   3.374   3.791
 8614SOL    HW126741   0.547   3.377   3.802
 8614SOL    HW226742   0.673   3.285   3.754
 8615SOL     OW26743   3.962   0.240   4.991
 8615SOL    HW126744   3.944   0.308   4.920
 8615SOL    HW226745   4.017   0.166   4.953
 8616SOL     OW26746   6.358   4.327   4.972
 8616SOL    HW126747   6.337   4.230   4.960
 8616SOL    HW226748   6.318   4.359   5.058
 8617SOL     OW26749   0.679   6.733   4.650
 8617SOL    HW126750   0.636   6.814   4.611
 8617SOL    HW226751   0.632   6.707   4.735
 8618SOL     OW26752   0.138   4.520   0.874
 8618SOL    HW126753   0.165   4.567   0.958
 8618SOL    HW226754   0.186   4.432   0.868
 8619SOL     OW26755   6.148   4.265   6.439
 8619SOL    HW126756   6.117   4.200   6.370
 8619SOL    HW226757   6.101   4.248   6.525
 8620SOL     OW26758   0.323   7.001   3.861
 8620SOL    HW126759   0.381   0.050   3.894
 8620SOL    HW226760   0.367   6.956   3.783
 8621SOL     OW26761   6.744   3.209   2.257
 8621SOL    HW126762   6.763   3.276   2.329
 8621SOL    HW226763   6.647   3.187   2.257
 8622SOL     OW26764   0.876   5.836   1.907
 8622SOL    HW126765   0.863   5.791   1.819
 8622SOL    HW226766   0.821   5.920   1.910
 8623SOL     OW26767   1.330   2.327   3.972
 8623SOL    HW126768   1.252   2.358   4.026
 8623SOL    HW226769   1.375   2.406   3.930
 8624SOL     OW26770   3.711   3.547   6.342
 8624SOL    HW126771   3.666   3.513   6.424
 8624SOL    HW226772   3.651   3.611   6.295
 8625SOL     OW26773   4.282   2.627   6.003
 8625SOL    HW126774   4.348   2.642   6.076
 8625SOL    HW226775   4.307   2.545   5.951
 8626SOL     OW26776   5.823   1.216   0.287
 8626SOL    HW126777   5.817   1.154   0.365
 8626SOL    HW226778   5.838   1.162   0.204
 8627SOL     OW26779   6.869   0.092   2.482
 8627SOL    HW126780   6.841   0.147   2.403
 8627SOL    HW226781   6.873   7.021   2.455
 8628SOL     OW26782   1.406   6.246   0.588
 8628SOL    HW126783   1.493   6.265   0.635
 8628SOL    HW226784   1.378   6.327   0.537
 8629SOL     OW26785   0.524   1.111   4.430
 8629SOL    HW126786   0.479   1.044   4.489
 8629SOL    HW226787   0.458   1.147   4.364
 8630SOL     OW26788   6.024   3.758   1.508
 8630SOL    HW126789   6.050   3.680   1.565
 8630SOL    HW226790   6.074   3.753   1.421
 8631SOL     OW26791   1.720   5.722   6.863
 8631SOL    HW126792   1.759   5.753   6.949
 8631SOL    HW226793   1.631   5.767   6.849
 8632SOL     OW26794   5.845   5.621   2.960
 8632SOL    HW126795   5.794   5.654   2.881
 8632SOL    HW226796   5.941   5.608   2.934
 8633SOL     OW26797   6.666   4.152   5.995
 8633SOL    HW126798   6.637   4.162   5.899
 8633SOL    HW226799   6.760   4.186   6.005
 8634SOL     OW26800   4.659   4.303   0.309
 8634SOL    HW126801   4.665   4.238   0.384
 8634SOL    HW226802   4.706   4.266   0.229
 8635SOL     OW26803   5.305   1.424   0.021
 8635SOL    HW126804   5.254   1.357   0.076
 8635SOL    HW226805   5.327   1.384   6.958
 8636SOL     OW26806   4.805   6.060   0.922
 8636SOL    HW126807   4.806   6.151   0.881
 8636SOL    HW226808   4.831   5.993   0.854
 8637SOL     OW26809   2.980   2.944   0.928
 8637SOL    HW126810   2.910   2.957   0.999
 8637SOL    HW226811   3.056   2.892   0.965
 8638SOL     OW26812   5.172   2.376   4.817
 8638SOL    HW126813   5.164   2.401   4.720
 8638SOL    HW226814   5.089   2.326   4.844
 8639SOL     OW26815   3.979   3.714   0.535
 8639SOL    HW126816   3.890   3.688   0.497
 8639SOL    HW226817   4.011   3.797   0.490
 8640SOL     OW26818   2.890   2.839   6.843
 8640SOL    HW126819   2.931   2.873   6.758
 8640SOL    HW226820   2.801   2.881   6.855
 8641SOL     OW26821   3.038   4.874   3.188
 8641SOL    HW126822   3.074   4.831   3.105
 8641SOL    HW226823   3.103   4.943   3.221
 8642SOL     OW26824   2.752   6.337   3.316
 8642SOL    HW126825   2.700   6.306   3.236
 8642SOL    HW226826   2.689   6.381   3.381
 8643SOL     OW26827   3.866   6.329   1.223
 8643SOL    HW126828   3.800   6.286   1.161
 8643SOL    HW226829   3.816   6.378   1.295
 8644SOL     OW26830   4.857   2.455   6.531
 8644SOL    HW126831   4.871   2.413   6.441
 8644SOL    HW226832   4.811   2.390   6.591
 8645SOL     OW26833   4.824   4.529   3.247
 8645SOL    HW126834   4.886   4.467   3.201
 8645SOL    HW226835   4.732   4.490   3.249
 8646SOL     OW26836   5.691   2.222   4.209
 8646SOL    HW126837   5.720   2.153   4.276
 8646SOL    HW226838   5.744   2.211   4.125
 8647SOL     OW26839   2.300   4.916   2.215
 8647SOL    HW126840   2.355   4.896   2.134
 8647SOL    HW226841   2.356   4.900   2.297
 8648SOL     OW26842   5.911   6.076   6.585
 8648SOL    HW126843   5.984   6.008   6.593
 8648SOL    HW226844   5.823   6.029   6.578
 8649SOL     OW26845   5.277   3.449   2.178
 8649SOL    HW126846   5.346   3.407   2.236
 8649SOL    HW226847   5.321   3.514   2.115
 8650SOL     OW26848   1.201   1.099   5.360
 8650SOL    HW126849   1.125   1.149   5.401
 8650SOL    HW226850   1.236   1.033   5.425
 8651SOL     OW26851   4.695   1.748   1.193
 8651SOL    HW126852   4.613   1.691   1.205
 8651SOL    HW226853   4.692   1.823   1.260
 8652SOL     OW26854   6.154   3.309   4.698
 8652SOL    HW126855   6.219   3.384   4.686
 8652SOL    HW226856   6.106   3.292   4.612
 8653SOL     OW26857   4.590   0.679   6.882
 8653SOL    HW126858   4.607   0.725   6.795
 8653SOL    HW226859   4.574   0.581   6.866
 8654SOL     OW26860   6.579   4.979   3.613
 8654SOL    HW126861   6.606   4.968   3.518
 8654SOL    HW226862   6.660   4.981   3.671
 8655SOL     OW26863   1.857   0.018   4.940
 8655SOL    HW126864   1.936   0.079   4.949
 8655SOL    HW226865   1.773   0.068   4.961
 8656SOL     OW26866   3.928   6.649   0.680
 8656SOL    HW126867   3.836   6.680   0.655
 8656SOL    HW226868   3.929   6.626   0.777
 8657SOL     OW26869   2.861   1.568   2.304
 8657SOL    HW126870   2.804   1.641   2.342
 8657SOL    HW226871   2.953   1.573   2.342
 8658SOL     OW26872   6.209   4.356   0.729
 8658SOL    HW126873   6.179   4.380   0.822
 8658SOL    HW226874   6.267   4.275   0.733
 8659SOL     OW26875   3.055   6.549   3.712
 8659SOL    HW126876   3.016   6.517   3.626
 8659SOL    HW226877   3.055   6.475   3.779
 8660SOL     OW26878   6.661   4.403   1.006
 8660SOL    HW126879   6.582   4.349   1.033
 8660SOL    HW226880   6.681   4.470   1.078
 8661SOL     OW26881   6.131   2.308   1.516
 8661SOL    HW126882   6.080   2.225   1.491
 8661SOL    HW226883   6.135   2.314   1.616
 8662SOL     OW26884   1.984   3.154   1.731
 8662SOL    HW126885   1.935   3.111   1.807
 8662SOL    HW226886   2.077   3.176   1.760
 8663SOL     OW26887   3.553   5.787   1.833
 8663SOL    HW126888   3.536   5.821   1.925
 8663SOL    HW226889   3.651   5.769   1.822
 8664SOL     OW26890   3.713   5.757   4.422
 8664SOL    HW126891   3.660   5.841   4.435
 8664SOL    HW226892   3.672   5.703   4.349
 8665SOL     OW26893   0.809   3.164   6.375
 8665SOL    HW126894   0.787   3.084   6.431
 8665SOL    HW226895   0.728   3.221   6.364
 8666SOL     OW26896   3.762   6.774   2.259
 8666SOL    HW126897   3.860   6.778   2.280
 8666SOL    HW226898   3.727   6.684   2.284
 8667SOL     OW26899   4.298   2.345   1.935
 8667SOL    HW126900   4.225   2.372   1.872
 8667SOL    HW226901   4.260   2.285   2.006
 8668SOL     OW26902   3.432   1.715   2.883
 8668SOL    HW126903   3.355   1.654   2.903
 8668SOL    HW226904   3.502   1.704   2.953
 8669SOL     OW26905   0.371   6.182   6.548
 8669SOL    HW126906   0.317   6.262   6.572
 8669SOL    HW226907   0.442   6.208   6.482
 8670SOL     OW26908   6.865   5.003   5.220
 8670SOL    HW126909   6.932   5.053   5.275
 8670SOL    HW226910   6.854   5.048   5.131
 8671SOL     OW26911   6.986   3.944   3.370
 8671SOL    HW126912   6.898   3.906   3.341
 8671SOL    HW226913   0.034   3.908   3.312
 8672SOL     OW26914   6.366   1.029   1.986
 8672SOL    HW126915   6.341   1.072   1.899
 8672SOL    HW226916   6.285   0.986   2.026
 8673SOL     OW26917   6.843   0.779   2.340
 8673SOL    HW126918   6.806   0.828   2.418
 8673SOL    HW226919   6.860   0.684   2.364
 8674SOL     OW26920   0.422   2.568   3.673
 8674SOL    HW126921   0.483   2.585   3.750
 8674SOL    HW226922   0.369   2.651   3.652
 8675SOL     OW26923   5.774   2.656   4.527
 8675SOL    HW126924   5.682   2.692   4.540
 8675SOL    HW226925   5.776   2.559   4.552
 8676SOL     OW26926   5.867   2.409   1.476
 8676SOL    HW126927   5.921   2.389   1.558
 8676SOL    HW226928   5.885   2.503   1.447
 8677SOL     OW26929   3.293   1.686   7.011
 8677SOL    HW126930   3.285   1.650   0.078
 8677SOL    HW226931   3.218   1.750   6.993
 8678SOL     OW26932   2.395   2.194   0.055
 8678SOL    HW126933   2.353   2.151   0.135
 8678SOL    HW226934   2.325   2.211   7.011
 8679SOL     OW26935   2.011   2.236   6.676
 8679SOL    HW126936   2.037   2.251   6.581
 8679SOL    HW226937   1.926   2.184   6.680
 8680SOL     OW26938   0.015   0.060   0.713
 8680SOL    HW126939   6.990   7.003   0.688
 8680SOL    HW226940   0.071   0.090   0.636
 8681SOL     OW26941   5.460   5.015   1.460
 8681SOL    HW126942   5.462   5.065   1.373
 8681SOL    HW226943   5.506   5.069   1.530
 8682SOL     OW26944   1.420   2.375   1.592
 8682SOL    HW126945   1.334   2.325   1.606
 8682SOL    HW226946   1.460   2.347   1.505
 8683SOL     OW26947   2.585   4.660   4.721
 8683SOL    HW126948   2.603   4.662   4.819
 8683SOL    HW226949   2.665   4.694   4.671
 8684SOL     OW26950   2.639   4.628   3.612
 8684SOL    HW126951   2.585   4.556   3.569
 8684SOL    HW226952   2.721   4.645   3.557
 8685SOL     OW26953   4.342   3.245   5.312
 8685SOL    HW126954   4.418   3.289   5.358
 8685SOL    HW226955   4.352   3.146   5.319
 8686SOL     OW26956   0.587   4.730   2.269
 8686SOL    HW126957   0.616   4.637   2.248
 8686SOL    HW226958   0.618   4.755   2.361
 8687SOL     OW26959   5.357   2.936   5.586
 8687SOL    HW126960   5.291   2.904   5.519
 8687SOL    HW226961   5.310   2.964   5.669
 8688SOL     OW26962   1.548   3.089   4.506
 8688SOL    HW126963   1.548   3.105   4.408
 8688SOL    HW226964   1.514   2.997   4.525
 8689SOL     OW26965   5.327   3.276   0.815
 8689SOL    HW126966   5.391   3.273   0.738
 8689SOL    HW226967   5.274   3.360   0.810
 8690SOL     OW26968   1.268   2.988   2.918
 8690SOL    HW126969   1.290   3.086   2.914
 8690SOL    HW226970   1.316   2.947   2.995
 8691SOL     OW26971   4.583   0.770   6.610
 8691SOL    HW126972   4.529   0.854   6.611
 8691SOL    HW226973   4.555   0.713   6.533
 8692SOL     OW26974   5.479   2.010   4.832
 8692SOL    HW126975   5.444   2.089   4.881
 8692SOL    HW226976   5.424   1.929   4.854
 8693SOL     OW26977   1.127   0.591   5.195
 8693SOL    HW126978   1.137   0.668   5.132
 8693SOL    HW226979   1.183   0.514   5.163
 8694SOL     OW26980   3.265   3.541   6.172
 8694SOL    HW126981   3.308   3.586   6.251
 8694SOL    HW226982   3.314   3.457   6.150
 8695SOL     OW26983   4.172   3.961   1.491
 8695SOL    HW126984   4.187   4.006   1.579
 8695SOL    HW226985   4.128   3.872   1.505
 8696SOL     OW26986   2.516   4.716   6.377
 8696SOL    HW126987   2.557   4.700   6.287
 8696SOL    HW226988   2.472   4.632   6.409
 8697SOL     OW26989   1.282   3.385   4.749
 8697SOL    HW126990   1.261   3.339   4.663
 8697SOL    HW226991   1.367   3.347   4.787
 8698SOL     OW26992   5.154   4.802   6.969
 8698SOL    HW126993   5.167   4.728   0.010
 8698SOL    HW226994   5.238   4.816   6.917
 8699SOL     OW26995   2.079   1.476   1.442
 8699SOL    HW126996   2.178   1.474   1.432
 8699SOL    HW226997   2.045   1.569   1.426
 8700SOL     OW26998   0.590   2.907   4.954
 8700SOL    HW126999   0.601   2.822   4.904
 8700SOL    HW227000   0.498   2.912   4.993
 8701SOL     OW27001   2.662   3.238   0.586
 8701SOL    HW127002   2.655   3.305   0.659
 8701SOL    HW227003   2.733   3.171   0.607
 8702SOL     OW27004   4.764   4.552   0.407
 8702SOL    HW127005   4.760   4.589   0.314
 8702SOL    HW227006   4.740   4.454   0.404
 8703SOL     OW27007   2.364   5.631   0.596
 8703SOL    HW127008   2.431   5.639   0.670
 8703SOL    HW227009   2.366   5.715   0.541
 8704SOL     OW27010   6.895   1.954   4.025
 8704SOL    HW127011   6.837   2.023   4.068
 8704SOL    HW227012   6.990   1.969   4.053
 8705SOL     OW27013   3.300   2.302   0.713
 8705SOL    HW127014   3.260   2.392   0.735
 8705SOL    HW227015   3.245   2.230   0.756
 8706SOL     OW27016   4.983   2.866   5.110
 8706SOL    HW127017   5.019   2.894   5.021
 8706SOL    HW227018   4.886   2.846   5.102
 8707SOL     OW27019   1.377   0.321   2.908
 8707SOL    HW127020   1.455   0.268   2.873
 8707SOL    HW227021   1.386   0.416   2.879
 8708SOL     OW27022   5.512   2.142   6.919
 8708SOL    HW127023   5.566   2.058   6.927
 8708SOL    HW227024   5.491   2.176   7.011
 8709SOL     OW27025   6.120   6.354   4.385
 8709SOL    HW127026   6.211   6.388   4.361
 8709SOL    HW227027   6.058   6.431   4.399
 8710SOL     OW27028   1.640   2.743   3.316
 8710SOL    HW127029   1.659   2.829   3.364
 8710SOL    HW227030   1.587   2.762   3.233
 8711SOL     OW27031   0.372   1.790   2.147
 8711SOL    HW127032   0.415   1.744   2.225
 8711SOL    HW227033   0.435   1.858   2.109
 8712SOL     OW27034   1.065   3.814   4.374
 8712SOL    HW127035   1.081   3.786   4.469
 8712SOL    HW227036   0.969   3.838   4.362
 8713SOL     OW27037   0.476   4.097   5.050
 8713SOL    HW127038   0.418   4.082   5.130
 8713SOL    HW227039   0.446   4.040   4.974
 8714SOL     OW27040   1.468   3.344   6.552
 8714SOL    HW127041   1.547   3.401   6.574
 8714SOL    HW227042   1.425   3.313   6.637
 8715SOL     OW27043   2.434   4.929   1.595
 8715SOL    HW127044   2.350   4.883   1.624
 8715SOL    HW227045   2.421   5.028   1.600
 8716SOL     OW27046   5.474   0.377   2.853
 8716SOL    HW127047   5.462   0.310   2.779
 8716SOL    HW227048   5.545   0.345   2.915
 8717SOL     OW27049   4.984   1.751   6.692
 8717SOL    HW127050   4.979   1.850   6.678
 8717SOL    HW227051   5.008   1.732   6.787
 8718SOL     OW27052   2.829   4.987   6.762
 8718SOL    HW127053   2.928   4.991   6.772
 8718SOL    HW227054   2.806   4.991   6.664
 8719SOL     OW27055   3.187   1.578   4.243
 8719SOL    HW127056   3.224   1.609   4.155
 8719SOL    HW227057   3.090   1.556   4.232
 8720SOL     OW27058   0.131   0.081   5.166
 8720SOL    HW127059   0.230   0.073   5.177
 8720SOL    HW227060   0.110   0.110   5.072
 8721SOL     OW27061   0.619   0.645   1.995
 8721SOL    HW127062   0.642   0.724   1.938
 8721SOL    HW227063   0.538   0.666   2.050
 8722SOL     OW27064   3.699   1.131   0.609
 8722SOL    HW127065   3.670   1.188   0.531
 8722SOL    HW227066   3.620   1.113   0.667
 8723SOL     OW27067   3.129   6.119   3.635
 8723SOL    HW127068   3.055   6.118   3.567
 8723SOL    HW227069   3.145   6.026   3.668
 8724SOL     OW27070   5.728   6.729   5.214
 8724SOL    HW127071   5.658   6.691   5.275
 8724SOL    HW227072   5.765   6.656   5.156
 8725SOL     OW27073   6.413   0.917   2.509
 8725SOL    HW127074   6.340   0.868   2.460
 8725SOL    HW227075   6.404   0.900   2.607
 8726SOL     OW27076   6.673   6.941   1.098
 8726SOL    HW127077   6.755   6.998   1.089
 8726SOL    HW227078   6.605   6.969   1.030
 8727SOL     OW27079   4.709   5.267   6.660
 8727SOL    HW127080   4.745   5.347   6.611
 8727SOL    HW227081   4.686   5.195   6.594
 8728SOL     OW27082   4.883   0.247   4.028
 8728SOL    HW127083   4.950   0.290   4.088
 8728SOL    HW227084   4.923   0.232   3.937
 8729SOL     OW27085   5.668   5.641   6.380
 8729SOL    HW127086   5.625   5.601   6.298
 8729SOL    HW227087   5.658   5.740   6.378
 8730SOL     OW27088   4.174   5.090   1.872
 8730SOL    HW127089   4.136   4.998   1.876
 8730SOL    HW227090   4.215   5.105   1.781
 8731SOL     OW27091   6.993   2.881   3.685
 8731SOL    HW127092   6.902   2.913   3.655
 8731SOL    HW227093   0.022   2.959   3.716
 8732SOL     OW27094   5.489   6.577   5.403
 8732SOL    HW127095   5.447   6.598   5.315
 8732SOL    HW227096   5.426   6.601   5.476
 8733SOL     OW27097   6.065   3.964   1.688
 8733SOL    HW127098   5.978   4.014   1.687
 8733SOL    HW227099   6.058   3.884   1.630
 8734SOL     OW27100   6.925   6.275   0.661
 8734SOL    HW127101   6.899   6.365   0.626
 8734SOL    HW227102   7.013   6.281   0.707
 8735SOL     OW27103   1.516   2.094   6.540
 8735SOL    HW127104   1.507   2.003   6.581
 8735SOL    HW227105   1.456   2.158   6.586
 8736SOL     OW27106   0.431   6.287   3.828
 8736SOL    HW127107   0.506   6.252   3.883
 8736SOL    HW227108   0.360   6.217   3.820
 8737SOL     OW27109   1.154   5.750   6.516
 8737SOL    HW127110   1.166   5.720   6.610
 8737SOL    HW227111   1.123   5.674   6.459
 8738SOL     OW27112   1.473   1.890   2.293
 8738SOL    HW127113   1.424   1.805   2.270
 8738SOL    HW227114   1.567   1.884   2.259
 8739SOL     OW27115   4.998   4.748   3.300
 8739SOL    HW127116   5.006   4.744   3.399
 8739SOL    HW227117   4.935   4.677   3.268
 8740SOL     OW27118   1.501   0.598   2.546
 8740SOL    HW127119   1.411   0.570   2.513
 8740SOL    HW227120   1.531   0.681   2.500
 8741SOL     OW27121   1.837   2.442   2.524
 8741SOL    HW127122   1.839   2.515   2.456
 8741SOL    HW227123   1.805   2.357   2.482
 8742SOL     OW27124   1.222   3.713   0.311
 8742SOL    HW127125   1.249   3.694   0.405
 8742SOL    HW227126   1.190   3.630   0.267
 8743SOL     OW27127   2.034   2.741   0.427
 8743SOL    HW127128   2.009   2.837   0.413
 8743SOL    HW227129   2.075   2.730   0.517
 8744SOL     OW27130   2.717   4.031   5.647
 8744SOL    HW127131   2.797   4.009   5.591
 8744SOL    HW227132   2.737   4.112   5.702
 8745SOL     OW27133   5.826   0.353   6.979
 8745SOL    HW127134   5.846   0.277   0.016
 8745SOL    HW227135   5.763   0.416   7.023
 8746SOL     OW27136   4.636   4.756   4.609
 8746SOL    HW127137   4.586   4.671   4.594
 8746SOL    HW227138   4.590   4.810   4.680
 8747SOL     OW27139   6.765   6.487   1.348
 8747SOL    HW127140   6.745   6.562   1.286
 8747SOL    HW227141   6.795   6.407   1.296
 8748SOL     OW27142   5.656   2.209   5.247
 8748SOL    HW127143   5.592   2.138   5.218
 8748SOL    HW227144   5.745   2.167   5.266
 8749SOL     OW27145   1.647   1.469   3.946
 8749SOL    HW127146   1.729   1.444   3.997
 8749SOL    HW227147   1.663   1.555   3.898
 8750SOL     OW27148   3.448   3.916   2.521
 8750SOL    HW127149   3.467   3.922   2.423
 8750SOL    HW227150   3.352   3.936   2.538
 8751SOL     OW27151   1.211   6.746   6.977
 8751SOL    HW127152   1.159   6.691   0.016
 8751SOL    HW227153   1.279   6.689   6.931
 8752SOL     OW27154   0.949   2.485   7.019
 8752SOL    HW127155   0.851   2.472   7.007
 8752SOL    HW227156   0.991   2.397   0.018
 8753SOL     OW27157   2.120   2.070   1.186
 8753SOL    HW127158   2.119   2.108   1.278
 8753SOL    HW227159   2.030   2.081   1.144
 8754SOL     OW27160   1.783   6.347   0.260
 8754SOL    HW127161   1.726   6.298   0.327
 8754SOL    HW227162   1.857   6.395   0.307
 8755SOL     OW27163   6.273   1.124   1.754
 8755SOL    HW127164   6.248   1.062   1.680
 8755SOL    HW227165   6.196   1.182   1.777
 8756SOL     OW27166   1.513   1.034   1.952
 8756SOL    HW127167   1.510   1.055   1.855
 8756SOL    HW227168   1.424   0.998   1.981
 8757SOL     OW27169   5.529   5.585   6.153
 8757SOL    HW127170   5.452   5.628   6.106
 8757SOL    HW227171   5.609   5.586   6.093
 8758SOL     OW27172   4.084   4.749   6.640
 8758SOL    HW127173   4.067   4.814   6.714
 8758SOL    HW227174   3.997   4.711   6.608
 8759SOL     OW27175   6.533   0.482   1.943
 8759SOL    HW127176   6.615   0.448   1.990
 8759SOL    HW227177   6.560   0.527   1.858
 8760SOL     OW27178   1.175   2.641   4.388
 8760SOL    HW127179   1.096   2.584   4.411
 8760SOL    HW227180   1.143   2.727   4.348
 8761SOL     OW27181   5.075   2.596   4.312
 8761SOL    HW127182   4.982   2.617   4.283
 8761SOL    HW227183   5.118   2.535   4.245
 8762SOL     OW27184   3.947   6.338   1.986
 8762SOL    HW127185   4.042   6.368   1.992
 8762SOL    HW227186   3.942   6.240   2.009
 8763SOL     OW27187   6.405   1.530   5.630
 8763SOL    HW127188   6.355   1.530   5.717
 8763SOL    HW227189   6.376   1.608   5.575
 8764SOL     OW27190   2.411   5.411   5.829
 8764SOL    HW127191   2.401   5.430   5.927
 8764SOL    HW227192   2.340   5.346   5.801
 8765SOL     OW27193   4.867   0.272   3.215
 8765SOL    HW127194   4.791   0.248   3.275
 8765SOL    HW227195   4.952   0.236   3.253
 8766SOL     OW27196   6.296   0.645   5.087
 8766SOL    HW127197   6.367   0.580   5.116
 8766SOL    HW227198   6.295   0.651   4.987
 8767SOL     OW27199   1.875   1.092   4.696
 8767SOL    HW127200   1.921   1.181   4.699
 8767SOL    HW227201   1.789   1.097   4.747
 8768SOL     OW27202   0.415   2.469   6.780
 8768SOL    HW127203   0.321   2.441   6.761
 8768SOL    HW227204   0.425   2.566   6.759
 8769SOL     OW27205   0.058   0.813   6.692
 8769SOL    HW127206   7.003   0.874   6.687
 8769SOL    HW227207   0.140   0.865   6.670
 8770SOL     OW27208   4.036   1.724   0.928
 8770SOL    HW127209   4.119   1.699   0.877
 8770SOL    HW227210   4.059   1.790   0.999
 8771SOL     OW27211   0.652   2.440   6.949
 8771SOL    HW127212   0.573   2.454   6.890
 8771SOL    HW227213   0.630   2.464   0.018
 8772SOL     OW27214   6.350   0.034   3.317
 8772SOL    HW127215   6.395   0.090   3.386
 8772SOL    HW227216   6.357   0.080   3.228
 8773SOL     OW27217   6.310   1.562   4.605
 8773SOL    HW127218   6.321   1.644   4.661
 8773SOL    HW227219   6.377   1.493   4.634
 8774SOL     OW27220   1.127   2.205   6.794
 8774SOL    HW127221   1.103   2.206   6.891
 8774SOL    HW227222   1.054   2.248   6.741
 8775SOL     OW27223   5.026   2.311   2.382
 8775SOL    HW127224   4.943   2.260   2.359
 8775SOL    HW227225   5.019   2.404   2.346
 8776SOL     OW27226   5.964   3.002   0.827
 8776SOL    HW127227   5.983   2.907   0.804
 8776SOL    HW227228   6.025   3.032   0.900
 8777SOL     OW27229   6.441   2.221   4.701
 8777SOL    HW127230   6.416   2.195   4.794
 8777SOL    HW227231   6.360   2.220   4.643
 8778SOL     OW27232   1.508   4.052   5.250
 8778SOL    HW127233   1.556   4.029   5.165
 8778SOL    HW227234   1.529   4.146   5.275
 8779SOL     OW27235   2.751   6.284   3.660
 8779SOL    HW127236   2.755   6.186   3.639
 8779SOL    HW227237   2.820   6.305   3.729
 8780SOL     OW27238   1.872   3.038   4.035
 8780SOL    HW127239   1.789   3.054   3.983
 8780SOL    HW227240   1.897   2.941   4.031
 8781SOL     OW27241   3.778   0.624   2.367
 8781SOL    HW127242   3.772   0.654   2.272
 8781SOL    HW227243   3.796   0.525   2.370
 8782SOL     OW27244   0.401   3.110   6.729
 8782SOL    HW127245   0.376   3.027   6.678
 8782SOL    HW227246   0.318   3.155   6.763
 8783SOL     OW27247   3.565   3.828   6.512
 8783SOL    HW127248   3.533   3.759   6.577
 8783SOL    HW227249   3.537   3.919   6.544
 8784SOL     OW27250   4.778   1.955   5.986
 8784SOL    HW127251   4.848   1.935   6.055
 8784SOL    HW227252   4.759   2.053   5.985
 8785SOL     OW27253   0.451   6.838   6.010
 8785SOL    HW127254   0.411   6.784   5.937
 8785SOL    HW227255   0.539   6.797   6.037
 8786SOL     OW27256   4.341   2.337   2.976
 8786SOL    HW127257   4.352   2.373   3.069
 8786SOL    HW227258   4.399   2.388   2.913
 8787SOL     OW27259   3.029   5.724   2.239
 8787SOL    HW127260   2.980   5.637   2.249
 8787SOL    HW227261   3.093   5.735   2.315
 8788SOL     OW27262   6.209   0.670   3.157
 8788SOL    HW127263   6.202   0.766   3.129
 8788SOL    HW227264   6.254   0.617   3.086
 8789SOL     OW27265   2.105   4.114   6.724
 8789SOL    HW127266   2.117   4.049   6.649
 8789SOL    HW227267   2.009   4.118   6.750
 8790SOL     OW27268   4.893   3.603   5.299
 8790SOL    HW127269   4.831   3.601   5.377
 8790SOL    HW227270   4.847   3.568   5.218
 8791SOL     OW27271   3.544   6.733   5.157
 8791SOL    HW127272   3.519   6.730   5.060
 8791SOL    HW227273   3.467   6.699   5.212
 8792SOL     OW27274   4.952   3.874   0.943
 8792SOL    HW127275   4.987   3.856   0.851
 8792SOL    HW227276   4.870   3.819   0.959
 8793SOL     OW27277   6.852   0.829   4.980
 8793SOL    HW127278   6.757   0.822   5.011
 8793SOL    HW227279   6.867   0.920   4.942
 8794SOL     OW27280   1.519   2.916   3.090
 8794SOL    HW127281   1.524   2.975   3.170
 8794SOL    HW227282   1.556   2.964   3.010
 8795SOL     OW27283   0.995   0.303   6.697
 8795SOL    HW127284   0.942   0.250   6.763
 8795SOL    HW227285   1.032   0.384   6.742
 8796SOL     OW27286   6.153   5.739   3.976
 8796SOL    HW127287   6.138   5.806   4.049
 8796SOL    HW227288   6.068   5.689   3.958
 8797SOL     OW27289   5.696   5.167   6.252
 8797SOL    HW127290   5.643   5.230   6.308
 8797SOL    HW227291   5.775   5.214   6.214
 8798SOL     OW27292   1.743   5.046   6.712
 8798SOL    HW127293   1.821   5.007   6.762
 8798SOL    HW227294   1.767   5.056   6.615
 8799SOL     OW27295   0.384   5.975   2.431
 8799SOL    HW127296   0.324   6.053   2.416
 8799SOL    HW227297   0.332   5.900   2.473
 8800SOL     OW27298   0.007   6.850   4.492
 8800SOL    HW127299   6.949   6.899   4.517
 8800SOL    HW227300   0.018   6.770   4.550
 8801SOL     OW27301   5.517   3.185   6.226
 8801SOL    HW127302   5.485   3.245   6.153
 8801SOL    HW227303   5.611   3.209   6.251
 8802SOL     OW27304   1.425   6.221   6.620
 8802SOL    HW127305   1.478   6.165   6.683
 8802SOL    HW227306   1.408   6.169   6.536
 8803SOL     OW27307   4.935   5.043   5.209
 8803SOL    HW127308   4.946   4.989   5.292
 8803SOL    HW227309   4.870   4.998   5.148
 8804SOL     OW27310   2.311   5.960   1.493
 8804SOL    HW127311   2.310   5.876   1.548
 8804SOL    HW227312   2.391   5.959   1.433
 8805SOL     OW27313   4.773   5.276   0.510
 8805SOL    HW127314   4.702   5.300   0.576
 8805SOL    HW227315   4.764   5.332   0.428
 8806SOL     OW27316   1.354   1.234   1.740
 8806SOL    HW127317   1.287   1.210   1.670
 8806SOL    HW227318   1.359   1.334   1.748
 8807SOL     OW27319   5.180   1.250   1.465
 8807SOL    HW127320   5.111   1.283   1.401
 8807SOL    HW227321   5.271   1.260   1.424
 8808SOL     OW27322   1.575   1.454   0.912
 8808SOL    HW127323   1.602   1.544   0.948
 8808SOL    HW227324   1.489   1.463   0.862
 8809SOL     OW27325   1.477   3.290   2.676
 8809SOL    HW127326   1.500   3.225   2.603
 8809SOL    HW227327   1.402   3.253   2.731
 8810SOL     OW27328   6.776   2.438   3.416
 8810SOL    HW127329   6.869   2.470   3.434
 8810SOL    HW227330   6.710   2.502   3.455
 8811SOL     OW27331   3.572   6.089   2.632
 8811SOL    HW127332   3.610   5.997   2.620
 8811SOL    HW227333   3.619   6.135   2.707
 8812SOL     OW27334   6.049   0.893   0.124
 8812SOL    HW127335   5.979   0.821   0.119
 8812SOL    HW227336   6.134   0.859   0.084
 8813SOL     OW27337   1.226   2.469   1.121
 8813SOL    HW127338   1.263   2.464   1.029
 8813SOL    HW227339   1.241   2.560   1.159
 8814SOL     OW27340   6.076   1.136   4.076
 8814SOL    HW127341   6.171   1.155   4.051
 8814SOL    HW227342   6.027   1.103   3.995
 8815SOL     OW27343   4.892   0.848   1.263
 8815SOL    HW127344   4.853   0.939   1.276
 8815SOL    HW227345   4.923   0.813   1.351
 8816SOL     OW27346   6.446   1.352   3.073
 8816SOL    HW127347   6.512   1.417   3.111
 8816SOL    HW227348   6.458   1.347   2.973
 8817SOL     OW27349   0.897   2.296   4.249
 8817SOL    HW127350   0.956   2.215   4.246
 8817SOL    HW227351   0.813   2.278   4.197
 8818SOL     OW27352   1.794   5.642   6.222
 8818SOL    HW127353   1.771   5.735   6.193
 8818SOL    HW227354   1.741   5.618   6.303
 8819SOL     OW27355   5.245   6.200   6.755
 8819SOL    HW127356   5.292   6.120   6.718
 8819SOL    HW227357   5.289   6.228   6.841
 8820SOL     OW27358   3.530   6.348   5.503
 8820SOL    HW127359   3.481   6.433   5.526
 8820SOL    HW227360   3.615   6.371   5.455
 8821SOL     OW27361   2.036   5.216   5.600
 8821SOL    HW127362   1.997   5.184   5.514
 8821SOL    HW227363   1.972   5.279   5.643
 8822SOL     OW27364   0.374   0.983   5.315
 8822SOL    HW127365   0.282   0.955   5.340
 8822SOL    HW227366   0.440   0.937   5.376
 8823SOL     OW27367   4.552   2.364   3.324
 8823SOL    HW127368   4.630   2.423   3.307
 8823SOL    HW227369   4.578   2.268   3.310
 8824SOL     OW27370   1.098   0.158   3.294
 8824SOL    HW127371   1.184   0.193   3.332
 8824SOL    HW227372   1.117   0.073   3.243
 8825SOL     OW27373   2.126   6.060   6.621
 8825SOL    HW127374   2.111   6.035   6.526
 8825SOL    HW227375   2.181   6.144   6.626
 8826SOL     OW27376   0.679   2.301   0.247
 8826SOL    HW127377   0.761   2.356   0.264
 8826SOL    HW227378   0.601   2.362   0.231
 8827SOL     OW27379   5.040   6.774   3.898
 8827SOL    HW127380   5.115   6.777   3.832
 8827SOL    HW227381   5.074   6.742   3.986
 8828SOL     OW27382   4.893   2.683   6.189
 8828SOL    HW127383   4.857   2.730   6.108
 8828SOL    HW227384   4.845   2.596   6.201
 8829SOL     OW27385   6.239   0.935   2.991
 8829SOL    HW127386   6.309   0.904   2.927
 8829SOL    HW227387   6.282   0.975   3.072
 8830SOL     OW27388   2.841   2.339   3.050
 8830SOL    HW127389   2.787   2.411   3.094
 8830SOL    HW227390   2.896   2.292   3.119
 8831SOL     OW27391   0.511   2.010   2.621
 8831SOL    HW127392   0.585   2.038   2.561
 8831SOL    HW227393   0.442   2.082   2.625
 8832SOL     OW27394   5.951   0.167   4.862
 8832SOL    HW127395   6.040   0.183   4.904
 8832SOL    HW227396   5.961   0.168   4.762
 8833SOL     OW27397   5.020   2.665   0.881
 8833SOL    HW127398   4.931   2.703   0.908
 8833SOL    HW227399   5.039   2.690   0.786
 8834SOL     OW27400   6.333   4.008   5.667
 8834SOL    HW127401   6.406   4.072   5.692
 8834SOL    HW227402   6.305   3.957   5.748
 8835SOL     OW27403   6.251   1.329   5.394
 8835SOL    HW127404   6.305   1.272   5.455
 8835SOL    HW227405   6.287   1.422   5.395
 8836SOL     OW27406   4.129   1.126   0.008
 8836SOL    HW127407   4.064   1.114   0.084
 8836SOL    HW227408   4.169   1.038   7.010
 8837SOL     OW27409   5.491   5.574   1.244
 8837SOL    HW127410   5.564   5.507   1.255
 8837SOL    HW227411   5.486   5.603   1.149
 8838SOL     OW27412   0.744   2.797   1.803
 8838SOL    HW127413   0.649   2.812   1.777
 8838SOL    HW227414   0.748   2.753   1.893
 8839SOL     OW27415   4.636   4.453   1.807
 8839SOL    HW127416   4.728   4.462   1.844
 8839SOL    HW227417   4.583   4.389   1.864
 8840SOL     OW27418   0.194   6.736   0.816
 8840SOL    HW127419   0.131   6.755   0.892
 8840SOL    HW227420   0.261   6.668   0.845
 8841SOL     OW27421   4.873   2.008   0.725
 8841SOL    HW127422   4.960   1.992   0.771
 8841SOL    HW227423   4.852   2.106   0.727
 8842SOL     OW27424   2.906   3.282   3.433
 8842SOL    HW127425   2.954   3.369   3.446
 8842SOL    HW227426   2.969   3.214   3.395
 8843SOL     OW27427   2.498   6.477   5.327
 8843SOL    HW127428   2.507   6.378   5.329
 8843SOL    HW227429   2.402   6.502   5.342
 8844SOL     OW27430   4.123   2.421   5.364
 8844SOL    HW127431   4.178   2.464   5.292
 8844SOL    HW227432   4.101   2.489   5.434
 8845SOL     OW27433   0.184   3.720   2.544
 8845SOL    HW127434   0.122   3.665   2.488
 8845SOL    HW227435   0.279   3.699   2.521
 8846SOL     OW27436   5.267   5.268   4.013
 8846SOL    HW127437   5.300   5.298   4.102
 8846SOL    HW227438   5.241   5.171   4.017
 8847SOL     OW27439   1.266   3.468   3.845
 8847SOL    HW127440   1.176   3.435   3.872
 8847SOL    HW227441   1.332   3.393   3.854
 8848SOL     OW27442   6.693   2.576   1.639
 8848SOL    HW127443   6.725   2.482   1.635
 8848SOL    HW227444   6.770   2.637   1.654
 8849SOL     OW27445   3.592   5.382   4.360
 8849SOL    HW127446   3.605   5.452   4.289
 8849SOL    HW227447   3.652   5.402   4.437
 8850SOL     OW27448   4.446   1.654   1.318
 8850SOL    HW127449   4.482   1.693   1.403
 8850SOL    HW227450   4.400   1.726   1.266
 8851SOL     OW27451   6.302   5.220   3.472
 8851SOL    HW127452   6.305   5.120   3.463
 8851SOL    HW227453   6.370   5.248   3.540
 8852SOL     OW27454   5.818   4.364   4.438
 8852SOL    HW127455   5.858   4.450   4.408
 8852SOL    HW227456   5.718   4.374   4.443
 8853SOL     OW27457   4.635   1.812   4.421
 8853SOL    HW127458   4.552   1.869   4.417
 8853SOL    HW227459   4.613   1.725   4.466
 8854SOL     OW27460   2.863   0.854   6.718
 8854SOL    HW127461   2.845   0.936   6.773
 8854SOL    HW227462   2.897   0.781   6.777
 8855SOL     OW27463   6.866   4.624   6.182
 8855SOL    HW127464   6.875   4.551   6.250
 8855SOL    HW227465   6.894   4.590   6.093
 8856SOL     OW27466   5.512   1.733   6.318
 8856SOL    HW127467   5.416   1.721   6.294
 8856SOL    HW227468   5.519   1.792   6.398
 8857SOL     OW27469   1.706   3.442   4.607
 8857SOL    HW127470   1.672   3.471   4.697
 8857SOL    HW227471   1.804   3.422   4.614
 8858SOL     OW27472   1.600   3.449   6.286
 8858SOL    HW127473   1.610   3.392   6.367
 8858SOL    HW227474   1.511   3.495   6.287
 8859SOL     OW27475   2.973   5.449   4.925
 8859SOL    HW127476   2.993   5.358   4.961
 8859SOL    HW227477   2.874   5.460   4.915
 8860SOL     OW27478   2.414   0.902   1.913
 8860SOL    HW127479   2.434   0.937   1.821
 8860SOL    HW227480   2.383   0.808   1.907
 8861SOL     OW27481   2.446   0.933   0.251
 8861SOL    HW127482   2.524   0.897   0.200
 8861SOL    HW227483   2.412   0.864   0.314
 8862SOL     OW27484   0.757   3.624   3.657
 8862SOL    HW127485   0.733   3.528   3.673
 8862SOL    HW227486   0.779   3.668   3.744
 8863SOL     OW27487   1.558   5.661   4.975
 8863SOL    HW127488   1.484   5.681   4.911
 8863SOL    HW227489   1.615   5.587   4.938
 8864SOL     OW27490   2.195   3.680   5.144
 8864SOL    HW127491   2.252   3.718   5.072
 8864SOL    HW227492   2.108   3.648   5.105
 8865SOL     OW27493   3.219   1.968   5.509
 8865SOL    HW127494   3.127   1.982   5.544
 8865SOL    HW227495   3.234   2.027   5.430
 8866SOL     OW27496   5.601   7.014   4.822
 8866SOL    HW127497   5.697   6.993   4.802
 8866SOL    HW227498   5.546   6.932   4.809
 8867SOL     OW27499   5.362   1.304   2.848
 8867SOL    HW127500   5.391   1.393   2.883
 8867SOL    HW227501   5.262   1.299   2.849
 8868SOL     OW27502   5.715   2.464   0.428
 8868SOL    HW127503   5.645   2.533   0.412
 8868SOL    HW227504   5.758   2.439   0.342
 8869SOL     OW27505   1.496   1.289   3.826
 8869SOL    HW127506   1.554   1.351   3.880
 8869SOL    HW227507   1.454   1.222   3.886
 8870SOL     OW27508   3.681   6.878   1.606
 8870SOL    HW127509   3.700   6.820   1.527
 8870SOL    HW227510   3.682   6.974   1.579
 8871SOL     OW27511   0.628   2.286   3.406
 8871SOL    HW127512   0.686   2.254   3.332
 8871SOL    HW227513   0.555   2.219   3.423
 8872SOL     OW27514   0.136   0.855   2.657
 8872SOL    HW127515   0.067   0.814   2.717
 8872SOL    HW227516   0.171   0.938   2.698
 8873SOL     OW27517   6.984   5.781   4.488
 8873SOL    HW127518   7.008   5.854   4.552
 8873SOL    HW227519   7.024   5.801   4.398
 8874SOL     OW27520   0.377   1.142   5.971
 8874SOL    HW127521   0.324   1.153   5.887
 8874SOL    HW227522   0.457   1.084   5.953
 8875SOL     OW27523   1.453   1.047   4.340
 8875SOL    HW127524   1.490   1.140   4.331
 8875SOL    HW227525   1.391   1.029   4.264
 8876SOL     OW27526   3.227   1.171   4.092
 8876SOL    HW127527   3.258   1.215   4.176
 8876SOL    HW227528   3.143   1.215   4.060
 8877SOL     OW27529   2.347   6.937   5.845
 8877SOL    HW127530   2.431   6.985   5.871
 8877SOL    HW227531   2.356   6.840   5.869
 8878SOL     OW27532   6.015   4.341   5.102
 8878SOL    HW127533   6.015   4.244   5.127
 8878SOL    HW227534   6.107   4.379   5.113
 8879SOL     OW27535   6.490   5.886   5.085
 8879SOL    HW127536   6.557   5.878   5.159
 8879SOL    HW227537   6.424   5.811   5.093
 8880SOL     OW27538   1.784   7.007   5.390
 8880SOL    HW127539   1.762   6.932   5.327
 8880SOL    HW227540   1.721   7.004   5.468
 8881SOL     OW27541   6.137   0.923   1.605
 8881SOL    HW127542   6.053   0.873   1.625
 8881SOL    HW227543   6.152   0.926   1.506
 8882SOL     OW27544   5.421   1.755   0.353
 8882SOL    HW127545   5.346   1.821   0.351
 8882SOL    HW227546   5.412   1.692   0.275
 8883SOL     OW27547   5.655   1.567   5.838
 8883SOL    HW127548   5.615   1.628   5.906
 8883SOL    HW227549   5.606   1.576   5.752
 8884SOL     OW27550   1.048   1.748   6.498
 8884SOL    HW127551   1.133   1.695   6.496
 8884SOL    HW227552   1.070   1.845   6.511
 8885SOL     OW27553   5.606   3.813   1.464
 8885SOL    HW127554   5.530   3.752   1.441
 8885SOL    HW227555   5.597   3.842   1.559
 8886SOL     OW27556   3.169   6.369   6.074
 8886SOL    HW127557   3.267   6.362   6.056
 8886SOL    HW227558   3.153   6.437   6.146
 8887SOL     OW27559   1.637   1.145   6.944
 8887SOL    HW127560   1.724   1.108   6.977
 8887SOL    HW227561   1.600   1.085   6.873
 8888SOL     OW27562   1.688   1.441   3.335
 8888SOL    HW127563   1.610   1.422   3.275
 8888SOL    HW227564   1.762   1.482   3.281
 8889SOL     OW27565   3.149   0.937   5.896
 8889SOL    HW127566   3.089   0.916   5.973
 8889SOL    HW227567   3.095   0.966   5.818
 8890SOL     OW27568   5.721   5.522   3.190
 8890SOL    HW127569   5.767   5.565   3.113
 8890SOL    HW227570   5.788   5.492   3.257
 8891SOL     OW27571   3.372   1.957   6.352
 8891SOL    HW127572   3.462   2.001   6.348
 8891SOL    HW227573   3.320   1.993   6.430
 8892SOL     OW27574   1.007   0.616   3.787
 8892SOL    HW127575   1.028   0.559   3.867
 8892SOL    HW227576   1.088   0.622   3.728
 8893SOL     OW27577   6.854   0.777   0.488
 8893SOL    HW127578   6.927   0.808   0.550
 8893SOL    HW227579   6.779   0.843   0.490
 8894SOL     OW27580   4.909   3.291   5.476
 8894SOL    HW127581   4.967   3.367   5.503
 8894SOL    HW227582   4.879   3.303   5.381
 8895SOL     OW27583   0.558   1.367   3.326
 8895SOL    HW127584   0.646   1.405   3.297
 8895SOL    HW227585   0.573   1.280   3.374
 8896SOL     OW27586   1.737   4.171   4.347
 8896SOL    HW127587   1.676   4.223   4.408
 8896SOL    HW227588   1.710   4.186   4.252
 8897SOL     OW27589   6.970   1.284   2.441
 8897SOL    HW127590   6.899   1.260   2.375
 8897SOL    HW227591   0.029   1.310   2.392
 8898SOL     OW27592   1.457   2.379   5.251
 8898SOL    HW127593   1.461   2.288   5.293
 8898SOL    HW227594   1.512   2.443   5.306
 8899SOL     OW27595   3.931   6.897   3.124
 8899SOL    HW127596   3.977   6.981   3.155
 8899SOL    HW227597   3.868   6.919   3.050
 8900SOL     OW27598   6.254   1.985   3.800
 8900SOL    HW127599   6.165   1.974   3.842
 8900SOL    HW227600   6.245   1.981   3.700
 8901SOL     OW27601   1.017   6.702   2.037
 8901SOL    HW127602   0.918   6.702   2.022
 8901SOL    HW227603   1.036   6.691   2.134
 8902SOL     OW27604   4.345   7.017   5.743
 8902SOL    HW127605   4.258   6.985   5.704
 8902SOL    HW227606   4.399   0.036   5.671
 8903SOL     OW27607   5.873   1.938   3.129
 8903SOL    HW127608   5.812   1.885   3.188
 8903SOL    HW227609   5.948   1.975   3.184
 8904SOL     OW27610   2.335   4.334   4.181
 8904SOL    HW127611   2.270   4.407   4.162
 8904SOL    HW227612   2.385   4.354   4.265
 8905SOL     OW27613   1.914   4.060   4.800
 8905SOL    HW127614   1.953   4.115   4.725
 8905SOL    HW227615   1.988   4.019   4.853
 8906SOL     OW27616   1.697   4.693   4.343
 8906SOL    HW127617   1.742   4.780   4.320
 8906SOL    HW227618   1.651   4.658   4.262
 8907SOL     OW27619   3.811   2.955   0.114
 8907SOL    HW127620   3.787   2.953   0.017
 8907SOL    HW227621   3.858   3.041   0.135
 8908SOL     OW27622   1.023   2.958   2.844
 8908SOL    HW127623   1.121   2.971   2.859
 8908SOL    HW227624   0.985   2.904   2.919
 8909SOL     OW27625   3.515   7.008   4.494
 8909SOL    HW127626   3.520   0.028   4.583
 8909SOL    HW227627   3.597   6.952   4.482
 8910SOL     OW27628   4.415   2.773   6.704
 8910SOL    HW127629   4.409   2.772   6.804
 8910SOL    HW227630   4.328   2.805   6.666
 8911SOL     OW27631   5.139   3.966   5.174
 8911SOL    HW127632   5.117   3.958   5.076
 8911SOL    HW227633   5.055   3.984   5.225
 8912SOL     OW27634   4.020   1.268   0.329
 8912SOL    HW127635   4.007   1.367   0.342
 8912SOL    HW227636   4.005   1.221   0.416
 8913SOL     OW27637   3.807   3.371   1.721
 8913SOL    HW127638   3.803   3.271   1.716
 8913SOL    HW227639   3.746   3.410   1.652
 8914SOL     OW27640   6.002   4.872   3.271
 8914SOL    HW127641   5.926   4.818   3.235
 8914SOL    HW227642   6.005   4.961   3.225
 8915SOL     OW27643   1.128   5.779   2.004
 8915SOL    HW127644   1.032   5.787   1.980
 8915SOL    HW227645   1.140   5.706   2.072
 8916SOL     OW27646   5.353   2.692   0.976
 8916SOL    HW127647   5.305   2.713   1.061
 8916SOL    HW227648   5.299   2.725   0.899
 8917SOL     OW27649   5.571   4.099   5.904
 8917SOL    HW127650   5.652   4.138   5.949
 8917SOL    HW227651   5.501   4.078   5.972
 8918SOL     OW27652   5.136   4.635   5.567
 8918SOL    HW127653   5.108   4.700   5.638
 8918SOL    HW227654   5.060   4.621   5.504
 8919SOL     OW27655   1.943   3.449   0.961
 8919SOL    HW127656   1.999   3.484   0.886
 8919SOL    HW227657   1.939   3.517   1.034
 8920SOL     OW27658   5.986   5.497   5.635
 8920SOL    HW127659   5.935   5.487   5.550
 8920SOL    HW227660   6.009   5.406   5.671
 8921SOL     OW27661   0.478   5.535   3.386
 8921SOL    HW127662   0.400   5.553   3.446
 8921SOL    HW227663   0.500   5.618   3.335
 8922SOL     OW27664   0.997   3.153   0.519
 8922SOL    HW127665   1.091   3.180   0.499
 8922SOL    HW227666   0.947   3.232   0.556
 8923SOL     OW27667   2.437   5.400   4.465
 8923SOL    HW127668   2.433   5.345   4.381
 8923SOL    HW227669   2.354   5.386   4.518
 8924SOL     OW27670   2.165   6.288   4.611
 8924SOL    HW127671   2.131   6.380   4.594
 8924SOL    HW227672   2.187   6.278   4.708
 8925SOL     OW27673   4.198   5.424   1.456
 8925SOL    HW127674   4.135   5.389   1.387
 8925SOL    HW227675   4.213   5.522   1.441
 8926SOL     OW27676   5.461   6.448   0.384
 8926SOL    HW127677   5.454   6.370   0.446
 8926SOL    HW227678   5.371   6.491   0.373
 8927SOL     OW27679   2.752   1.916   5.376
 8927SOL    HW127680   2.685   1.928   5.302
 8927SOL    HW227681   2.831   1.974   5.358
 8928SOL     OW27682   1.375   0.375   6.134
 8928SOL    HW127683   1.392   0.397   6.230
 8928SOL    HW227684   1.370   0.459   6.081
 8929SOL     OW27685   4.837   3.994   3.429
 8929SOL    HW127686   4.759   4.053   3.410
 8929SOL    HW227687   4.842   3.976   3.528
 8930SOL     OW27688   0.705   5.529   5.042
 8930SOL    HW127689   0.651   5.524   4.958
 8930SOL    HW227690   0.667   5.466   5.110
 8931SOL     OW27691   5.684   0.928   1.713
 8931SOL    HW127692   5.694   0.982   1.630
 8931SOL    HW227693   5.674   0.990   1.792
 8932SOL     OW27694   3.261   0.661   6.332
 8932SOL    HW127695   3.331   0.648   6.402
 8932SOL    HW227696   3.183   0.601   6.352
 8933SOL     OW27697   1.876   0.399   5.619
 8933SOL    HW127698   1.932   0.481   5.605
 8933SOL    HW227699   1.845   0.365   5.530
 8934SOL     OW27700   2.093   6.266   3.195
 8934SOL    HW127701   2.046   6.276   3.108
 8934SOL    HW227702   2.192   6.272   3.180
 8935SOL     OW27703   4.863   2.266   1.798
 8935SOL    HW127704   4.817   2.315   1.872
 8935SOL    HW227705   4.938   2.321   1.764
 8936SOL     OW27706   0.901   3.343   2.299
 8936SOL    HW127707   0.921   3.249   2.273
 8936SOL    HW227708   0.977   3.403   2.274
 8937SOL     OW27709   3.546   6.115   5.360
 8937SOL    HW127710   3.494   6.061   5.294
 8937SOL    HW227711   3.500   6.203   5.375
 8938SOL     OW27712   4.629   6.644   2.322
 8938SOL    HW127713   4.596   6.676   2.410
 8938SOL    HW227714   4.723   6.611   2.331
 8939SOL     OW27715   0.024   3.598   5.658
 8939SOL    HW127716   6.996   3.522   5.620
 8939SOL    HW227717   0.029   3.672   5.591
 8940SOL     OW27718   6.104   4.065   2.716
 8940SOL    HW127719   6.069   4.116   2.795
 8940SOL    HW227720   6.027   4.037   2.658
 8941SOL     OW27721   5.871   2.528   4.198
 8941SOL    HW127722   5.963   2.565   4.192
 8941SOL    HW227723   5.807   2.603   4.219
 8942SOL     OW27724   5.051   0.007   4.160
 8942SOL    HW127725   5.036   0.051   4.248
 8942SOL    HW227726   4.968   6.985   4.131
 8943SOL     OW27727   4.282   3.282   0.648
 8943SOL    HW127728   4.377   3.310   0.634
 8943SOL    HW227729   4.230   3.358   0.686
 8944SOL     OW27730   4.338   5.837   5.966
 8944SOL    HW127731   4.274   5.866   6.037
 8944SOL    HW227732   4.428   5.875   5.984
 8945SOL     OW27733   6.306   4.045   2.178
 8945SOL    HW127734   6.385   4.106   2.170
 8945SOL    HW227735   6.267   4.029   2.087
 8946SOL     OW27736   4.060   1.921   3.736
 8946SOL    HW127737   4.125   1.972   3.793
 8946SOL    HW227738   4.110   1.854   3.681
 8947SOL     OW27739   3.372   5.283   0.056
 8947SOL    HW127740   3.353   5.307   6.986
 8947SOL    HW227741   3.445   5.342   0.091
 8948SOL     OW27742   5.785   6.654   3.309
 8948SOL    HW127743   5.778   6.730   3.244
 8948SOL    HW227744   5.735   6.678   3.393
 8949SOL     OW27745   3.586   6.225   0.700
 8949SOL    HW127746   3.678   6.245   0.667
 8949SOL    HW227747   3.590   6.188   0.792
 8950SOL     OW27748   3.581   3.386   3.495
 8950SOL    HW127749   3.517   3.311   3.475
 8950SOL    HW227750   3.674   3.356   3.474
 8951SOL     OW27751   0.811   0.671   4.308
 8951SOL    HW127752   0.880   0.742   4.322
 8951SOL    HW227753   0.855   0.582   4.307
 8952SOL     OW27754   1.714   3.908   4.390
 8952SOL    HW127755   1.720   4.003   4.360
 8952SOL    HW227756   1.688   3.850   4.313
 8953SOL     OW27757   2.352   5.368   0.868
 8953SOL    HW127758   2.277   5.367   0.801
 8953SOL    HW227759   2.431   5.414   0.829
 8954SOL     OW27760   2.170   3.863   5.387
 8954SOL    HW127761   2.078   3.903   5.385
 8954SOL    HW227762   2.198   3.838   5.294
 8955SOL     OW27763   6.873   2.478   6.358
 8955SOL    HW127764   6.944   2.431   6.411
 8955SOL    HW227765   6.878   2.576   6.376
 8956SOL     OW27766   1.065   6.511   1.042
 8956SOL    HW127767   1.082   6.533   1.138
 8956SOL    HW227768   1.137   6.450   1.008
 8957SOL     OW27769   0.422   0.178   4.023
 8957SOL    HW127770   0.375   0.127   4.095
 8957SOL    HW227771   0.453   0.266   4.059
 8958SOL     OW27772   0.201   3.008   4.647
 8958SOL    HW127773   0.275   2.943   4.629
 8958SOL    HW227774   0.187   3.065   4.566
 8959SOL     OW27775   5.776   1.722   3.585
 8959SOL    HW127776   5.694   1.682   3.627
 8959SOL    HW227777   5.857   1.676   3.623
 8960SOL     OW27778   3.732   0.112   1.449
 8960SOL    HW127779   3.830   0.090   1.442
 8960SOL    HW227780   3.709   0.183   1.383
 8961SOL     OW27781   2.165   2.569   5.537
 8961SOL    HW127782   2.241   2.633   5.543
 8961SOL    HW227783   2.197   2.477   5.561
 8962SOL     OW27784   6.856   5.707   0.539
 8962SOL    HW127785   6.954   5.708   0.520
 8962SOL    HW227786   6.841   5.733   0.634
 8963SOL     OW27787   2.410   4.902   5.398
 8963SOL    HW127788   2.320   4.907   5.353
 8963SOL    HW227789   2.398   4.868   5.491
 8964SOL     OW27790   1.779   3.566   4.072
 8964SOL    HW127791   1.852   3.557   4.005
 8964SOL    HW227792   1.773   3.482   4.127
 8965SOL     OW27793   2.992   6.778   6.497
 8965SOL    HW127794   2.961   6.818   6.411
 8965SOL    HW227795   2.991   6.678   6.490
 8966SOL     OW27796   3.917   6.826   5.380
 8966SOL    HW127797   4.016   6.830   5.371
 8966SOL    HW227798   3.879   6.771   5.305
 8967SOL     OW27799   2.255   6.544   2.930
 8967SOL    HW127800   2.156   6.549   2.943
 8967SOL    HW227801   2.289   6.632   2.896
 8968SOL     OW27802   2.894   5.658   2.718
 8968SOL    HW127803   2.926   5.749   2.744
 8968SOL    HW227804   2.938   5.590   2.777
 8969SOL     OW27805   6.764   0.321   1.032
 8969SOL    HW127806   6.770   0.385   0.955
 8969SOL    HW227807   6.785   0.369   1.117
 8970SOL     OW27808   2.834   1.901   4.720
 8970SOL    HW127809   2.806   1.924   4.813
 8970SOL    HW227810   2.818   1.980   4.660
 8971SOL     OW27811   2.517   5.968   1.111
 8971SOL    HW127812   2.428   6.013   1.098
 8971SOL    HW227813   2.546   5.927   1.025
 8972SOL     OW27814   6.711   4.621   0.346
 8972SOL    HW127815   6.784   4.664   0.399
 8972SOL    HW227816   6.745   4.601   0.254
 8973SOL     OW27817   2.810   1.924   3.135
 8973SOL    HW127818   2.872   2.002   3.121
 8973SOL    HW227819   2.749   1.916   3.056
 8974SOL     OW27820   0.836   4.887   5.755
 8974SOL    HW127821   0.936   4.894   5.751
 8974SOL    HW227822   0.803   4.840   5.673
 8975SOL     OW27823   0.881   3.903   6.641
 8975SOL    HW127824   0.881   3.838   6.717
 8975SOL    HW227825   0.970   3.949   6.636
 8976SOL     OW27826   5.707   6.856   1.412
 8976SOL    HW127827   5.686   6.953   1.399
 8976SOL    HW227828   5.679   6.828   1.504
 8977SOL     OW27829   1.014   5.375   6.645
 8977SOL    HW127830   0.988   5.440   6.573
 8977SOL    HW227831   1.064   5.298   6.604
 8978SOL     OW27832   6.604   4.887   4.915
 8978SOL    HW127833   6.513   4.906   4.951
 8978SOL    HW227834   6.631   4.794   4.942
 8979SOL     OW27835   1.946   4.913   3.253
 8979SOL    HW127836   1.856   4.917   3.295
 8979SOL    HW227837   2.014   4.952   3.315
 8980SOL     OW27838   4.715   1.387   6.439
 8980SOL    HW127839   4.747   1.455   6.505
 8980SOL    HW227840   4.777   1.384   6.360
 8981SOL     OW27841   3.666   2.550   6.973
 8981SOL    HW127842   3.629   2.628   6.922
 8981SOL    HW227843   3.595   2.513   0.008
 8982SOL     OW27844   0.340   1.012   3.555
 8982SOL    HW127845   0.378   0.924   3.582
 8982SOL    HW227846   0.244   1.000   3.528
 8983SOL     OW27847   1.300   6.838   2.413
 8983SOL    HW127848   1.235   6.885   2.473
 8983SOL    HW227849   1.329   6.901   2.340
 8984SOL     OW27850   6.583   0.685   4.045
 8984SOL    HW127851   6.661   0.642   4.000
 8984SOL    HW227852   6.612   0.725   4.132
 8985SOL     OW27853   5.671   0.075   7.022
 8985SOL    HW127854   5.764   0.104   6.999
 8985SOL    HW227855   5.619   0.154   0.030
 8986SOL     OW27856   0.991   6.892   6.405
 8986SOL    HW127857   1.076   6.910   6.453
 8986SOL    HW227858   0.914   6.927   6.459
 8987SOL     OW27859   3.155   6.403   3.244
 8987SOL    HW127860   3.070   6.453   3.262
 8987SOL    HW227861   3.200   6.383   3.331
 8988SOL     OW27862   2.171   6.126   1.776
 8988SOL    HW127863   2.146   6.218   1.745
 8988SOL    HW227864   2.246   6.132   1.841
 8989SOL     OW27865   6.205   1.600   2.208
 8989SOL    HW127866   6.227   1.627   2.302
 8989SOL    HW227867   6.130   1.656   2.173
 8990SOL     OW27868   3.668   1.755   3.103
 8990SOL    HW127869   3.691   1.722   3.194
 8990SOL    HW227870   3.744   1.809   3.066
 8991SOL     OW27871   1.251   2.016   1.327
 8991SOL    HW127872   1.154   1.999   1.311
 8991SOL    HW227873   1.277   2.102   1.285
 8992SOL     OW27874   0.870   5.384   4.376
 8992SOL    HW127875   0.824   5.323   4.312
 8992SOL    HW227876   0.967   5.358   4.382
 8993SOL     OW27877   5.317   4.865   3.873
 8993SOL    HW127878   5.272   4.819   3.797
 8993SOL    HW227879   5.371   4.799   3.925
 8994SOL     OW27880   1.312   6.244   3.001
 8994SOL    HW127881   1.348   6.174   3.063
 8994SOL    HW227882   1.224   6.278   3.036
 8995SOL     OW27883   1.758   3.854   2.776
 8995SOL    HW127884   1.855   3.846   2.799
 8995SOL    HW227885   1.705   3.788   2.831
 8996SOL     OW27886   3.267   4.088   1.340
 8996SOL    HW127887   3.237   4.183   1.335
 8996SOL    HW227888   3.342   4.080   1.406
 8997SOL     OW27889   4.442   1.112   5.207
 8997SOL    HW127890   4.403   1.199   5.178
 8997SOL    HW227891   4.433   1.044   5.134
 8998SOL     OW27892   1.115   1.495   5.666
 8998SOL    HW127893   1.042   1.549   5.708
 8998SOL    HW227894   1.178   1.463   5.737
 8999SOL     OW27895   0.261   2.986   5.342
 8999SOL    HW127896   0.301   2.976   5.433
 8999SOL    HW227897   0.334   3.005   5.276
 9000SOL     OW27898   3.883   5.211   1.709
 9000SOL    HW127899   3.863   5.117   1.738
 9000SOL    HW227900   3.906   5.211   1.612
 9001SOL     OW27901   1.645   3.098   3.886
 9001SOL    HW127902   1.571   3.053   3.935
 9001SOL    HW227903   1.686   3.035   3.821
 9002SOL     OW27904   4.911   3.159   6.882
 9002SOL    HW127905   4.964   3.175   6.798
 9002SOL    HW227906   4.955   3.205   6.959
 9003SOL     OW27907   0.231   3.500   0.431
 9003SOL    HW127908   0.237   3.584   0.378
 9003SOL    HW227909   0.306   3.497   0.497
 9004SOL     OW27910   5.433   5.703   0.976
 9004SOL    HW127911   5.402   5.797   0.968
 9004SOL    HW227912   5.517   5.690   0.924
 9005SOL     OW27913   4.722   4.192   4.143
 9005SOL    HW127914   4.759   4.100   4.159
 9005SOL    HW227915   4.796   4.252   4.111
 9006SOL     OW27916   3.419   6.322   2.861
 9006SOL    HW127917   3.440   6.410   2.818
 9006SOL    HW227918   3.446   6.325   2.957
 9007SOL     OW27919   1.957   0.899   5.377
 9007SOL    HW127920   1.976   0.805   5.349
 9007SOL    HW227921   2.007   0.919   5.462
 9008SOL     OW27922   6.644   5.128   1.911
 9008SOL    HW127923   6.741   5.129   1.933
 9008SOL    HW227924   6.630   5.088   1.820
 9009SOL     OW27925   4.183   6.715   0.005
 9009SOL    HW127926   4.088   6.724   7.000
 9009SOL    HW227927   4.244   6.739   6.955
 9010SOL     OW27928   6.805   6.308   4.666
 9010SOL    HW127929   6.896   6.332   4.631
 9010SOL    HW227930   6.736   6.335   4.599
 9011SOL     OW27931   4.666   2.572   2.258
 9011SOL    HW127932   4.587   2.539   2.206
 9011SOL    HW227933   4.675   2.671   2.246
 9012SOL     OW27934   4.002   4.815   1.997
 9012SOL    HW127935   4.062   4.804   1.918
 9012SOL    HW227936   4.057   4.838   2.078
 9013SOL     OW27937   2.850   5.922   1.138
 9013SOL    HW127938   2.842   5.933   1.237
 9013SOL    HW227939   2.854   6.011   1.094
 9014SOL     OW27940   2.356   1.990   2.484
 9014SOL    HW127941   2.381   1.940   2.401
 9014SOL    HW227942   2.439   2.021   2.531
 9015SOL     OW27943   6.209   2.109   4.832
 9015SOL    HW127944   6.133   2.112   4.897
 9015SOL    HW227945   6.175   2.128   4.740
 9016SOL     OW27946   0.226   4.749   0.450
 9016SOL    HW127947   0.172   4.828   0.479
 9016SOL    HW227948   0.288   4.722   0.524
 9017SOL     OW27949   6.173   3.078   1.887
 9017SOL    HW127950   6.206   2.996   1.933
 9017SOL    HW227951   6.093   3.113   1.934
 9018SOL     OW27952   5.656   2.438   6.845
 9018SOL    HW127953   5.565   2.407   6.871
 9018SOL    HW227954   5.684   2.514   6.905
 9019SOL     OW27955   1.787   5.613   0.308
 9019SOL    HW127956   1.824   5.528   0.345
 9019SOL    HW227957   1.727   5.593   0.231
 9020SOL     OW27958   0.775   5.004   4.646
 9020SOL    HW127959   0.861   4.992   4.697
 9020SOL    HW227960   0.698   4.999   4.709
 9021SOL     OW27961   6.706   5.476   5.154
 9021SOL    HW127962   6.718   5.543   5.081
 9021SOL    HW227963   6.719   5.384   5.117
 9022SOL     OW27964   1.001   6.904   5.458
 9022SOL    HW127965   1.059   6.981   5.430
 9022SOL    HW227966   1.055   6.820   5.457
 9023SOL     OW27967   3.163   3.662   4.310
 9023SOL    HW127968   3.096   3.591   4.290
 9023SOL    HW227969   3.128   3.750   4.279
 9024SOL     OW27970   1.520   0.572   0.622
 9024SOL    HW127971   1.499   0.576   0.524
 9024SOL    HW227972   1.481   0.653   0.668
 9025SOL     OW27973   0.263   2.739   0.280
 9025SOL    HW127974   0.350   2.771   0.243
 9025SOL    HW227975   0.279   2.696   0.369
 9026SOL     OW27976   2.812   4.604   6.225
 9026SOL    HW127977   2.750   4.651   6.161
 9026SOL    HW227978   2.797   4.506   6.220
 9027SOL     OW27979   1.263   3.187   1.454
 9027SOL    HW127980   1.267   3.265   1.392
 9027SOL    HW227981   1.167   3.168   1.477
 9028SOL     OW27982   1.894   3.811   5.310
 9028SOL    HW127983   1.926   3.787   5.218
 9028SOL    HW227984   1.837   3.737   5.346
 9029SOL     OW27985   4.456   5.002   2.820
 9029SOL    HW127986   4.548   5.033   2.797
 9029SOL    HW227987   4.448   4.904   2.802
 9030SOL     OW27988   5.118   2.664   2.163
 9030SOL    HW127989   5.070   2.644   2.077
 9030SOL    HW227990   5.149   2.759   2.163
 9031SOL     OW27991   2.153   0.598   2.883
 9031SOL    HW127992   2.126   0.692   2.863
 9031SOL    HW227993   2.119   0.538   2.812
 9032SOL     OW27994   0.514   3.936   3.050
 9032SOL    HW127995   0.500   3.860   2.987
 9032SOL    HW227996   0.612   3.950   3.065
 9033SOL     OW27997   0.590   2.725   2.282
 9033SOL    HW127998   0.677   2.720   2.329
 9033SOL    HW227999   0.516   2.735   2.348
 9034SOL     OW28000   1.293   6.373   1.005
 9034SOL    HW128001   1.305   6.295   0.943
 9034SOL    HW228002   1.340   6.354   1.091
 9035SOL     OW28003   6.058   1.697   4.082
 9035SOL    HW128004   6.075   1.737   4.172
 9035SOL    HW228005   6.077   1.599   4.084
 9036SOL     OW28006   0.105   2.069   4.108
 9036SOL    HW128007   0.090   2.162   4.141
 9036SOL    HW228008   0.187   2.031   4.150
 9037SOL     OW28009   3.052   4.030   6.373
 9037SOL    HW128010   3.035   3.943   6.328
 9037SOL    HW228011   2.983   4.096   6.344
 9038SOL     OW28012   4.095   6.140   5.654
 9038SOL    HW128013   4.139   6.067   5.706
 9038SOL    HW228014   4.059   6.103   5.569
 9039SOL     OW28015   2.582   4.707   0.352
 9039SOL    HW128016   2.612   4.712   0.256
 9039SOL    HW228017   2.500   4.650   0.359
 9040SOL     OW28018   4.118   1.395   2.334
 9040SOL    HW128019   4.088   1.303   2.310
 9040SOL    HW228020   4.097   1.413   2.430
 9041SOL     OW28021   2.406   2.700   5.098
 9041SOL    HW128022   2.470   2.776   5.090
 9041SOL    HW228023   2.330   2.726   5.157
 9042SOL     OW28024   1.027   5.047   2.568
 9042SOL    HW128025   1.092   4.972   2.579
 9042SOL    HW228026   1.039   5.114   2.642
 9043SOL     OW28027   0.702   1.745   6.287
 9043SOL    HW128028   0.618   1.797   6.300
 9043SOL    HW228029   0.720   1.689   6.367
 9044SOL     OW28030   0.287   4.228   1.224
 9044SOL    HW128031   0.346   4.297   1.181
 9044SOL    HW228032   0.266   4.257   1.318
 9045SOL     OW28033   1.572   4.608   4.970
 9045SOL    HW128034   1.615   4.528   5.011
 9045SOL    HW228035   1.483   4.582   4.932
 9046SOL     OW28036   4.350   4.473   5.822
 9046SOL    HW128037   4.384   4.411   5.752
 9046SOL    HW228038   4.262   4.440   5.856
 9047SOL     OW28039   0.390   5.429   4.215
 9047SOL    HW128040   0.442   5.514   4.228
 9047SOL    HW228041   0.397   5.373   4.297
 9048SOL     OW28042   0.928   1.796   5.542
 9048SOL    HW128043   1.016   1.775   5.500
 9048SOL    HW228044   0.924   1.752   5.632
 9049SOL     OW28045   4.313   5.575   5.874
 9049SOL    HW128046   4.361   5.660   5.895
 9049SOL    HW228047   4.371   5.517   5.817
 9050SOL     OW28048   0.657   3.519   7.000
 9050SOL    HW128049   0.591   3.529   6.926
 9050SOL    HW228050   0.609   3.506   0.061
 9051SOL     OW28051   0.239   5.953   6.639
 9051SOL    HW128052   0.174   5.962   6.715
 9051SOL    HW228053   0.264   6.044   6.607
 9052SOL     OW28054   2.177   4.554   4.140
 9052SOL    HW128055   2.180   4.575   4.238
 9052SOL    HW228056   2.092   4.590   4.102
 9053SOL     OW28057   0.593   0.697   2.862
 9053SOL    HW128058   0.547   0.754   2.794
 9053SOL    HW228059   0.548   0.607   2.865
 9054SOL     OW28060   1.143   6.925   1.394
 9054SOL    HW128061   1.126   6.891   1.486
 9054SOL    HW228062   1.068   6.898   1.333
 9055SOL     OW28063   1.463   3.084   5.626
 9055SOL    HW128064   1.506   3.137   5.699
 9055SOL    HW228065   1.533   3.039   5.571
 9056SOL     OW28066   5.315   2.467   1.758
 9056SOL    HW128067   5.333   2.565   1.768
 9056SOL    HW228068   5.402   2.420   1.741
 9057SOL     OW28069   3.332   0.319   5.884
 9057SOL    HW128070   3.276   0.390   5.928
 9057SOL    HW228071   3.353   0.346   5.790
 9058SOL     OW28072   2.355   2.734   3.506
 9058SOL    HW128073   2.399   2.714   3.419
 9058SOL    HW228074   2.263   2.770   3.491
 9059SOL     OW28075   0.455   6.855   2.267
 9059SOL    HW128076   0.473   6.799   2.348
 9059SOL    HW228077   0.464   6.799   2.185
 9060SOL     OW28078   0.654   4.946   0.237
 9060SOL    HW128079   0.570   4.895   0.216
 9060SOL    HW228080   0.696   4.909   0.319
 9061SOL     OW28081   3.585   5.168   2.989
 9061SOL    HW128082   3.644   5.105   2.938
 9061SOL    HW228083   3.509   5.118   3.030
 9062SOL     OW28084   6.651   5.741   3.152
 9062SOL    HW128085   6.678   5.812   3.217
 9062SOL    HW228086   6.722   5.732   3.081
 9063SOL     OW28087   5.930   6.452   1.127
 9063SOL    HW128088   6.026   6.437   1.103
 9063SOL    HW228089   5.872   6.393   1.070
 9064SOL     OW28090   1.339   6.265   3.966
 9064SOL    HW128091   1.360   6.187   4.025
 9064SOL    HW228092   1.336   6.349   4.021
 9065SOL     OW28093   3.247   4.007   6.897
 9065SOL    HW128094   3.280   3.966   6.982
 9065SOL    HW228095   3.227   3.935   6.831
 9066SOL     OW28096   5.684   5.232   3.942
 9066SOL    HW128097   5.778   5.240   3.907
 9066SOL    HW228098   5.663   5.312   3.998
 9067SOL     OW28099   1.952   0.260   3.823
 9067SOL    HW128100   1.930   0.177   3.875
 9067SOL    HW228101   1.993   0.235   3.736
 9068SOL     OW28102   5.359   0.610   4.439
 9068SOL    HW128103   5.353   0.552   4.358
 9068SOL    HW228104   5.442   0.587   4.490
 9069SOL     OW28105   4.529   2.919   1.201
 9069SOL    HW128106   4.509   2.950   1.108
 9069SOL    HW228107   4.472   2.839   1.222
 9070SOL     OW28108   0.638   0.744   6.341
 9070SOL    HW128109   0.578   0.668   6.316
 9070SOL    HW228110   0.647   0.749   6.441
 9071SOL     OW28111   5.510   2.311   0.182
 9071SOL    HW128112   5.434   2.376   0.185
 9071SOL    HW228113   5.518   2.266   0.271
 9072SOL     OW28114   5.893   0.749   1.552
 9072SOL    HW128115   5.865   0.654   1.544
 9072SOL    HW228116   5.821   0.801   1.597
 9073SOL     OW28117   4.838   3.038   6.533
 9073SOL    HW128118   4.812   3.057   6.438
 9073SOL    HW228119   4.887   2.951   6.537
 9074SOL     OW28120   2.029   0.220   3.102
 9074SOL    HW128121   2.057   0.195   3.009
 9074SOL    HW228122   1.944   0.273   3.099
 9075SOL     OW28123   4.749   5.717   1.179
 9075SOL    HW128124   4.808   5.723   1.098
 9075SOL    HW228125   4.800   5.745   1.260
 9076SOL     OW28126   0.724   6.981   2.210
 9076SOL    HW128127   0.651   6.944   2.268
 9076SOL    HW228128   0.696   6.973   2.114
 9077SOL     OW28129   6.121   0.090   0.295
 9077SOL    HW128130   6.218   0.067   0.281
 9077SOL    HW228131   6.108   0.124   0.388
 9078SOL     OW28132   5.170   6.604   6.568
 9078SOL    HW128133   5.258   6.574   6.604
 9078SOL    HW228134   5.097   6.581   6.633
 9079SOL     OW28135   3.053   1.289   6.442
 9079SOL    HW128136   2.957   1.305   6.467
 9079SOL    HW228137   3.112   1.335   6.508
 9080SOL     OW28138   6.645   4.912   1.223
 9080SOL    HW128139   6.579   4.848   1.262
 9080SOL    HW228140   6.671   4.882   1.132
 9081SOL     OW28141   5.244   2.041   6.103
 9081SOL    HW128142   5.200   2.015   6.188
 9081SOL    HW228143   5.327   2.093   6.123
 9082SOL     OW28144   2.820   4.454   6.786
 9082SOL    HW128145   2.786   4.425   6.697
 9082SOL    HW228146   2.918   4.434   6.793
 9083SOL     OW28147   3.632   0.285   0.861
 9083SOL    HW128148   3.709   0.221   0.860
 9083SOL    HW228149   3.655   0.366   0.807
 9084SOL     OW28150   0.467   4.396   4.055
 9084SOL    HW128151   0.398   4.390   3.982
 9084SOL    HW228152   0.546   4.446   4.021
 9085SOL     OW28153   3.353   4.941   2.271
 9085SOL    HW128154   3.253   4.929   2.267
 9085SOL    HW228155   3.388   4.899   2.355
 9086SOL     OW28156   0.373   1.488   0.069
 9086SOL    HW128157   0.281   1.513   0.037
 9086SOL    HW228158   0.370   1.468   0.167
 9087SOL     OW28159   4.599   1.699   0.166
 9087SOL    HW128160   4.624   1.604   0.186
 9087SOL    HW228161   4.679   1.748   0.132
 9088SOL     OW28162   5.871   6.464   0.791
 9088SOL    HW128163   5.871   6.561   0.769
 9088SOL    HW228164   5.777   6.432   0.802
 9089SOL     OW28165   4.679   4.871   3.131
 9089SOL    HW128166   4.718   4.787   3.169
 9089SOL    HW228167   4.687   4.945   3.198
 9090SOL     OW28168   6.253   4.446   5.205
 9090SOL    HW128169   6.340   4.495   5.207
 9090SOL    HW228170   6.214   4.444   5.297
 9091SOL     OW28171   1.754   1.916   2.211
 9091SOL    HW128172   1.715   1.980   2.146
 9091SOL    HW228173   1.845   1.947   2.239
 9092SOL     OW28174   3.469   2.033   5.173
 9092SOL    HW128175   3.540   1.972   5.208
 9092SOL    HW228176   3.420   1.989   5.098
 9093SOL     OW28177   1.345   4.208   1.185
 9093SOL    HW128178   1.284   4.130   1.170
 9093SOL    HW228179   1.440   4.178   1.178
 9094SOL     OW28180   0.650   2.701   6.869
 9094SOL    HW128181   0.694   2.612   6.877
 9094SOL    HW228182   0.709   2.771   6.910
 9095SOL     OW28183   2.804   2.561   1.265
 9095SOL    HW128184   2.891   2.529   1.228
 9095SOL    HW228185   2.819   2.607   1.353
 9096SOL     OW28186   0.280   4.240   3.593
 9096SOL    HW128187   0.187   4.223   3.562
 9096SOL    HW228188   0.345   4.193   3.533
 9097SOL     OW28189   6.925   5.891   5.570
 9097SOL    HW128190   6.942   5.986   5.542
 9097SOL    HW228191   6.876   5.891   5.657
 9098SOL     OW28192   2.938   3.193   6.093
 9098SOL    HW128193   2.923   3.244   6.177
 9098SOL    HW228194   2.856   3.141   6.070
 9099SOL     OW28195   1.952   2.831   6.124
 9099SOL    HW128196   1.985   2.915   6.168
 9099SOL    HW228197   1.859   2.811   6.157
 9100SOL     OW28198   1.339   1.565   0.805
 9100SOL    HW128199   1.334   1.532   0.711
 9100SOL    HW228200   1.317   1.663   0.808
 9101SOL     OW28201   2.519   1.761   0.528
 9101SOL    HW128202   2.552   1.712   0.608
 9101SOL    HW228203   2.547   1.857   0.533
 9102SOL     OW28204   4.215   5.721   2.512
 9102SOL    HW128205   4.274   5.685   2.440
 9102SOL    HW228206   4.246   5.688   2.601
 9103SOL     OW28207   1.559   3.829   6.291
 9103SOL    HW128208   1.657   3.822   6.311
 9103SOL    HW228209   1.528   3.922   6.312
 9104SOL     OW28210   4.568   6.935   2.663
 9104SOL    HW128211   4.578   6.906   2.758
 9104SOL    HW228212   4.528   0.002   2.660
 9105SOL     OW28213   3.233   2.100   6.163
 9105SOL    HW128214   3.302   2.045   6.211
 9105SOL    HW228215   3.254   2.197   6.173
 9106SOL     OW28216   6.545   5.528   1.676
 9106SOL    HW128217   6.499   5.485   1.598
 9106SOL    HW228218   6.600   5.605   1.643
 9107SOL     OW28219   4.687   6.707   6.723
 9107SOL    HW128220   4.660   6.706   6.819
 9107SOL    HW228221   4.610   6.735   6.666
 9108SOL     OW28222   3.596   5.748   0.223
 9108SOL    HW128223   3.497   5.755   0.214
 9108SOL    HW228224   3.640   5.783   0.140
 9109SOL     OW28225   3.457   1.546   4.282
 9109SOL    HW128226   3.501   1.588   4.362
 9109SOL    HW228227   3.359   1.541   4.298
 9110SOL     OW28228   0.640   3.820   3.433
 9110SOL    HW128229   0.621   3.793   3.527
 9110SOL    HW228230   0.619   3.743   3.372
 9111SOL     OW28231   3.486   4.437   1.621
 9111SOL    HW128232   3.517   4.503   1.690
 9111SOL    HW228233   3.387   4.429   1.626
 9112SOL     OW28234   1.020   6.571   2.585
 9112SOL    HW128235   1.077   6.489   2.593
 9112SOL    HW228236   1.009   6.595   2.489
 9113SOL     OW28237   1.946   6.836   1.330
 9113SOL    HW128238   2.024   6.777   1.348
 9113SOL    HW228239   1.870   6.810   1.390
 9114SOL     OW28240   3.088   3.579   2.248
 9114SOL    HW128241   3.105   3.529   2.163
 9114SOL    HW228242   3.152   3.549   2.318
 9115SOL     OW28243   1.560   4.604   4.097
 9115SOL    HW128244   1.468   4.588   4.131
 9115SOL    HW228245   1.581   4.540   4.024
 9116SOL     OW28246   3.471   2.733   6.870
 9116SOL    HW128247   3.424   2.802   6.814
 9116SOL    HW228248   3.405   2.664   6.900
 9117SOL     OW28249   1.331   2.855   0.554
 9117SOL    HW128250   1.402   2.915   0.517
 9117SOL    HW228251   1.248   2.862   0.500
 9118SOL     OW28252   0.376   6.492   1.713
 9118SOL    HW128253   0.374   6.457   1.619
 9118SOL    HW228254   0.461   6.464   1.757
 9119SOL     OW28255   6.311   0.077   0.657
 9119SOL    HW128256   6.364   7.024   0.625
 9119SOL    HW228257   6.365   0.161   0.648
 9120SOL     OW28258   6.315   6.800   6.436
 9120SOL    HW128259   6.311   6.710   6.394
 9120SOL    HW228260   6.355   6.793   6.527
 9121SOL     OW28261   1.116   0.504   6.035
 9121SOL    HW128262   1.121   0.440   6.112
 9121SOL    HW228263   1.041   0.569   6.050
 9122SOL     OW28264   6.888   3.801   1.314
 9122SOL    HW128265   6.854   3.718   1.359
 9122SOL    HW228266   6.903   3.872   1.382
 9123SOL     OW28267   1.461   0.175   5.300
 9123SOL    HW128268   1.408   0.188   5.216
 9123SOL    HW228269   1.423   0.098   5.351
 9124SOL     OW28270   0.292   4.143   5.257
 9124SOL    HW128271   0.290   4.055   5.304
 9124SOL    HW228272   0.220   4.145   5.187
 9125SOL     OW28273   4.786   6.019   1.625
 9125SOL    HW128274   4.745   6.110   1.636
 9125SOL    HW228275   4.827   5.990   1.711
 9126SOL     OW28276   5.202   0.852   3.395
 9126SOL    HW128277   5.258   0.847   3.312
 9126SOL    HW228278   5.221   0.937   3.443
 9127SOL     OW28279   5.740   5.159   5.678
 9127SOL    HW128280   5.713   5.222   5.605
 9127SOL    HW228281   5.702   5.190   5.765
 9128SOL     OW28282   4.703   2.848   4.994
 9128SOL    HW128283   4.658   2.883   5.076
 9128SOL    HW228284   4.722   2.751   5.005
 9129SOL     OW28285   3.497   1.034   0.768
 9129SOL    HW128286   3.417   0.985   0.734
 9129SOL    HW228287   3.502   1.025   0.868
 9130SOL     OW28288   5.831   5.589   1.641
 9130SOL    HW128289   5.873   5.668   1.596
 9130SOL    HW228290   5.801   5.614   1.732
 9131SOL     OW28291   0.836   4.646   3.560
 9131SOL    HW128292   0.866   4.734   3.598
 9131SOL    HW228293   0.913   4.581   3.563
 9132SOL     OW28294   1.176   3.170   4.123
 9132SOL    HW128295   1.201   3.131   4.035
 9132SOL    HW228296   1.077   3.161   4.136
 9133SOL     OW28297   1.982   5.279   0.900
 9133SOL    HW128298   1.898   5.317   0.863
 9133SOL    HW228299   2.011   5.332   0.980
 9134SOL     OW28300   3.215   5.278   6.107
 9134SOL    HW128301   3.259   5.261   6.019
 9134SOL    HW228302   3.150   5.204   6.126
 9135SOL     OW28303   0.849   6.951   2.667
 9135SOL    HW128304   0.932   6.950   2.724
 9135SOL    HW228305   0.803   0.014   2.678
 9136SOL     OW28306   3.603   4.996   6.124
 9136SOL    HW128307   3.629   5.048   6.043
 9136SOL    HW228308   3.599   5.057   6.203
 9137SOL     OW28309   2.954   0.152   2.579
 9137SOL    HW128310   2.863   0.161   2.618
 9137SOL    HW228311   3.022   0.185   2.644
 9138SOL     OW28312   3.656   4.303   1.476
 9138SOL    HW128313   3.579   4.343   1.526
 9138SOL    HW228314   3.677   4.359   1.396
 9139SOL     OW28315   4.591   0.661   5.837
 9139SOL    HW128316   4.542   0.713   5.907
 9139SOL    HW228317   4.531   0.645   5.759
 9140SOL     OW28318   6.778   2.151   4.122
 9140SOL    HW128319   6.787   2.250   4.111
 9140SOL    HW228320   6.690   2.130   4.164
 9141SOL     OW28321   4.976   1.583   4.737
 9141SOL    HW128322   5.048   1.519   4.709
 9141SOL    HW228323   5.008   1.677   4.726
 9142SOL     OW28324   1.388   2.745   6.975
 9142SOL    HW128325   1.396   2.801   6.893
 9142SOL    HW228326   1.467   2.684   6.982
 9143SOL     OW28327   6.634   3.889   1.171
 9143SOL    HW128328   6.676   3.825   1.235
 9143SOL    HW228329   6.655   3.861   1.077
 9144SOL     OW28330   1.527   6.052   4.295
 9144SOL    HW128331   1.448   6.043   4.235
 9144SOL    HW228332   1.591   5.977   4.277
 9145SOL     OW28333   1.585   2.794   0.273
 9145SOL    HW128334   1.552   2.873   0.221
 9145SOL    HW228335   1.655   2.823   0.338
 9146SOL     OW28336   0.401   1.466   2.249
 9146SOL    HW128337   0.428   1.495   2.157
 9146SOL    HW228338   0.417   1.368   2.260
 9147SOL     OW28339   4.072   5.024   6.465
 9147SOL    HW128340   3.978   5.034   6.432
 9147SOL    HW228341   4.089   4.927   6.486
 9148SOL     OW28342   3.634   5.132   3.302
 9148SOL    HW128343   3.662   5.093   3.214
 9148SOL    HW228344   3.586   5.218   3.286
 9149SOL     OW28345   6.054   3.730   4.467
 9149SOL    HW128346   5.992   3.800   4.504
 9149SOL    HW228347   6.061   3.740   4.368
 9150SOL     OW28348   3.656   1.131   3.184
 9150SOL    HW128349   3.719   1.169   3.117
 9150SOL    HW228350   3.562   1.153   3.157
 9151SOL     OW28351   5.888   3.829   2.091
 9151SOL    HW128352   5.898   3.928   2.097
 9151SOL    HW228353   5.975   3.788   2.062
 9152SOL     OW28354   1.952   4.299   2.825
 9152SOL    HW128355   1.971   4.380   2.768
 9152SOL    HW228356   2.034   4.275   2.877
 9153SOL     OW28357   2.052   2.321   0.477
 9153SOL    HW128358   1.993   2.364   0.408
 9153SOL    HW228359   2.100   2.244   0.436
 9154SOL     OW28360   0.593   4.795   0.916
 9154SOL    HW128361   0.675   4.801   0.859
 9154SOL    HW228362   0.571   4.886   0.951
 9155SOL     OW28363   1.578   5.236   6.799
 9155SOL    HW128364   1.592   5.333   6.781
 9155SOL    HW228365   1.664   5.187   6.789
 9156SOL     OW28366   4.738   2.851   1.586
 9156SOL    HW128367   4.698   2.854   1.677
 9156SOL    HW228368   4.748   2.943   1.550
 9157SOL     OW28369   5.666   3.768   5.575
 9157SOL    HW128370   5.686   3.864   5.595
 9157SOL    HW228371   5.746   3.726   5.531
 9158SOL     OW28372   1.028   4.521   3.180
 9158SOL    HW128373   1.016   4.422   3.178
 9158SOL    HW228374   1.104   4.544   3.240
 9159SOL     OW28375   0.068   6.015   1.971
 9159SOL    HW128376   0.011   5.966   2.036
 9159SOL    HW228377   0.011   6.075   1.915
 9160SOL     OW28378   0.993   5.893   0.818
 9160SOL    HW128379   1.034   5.941   0.740
 9160SOL    HW228380   1.056   5.823   0.851
 9161SOL     OW28381   5.081   2.729   1.610
 9161SOL    HW128382   5.150   2.702   1.543
 9161SOL    HW228383   5.085   2.827   1.624
 9162SOL     OW28384   5.515   3.066   3.501
 9162SOL    HW128385   5.614   3.081   3.503
 9162SOL    HW228386   5.486   3.046   3.407
 9163SOL     OW28387   3.746   0.865   4.984
 9163SOL    HW128388   3.748   0.902   5.076
 9163SOL    HW228389   3.725   0.767   4.988
 9164SOL     OW28390   2.739   0.130   1.192
 9164SOL    HW128391   2.740   0.194   1.115
 9164SOL    HW228392   2.832   0.111   1.222
 9165SOL     OW28393   5.283   5.387   1.265
 9165SOL    HW128394   5.325   5.310   1.314
 9165SOL    HW228395   5.332   5.471   1.289
 9166SOL     OW28396   3.692   4.896   1.095
 9166SOL    HW128397   3.707   4.988   1.131
 9166SOL    HW228398   3.743   4.885   1.009
 9167SOL     OW28399   0.810   3.890   4.413
 9167SOL    HW128400   0.819   3.882   4.512
 9167SOL    HW228401   0.802   3.986   4.388
 9168SOL     OW28402   3.920   1.098   6.837
 9168SOL    HW128403   3.966   1.043   6.768
 9168SOL    HW228404   3.982   1.114   6.914
 9169SOL     OW28405   1.040   0.095   4.275
 9169SOL    HW128406   1.067   0.191   4.281
 9169SOL    HW228407   1.030   0.069   4.179
 9170SOL     OW28408   6.648   5.080   0.784
 9170SOL    HW128409   6.648   5.008   0.853
 9170SOL    HW228410   6.705   5.054   0.707
 9171SOL     OW28411   4.214   5.672   4.300
 9171SOL    HW128412   4.254   5.732   4.370
 9171SOL    HW228413   4.123   5.706   4.275
 9172SOL     OW28414   1.320   2.425   4.293
 9172SOL    HW128415   1.401   2.464   4.248
 9172SOL    HW228416   1.260   2.499   4.323
 9173SOL     OW28417   6.701   5.641   4.918
 9173SOL    HW128418   6.727   5.678   4.828
 9173SOL    HW228419   6.602   5.650   4.930
 9174SOL     OW28420   0.399   5.369   6.222
 9174SOL    HW128421   0.321   5.322   6.264
 9174SOL    HW228422   0.424   5.322   6.138
 9175SOL     OW28423   2.058   6.491   6.363
 9175SOL    HW128424   1.968   6.449   6.351
 9175SOL    HW228425   2.058   6.582   6.321
 9176SOL     OW28426   1.111   2.804   5.986
 9176SOL    HW128427   1.029   2.853   5.956
 9176SOL    HW228428   1.093   2.705   5.987
 9177SOL     OW28429   1.731   4.268   2.630
 9177SOL    HW128430   1.680   4.204   2.687
 9177SOL    HW228431   1.804   4.310   2.684
 9178SOL     OW28432   1.564   3.963   6.984
 9178SOL    HW128433   1.539   3.870   7.009
 9178SOL    HW228434   1.554   4.023   0.039
 9179SOL     OW28435   3.068   4.360   5.294
 9179SOL    HW128436   3.003   4.308   5.348
 9179SOL    HW228437   3.020   4.435   5.247
 9180SOL     OW28438   5.037   1.935   1.879
 9180SOL    HW128439   4.953   1.969   1.921
 9180SOL    HW228440   5.116   1.986   1.915
 9181SOL     OW28441   3.439   1.167   2.167
 9181SOL    HW128442   3.528   1.212   2.169
 9181SOL    HW228443   3.450   1.073   2.135
 9182SOL     OW28444   2.280   6.929   1.541
 9182SOL    HW128445   2.283   6.830   1.552
 9182SOL    HW228446   2.291   6.952   1.444
 9183SOL     OW28447   5.404   4.846   5.350
 9183SOL    HW128448   5.382   4.777   5.419
 9183SOL    HW228449   5.347   4.832   5.269
 9184SOL     OW28450   5.532   6.757   7.025
 9184SOL    HW128451   5.496   6.670   0.034
 9184SOL    HW228452   5.460   6.827   0.003
 9185SOL     OW28453   5.293   0.959   5.150
 9185SOL    HW128454   5.245   1.008   5.224
 9185SOL    HW228455   5.272   1.003   5.063
 9186SOL     OW28456   5.298   1.129   6.124
 9186SOL    HW128457   5.203   1.125   6.093
 9186SOL    HW228458   5.357   1.090   6.054
 9187SOL     OW28459   1.551   5.912   2.452
 9187SOL    HW128460   1.473   5.869   2.407
 9187SOL    HW228461   1.604   5.964   2.386
 9188SOL     OW28462   3.056   5.686   0.035
 9188SOL    HW128463   3.080   5.595   0.000
 9188SOL    HW228464   2.983   5.678   0.103
 9189SOL     OW28465   5.108   4.903   2.276
 9189SOL    HW128466   5.122   4.849   2.193
 9189SOL    HW228467   5.017   4.883   2.313
 9190SOL     OW28468   1.604   5.957   0.158
 9190SOL    HW128469   1.700   5.935   0.139
 9190SOL    HW228470   1.581   5.925   0.250
 9191SOL     OW28471   6.225   0.653   6.478
 9191SOL    HW128472   6.253   0.567   6.520
 9191SOL    HW228473   6.146   0.636   6.418
 9192SOL     OW28474   1.137   3.654   4.838
 9192SOL    HW128475   1.179   3.566   4.817
 9192SOL    HW228476   1.200   3.709   4.893
 9193SOL     OW28477   4.146   4.382   1.045
 9193SOL    HW128478   4.099   4.458   1.091
 9193SOL    HW228479   4.116   4.377   0.950
 9194SOL     OW28480   3.279   0.341   4.462
 9194SOL    HW128481   3.248   0.425   4.417
 9194SOL    HW228482   3.373   0.321   4.436
 9195SOL     OW28483   2.276   1.763   4.064
 9195SOL    HW128484   2.365   1.793   4.100
 9195SOL    HW228485   2.216   1.842   4.054
 9196SOL     OW28486   5.355   0.931   5.466
 9196SOL    HW128487   5.300   0.994   5.410
 9196SOL    HW228488   5.344   0.954   5.562
 9197SOL     OW28489   3.187   3.284   0.624
 9197SOL    HW128490   3.116   3.256   0.689
 9197SOL    HW228491   3.247   3.351   0.667
 9198SOL     OW28492   1.539   4.271   4.931
 9198SOL    HW128493   1.558   4.176   4.957
 9198SOL    HW228494   1.485   4.273   4.847
 9199SOL     OW28495   6.159   5.390   4.795
 9199SOL    HW128496   6.086   5.349   4.740
 9199SOL    HW228497   6.198   5.321   4.856
 9200SOL     OW28498   3.750   5.848   1.330
 9200SOL    HW128499   3.794   5.818   1.414
 9200SOL    HW228500   3.787   5.936   1.302
 9201SOL     OW28501   2.341   4.850   0.843
 9201SOL    HW128502   2.433   4.870   0.808
 9201SOL    HW228503   2.287   4.934   0.843
 9202SOL     OW28504   2.694   1.537   4.015
 9202SOL    HW128505   2.606   1.572   3.984
 9202SOL    HW228506   2.681   1.447   4.057
 9203SOL     OW28507   6.375   6.669   1.198
 9203SOL    HW128508   6.334   6.693   1.286
 9203SOL    HW228509   6.359   6.743   1.132
 9204SOL     OW28510   5.552   0.243   4.896
 9204SOL    HW128511   5.616   0.167   4.901
 9204SOL    HW228512   5.564   0.303   4.976
 9205SOL     OW28513   0.107   5.002   2.890
 9205SOL    HW128514   0.017   4.998   2.847
 9205SOL    HW228515   0.140   5.097   2.889
 9206SOL     OW28516   3.787   0.625   6.941
 9206SOL    HW128517   3.763   0.691   7.013
 9206SOL    HW228518   3.799   0.535   6.982
 9207SOL     OW28519   5.126   5.606   6.398
 9207SOL    HW128520   5.162   5.696   6.422
 9207SOL    HW228521   5.042   5.588   6.450
 9208SOL     OW28522   1.479   3.502   2.081
 9208SOL    HW128523   1.465   3.543   1.991
 9208SOL    HW228524   1.493   3.574   2.149
 9209SOL     OW28525   2.310   6.384   6.207
 9209SOL    HW128526   2.374   6.452   6.245
 9209SOL    HW228527   2.219   6.398   6.246
 9210SOL     OW28528   5.939   0.593   3.946
 9210SOL    HW128529   5.950   0.574   3.849
 9210SOL    HW228530   6.028   0.619   3.985
 9211SOL     OW28531   1.124   1.498   2.966
 9211SOL    HW128532   1.168   1.450   2.889
 9211SOL    HW228533   1.029   1.518   2.943
 9212SOL     OW28534   4.878   4.764   4.894
 9212SOL    HW128535   4.915   4.852   4.926
 9212SOL    HW228536   4.887   4.759   4.795
 9213SOL     OW28537   6.310   3.955   0.793
 9213SOL    HW128538   6.347   4.036   0.838
 9213SOL    HW228539   6.293   3.976   0.697
 9214SOL     OW28540   6.590   5.240   1.020
 9214SOL    HW128541   6.618   5.335   1.010
 9214SOL    HW228542   6.608   5.191   0.935
 9215SOL     OW28543   0.789   1.372   1.186
 9215SOL    HW128544   0.719   1.436   1.155
 9215SOL    HW228545   0.778   1.285   1.138
 9216SOL     OW28546   1.660   6.888   3.854
 9216SOL    HW128547   1.625   6.897   3.761
 9216SOL    HW228548   1.611   6.951   3.915
 9217SOL     OW28549   0.707   2.433   1.107
 9217SOL    HW128550   0.627   2.410   1.052
 9217SOL    HW228551   0.785   2.451   1.047
 9218SOL     OW28552   2.464   0.890   0.931
 9218SOL    HW128553   2.421   0.980   0.926
 9218SOL    HW228554   2.470   0.862   1.027
 9219SOL     OW28555   5.555   0.901   0.596
 9219SOL    HW128556   5.621   0.861   0.660
 9219SOL    HW228557   5.495   0.829   0.561
 9220SOL     OW28558   3.637   6.681   0.364
 9220SOL    HW128559   3.593   6.591   0.373
 9220SOL    HW228560   3.592   6.746   0.425
 9221SOL     OW28561   2.996   4.894   4.977
 9221SOL    HW128562   3.050   4.902   4.894
 9221SOL    HW228563   2.931   4.819   4.968
 9222SOL     OW28564   2.912   2.524   0.156
 9222SOL    HW128565   3.003   2.485   0.146
 9222SOL    HW228566   2.847   2.470   0.103
 9223SOL     OW28567   3.037   3.296   4.990
 9223SOL    HW128568   2.995   3.344   5.067
 9223SOL    HW228569   3.006   3.337   4.904
 9224SOL     OW28570   2.274   4.544   5.530
 9224SOL    HW128571   2.242   4.559   5.624
 9224SOL    HW228572   2.352   4.482   5.531
 9225SOL     OW28573   1.603   5.538   0.166
 9225SOL    HW128574   1.601   5.460   0.229
 9225SOL    HW228575   1.527   5.529   0.100
 9226SOL     OW28576   4.818   6.294   0.793
 9226SOL    HW128577   4.855   6.266   0.704
 9226SOL    HW228578   4.822   6.394   0.800
 9227SOL     OW28579   0.903   6.209   2.083
 9227SOL    HW128580   0.967   6.169   2.018
 9227SOL    HW228581   0.942   6.206   2.175
 9228SOL     OW28582   1.105   5.903   0.243
 9228SOL    HW128583   1.140   5.975   0.302
 9228SOL    HW228584   1.129   5.924   0.148
 9229SOL     OW28585   1.261   6.488   5.114
 9229SOL    HW128586   1.330   6.418   5.092
 9229SOL    HW228587   1.279   6.570   5.060
 9230SOL     OW28588   4.988   1.179   3.143
 9230SOL    HW128589   4.979   1.265   3.093
 9230SOL    HW228590   5.080   1.171   3.180
 9231SOL     OW28591   2.187   3.116   3.357
 9231SOL    HW128592   2.171   3.143   3.262
 9231SOL    HW228593   2.222   3.022   3.359
 9232SOL     OW28594   4.031   5.701   0.453
 9232SOL    HW128595   3.953   5.661   0.501
 9232SOL    HW228596   4.002   5.786   0.408
 9233SOL     OW28597   6.524   4.128   0.834
 9233SOL    HW128598   6.504   4.111   0.738
 9233SOL    HW228599   6.565   4.218   0.845
 9234SOL     OW28600   1.325   6.045   4.111
 9234SOL    HW128601   1.240   6.053   4.162
 9234SOL    HW228602   1.335   5.952   4.076
 9235SOL     OW28603   0.964   2.517   3.143
 9235SOL    HW128604   0.972   2.515   3.243
 9235SOL    HW228605   0.984   2.609   3.110
 9236SOL     OW28606   3.130   2.684   6.324
 9236SOL    HW128607   3.224   2.657   6.304
 9236SOL    HW228608   3.071   2.604   6.320
 9237SOL     OW28609   1.314   3.535   2.527
 9237SOL    HW128610   1.413   3.552   2.524
 9237SOL    HW228611   1.266   3.622   2.529
 9238SOL     OW28612   4.523   4.582   0.060
 9238SOL    HW128613   4.569   4.561   6.999
 9238SOL    HW228614   4.431   4.543   0.059
 9239SOL     OW28615   2.192   3.318   6.941
 9239SOL    HW128616   2.202   3.314   6.842
 9239SOL    HW228617   2.111   3.267   6.968
 9240SOL     OW28618   4.321   0.504   2.026
 9240SOL    HW128619   4.283   0.411   2.031
 9240SOL    HW228620   4.378   0.521   2.106
 9241SOL     OW28621   1.163   5.734   5.161
 9241SOL    HW128622   1.189   5.821   5.118
 9241SOL    HW228623   1.064   5.723   5.155
 9242SOL     OW28624   4.971   6.755   1.728
 9242SOL    HW128625   4.972   6.671   1.673
 9242SOL    HW228626   5.050   6.811   1.704
 9243SOL     OW28627   5.599   0.503   4.496
 9243SOL    HW128628   5.638   0.558   4.569
 9243SOL    HW228629   5.629   0.539   4.407
 9244SOL     OW28630   3.336   6.460   0.399
 9244SOL    HW128631   3.427   6.452   0.359
 9244SOL    HW228632   3.340   6.444   0.497
 9245SOL     OW28633   0.365   6.541   2.110
 9245SOL    HW128634   0.370   6.461   2.050
 9245SOL    HW228635   0.445   6.600   2.094
 9246SOL     OW28636   6.837   5.533   3.305
 9246SOL    HW128637   6.878   5.500   3.220
 9246SOL    HW228638   6.882   5.618   3.333
 9247SOL     OW28639   1.086   0.636   3.000
 9247SOL    HW128640   1.077   0.568   3.073
 9247SOL    HW228641   1.176   0.625   2.956
 9248SOL     OW28642   4.427   1.347   6.371
 9248SOL    HW128643   4.380   1.435   6.379
 9248SOL    HW228644   4.525   1.359   6.390
 9249SOL     OW28645   3.842   6.461   4.072
 9249SOL    HW128646   3.785   6.478   3.992
 9249SOL    HW228647   3.785   6.454   4.153
 9250SOL     OW28648   4.972   3.290   3.324
 9250SOL    HW128649   4.948   3.200   3.360
 9250SOL    HW228650   5.038   3.280   3.250
 9251SOL     OW28651   4.462   2.192   2.265
 9251SOL    HW128652   4.377   2.185   2.316
 9251SOL    HW228653   4.461   2.126   2.189
 9252SOL     OW28654   1.803   6.788   4.938
 9252SOL    HW128655   1.829   6.884   4.949
 9252SOL    HW228656   1.713   6.782   4.895
 9253SOL     OW28657   1.029   6.945   5.805
 9253SOL    HW128658   1.021   6.975   5.710
 9253SOL    HW228659   1.123   6.957   5.836
 9254SOL     OW28660   4.218   2.752   0.812
 9254SOL    HW128661   4.247   2.844   0.784
 9254SOL    HW228662   4.273   2.721   0.889
 9255SOL     OW28663   0.000   4.544   0.612
 9255SOL    HW128664   0.055   4.547   0.695
 9255SOL    HW228665   6.955   4.615   0.616
 9256SOL     OW28666   4.138   5.347   2.818
 9256SOL    HW128667   4.099   5.363   2.727
 9256SOL    HW228668   4.143   5.249   2.835
 9257SOL     OW28669   0.737   3.829   0.644
 9257SOL    HW128670   0.836   3.843   0.649
 9257SOL    HW228671   0.709   3.761   0.711
 9258SOL     OW28672   3.058   2.894   5.316
 9258SOL    HW128673   2.971   2.846   5.327
 9258SOL    HW228674   3.133   2.832   5.336
 9259SOL     OW28675   1.755   2.960   0.713
 9259SOL    HW128676   1.773   3.051   0.676
 9259SOL    HW228677   1.724   2.899   0.640
 9260SOL     OW28678   6.458   4.532   6.981
 9260SOL    HW128679   6.495   4.625   6.984
 9260SOL    HW228680   6.532   4.468   6.959
 9261SOL     OW28681   2.025   0.153   5.751
 9261SOL    HW128682   1.987   0.151   5.843
 9261SOL    HW228683   2.000   0.239   5.706
 9262SOL     OW28684   6.432   6.571   0.072
 9262SOL    HW128685   6.412   6.479   0.105
 9262SOL    HW228686   6.480   6.567   7.010
 9263SOL     OW28687   5.596   4.008   2.490
 9263SOL    HW128688   5.542   4.043   2.567
 9263SOL    HW228689   5.551   3.927   2.452
 9264SOL     OW28690   5.258   2.175   0.444
 9264SOL    HW128691   5.181   2.225   0.404
 9264SOL    HW228692   5.327   2.240   0.475
 9265SOL     OW28693   1.401   1.337   5.528
 9265SOL    HW128694   1.468   1.375   5.592
 9265SOL    HW228695   1.347   1.266   5.574
 9266SOL     OW28696   3.128   6.807   3.025
 9266SOL    HW128697   3.139   6.762   2.937
 9266SOL    HW228698   3.089   6.743   3.092
 9267SOL     OW28699   3.137   4.828   6.076
 9267SOL    HW128700   3.129   4.757   6.147
 9267SOL    HW228701   3.073   4.902   6.096
 9268SOL     OW28702   1.158   1.065   3.037
 9268SOL    HW128703   1.079   1.107   2.993
 9268SOL    HW228704   1.200   0.999   2.975
 9269SOL     OW28705   4.305   1.001   5.432
 9269SOL    HW128706   4.354   1.049   5.505
 9269SOL    HW228707   4.343   1.027   5.343
 9270SOL     OW28708   1.983   1.050   5.121
 9270SOL    HW128709   1.937   1.010   5.199
 9270SOL    HW228710   2.081   1.059   5.141
 9271SOL     OW28711   0.390   5.878   5.726
 9271SOL    HW128712   0.481   5.838   5.717
 9271SOL    HW228713   0.323   5.806   5.740
 9272SOL     OW28714   2.354   5.412   6.489
 9272SOL    HW128715   2.431   5.349   6.480
 9272SOL    HW228716   2.278   5.381   6.431
 9273SOL     OW28717   3.204   5.424   5.791
 9273SOL    HW128718   3.269   5.396   5.721
 9273SOL    HW228719   3.239   5.505   5.839
 9274SOL     OW28720   4.843   1.058   1.638
 9274SOL    HW128721   4.900   0.986   1.676
 9274SOL    HW228722   4.806   1.114   1.712
 9275SOL     OW28723   6.594   0.300   5.980
 9275SOL    HW128724   6.583   0.354   6.064
 9275SOL    HW228725   6.652   0.221   5.999
 9276SOL     OW28726   5.011   0.391   3.801
 9276SOL    HW128727   4.940   0.435   3.856
 9276SOL    HW228728   5.005   0.422   3.707
 9277SOL     OW28729   5.055   2.471   6.946
 9277SOL    HW128730   5.048   2.571   6.952
 9277SOL    HW228731   5.076   2.445   6.852
 9278SOL     OW28732   1.139   1.832   0.995
 9278SOL    HW128733   1.052   1.821   1.044
 9278SOL    HW228734   1.162   1.929   0.990
 9279SOL     OW28735   2.705   0.315   0.727
 9279SOL    HW128736   2.791   0.295   0.681
 9279SOL    HW228737   2.689   0.414   0.728
 9280SOL     OW28738   1.947   0.642   2.316
 9280SOL    HW128739   1.848   0.659   2.320
 9280SOL    HW228740   1.994   0.704   2.379
 9281SOL     OW28741   1.583   2.203   0.372
 9281SOL    HW128742   1.641   2.181   0.450
 9281SOL    HW228743   1.623   2.165   0.289
 9282SOL     OW28744   3.923   0.599   5.456
 9282SOL    HW128745   3.941   0.607   5.357
 9282SOL    HW228746   3.957   0.681   5.502
 9283SOL     OW28747   5.773   2.716   3.599
 9283SOL    HW128748   5.689   2.745   3.646
 9283SOL    HW228749   5.769   2.742   3.503
 9284SOL     OW28750   3.658   4.087   2.590
 9284SOL    HW128751   3.572   4.036   2.578
 9284SOL    HW228752   3.670   4.148   2.512
 9285SOL     OW28753   6.610   2.689   0.038
 9285SOL    HW128754   6.678   2.751   7.023
 9285SOL    HW228755   6.521   2.734   0.039
 9286SOL     OW28756   5.625   5.355   4.774
 9286SOL    HW128757   5.621   5.298   4.856
 9286SOL    HW228758   5.602   5.301   4.693
 9287SOL     OW28759   3.810   6.871   2.583
 9287SOL    HW128760   3.873   6.817   2.528
 9287SOL    HW228761   3.806   6.965   2.548
 9288SOL     OW28762   4.668   1.828   6.841
 9288SOL    HW128763   4.736   1.813   6.913
 9288SOL    HW228764   4.577   1.827   6.882
 9289SOL     OW28765   5.439   3.413   3.957
 9289SOL    HW128766   5.445   3.350   3.879
 9289SOL    HW228767   5.421   3.505   3.924
 9290SOL     OW28768   3.958   2.155   4.400
 9290SOL    HW128769   3.863   2.159   4.430
 9290SOL    HW228770   3.961   2.134   4.302
 9291SOL     OW28771   0.424   3.532   5.113
 9291SOL    HW128772   0.356   3.502   5.180
 9291SOL    HW228773   0.477   3.453   5.082
 9292SOL     OW28774   1.420   4.214   6.798
 9292SOL    HW128775   1.389   4.290   6.741
 9292SOL    HW228776   1.462   4.251   6.881
 9293SOL     OW28777   5.443   3.387   6.045
 9293SOL    HW128778   5.345   3.410   6.045
 9293SOL    HW228779   5.467   3.345   5.958
 9294SOL     OW28780   5.191   5.607   0.108
 9294SOL    HW128781   5.138   5.620   0.192
 9294SOL    HW228782   5.176   5.685   0.048
 9295SOL     OW28783   4.804   2.776   3.409
 9295SOL    HW128784   4.773   2.737   3.496
 9295SOL    HW228785   4.804   2.705   3.339
 9296SOL     OW28786   6.001   0.652   4.615
 9296SOL    HW128787   5.902   0.642   4.625
 9296SOL    HW228788   6.045   0.642   4.704
 9297SOL     OW28789   0.341   6.770   1.708
 9297SOL    HW128790   0.253   6.786   1.665
 9297SOL    HW228791   0.360   6.671   1.711
 9298SOL     OW28792   0.020   6.565   3.833
 9298SOL    HW128793   0.030   6.498   3.907
 9298SOL    HW228794   0.109   6.578   3.788
 9299SOL     OW28795   1.984   2.034   4.661
 9299SOL    HW128796   1.900   2.086   4.674
 9299SOL    HW228797   2.012   2.038   4.565
 9300SOL     OW28798   5.671   4.692   3.977
 9300SOL    HW128799   5.721   4.663   3.895
 9300SOL    HW228800   5.705   4.781   4.007
 9301SOL     OW28801   6.459   4.845   1.498
 9301SOL    HW128802   6.409   4.901   1.432
 9301SOL    HW228803   6.421   4.752   1.497
 9302SOL     OW28804   1.023   2.087   2.998
 9302SOL    HW128805   1.100   2.117   2.942
 9302SOL    HW228806   0.947   2.061   2.939
 9303SOL     OW28807   4.604   3.976   6.753
 9303SOL    HW128808   4.588   4.068   6.718
 9303SOL    HW228809   4.648   3.921   6.683
 9304SOL     OW28810   5.147   3.817   0.438
 9304SOL    HW128811   5.212   3.744   0.416
 9304SOL    HW228812   5.160   3.893   0.374
 9305SOL     OW28813   4.641   3.872   1.439
 9305SOL    HW128814   4.702   3.840   1.366
 9305SOL    HW228815   4.683   3.949   1.487
 9306SOL     OW28816   0.418   6.779   3.088
 9306SOL    HW128817   0.449   6.860   3.038
 9306SOL    HW228818   0.417   6.700   3.026
 9307SOL     OW28819   2.104   0.684   6.518
 9307SOL    HW128820   2.163   0.615   6.475
 9307SOL    HW228821   2.009   0.665   6.497
 9308SOL     OW28822   0.246   1.525   0.347
 9308SOL    HW128823   0.167   1.463   0.352
 9308SOL    HW228824   0.215   1.619   0.345
 9309SOL     OW28825   3.760   2.714   0.250
 9309SOL    HW128826   3.791   2.805   0.222
 9309SOL    HW228827   3.717   2.720   0.340
 9310SOL     OW28828   4.216   5.765   1.061
 9310SOL    HW128829   4.218   5.686   0.999
 9310SOL    HW228830   4.126   5.807   1.060
 9311SOL     OW28831   0.377   3.040   1.390
 9311SOL    HW128832   0.346   3.038   1.485
 9311SOL    HW228833   0.404   2.948   1.361
 9312SOL     OW28834   1.707   3.545   5.241
 9312SOL    HW128835   1.662   3.457   5.234
 9312SOL    HW228836   1.643   3.618   5.216
 9313SOL     OW28837   6.649   0.714   3.696
 9313SOL    HW128838   6.578   0.704   3.627
 9313SOL    HW228839   6.701   0.629   3.703
 9314SOL     OW28840   6.589   3.867   0.428
 9314SOL    HW128841   6.648   3.829   0.499
 9314SOL    HW228842   6.609   3.822   0.341
 9315SOL     OW28843   0.575   6.056   6.226
 9315SOL    HW128844   0.539   6.141   6.186
 9315SOL    HW228845   0.553   5.979   6.166
 9316SOL     OW28846   2.859   4.751   4.727
 9316SOL    HW128847   2.948   4.796   4.724
 9316SOL    HW228848   2.853   4.696   4.810
 9317SOL     OW28849   4.192   4.113   6.014
 9317SOL    HW128850   4.253   4.145   5.941
 9317SOL    HW228851   4.097   4.122   5.984
 9318SOL     OW28852   0.442   6.951   5.577
 9318SOL    HW128853   0.369   6.972   5.643
 9318SOL    HW228854   0.477   0.011   5.539
 9319SOL     OW28855   6.692   4.269   4.130
 9319SOL    HW128856   6.661   4.293   4.222
 9319SOL    HW228857   6.705   4.170   4.124
 9320SOL     OW28858   3.728   3.366   5.617
 9320SOL    HW128859   3.766   3.274   5.618
 9320SOL    HW228860   3.803   3.433   5.623
 9321SOL     OW28861   5.284   0.202   4.380
 9321SOL    HW128862   5.251   0.275   4.441
 9321SOL    HW228863   5.337   0.136   4.433
 9322SOL     OW28864   0.823   5.878   1.174
 9322SOL    HW128865   0.869   5.928   1.102
 9322SOL    HW228866   0.883   5.804   1.207
 9323SOL     OW28867   0.834   1.214   5.683
 9323SOL    HW128868   0.752   1.270   5.697
 9323SOL    HW228869   0.892   1.255   5.613
 9324SOL     OW28870   1.358   5.495   0.012
 9324SOL    HW128871   1.365   5.459   6.944
 9324SOL    HW228872   1.341   5.593   0.008
 9325SOL     OW28873   0.219   3.354   6.586
 9325SOL    HW128874   0.285   3.351   6.661
 9325SOL    HW228875   0.133   3.394   6.618
 9326SOL     OW28876   2.452   6.340   2.164
 9326SOL    HW128877   2.521   6.359   2.093
 9326SOL    HW228878   2.370   6.303   2.120
 9327SOL     OW28879   2.214   1.566   4.330
 9327SOL    HW128880   2.264   1.640   4.375
 9327SOL    HW228881   2.116   1.582   4.337
 9328SOL     OW28882   2.415   1.748   2.006
 9328SOL    HW128883   2.504   1.715   1.974
 9328SOL    HW228884   2.353   1.670   2.017
 9329SOL     OW28885   0.577   4.026   1.602
 9329SOL    HW128886   0.648   3.965   1.637
 9329SOL    HW228887   0.549   3.995   1.511
 9330SOL     OW28888   5.933   5.724   6.908
 9330SOL    HW128889   5.904   5.629   6.911
 9330SOL    HW228890   5.893   5.773   6.986
 9331SOL     OW28891   1.227   0.555   0.039
 9331SOL    HW128892   1.198   0.507   0.123
 9331SOL    HW228893   1.326   0.557   0.034
 9332SOL     OW28894   3.834   4.116   4.882
 9332SOL    HW128895   3.749   4.071   4.855
 9332SOL    HW228896   3.853   4.191   4.818
 9333SOL     OW28897   5.543   6.362   0.939
 9333SOL    HW128898   5.488   6.396   0.863
 9333SOL    HW228899   5.503   6.395   1.025
 9334SOL     OW28900   1.971   6.648   5.435
 9334SOL    HW128901   2.020   6.716   5.489
 9334SOL    HW228902   2.010   6.557   5.452
 9335SOL     OW28903   0.331   1.826   2.732
 9335SOL    HW128904   0.250   1.826   2.674
 9335SOL    HW228905   0.400   1.888   2.694
 9336SOL     OW28906   3.155   0.597   5.151
 9336SOL    HW128907   3.226   0.619   5.218
 9336SOL    HW228908   3.071   0.647   5.173
 9337SOL     OW28909   5.706   6.225   3.442
 9337SOL    HW128910   5.669   6.178   3.522
 9337SOL    HW228911   5.805   6.208   3.437
 9338SOL     OW28912   1.748   6.151   2.887
 9338SOL    HW128913   1.713   6.226   2.944
 9338SOL    HW228914   1.671   6.102   2.846
 9339SOL     OW28915   3.920   5.611   1.171
 9339SOL    HW128916   3.929   5.710   1.160
 9339SOL    HW228917   3.823   5.587   1.171
 9340SOL     OW28918   6.933   3.193   6.743
 9340SOL    HW128919   0.002   3.177   6.775
 9340SOL    HW228920   6.935   3.225   6.648
 9341SOL     OW28921   0.871   4.250   6.218
 9341SOL    HW128922   0.971   4.251   6.216
 9341SOL    HW228923   0.837   4.203   6.136
 9342SOL     OW28924   1.266   0.270   0.406
 9342SOL    HW128925   1.247   0.185   0.456
 9342SOL    HW228926   1.339   0.253   0.340
 9343SOL     OW28927   6.272   6.529   2.938
 9343SOL    HW128928   6.220   6.606   2.900
 9343SOL    HW228929   6.267   6.533   3.038
 9344SOL     OW28930   5.339   6.109   0.757
 9344SOL    HW128931   5.291   6.178   0.811
 9344SOL    HW228932   5.273   6.046   0.716
 9345SOL     OW28933   0.729   2.427   0.633
 9345SOL    HW128934   0.673   2.486   0.691
 9345SOL    HW228935   0.747   2.472   0.546
 9346SOL     OW28936   5.876   0.636   0.896
 9346SOL    HW128937   5.915   0.674   0.979
 9346SOL    HW228938   5.782   0.606   0.913
 9347SOL     OW28939   1.984   5.939   3.107
 9347SOL    HW128940   2.012   6.035   3.117
 9347SOL    HW228941   1.957   5.922   3.012
 9348SOL     OW28942   3.352   5.241   0.512
 9348SOL    HW128943   3.407   5.160   0.494
 9348SOL    HW228944   3.316   5.276   0.425
 9349SOL     OW28945   1.130   6.417   3.133
 9349SOL    HW128946   1.175   6.446   3.218
 9349SOL    HW228947   1.119   6.496   3.073
 9350SOL     OW28948   0.422   3.394   5.576
 9350SOL    HW128949   0.437   3.329   5.651
 9350SOL    HW228950   0.499   3.390   5.513
 9351SOL     OW28951   2.796   6.571   0.232
 9351SOL    HW128952   2.727   6.570   0.160
 9351SOL    HW228953   2.788   6.488   0.287
 9352SOL     OW28954   2.593   4.706   6.098
 9352SOL    HW128955   2.581   4.805   6.104
 9352SOL    HW228956   2.510   4.663   6.062
 9353SOL     OW28957   6.871   6.725   0.922
 9353SOL    HW128958   6.786   6.732   0.974
 9353SOL    HW228959   6.859   6.766   0.831
 9354SOL     OW28960   0.977   0.950   5.644
 9354SOL    HW128961   0.960   1.042   5.680
 9354SOL    HW228962   0.945   0.945   5.549
 9355SOL     OW28963   0.850   1.357   5.107
 9355SOL    HW128964   0.856   1.436   5.045
 9355SOL    HW228965   0.859   1.389   5.202
 9356SOL     OW28966   3.935   0.361   3.156
 9356SOL    HW128967   3.954   0.437   3.095
 9356SOL    HW228968   3.836   0.353   3.169
 9357SOL     OW28969   1.899   2.432   0.674
 9357SOL    HW128970   1.939   2.500   0.735
 9357SOL    HW228971   1.965   2.409   0.602
 9358SOL     OW28972   0.876   1.344   0.212
 9358SOL    HW128973   0.826   1.282   0.273
 9358SOL    HW228974   0.840   1.336   0.119
 9359SOL     OW28975   0.348   0.865   5.722
 9359SOL    HW128976   0.445   0.841   5.719
 9359SOL    HW228977   0.338   0.963   5.740
 9360SOL     OW28978   6.782   6.655   6.027
 9360SOL    HW128979   6.818   6.570   6.065
 9360SOL    HW228980   6.755   6.716   6.101
 9361SOL     OW28981   2.458   5.826   4.352
 9361SOL    HW128982   2.499   5.751   4.404
 9361SOL    HW228983   2.369   5.797   4.317
 9362SOL     OW28984   1.466   0.305   2.573
 9362SOL    HW128985   1.465   0.405   2.576
 9362SOL    HW228986   1.487   0.269   2.663
 9363SOL     OW28987   1.383   2.598   1.848
 9363SOL    HW128988   1.393   2.648   1.934
 9363SOL    HW228989   1.473   2.569   1.816
 9364SOL     OW28990   0.636   1.951   6.625
 9364SOL    HW128991   0.708   1.908   6.680
 9364SOL    HW228992   0.585   2.016   6.681
 9365SOL     OW28993   3.130   1.114   5.220
 9365SOL    HW128994   3.221   1.147   5.245
 9365SOL    HW228995   3.061   1.182   5.245
 9366SOL     OW28996   3.343   6.229   2.328
 9366SOL    HW128997   3.389   6.281   2.400
 9366SOL    HW228998   3.314   6.141   2.363
 9367SOL     OW28999   0.096   6.736   1.544
 9367SOL    HW129000   0.086   6.781   1.455
 9367SOL    HW229001   0.052   6.646   1.540
 9368SOL     OW29002   2.031   0.589   3.219
 9368SOL    HW129003   2.030   0.685   3.191
 9368SOL    HW229004   2.113   0.545   3.181
 9369SOL     OW29005   3.526   5.443   0.880
 9369SOL    HW129006   3.618   5.408   0.896
 9369SOL    HW229007   3.459   5.380   0.920
 9370SOL     OW29008   4.867   2.657   5.461
 9370SOL    HW129009   4.806   2.633   5.386
 9370SOL    HW229010   4.960   2.624   5.441
 9371SOL     OW29011   3.749   5.121   0.428
 9371SOL    HW129012   3.840   5.090   0.458
 9371SOL    HW229013   3.756   5.215   0.394
 9372SOL     OW29014   5.586   6.640   0.676
 9372SOL    HW129015   5.629   6.578   0.611
 9372SOL    HW229016   5.541   6.714   0.626
 9373SOL     OW29017   7.000   1.588   1.724
 9373SOL    HW129018   0.005   1.674   1.764
 9373SOL    HW229019   6.963   1.529   1.795
 9374SOL     OW29020   6.854   5.846   5.827
 9374SOL    HW129021   6.907   5.761   5.827
 9374SOL    HW229022   6.880   5.902   5.905
 9375SOL     OW29023   1.625   1.696   6.988
 9375SOL    HW129024   1.675   1.767   6.939
 9375SOL    HW229025   1.526   1.711   6.976
 9376SOL     OW29026   3.286   3.989   0.791
 9376SOL    HW129027   3.277   3.968   0.888
 9376SOL    HW229028   3.209   4.045   0.761
 9377SOL     OW29029   0.725   1.026   3.227
 9377SOL    HW129030   0.750   1.084   3.149
 9377SOL    HW229031   0.626   1.024   3.237
 9378SOL     OW29032   4.476   1.243   5.833
 9378SOL    HW129033   4.505   1.218   5.741
 9378SOL    HW229034   4.554   1.240   5.895
 9379SOL     OW29035   3.781   0.255   4.345
 9379SOL    HW129036   3.784   0.351   4.318
 9379SOL    HW229037   3.810   0.247   4.440
 9380SOL     OW29038   5.284   6.069   1.493
 9380SOL    HW129039   5.289   6.063   1.394
 9380SOL    HW229040   5.228   5.994   1.529
 9381SOL     OW29041   4.318   1.525   4.694
 9381SOL    HW129042   4.226   1.554   4.667
 9381SOL    HW229043   4.318   1.426   4.708
 9382SOL     OW29044   2.652   5.698   5.655
 9382SOL    HW129045   2.685   5.791   5.671
 9382SOL    HW229046   2.558   5.690   5.688
 9383SOL     OW29047   5.784   4.238   1.171
 9383SOL    HW129048   5.763   4.142   1.192
 9383SOL    HW229049   5.701   4.292   1.180
 9384SOL     OW29050   4.953   0.626   0.439
 9384SOL    HW129051   5.009   0.545   0.451
 9384SOL    HW229052   4.861   0.600   0.409
 9385SOL     OW29053   4.228   2.249   4.449
 9385SOL    HW129054   4.216   2.272   4.546
 9385SOL    HW229055   4.146   2.204   4.415
 9386SOL     OW29056   5.545   0.830   1.243
 9386SOL    HW129057   5.543   0.741   1.198
 9386SOL    HW229058   5.515   0.820   1.338
 9387SOL     OW29059   3.338   2.414   6.853
 9387SOL    HW129060   3.400   2.345   6.890
 9387SOL    HW229061   3.244   2.381   6.859
 9388SOL     OW29062   2.240   6.802   5.508
 9388SOL    HW129063   2.184   6.818   5.589
 9388SOL    HW229064   2.310   6.873   5.501
 9389SOL     OW29065   2.364   3.875   1.701
 9389SOL    HW129066   2.338   3.779   1.698
 9389SOL    HW229067   2.306   3.923   1.767
 9390SOL     OW29068   5.750   4.977   4.034
 9390SOL    HW129069   5.848   4.990   4.046
 9390SOL    HW229070   5.712   5.054   3.983
 9391SOL     OW29071   0.529   4.469   4.549
 9391SOL    HW129072   0.625   4.456   4.576
 9391SOL    HW229073   0.474   4.393   4.584
 9392SOL     OW29074   3.538   5.652   2.805
 9392SOL    HW129075   3.444   5.668   2.836
 9392SOL    HW229076   3.602   5.695   2.869
 9393SOL     OW29077   2.197   5.092   0.830
 9393SOL    HW129078   2.177   5.168   0.892
 9393SOL    HW229079   2.128   5.090   0.758
 9394SOL     OW29080   4.902   6.934   7.010
 9394SOL    HW129081   4.926   6.896   6.921
 9394SOL    HW229082   4.983   6.979   0.024
 9395SOL     OW29083   0.253   0.558   1.689
 9395SOL    HW129084   0.332   0.620   1.683
 9395SOL    HW229085   0.176   0.597   1.638
 9396SOL     OW29086   0.734   0.797   6.595
 9396SOL    HW129087   0.677   0.879   6.601
 9396SOL    HW229088   0.821   0.820   6.552
 9397SOL     OW29089   3.732   1.517   6.103
 9397SOL    HW129090   3.724   1.531   6.004
 9397SOL    HW229091   3.642   1.528   6.145
 9398SOL     OW29092   0.138   3.223   6.869
 9398SOL    HW129093   0.078   3.291   6.825
 9398SOL    HW229094   0.155   3.251   6.963
 9399SOL     OW29095   1.331   2.574   4.622
 9399SOL    HW129096   1.378   2.489   4.602
 9399SOL    HW229097   1.282   2.605   4.540
 9400SOL     OW29098   5.775   1.071   0.763
 9400SOL    HW129099   5.786   1.080   0.664
 9400SOL    HW229100   5.678   1.073   0.787
 9401SOL     OW29101   6.562   1.987   3.787
 9401SOL    HW129102   6.572   1.892   3.817
 9401SOL    HW229103   6.500   1.991   3.709
 9402SOL     OW29104   3.388   5.290   5.640
 9402SOL    HW129105   3.421   5.227   5.710
 9402SOL    HW229106   3.462   5.350   5.611
 9403SOL     OW29107   5.648   2.695   0.917
 9403SOL    HW129108   5.549   2.690   0.930
 9403SOL    HW229109   5.689   2.607   0.941
 9404SOL     OW29110   1.935   1.613   1.099
 9404SOL    HW129111   1.837   1.593   1.107
 9404SOL    HW229112   1.948   1.703   1.059
 9405SOL     OW29113   5.610   5.623   4.919
 9405SOL    HW129114   5.629   5.526   4.906
 9405SOL    HW229115   5.585   5.640   5.014
 9406SOL     OW29116   0.861   0.857   1.002
 9406SOL    HW129117   0.804   0.798   0.945
 9406SOL    HW229118   0.957   0.844   0.976
 9407SOL     OW29119   1.716   4.427   4.640
 9407SOL    HW129120   1.790   4.472   4.589
 9407SOL    HW229121   1.746   4.411   4.734
 9408SOL     OW29122   5.614   5.141   4.248
 9408SOL    HW129123   5.568   5.105   4.166
 9408SOL    HW229124   5.713   5.130   4.238
 9409SOL     OW29125   5.700   5.155   1.622
 9409SOL    HW129126   5.788   5.194   1.649
 9409SOL    HW229127   5.714   5.087   1.550
 9410SOL     OW29128   5.048   0.310   0.504
 9410SOL    HW129129   4.994   0.233   0.470
 9410SOL    HW229130   5.038   0.316   0.603
 9411SOL     OW29131   3.951   3.447   5.345
 9411SOL    HW129132   3.904   3.361   5.327
 9411SOL    HW229133   3.939   3.473   5.440
 9412SOL     OW29134   4.043   6.747   1.460
 9412SOL    HW129135   4.134   6.715   1.432
 9412SOL    HW229136   4.018   6.703   1.546
 9413SOL     OW29137   3.707   4.911   3.122
 9413SOL    HW129138   3.741   4.851   3.049
 9413SOL    HW229139   3.743   4.880   3.210
 9414SOL     OW29140   2.406   0.605   1.939
 9414SOL    HW129141   2.470   0.558   1.999
 9414SOL    HW229142   2.415   0.569   1.846
 9415SOL     OW29143   4.785   0.612   0.814
 9415SOL    HW129144   4.729   0.546   0.864
 9415SOL    HW229145   4.848   0.657   0.878
 9416SOL     OW29146   6.922   5.293   6.027
 9416SOL    HW129147   6.941   5.214   6.086
 9416SOL    HW229148   6.977   5.286   5.944
 9417SOL     OW29149   4.488   6.325   3.148
 9417SOL    HW129150   4.552   6.399   3.125
 9417SOL    HW229151   4.480   6.263   3.070
 9418SOL     OW29152   2.823   1.882   5.021
 9418SOL    HW129153   2.751   1.919   5.080
 9418SOL    HW229154   2.896   1.950   5.011
 9419SOL     OW29155   2.907   1.847   5.962
 9419SOL    HW129156   2.961   1.786   6.022
 9419SOL    HW229157   2.944   1.939   5.967
 9420SOL     OW29158   4.622   2.891   5.979
 9420SOL    HW129159   4.592   2.852   6.066
 9420SOL    HW229160   4.676   2.823   5.929
 9421SOL     OW29161   3.608   6.691   6.860
 9421SOL    HW129162   3.590   6.737   6.946
 9421SOL    HW229163   3.592   6.592   6.871
 9422SOL     OW29164   1.842   6.292   5.944
 9422SOL    HW129165   1.813   6.373   5.894
 9422SOL    HW229166   1.870   6.221   5.880
 9423SOL     OW29167   5.261   4.798   1.060
 9423SOL    HW129168   5.273   4.736   1.137
 9423SOL    HW229169   5.293   4.754   0.976
 9424SOL     OW29170   5.507   6.575   4.215
 9424SOL    HW129171   5.473   6.576   4.309
 9424SOL    HW229172   5.489   6.486   4.174
 9425SOL     OW29173   0.680   6.133   1.113
 9425SOL    HW129174   0.742   6.210   1.124
 9425SOL    HW229175   0.723   6.050   1.150
 9426SOL     OW29176   5.428   0.630   6.358
 9426SOL    HW129177   5.459   0.725   6.352
 9426SOL    HW229178   5.328   0.627   6.363
 9427SOL     OW29179   2.938   5.735   1.991
 9427SOL    HW129180   3.003   5.681   1.937
 9427SOL    HW229181   2.961   5.727   2.088
 9428SOL     OW29182   6.660   6.724   4.070
 9428SOL    HW129183   6.671   6.777   3.986
 9428SOL    HW229184   6.733   6.748   4.134
 9429SOL     OW29185   3.027   1.789   4.149
 9429SOL    HW129186   2.959   1.716   4.146
 9429SOL    HW229187   3.030   1.828   4.241
 9430SOL     OW29188   1.726   0.415   3.915
 9430SOL    HW129189   1.819   0.407   3.877
 9430SOL    HW229190   1.682   0.497   3.880
 9431SOL     OW29191   1.141   5.013   5.542
 9431SOL    HW129192   1.084   5.095   5.532
 9431SOL    HW229193   1.157   4.973   5.452
 9432SOL     OW29194   6.476   2.194   3.037
 9432SOL    HW129195   6.533   2.265   3.079
 9432SOL    HW229196   6.380   2.217   3.051
 9433SOL     OW29197   4.631   5.838   1.481
 9433SOL    HW129198   4.702   5.895   1.522
 9433SOL    HW229199   4.663   5.743   1.475
 9434SOL     OW29200   5.196   6.119   4.776
 9434SOL    HW129201   5.210   6.207   4.820
 9434SOL    HW229202   5.269   6.056   4.805
 9435SOL     OW29203   6.853   3.688   0.084
 9435SOL    HW129204   6.801   3.751   0.026
 9435SOL    HW229205   6.791   3.641   0.146
 9436SOL     OW29206   2.871   2.279   2.751
 9436SOL    HW129207   2.878   2.179   2.753
 9436SOL    HW229208   2.861   2.313   2.844
 9437SOL     OW29209   4.301   1.282   3.688
 9437SOL    HW129210   4.279   1.340   3.609
 9437SOL    HW229211   4.284   1.187   3.665
 9438SOL     OW29212   4.503   0.854   2.526
 9438SOL    HW129213   4.511   0.954   2.527
 9438SOL    HW229214   4.501   0.822   2.431
 9439SOL     OW29215   1.812   4.896   0.541
 9439SOL    HW129216   1.807   4.814   0.598
 9439SOL    HW229217   1.799   4.977   0.599
 9440SOL     OW29218   1.743   4.893   4.048
 9440SOL    HW129219   1.666   4.831   4.060
 9440SOL    HW229220   1.756   4.947   4.131
 9441SOL     OW29221   6.860   6.742   4.254
 9441SOL    HW129222   6.937   6.725   4.193
 9441SOL    HW229223   6.894   6.759   4.346
 9442SOL     OW29224   6.183   2.787   0.454
 9442SOL    HW129225   6.216   2.848   0.526
 9442SOL    HW229226   6.262   2.750   0.403
 9443SOL     OW29227   0.909   4.831   1.151
 9443SOL    HW129228   0.883   4.919   1.191
 9443SOL    HW229229   0.830   4.791   1.103
 9444SOL     OW29230   1.875   6.123   5.745
 9444SOL    HW129231   1.870   6.024   5.757
 9444SOL    HW229232   1.798   6.154   5.688
 9445SOL     OW29233   1.237   1.151   4.142
 9445SOL    HW129234   1.258   1.234   4.091
 9445SOL    HW229235   1.158   1.167   4.201
 9446SOL     OW29236   4.841   5.922   3.404
 9446SOL    HW129237   4.819   5.911   3.307
 9446SOL    HW229238   4.757   5.914   3.459
 9447SOL     OW29239   6.122   5.148   2.527
 9447SOL    HW129240   6.119   5.072   2.462
 9447SOL    HW229241   6.150   5.231   2.479
 9448SOL     OW29242   5.020   3.293   0.048
 9448SOL    HW129243   4.986   3.308   0.142
 9448SOL    HW229244   5.089   3.362   0.027
 9449SOL     OW29245   3.886   0.425   2.628
 9449SOL    HW129246   3.861   0.470   2.714
 9449SOL    HW229247   3.956   0.480   2.582
 9450SOL     OW29248   0.557   0.375   2.064
 9450SOL    HW129249   0.585   0.458   2.015
 9450SOL    HW229250   0.457   0.367   2.061
 9451SOL     OW29251   4.236   4.966   0.232
 9451SOL    HW129252   4.185   5.032   0.177
 9451SOL    HW229253   4.330   5.000   0.245
 9452SOL     OW29254   6.130   2.647   5.317
 9452SOL    HW129255   6.192   2.650   5.395
 9452SOL    HW229256   6.035   2.649   5.349
 9453SOL     OW29257   6.006   4.837   2.565
 9453SOL    HW129258   6.064   4.805   2.640
 9453SOL    HW229259   6.063   4.861   2.487
 9454SOL     OW29260   5.031   5.551   1.373
 9454SOL    HW129261   5.096   5.575   1.445
 9454SOL    HW229262   5.052   5.460   1.338
 9455SOL     OW29263   4.624   1.032   1.211
 9455SOL    HW129264   4.578   0.979   1.140
 9455SOL    HW229265   4.586   1.007   1.300
 9456SOL     OW29266   6.715   2.333   1.960
 9456SOL    HW129267   6.759   2.243   1.963
 9456SOL    HW229268   6.782   2.402   1.933
 9457SOL     OW29269   6.835   6.188   4.234
 9457SOL    HW129270   6.790   6.274   4.212
 9457SOL    HW229271   6.777   6.134   4.295
 9458SOL     OW29272   0.045   4.549   7.024
 9458SOL    HW129273   0.054   4.591   0.089
 9458SOL    HW229274   0.122   4.488   7.007
 9459SOL     OW29275   6.623   4.352   4.939
 9459SOL    HW129276   6.658   4.351   5.033
 9459SOL    HW229277   6.523   4.356   4.941
 9460SOL     OW29278   2.279   2.807   3.005
 9460SOL    HW129279   2.246   2.716   3.029
 9460SOL    HW229280   2.288   2.863   3.088
 9461SOL     OW29281   1.030   1.382   1.046
 9461SOL    HW129282   0.993   1.455   0.989
 9461SOL    HW229283   0.964   1.358   1.117
 9462SOL     OW29284   6.819   1.092   4.821
 9462SOL    HW129285   6.861   1.177   4.852
 9462SOL    HW229286   6.820   1.089   4.721
 9463SOL     OW29287   0.812   5.024   0.854
 9463SOL    HW129288   0.807   5.107   0.909
 9463SOL    HW229289   0.907   4.992   0.851
 9464SOL     OW29290   1.827   1.232   2.058
 9464SOL    HW129291   1.852   1.169   2.131
 9464SOL    HW229292   1.727   1.239   2.053
 9465SOL     OW29293   1.686   5.480   6.715
 9465SOL    HW129294   1.683   5.575   6.746
 9465SOL    HW229295   1.616   5.465   6.645
 9466SOL     OW29296   3.659   4.255   5.731
 9466SOL    HW129297   3.604   4.239   5.812
 9466SOL    HW229298   3.599   4.278   5.654
 9467SOL     OW29299   1.203   3.601   1.660
 9467SOL    HW129300   1.268   3.595   1.584
 9467SOL    HW229301   1.253   3.607   1.747
 9468SOL     OW29302   0.065   2.381   0.893
 9468SOL    HW129303   0.016   2.420   0.815
 9468SOL    HW229304   0.130   2.448   0.929
 9469SOL     OW29305   5.849   0.190   2.099
 9469SOL    HW129306   5.908   0.254   2.050
 9469SOL    HW229307   5.895   0.102   2.108
 9470SOL     OW29308   2.870   3.481   1.507
 9470SOL    HW129309   2.907   3.572   1.487
 9470SOL    HW229310   2.832   3.479   1.599
 9471SOL     OW29311   0.078   3.485   4.707
 9471SOL    HW129312   0.109   3.533   4.625
 9471SOL    HW229313   0.040   3.396   4.683
 9472SOL     OW29314   2.663   4.107   6.057
 9472SOL    HW129315   2.760   4.086   6.047
 9472SOL    HW229316   2.623   4.048   6.127
 9473SOL     OW29317   2.850   3.489   2.352
 9473SOL    HW129318   2.928   3.535   2.308
 9473SOL    HW229319   2.821   3.541   2.432
 9474SOL     OW29320   5.578   4.287   0.483
 9474SOL    HW129321   5.649   4.293   0.413
 9474SOL    HW229322   5.606   4.220   0.552
 9475SOL     OW29323   6.508   3.550   6.857
 9475SOL    HW129324   6.548   3.578   6.770
 9475SOL    HW229325   6.565   3.583   6.932
 9476SOL     OW29326   4.017   3.129   1.211
 9476SOL    HW129327   4.078   3.205   1.194
 9476SOL    HW229328   4.052   3.046   1.167
 9477SOL     OW29329   0.606   5.764   1.322
 9477SOL    HW129330   0.597   5.665   1.334
 9477SOL    HW229331   0.656   5.783   1.238
 9478SOL     OW29332   0.004   3.727   5.400
 9478SOL    HW129333   0.051   3.664   5.338
 9478SOL    HW229334   6.933   3.700   5.407
 9479SOL     OW29335   4.005   0.495   1.962
 9479SOL    HW129336   4.025   0.541   1.876
 9479SOL    HW229337   4.090   0.463   2.004
 9480SOL     OW29338   5.430   1.249   1.362
 9480SOL    HW129339   5.499   1.320   1.362
 9480SOL    HW229340   5.419   1.212   1.269
 9481SOL     OW29341   5.258   6.775   3.713
 9481SOL    HW129342   5.355   6.786   3.735
 9481SOL    HW229343   5.245   6.690   3.661
 9482SOL     OW29344   5.732   3.706   6.966
 9482SOL    HW129345   5.787   3.754   6.897
 9482SOL    HW229346   5.641   3.689   6.929
 9483SOL     OW29347   5.949   4.779   0.225
 9483SOL    HW129348   6.006   4.848   0.270
 9483SOL    HW229349   5.873   4.755   0.284
 9484SOL     OW29350   1.005   5.168   4.143
 9484SOL    HW129351   0.906   5.155   4.132
 9484SOL    HW229352   1.052   5.126   4.066
 9485SOL     OW29353   6.545   1.394   5.857
 9485SOL    HW129354   6.517   1.305   5.821
 9485SOL    HW229355   6.472   1.461   5.840
 9486SOL     OW29356   6.106   5.364   6.124
 9486SOL    HW129357   6.195   5.342   6.085
 9486SOL    HW229358   6.087   5.302   6.200
 9487SOL     OW29359   2.919   3.722   3.646
 9487SOL    HW129360   2.830   3.689   3.616
 9487SOL    HW229361   2.928   3.709   3.745
 9488SOL     OW29362   0.698   1.790   2.319
 9488SOL    HW129363   0.728   1.734   2.241
 9488SOL    HW229364   0.612   1.753   2.355
 9489SOL     OW29365   0.400   4.490   0.205
 9489SOL    HW129366   0.490   4.445   0.208
 9489SOL    HW229367   0.392   4.554   0.281
 9490SOL     OW29368   5.587   3.472   5.254
 9490SOL    HW129369   5.680   3.463   5.288
 9490SOL    HW229370   5.526   3.415   5.308
 9491SOL     OW29371   5.220   0.692   1.891
 9491SOL    HW129372   5.270   0.606   1.905
 9491SOL    HW229373   5.122   0.672   1.884
 9492SOL     OW29374   4.672   2.769   3.901
 9492SOL    HW129375   4.710   2.775   3.808
 9492SOL    HW229376   4.620   2.684   3.910
 9493SOL     OW29377   2.803   6.733   3.848
 9493SOL    HW129378   2.796   6.714   3.946
 9493SOL    HW229379   2.868   6.670   3.806
 9494SOL     OW29380   4.890   2.606   2.580
 9494SOL    HW129381   4.874   2.599   2.481
 9494SOL    HW229382   4.833   2.679   2.618
 9495SOL     OW29383   6.568   2.413   0.630
 9495SOL    HW129384   6.544   2.452   0.541
 9495SOL    HW229385   6.575   2.314   0.622
 9496SOL     OW29386   6.194   3.335   0.968
 9496SOL    HW129387   6.148   3.414   0.928
 9496SOL    HW229388   6.178   3.333   1.067
 9497SOL     OW29389   6.077   5.075   5.160
 9497SOL    HW129390   6.017   5.101   5.236
 9497SOL    HW229391   6.023   5.031   5.088
 9498SOL     OW29392   1.146   6.227   5.677
 9498SOL    HW129393   1.080   6.156   5.654
 9498SOL    HW229394   1.152   6.293   5.602
 9499SOL     OW29395   5.492   5.750   3.573
 9499SOL    HW129396   5.474   5.715   3.481
 9499SOL    HW229397   5.577   5.710   3.608
 9500SOL     OW29398   1.987   1.848   0.954
 9500SOL    HW129399   1.989   1.948   0.953
 9500SOL    HW229400   1.940   1.815   0.872
 9501SOL     OW29401   1.492   3.075   5.060
 9501SOL    HW129402   1.550   2.995   5.077
 9501SOL    HW229403   1.423   3.083   5.132
 9502SOL     OW29404   5.794   4.639   3.728
 9502SOL    HW129405   5.839   4.668   3.644
 9502SOL    HW229406   5.840   4.557   3.764
 9503SOL     OW29407   6.827   0.530   0.194
 9503SOL    HW129408   6.800   0.471   0.118
 9503SOL    HW229409   6.752   0.537   0.260
 9504SOL     OW29410   5.753   4.558   2.876
 9504SOL    HW129411   5.706   4.639   2.912
 9504SOL    HW229412   5.846   4.555   2.913
 9505SOL     OW29413   4.315   2.254   6.826
 9505SOL    HW129414   4.268   2.325   6.773
 9505SOL    HW229415   4.369   2.197   6.764
 9506SOL     OW29416   4.187   0.286   1.365
 9506SOL    HW129417   4.177   0.241   1.454
 9506SOL    HW229418   4.114   0.354   1.354
 9507SOL     OW29419   6.786   5.908   1.304
 9507SOL    HW129420   6.834   5.821   1.314
 9507SOL    HW229421   6.803   5.965   1.385
 9508SOL     OW29422   5.205   2.110   1.977
 9508SOL    HW129423   5.289   2.055   1.975
 9508SOL    HW229424   5.228   2.205   2.001
 9509SOL     OW29425   5.326   1.720   3.845
 9509SOL    HW129426   5.412   1.769   3.828
 9509SOL    HW229427   5.252   1.787   3.857
 9510SOL     OW29428   1.837   2.945   2.767
 9510SOL    HW129429   1.895   3.001   2.707
 9510SOL    HW229430   1.842   2.850   2.739
 9511SOL     OW29431   0.357   1.080   0.653
 9511SOL    HW129432   0.398   1.066   0.743
 9511SOL    HW229433   0.368   1.176   0.627
 9512SOL     OW29434   5.883   2.574   1.774
 9512SOL    HW129435   5.812   2.542   1.711
 9512SOL    HW229436   5.850   2.568   1.868
 9513SOL     OW29437   5.092   2.968   4.584
 9513SOL    HW129438   5.174   2.978   4.528
 9513SOL    HW229439   5.012   2.991   4.529
 9514SOL     OW29440   3.853   3.317   1.088
 9514SOL    HW129441   3.848   3.260   1.170
 9514SOL    HW229442   3.936   3.295   1.037
 9515SOL     OW29443   6.317   6.795   2.691
 9515SOL    HW129444   6.317   6.876   2.632
 9515SOL    HW229445   6.323   6.712   2.635
 9516SOL     OW29446   1.441   2.369   0.187
 9516SOL    HW129447   1.537   2.343   0.195
 9516SOL    HW229448   1.401   2.380   0.278
 9517SOL     OW29449   0.172   6.714   2.752
 9517SOL    HW129450   0.138   6.808   2.758
 9517SOL    HW229451   0.240   6.698   2.823
 9518SOL     OW29452   6.103   0.033   0.825
 9518SOL    HW129453   6.158   0.045   0.742
 9518SOL    HW229454   6.096   0.120   0.873
 9519SOL     OW29455   1.429   2.713   5.738
 9519SOL    HW129456   1.395   2.751   5.824
 9519SOL    HW229457   1.355   2.664   5.691
 9520SOL     OW29458   3.405   6.782   1.645
 9520SOL    HW129459   3.388   6.728   1.727
 9520SOL    HW229460   3.499   6.816   1.646
 9521SOL     OW29461   5.347   5.275   2.850
 9521SOL    HW129462   5.325   5.316   2.762
 9521SOL    HW229463   5.432   5.314   2.885
 9522SOL     OW29464   3.624   4.764   5.288
 9522SOL    HW129465   3.664   4.823   5.218
 9522SOL    HW229466   3.684   4.686   5.304
 9523SOL     OW29467   1.901   0.126   4.637
 9523SOL    HW129468   1.866   0.033   4.638
 9523SOL    HW229469   1.857   0.178   4.563
 9524SOL     OW29470   5.967   3.315   0.445
 9524SOL    HW129471   6.063   3.287   0.444
 9524SOL    HW229472   5.944   3.362   0.359
 9525SOL     OW29473   4.045   0.705   3.742
 9525SOL    HW129474   4.096   0.693   3.656
 9525SOL    HW229475   4.105   0.680   3.818
 9526SOL     OW29476   4.805   5.801   0.720
 9526SOL    HW129477   4.856   5.741   0.782
 9526SOL    HW229478   4.708   5.775   0.721
 9527SOL     OW29479   0.203   0.915   0.116
 9527SOL    HW129480   0.130   0.862   0.074
 9527SOL    HW229481   0.241   0.864   0.194
 9528SOL     OW29482   5.393   1.672   2.098
 9528SOL    HW129483   5.326   1.702   2.029
 9528SOL    HW229484   5.483   1.663   2.055
 9529SOL     OW29485   1.185   2.459   5.360
 9529SOL    HW129486   1.115   2.388   5.352
 9529SOL    HW229487   1.254   2.445   5.289
 9530SOL     OW29488   2.439   1.399   3.727
 9530SOL    HW129489   2.469   1.398   3.631
 9530SOL    HW229490   2.453   1.309   3.767
 9531SOL     OW29491   2.721   6.130   3.969
 9531SOL    HW129492   2.689   6.088   3.884
 9531SOL    HW229493   2.801   6.080   4.003
 9532SOL     OW29494   3.107   1.094   1.178
 9532SOL    HW129495   3.034   1.118   1.114
 9532SOL    HW229496   3.127   1.173   1.236
 9533SOL     OW29497   0.398   1.238   3.687
 9533SOL    HW129498   0.375   1.152   3.642
 9533SOL    HW229499   0.356   1.314   3.637
 9534SOL     OW29500   4.763   1.593   4.295
 9534SOL    HW129501   4.803   1.639   4.216
 9534SOL    HW229502   4.701   1.657   4.342
 9535SOL     OW29503   3.106   1.862   4.641
 9535SOL    HW129504   3.087   1.877   4.544
 9535SOL    HW229505   3.021   1.874   4.693
 9536SOL     OW29506   2.540   5.910   6.370
 9536SOL    HW129507   2.504   5.919   6.277
 9536SOL    HW229508   2.494   5.836   6.418
 9537SOL     OW29509   2.214   0.068   0.092
 9537SOL    HW129510   2.240   6.997   0.101
 9537SOL    HW229511   2.114   0.076   0.099
 9538SOL     OW29512   5.563   3.964   3.208
 9538SOL    HW129513   5.561   4.046   3.265
 9538SOL    HW229514   5.472   3.922   3.207
 9539SOL     OW29515   1.441   2.661   0.708
 9539SOL    HW129516   1.401   2.726   0.643
 9539SOL    HW229517   1.507   2.709   0.766
 9540SOL     OW29518   6.134   3.109   5.800
 9540SOL    HW129519   6.122   3.168   5.880
 9540SOL    HW229520   6.227   3.119   5.765
 9541SOL     OW29521   6.389   2.843   2.621
 9541SOL    HW129522   6.305   2.789   2.620
 9541SOL    HW229523   6.367   2.939   2.640
 9542SOL     OW29524   5.015   3.630   4.488
 9542SOL    HW129525   4.964   3.656   4.406
 9542SOL    HW229526   5.111   3.657   4.479
 9543SOL     OW29527   3.933   2.551   0.094
 9543SOL    HW129528   3.877   2.613   0.149
 9543SOL    HW229529   3.877   2.512   0.021
 9544SOL     OW29530   5.107   7.006   0.947
 9544SOL    HW129531   5.202   6.983   0.928
 9544SOL    HW229532   5.048   6.958   0.882
 9545SOL     OW29533   1.355   0.621   4.507
 9545SOL    HW129534   1.399   0.628   4.418
 9545SOL    HW229535   1.369   0.529   4.544
 9546SOL     OW29536   2.993   4.316   1.698
 9546SOL    HW129537   3.072   4.366   1.661
 9546SOL    HW229538   2.955   4.366   1.776
 9547SOL     OW29539   5.680   0.735   2.566
 9547SOL    HW129540   5.681   0.680   2.483
 9547SOL    HW229541   5.742   0.695   2.633
 9548SOL     OW29542   6.318   6.599   1.526
 9548SOL    HW129543   6.235   6.567   1.480
 9548SOL    HW229544   6.360   6.522   1.576
 9549SOL     OW29545   2.328   6.221   6.829
 9549SOL    HW129546   2.427   6.227   6.838
 9549SOL    HW229547   2.294   6.143   6.883
 9550SOL     OW29548   1.434   0.786   1.081
 9550SOL    HW129549   1.379   0.857   1.123
 9550SOL    HW229550   1.402   0.696   1.111
 9551SOL     OW29551   1.239   5.663   4.780
 9551SOL    HW129552   1.205   5.757   4.777
 9551SOL    HW229553   1.179   5.605   4.726
 9552SOL     OW29554   6.216   5.446   3.352
 9552SOL    HW129555   6.263   5.378   3.407
 9552SOL    HW229556   6.257   5.449   3.261
 9553SOL     OW29557   4.760   5.027   6.864
 9553SOL    HW129558   4.721   5.092   6.800
 9553SOL    HW229559   4.834   4.977   6.819
 9554SOL     OW29560   1.585   3.091   1.813
 9554SOL    HW129561   1.586   3.138   1.725
 9554SOL    HW229562   1.648   3.013   1.810
 9555SOL     OW29563   0.856   2.433   6.183
 9555SOL    HW129564   0.854   2.347   6.234
 9555SOL    HW229565   0.793   2.426   6.105
 9556SOL     OW29566   5.649   1.970   1.631
 9556SOL    HW129567   5.656   1.901   1.559
 9556SOL    HW229568   5.554   1.981   1.658
 9557SOL     OW29569   5.106   2.031   0.850
 9557SOL    HW129570   5.162   1.961   0.806
 9557SOL    HW229571   5.151   2.120   0.841
 9558SOL     OW29572   6.697   3.909   1.871
 9558SOL    HW129573   6.666   3.903   1.776
 9558SOL    HW229574   6.736   3.821   1.898
 9559SOL     OW29575   0.338   4.825   3.390
 9559SOL    HW129576   0.275   4.761   3.435
 9559SOL    HW229577   0.392   4.776   3.321
 9560SOL     OW29578   3.918   2.973   6.218
 9560SOL    HW129579   3.903   2.989   6.121
 9560SOL    HW229580   4.016   2.975   6.238
 9561SOL     OW29581   3.400   5.162   6.455
 9561SOL    HW129582   3.330   5.222   6.496
 9561SOL    HW229583   3.373   5.067   6.467
 9562SOL     OW29584   6.116   5.897   4.195
 9562SOL    HW129585   6.137   5.989   4.162
 9562SOL    HW229586   6.031   5.900   4.247
 9563SOL     OW29587   0.675   1.444   5.741
 9563SOL    HW129588   0.646   1.441   5.837
 9563SOL    HW229589   0.621   1.513   5.693
 9564SOL     OW29590   6.795   0.055   6.079
 9564SOL    HW129591   6.726   7.009   6.091
 9564SOL    HW229592   6.844   0.039   5.993
 9565SOL     OW29593   2.877   5.560   5.216
 9565SOL    HW129594   2.827   5.609   5.287
 9565SOL    HW229595   2.830   5.474   5.195
 9566SOL     OW29596   2.307   5.975   5.234
 9566SOL    HW129597   2.209   5.954   5.238
 9566SOL    HW229598   2.328   6.051   5.296
 9567SOL     OW29599   5.175   5.647   3.052
 9567SOL    HW129600   5.152   5.709   2.977
 9567SOL    HW229601   5.132   5.679   3.136
 9568SOL     OW29602   6.254   3.575   4.413
 9568SOL    HW129603   6.288   3.539   4.500
 9568SOL    HW229604   6.171   3.630   4.430
 9569SOL     OW29605   5.573   0.577   1.112
 9569SOL    HW129606   5.581   0.485   1.151
 9569SOL    HW229607   5.495   0.581   1.051
 9570SOL     OW29608   0.270   3.989   6.810
 9570SOL    HW129609   0.300   3.897   6.787
 9570SOL    HW229610   0.348   4.052   6.803
 9571SOL     OW29611   3.594   1.709   0.676
 9571SOL    HW129612   3.550   1.621   0.662
 9571SOL    HW229613   3.639   1.710   0.765
 9572SOL     OW29614   1.023   3.775   1.180
 9572SOL    HW129615   1.106   3.738   1.221
 9572SOL    HW229616   1.044   3.863   1.137
 9573SOL     OW29617   4.362   2.071   1.534
 9573SOL    HW129618   4.417   1.987   1.531
 9573SOL    HW229619   4.295   2.065   1.607
 9574SOL     OW29620   2.196   1.553   2.928
 9574SOL    HW129621   2.196   1.548   3.028
 9574SOL    HW229622   2.134   1.626   2.899
 9575SOL     OW29623   2.890   1.626   2.711
 9575SOL    HW129624   2.927   1.582   2.628
 9575SOL    HW229625   2.961   1.627   2.782
 9576SOL     OW29626   4.839   2.559   5.713
 9576SOL    HW129627   4.888   2.473   5.729
 9576SOL    HW229628   4.852   2.587   5.618
 9577SOL     OW29629   0.719   6.128   3.742
 9577SOL    HW129630   0.646   6.059   3.747
 9577SOL    HW229631   0.806   6.085   3.768
 9578SOL     OW29632   6.240   4.042   1.922
 9578SOL    HW129633   6.211   4.134   1.945
 9578SOL    HW229634   6.167   3.994   1.874
 9579SOL     OW29635   1.310   4.942   2.877
 9579SOL    HW129636   1.391   5.001   2.882
 9579SOL    HW229637   1.329   4.855   2.923
 9580SOL     OW29638   3.840   3.520   5.068
 9580SOL    HW129639   3.746   3.553   5.056
 9580SOL    HW229640   3.848   3.471   5.155
 9581SOL     OW29641   0.243   6.671   6.582
 9581SOL    HW129642   0.196   6.712   6.504
 9581SOL    HW229643   0.334   6.713   6.592
 9582SOL     OW29644   3.694   4.987   2.801
 9582SOL    HW129645   3.746   4.908   2.833
 9582SOL    HW229646   3.734   5.020   2.715
 9583SOL     OW29647   1.104   5.202   2.796
 9583SOL    HW129648   1.025   5.215   2.856
 9583SOL    HW229649   1.187   5.234   2.841
 9584SOL     OW29650   5.038   5.143   6.672
 9584SOL    HW129651   5.008   5.049   6.687
 9584SOL    HW229652   5.027   5.195   6.756
 9585SOL     OW29653   6.259   2.064   2.138
 9585SOL    HW129654   6.198   2.058   2.058
 9585SOL    HW229655   6.259   2.157   2.173
 9586SOL     OW29656   4.066   5.138   2.374
 9586SOL    HW129657   4.164   5.141   2.396
 9586SOL    HW229658   4.034   5.229   2.351
 9587SOL     OW29659   4.429   6.316   2.073
 9587SOL    HW129660   4.491   6.390   2.047
 9587SOL    HW229661   4.393   6.334   2.165
 9588SOL     OW29662   5.967   1.536   3.683
 9588SOL    HW129663   5.973   1.468   3.756
 9588SOL    HW229664   5.983   1.491   3.595
 9589SOL     OW29665   4.175   1.898   5.084
 9589SOL    HW129666   4.109   1.968   5.058
 9589SOL    HW229667   4.161   1.816   5.028
 9590SOL     OW29668   0.116   5.093   5.607
 9590SOL    HW129669   0.088   5.095   5.702
 9590SOL    HW229670   0.215   5.084   5.601
 9591SOL     OW29671   0.279   4.001   2.250
 9591SOL    HW129672   0.218   4.039   2.319
 9591SOL    HW229673   0.273   4.056   2.166
 9592SOL     OW29674   3.650   5.671   0.760
 9592SOL    HW129675   3.615   5.589   0.806
 9592SOL    HW229676   3.593   5.691   0.680
 9593SOL     OW29677   2.093   2.804   3.479
 9593SOL    HW129678   2.056   2.832   3.391
 9593SOL    HW229679   2.034   2.733   3.519
 9594SOL     OW29680   5.849   0.110   0.717
 9594SOL    HW129681   5.946   0.088   0.725
 9594SOL    HW229682   5.801   0.035   0.672
 9595SOL     OW29683   1.895   4.370   5.397
 9595SOL    HW129684   1.988   4.353   5.363
 9595SOL    HW229685   1.831   4.370   5.321
 9596SOL     OW29686   5.270   4.602   2.449
 9596SOL    HW129687   5.206   4.657   2.504
 9596SOL    HW229688   5.338   4.559   2.509
 9597SOL     OW29689   1.367   4.068   2.085
 9597SOL    HW129690   1.401   4.106   2.171
 9597SOL    HW229691   1.298   4.130   2.046
 9598SOL     OW29692   0.675   6.337   4.840
 9598SOL    HW129693   0.765   6.378   4.856
 9598SOL    HW229694   0.683   6.238   4.837
 9599SOL     OW29695   4.003   2.007   5.508
 9599SOL    HW129696   3.934   1.956   5.559
 9599SOL    HW229697   3.960   2.055   5.432
 9600SOL     OW29698   1.832   5.190   7.005
 9600SOL    HW129699   1.734   5.210   6.994
 9600SOL    HW229700   1.871   5.252   0.048
 9601SOL     OW29701   1.437   0.451   5.306
 9601SOL    HW129702   1.395   0.496   5.227
 9601SOL    HW229703   1.413   0.354   5.306
 9602SOL     OW29704   1.076   5.560   6.352
 9602SOL    HW129705   0.986   5.524   6.326
 9602SOL    HW229706   1.142   5.541   6.279
 9603SOL     OW29707   1.101   5.338   1.993
 9603SOL    HW129708   1.100   5.243   2.023
 9603SOL    HW229709   1.007   5.374   1.990
 9604SOL     OW29710   6.399   0.148   5.703
 9604SOL    HW129711   6.330   0.219   5.689
 9604SOL    HW229712   6.383   0.103   5.791
 9605SOL     OW29713   3.032   5.156   0.417
 9605SOL    HW129714   3.044   5.057   0.418
 9605SOL    HW229715   2.985   5.185   0.501
 9606SOL     OW29716   6.787   1.419   4.442
 9606SOL    HW129717   6.752   1.497   4.390
 9606SOL    HW229718   6.713   1.353   4.457
 9607SOL     OW29719   6.909   4.332   3.884
 9607SOL    HW129720   6.811   4.345   3.868
 9607SOL    HW229721   6.945   4.269   3.815
 9608SOL     OW29722   6.283   0.749   1.360
 9608SOL    HW129723   6.325   0.671   1.312
 9608SOL    HW229724   6.343   0.829   1.352
 9609SOL     OW29725   0.996   1.822   3.290
 9609SOL    HW129726   1.054   1.783   3.219
 9609SOL    HW229727   1.038   1.807   3.379
 9610SOL     OW29728   5.242   1.283   6.374
 9610SOL    HW129729   5.338   1.308   6.384
 9610SOL    HW229730   5.225   1.250   6.281
 9611SOL     OW29731   4.974   4.964   1.548
 9611SOL    HW129732   5.066   4.982   1.584
 9611SOL    HW229733   4.910   4.956   1.625
 9612SOL     OW29734   4.661   4.214   3.823
 9612SOL    HW129735   4.737   4.152   3.807
 9612SOL    HW229736   4.636   4.212   3.920
 9613SOL     OW29737   4.249   1.247   4.702
 9613SOL    HW129738   4.328   1.195   4.669
 9613SOL    HW229739   4.177   1.246   4.633
 9614SOL     OW29740   3.542   3.085   6.704
 9614SOL    HW129741   3.493   3.015   6.652
 9614SOL    HW229742   3.482   3.164   6.718
 9615SOL     OW29743   6.100   6.784   3.497
 9615SOL    HW129744   6.167   6.807   3.568
 9615SOL    HW229745   6.031   6.857   3.492
 9616SOL     OW29746   6.979   2.200   6.775
 9616SOL    HW129747   6.916   2.123   6.770
 9616SOL    HW229748   6.963   2.251   6.859
 9617SOL     OW29749   1.511   3.572   3.995
 9617SOL    HW129750   1.593   3.545   4.045
 9617SOL    HW229751   1.432   3.523   4.032
 9618SOL     OW29752   5.213   4.389   1.402
 9618SOL    HW129753   5.160   4.305   1.401
 9618SOL    HW229754   5.265   4.394   1.487
 9619SOL     OW29755   1.439   1.445   0.279
 9619SOL    HW129756   1.513   1.501   0.242
 9619SOL    HW229757   1.352   1.492   0.267
 9620SOL     OW29758   2.872   0.865   6.434
 9620SOL    HW129759   2.971   0.874   6.442
 9620SOL    HW229760   2.836   0.820   6.516
 9621SOL     OW29761   0.063   0.319   0.157
 9621SOL    HW129762   0.012   0.370   0.088
 9621SOL    HW229763   0.098   0.235   0.117
 9622SOL     OW29764   6.344   0.276   4.621
 9622SOL    HW129765   6.424   0.307   4.672
 9622SOL    HW229766   6.325   0.181   4.643
 9623SOL     OW29767   2.244   5.616   5.966
 9623SOL    HW129768   2.301   5.628   5.886
 9623SOL    HW229769   2.295   5.565   6.036
 9624SOL     OW29770   4.296   5.398   6.533
 9624SOL    HW129771   4.343   5.371   6.617
 9624SOL    HW229772   4.280   5.317   6.477
 9625SOL     OW29773   5.359   3.696   5.839
 9625SOL    HW129774   5.453   3.671   5.862
 9625SOL    HW229775   5.298   3.619   5.859
 9626SOL     OW29776   2.585   2.564   0.627
 9626SOL    HW129777   2.668   2.609   0.595
 9626SOL    HW229778   2.508   2.590   0.568
 9627SOL     OW29779   0.268   5.250   0.493
 9627SOL    HW129780   0.250   5.152   0.484
 9627SOL    HW229781   0.365   5.265   0.514
 9628SOL     OW29782   5.793   1.889   5.718
 9628SOL    HW129783   5.787   1.806   5.662
 9628SOL    HW229784   5.743   1.875   5.803
 9629SOL     OW29785   0.332   5.837   4.054
 9629SOL    HW129786   0.396   5.777   4.101
 9629SOL    HW229787   0.245   5.790   4.041
 9630SOL     OW29788   6.007   0.616   5.181
 9630SOL    HW129789   5.984   0.538   5.239
 9630SOL    HW229790   6.106   0.630   5.180
 9631SOL     OW29791   4.432   5.791   0.142
 9631SOL    HW129792   4.364   5.718   0.138
 9631SOL    HW229793   4.486   5.782   0.225
 9632SOL     OW29794   2.237   5.357   3.697
 9632SOL    HW129795   2.306   5.312   3.641
 9632SOL    HW229796   2.146   5.322   3.673
 9633SOL     OW29797   2.295   3.088   5.698
 9633SOL    HW129798   2.394   3.078   5.698
 9633SOL    HW229799   2.252   2.997   5.701
 9634SOL     OW29800   5.514   4.737   2.874
 9634SOL    HW129801   5.506   4.768   2.969
 9634SOL    HW229802   5.447   4.666   2.856
 9635SOL     OW29803   0.232   5.146   4.250
 9635SOL    HW129804   0.190   5.070   4.299
 9635SOL    HW229805   0.265   5.213   4.315
 9636SOL     OW29806   4.968   3.684   3.824
 9636SOL    HW129807   4.930   3.592   3.831
 9636SOL    HW229808   4.980   3.722   3.915
 9637SOL     OW29809   3.256   2.564   5.995
 9637SOL    HW129810   3.259   2.611   5.907
 9637SOL    HW229811   3.161   2.547   6.021
 9638SOL     OW29812   1.237   4.647   6.077
 9638SOL    HW129813   1.206   4.552   6.070
 9638SOL    HW229814   1.273   4.663   6.169
 9639SOL     OW29815   5.777   3.384   1.127
 9639SOL    HW129816   5.686   3.426   1.135
 9639SOL    HW229817   5.846   3.449   1.157
 9640SOL     OW29818   2.159   5.624   3.749
 9640SOL    HW129819   2.219   5.544   3.744
 9640SOL    HW229820   2.210   5.704   3.717
 9641SOL     OW29821   0.554   2.620   4.854
 9641SOL    HW129822   0.650   2.601   4.835
 9641SOL    HW229823   0.498   2.589   4.777
 9642SOL     OW29824   0.895   3.289   4.551
 9642SOL    HW129825   0.809   3.321   4.590
 9642SOL    HW229826   0.927   3.209   4.601
 9643SOL     OW29827   6.978   5.742   5.107
 9643SOL    HW129828   0.033   5.789   5.144
 9643SOL    HW229829   7.002   5.648   5.086
 9644SOL     OW29830   0.919   4.851   3.709
 9644SOL    HW129831   0.836   4.857   3.764
 9644SOL    HW229832   0.978   4.930   3.728
 9645SOL     OW29833   0.303   4.901   0.970
 9645SOL    HW129834   0.361   4.982   0.974
 9645SOL    HW229835   0.226   4.912   1.034
 9646SOL     OW29836   2.333   4.623   0.668
 9646SOL    HW129837   2.338   4.714   0.710
 9646SOL    HW229838   2.276   4.628   0.586
 9647SOL     OW29839   4.684   0.547   2.436
 9647SOL    HW129840   4.728   0.458   2.453
 9647SOL    HW229841   4.678   0.598   2.521
 9648SOL     OW29842   4.205   1.362   1.124
 9648SOL    HW129843   4.220   1.310   1.040
 9648SOL    HW229844   4.289   1.364   1.178
 9649SOL     OW29845   0.082   5.418   0.608
 9649SOL    HW129846   0.106   5.515   0.605
 9649SOL    HW229847   0.149   5.366   0.557
 9650SOL     OW29848   0.144   5.504   5.495
 9650SOL    HW129849   0.203   5.424   5.510
 9650SOL    HW229850   0.073   5.480   5.429
 9651SOL     OW29851   4.569   1.326   0.793
 9651SOL    HW129852   4.569   1.274   0.879
 9651SOL    HW229853   4.541   1.266   0.718
 9652SOL     OW29854   0.584   4.247   0.012
 9652SOL    HW129855   0.508   4.188   7.012
 9652SOL    HW229856   0.558   4.343   7.023
 9653SOL     OW29857   5.898   3.494   5.076
 9653SOL    HW129858   5.805   3.523   5.099
 9653SOL    HW229859   5.959   3.574   5.077
 9654SOL     OW29860   3.368   3.600   4.493
 9654SOL    HW129861   3.318   3.594   4.579
 9654SOL    HW229862   3.304   3.603   4.416
 9655SOL     OW29863   4.263   0.950   0.591
 9655SOL    HW129864   4.272   1.028   0.529
 9655SOL    HW229865   4.173   0.909   0.580
 9656SOL     OW29866   5.336   4.536   4.797
 9656SOL    HW129867   5.370   4.445   4.773
 9656SOL    HW229868   5.361   4.601   4.725
 9657SOL     OW29869   4.853   4.783   2.258
 9657SOL    HW129870   4.795   4.840   2.200
 9657SOL    HW229871   4.887   4.705   2.205
 9658SOL     OW29872   4.569   1.330   2.790
 9658SOL    HW129873   4.627   1.272   2.733
 9658SOL    HW229874   4.479   1.341   2.748
 9659SOL     OW29875   4.369   2.796   6.979
 9659SOL    HW129876   4.445   2.731   6.967
 9659SOL    HW229877   4.287   2.746   7.008
 9660SOL     OW29878   1.704   0.355   1.921
 9660SOL    HW129879   1.753   0.425   1.868
 9660SOL    HW229880   1.620   0.395   1.959
 9661SOL     OW29881   3.950   3.320   2.439
 9661SOL    HW129882   4.016   3.335   2.366
 9661SOL    HW229883   3.888   3.398   2.445
 9662SOL     OW29884   4.163   0.408   5.080
 9662SOL    HW129885   4.080   0.359   5.054
 9662SOL    HW229886   4.202   0.452   4.999
 9663SOL     OW29887   0.965   5.940   2.415
 9663SOL    HW129888   0.906   5.885   2.356
 9663SOL    HW229889   0.943   6.037   2.402
 9664SOL     OW29890   1.744   4.688   2.637
 9664SOL    HW129891   1.733   4.702   2.736
 9664SOL    HW229892   1.841   4.689   2.615
 9665SOL     OW29893   6.084   3.543   0.784
 9665SOL    HW129894   6.051   3.627   0.740
 9665SOL    HW229895   6.174   3.519   0.747
 9666SOL     OW29896   5.340   4.585   1.285
 9666SOL    HW129897   5.271   4.527   1.328
 9666SOL    HW229898   5.363   4.548   1.195
 9667SOL     OW29899   5.442   5.912   0.144
 9667SOL    HW129900   5.482   5.919   0.053
 9667SOL    HW229901   5.410   6.002   0.174
 9668SOL     OW29902   2.183   0.400   0.175
 9668SOL    HW129903   2.116   0.397   0.101
 9668SOL    HW229904   2.159   0.333   0.245
 9669SOL     OW29905   3.552   6.914   0.775
 9669SOL    HW129906   3.612   6.994   0.777
 9669SOL    HW229907   3.601   6.835   0.811
 9670SOL     OW29908   0.510   6.995   2.936
 9670SOL    HW129909   0.517   0.066   2.962
 9670SOL    HW229910   0.472   6.988   2.844
 9671SOL     OW29911   1.499   5.472   6.523
 9671SOL    HW129912   1.443   5.550   6.495
 9671SOL    HW229913   1.537   5.427   6.442
 9672SOL     OW29914   0.513   4.173   4.259
 9672SOL    HW129915   0.477   4.252   4.210
 9672SOL    HW229916   0.450   4.096   4.248
 9673SOL     OW29917   2.037   2.940   5.527
 9673SOL    HW129918   2.100   2.905   5.597
 9673SOL    HW229919   2.085   3.002   5.467
 9674SOL     OW29920   1.299   0.364   3.375
 9674SOL    HW129921   1.371   0.320   3.323
 9674SOL    HW229922   1.332   0.453   3.409
 9675SOL     OW29923   6.925   4.207   6.055
 9675SOL    HW129924   6.953   4.129   5.999
 9675SOL    HW229925   6.998   4.231   6.118
 9676SOL     OW29926   0.863   2.740   6.229
 9676SOL    HW129927   0.861   2.805   6.306
 9676SOL    HW229928   0.878   2.648   6.264
 9677SOL     OW29929   0.758   5.231   3.562
 9677SOL    HW129930   0.715   5.282   3.637
 9677SOL    HW229931   0.721   5.263   3.475
 9678SOL     OW29932   4.577   2.865   6.486
 9678SOL    HW129933   4.530   2.837   6.569
 9678SOL    HW229934   4.674   2.880   6.505
 9679SOL     OW29935   2.113   1.183   4.231
 9679SOL    HW129936   2.144   1.104   4.283
 9679SOL    HW229937   2.021   1.209   4.260
 9680SOL     OW29938   4.437   6.348   2.817
 9680SOL    HW129939   4.412   6.270   2.873
 9680SOL    HW229940   4.477   6.316   2.731
 9681SOL     OW29941   0.448   2.350   0.958
 9681SOL    HW129942   0.379   2.411   0.997
 9681SOL    HW229943   0.431   2.338   0.860
 9682SOL     OW29944   3.960   6.603   4.907
 9682SOL    HW129945   3.891   6.667   4.941
 9682SOL    HW229946   4.051   6.642   4.922
 9683SOL     OW29947   3.280   5.400   3.969
 9683SOL    HW129948   3.320   5.309   3.961
 9683SOL    HW229949   3.325   5.462   3.905
 9684SOL     OW29950   1.059   2.541   6.329
 9684SOL    HW129951   1.131   2.472   6.330
 9684SOL    HW229952   0.979   2.504   6.282
 9685SOL     OW29953   3.804   4.659   1.687
 9685SOL    HW129954   3.867   4.585   1.667
 9685SOL    HW229955   3.725   4.624   1.737
 9686SOL     OW29956   1.317   1.401   6.173
 9686SOL    HW129957   1.234   1.378   6.224
 9686SOL    HW229958   1.383   1.444   6.234
 9687SOL     OW29959   5.682   0.880   3.934
 9687SOL    HW129960   5.696   0.787   3.968
 9687SOL    HW229961   5.605   0.881   3.871
 9688SOL     OW29962   0.810   5.363   2.749
 9688SOL    HW129963   0.778   5.313   2.669
 9688SOL    HW229964   0.788   5.310   2.832
 9689SOL     OW29965   2.027   6.238   1.082
 9689SOL    HW129966   2.105   6.177   1.098
 9689SOL    HW229967   2.055   6.333   1.101
 9690SOL     OW29968   6.684   4.824   4.259
 9690SOL    HW129969   6.774   4.838   4.217
 9690SOL    HW229970   6.652   4.909   4.299
 9691SOL     OW29971   3.779   3.988   2.833
 9691SOL    HW129972   3.728   4.036   2.761
 9691SOL    HW229973   3.766   4.035   2.920
 9692SOL     OW29974   0.090   5.877   0.299
 9692SOL    HW129975   0.029   5.930   0.358
 9692SOL    HW229976   0.049   5.788   0.280
 9693SOL     OW29977   3.999   4.267   6.924
 9693SOL    HW129978   3.976   4.339   6.988
 9693SOL    HW229979   3.944   4.185   6.944
 9694SOL     OW29980   2.132   5.428   1.452
 9694SOL    HW129981   2.212   5.414   1.393
 9694SOL    HW229982   2.152   5.390   1.543
 9695SOL     OW29983   1.239   2.929   3.326
 9695SOL    HW129984   1.228   3.029   3.324
 9695SOL    HW229985   1.317   2.903   3.269
 9696SOL     OW29986   4.675   4.196   3.345
 9696SOL    HW129987   4.583   4.162   3.329
 9696SOL    HW229988   4.730   4.184   3.262
 9697SOL     OW29989   6.651   6.635   3.324
 9697SOL    HW129990   6.554   6.645   3.347
 9697SOL    HW229991   6.671   6.684   3.239
 9698SOL     OW29992   0.372   2.505   1.316
 9698SOL    HW129993   0.454   2.559   1.295
 9698SOL    HW229994   0.389   2.409   1.295
 9699SOL     OW29995   1.720   6.764   2.575
 9699SOL    HW129996   1.814   6.792   2.594
 9699SOL    HW229997   1.671   6.752   2.661
 9700SOL     OW29998   6.283   0.592   6.121
 9700SOL    HW129999   6.201   0.550   6.081
 9700SOL    HW230000   6.335   0.523   6.171
 9701SOL     OW30001   6.099   3.785   0.033
 9701SOL    HW130002   6.194   3.759   0.048
 9701SOL    HW230003   6.066   3.744   6.973
 9702SOL     OW30004   3.008   3.818   2.117
 9702SOL    HW130005   2.952   3.813   2.035
 9702SOL    HW230006   3.017   3.726   2.157
 9703SOL     OW30007   6.036   5.183   3.398
 9703SOL    HW130008   6.131   5.211   3.416
 9703SOL    HW230009   6.024   5.168   3.300
 9704SOL     OW30010   0.660   5.276   2.170
 9704SOL    HW130011   0.706   5.215   2.106
 9704SOL    HW230012   0.562   5.276   2.152
 9705SOL     OW30013   0.073   3.967   5.523
 9705SOL    HW130014   7.024   4.003   5.580
 9705SOL    HW230015   0.041   3.887   5.473
 9706SOL     OW30016   0.060   6.931   2.321
 9706SOL    HW130017   0.020   6.847   2.285
 9706SOL    HW230018   0.107   6.980   2.248
 9707SOL     OW30019   1.596   4.795   1.646
 9707SOL    HW130020   1.539   4.733   1.591
 9707SOL    HW230021   1.691   4.764   1.643
 9708SOL     OW30022   3.147   0.434   1.251
 9708SOL    HW130023   3.118   0.460   1.159
 9708SOL    HW230024   3.227   0.487   1.277
 9709SOL     OW30025   3.212   1.751   1.805
 9709SOL    HW130026   3.281   1.695   1.758
 9709SOL    HW230027   3.234   1.848   1.793
 9710SOL     OW30028   5.206   4.852   4.329
 9710SOL    HW130029   5.154   4.838   4.414
 9710SOL    HW230030   5.292   4.900   4.350
 9711SOL     OW30031   3.260   0.028   6.760
 9711SOL    HW130032   3.248   6.972   6.703
 9711SOL    HW230033   3.267   0.000   6.856
 9712SOL     OW30034   5.082   6.757   5.402
 9712SOL    HW130035   4.993   6.713   5.412
 9712SOL    HW230036   5.100   6.815   5.481
 9713SOL     OW30037   0.719   1.065   2.946
 9713SOL    HW130038   0.755   0.972   2.938
 9713SOL    HW230039   0.619   1.063   2.934
 9714SOL     OW30040   2.170   2.272   3.766
 9714SOL    HW130041   2.237   2.317   3.708
 9714SOL    HW230042   2.182   2.173   3.761
 9715SOL     OW30043   0.985   1.536   6.044
 9715SOL    HW130044   0.960   1.517   6.139
 9715SOL    HW230045   0.917   1.596   6.003
 9716SOL     OW30046   1.373   6.099   1.720
 9716SOL    HW130047   1.378   6.043   1.638
 9716SOL    HW230048   1.371   6.040   1.801
 9717SOL     OW30049   4.227   1.924   6.160
 9717SOL    HW130050   4.305   1.912   6.098
 9717SOL    HW230051   4.175   1.839   6.164
 9718SOL     OW30052   3.028   2.515   6.801
 9718SOL    HW130053   3.064   2.608   6.815
 9718SOL    HW230054   2.951   2.500   6.862
 9719SOL     OW30055   5.013   0.266   6.666
 9719SOL    HW130056   5.025   0.257   6.765
 9719SOL    HW230057   4.927   0.314   6.647
 9720SOL     OW30058   1.603   1.845   1.938
 9720SOL    HW130059   1.629   1.749   1.922
 9720SOL    HW230060   1.664   1.905   1.886
 9721SOL     OW30061   0.311   1.352   1.129
 9721SOL    HW130062   0.246   1.428   1.136
 9721SOL    HW230063   0.390   1.381   1.076
 9722SOL     OW30064   3.575   2.866   5.737
 9722SOL    HW130065   3.623   2.846   5.823
 9722SOL    HW230066   3.538   2.781   5.699
 9723SOL     OW30067   5.449   1.681   4.109
 9723SOL    HW130068   5.431   1.662   4.013
 9723SOL    HW230069   5.377   1.740   4.146
 9724SOL     OW30070   1.235   5.117   1.294
 9724SOL    HW130071   1.257   5.020   1.290
 9724SOL    HW230072   1.318   5.171   1.277
 9725SOL     OW30073   5.607   5.371   5.080
 9725SOL    HW130074   5.618   5.273   5.098
 9725SOL    HW230075   5.524   5.404   5.126
 9726SOL     OW30076   6.670   6.954   2.774
 9726SOL    HW130077   6.761   6.928   2.741
 9726SOL    HW230078   6.642   6.891   2.846
 9727SOL     OW30079   6.712   3.008   0.764
 9727SOL    HW130080   6.681   2.958   0.683
 9727SOL    HW230081   6.661   3.094   0.771
 9728SOL     OW30082   5.316   2.556   4.561
 9728SOL    HW130083   5.238   2.605   4.600
 9728SOL    HW230084   5.345   2.601   4.477
 9729SOL     OW30085   6.979   3.455   3.110
 9729SOL    HW130086   6.952   3.536   3.058
 9729SOL    HW230087   6.961   3.471   3.208
 9730SOL     OW30088   0.564   6.838   3.327
 9730SOL    HW130089   0.531   6.818   3.235
 9730SOL    HW230090   0.636   6.773   3.352
 9731SOL     OW30091   6.497   0.932   1.361
 9731SOL    HW130092   6.515   0.999   1.433
 9731SOL    HW230093   6.483   0.981   1.274
 9732SOL     OW30094   6.902   2.701   2.825
 9732SOL    HW130095   6.914   2.778   2.887
 9732SOL    HW230096   6.827   2.720   2.761
 9733SOL     OW30097   4.622   5.968   1.114
 9733SOL    HW130098   4.690   6.024   1.067
 9733SOL    HW230099   4.666   5.884   1.146
 9734SOL     OW30100   3.930   3.677   0.830
 9734SOL    HW130101   3.966   3.666   0.737
 9734SOL    HW230102   3.982   3.620   0.893
 9735SOL     OW30103   0.457   2.454   0.169
 9735SOL    HW130104   0.491   2.548   0.161
 9735SOL    HW230105   0.358   2.453   0.163
 9736SOL     OW30106   6.391   3.024   5.726
 9736SOL    HW130107   6.423   2.983   5.641
 9736SOL    HW230108   6.450   2.995   5.801
 9737SOL     OW30109   5.528   3.528   5.623
 9737SOL    HW130110   5.559   3.622   5.638
 9737SOL    HW230111   5.432   3.521   5.649
 9738SOL     OW30112   2.856   5.751   1.402
 9738SOL    HW130113   2.935   5.813   1.395
 9738SOL    HW230114   2.805   5.772   1.486
 9739SOL     OW30115   5.617   5.828   1.677
 9739SOL    HW130116   5.661   5.918   1.672
 9739SOL    HW230117   5.558   5.815   1.597
 9740SOL     OW30118   6.890   0.081   1.049
 9740SOL    HW130119   6.842   0.168   1.047
 9740SOL    HW230120   6.946   0.072   0.967
 9741SOL     OW30121   2.108   2.140   2.852
 9741SOL    HW130122   2.123   2.238   2.837
 9741SOL    HW230123   2.011   2.123   2.868
 9742SOL     OW30124   5.469   6.696   6.721
 9742SOL    HW130125   5.387   6.639   6.730
 9742SOL    HW230126   5.521   6.694   6.807
 9743SOL     OW30127   6.085   3.756   4.185
 9743SOL    HW130128   6.065   3.685   4.117
 9743SOL    HW230129   6.178   3.790   4.170
 9744SOL     OW30130   1.874   2.921   2.088
 9744SOL    HW130131   1.814   2.872   2.024
 9744SOL    HW230132   1.960   2.943   2.043
 9745SOL     OW30133   1.197   0.056   5.388
 9745SOL    HW130134   1.271   7.015   5.395
 9745SOL    HW230135   1.224   0.141   5.434
 9746SOL     OW30136   3.812   5.182   6.044
 9746SOL    HW130137   3.879   5.242   6.087
 9746SOL    HW230138   3.801   5.208   5.948
 9747SOL     OW30139   4.422   1.403   3.139
 9747SOL    HW130140   4.444   1.319   3.091
 9747SOL    HW230141   4.347   1.386   3.203
 9748SOL     OW30142   0.055   1.862   1.735
 9748SOL    HW130143   0.125   1.908   1.680
 9748SOL    HW230144   0.084   1.859   1.830
 9749SOL     OW30145   6.577   6.764   1.539
 9749SOL    HW130146   6.571   6.854   1.496
 9749SOL    HW230147   6.546   6.694   1.474
 9750SOL     OW30148   5.033   2.940   4.853
 9750SOL    HW130149   5.091   2.937   4.771
 9750SOL    HW230150   4.939   2.960   4.826
 9751SOL     OW30151   2.957   5.089   0.670
 9751SOL    HW130152   3.027   5.129   0.729
 9751SOL    HW230153   2.981   4.994   0.650
 9752SOL     OW30154   4.729   4.820   0.943
 9752SOL    HW130155   4.652   4.759   0.960
 9752SOL    HW230156   4.803   4.769   0.899
 9753SOL     OW30157   5.461   6.246   3.063
 9753SOL    HW130158   5.459   6.201   3.152
 9753SOL    HW230159   5.395   6.321   3.063
 9754SOL     OW30160   3.303   0.966   1.803
 9754SOL    HW130161   3.291   0.868   1.785
 9754SOL    HW230162   3.345   0.978   1.893
 9755SOL     OW30163   3.990   3.820   1.279
 9755SOL    HW130164   4.002   3.798   1.375
 9755SOL    HW230165   3.961   3.739   1.229
 9756SOL     OW30166   5.360   0.260   6.697
 9756SOL    HW130167   5.377   0.344   6.645
 9756SOL    HW230168   5.306   0.197   6.642
 9757SOL     OW30169   5.158   4.106   3.823
 9757SOL    HW130170   5.210   4.135   3.742
 9757SOL    HW230171   5.221   4.074   3.893
 9758SOL     OW30172   2.963   0.456   0.620
 9758SOL    HW130173   2.951   0.387   0.549
 9758SOL    HW230174   3.020   0.419   0.693
 9759SOL     OW30175   6.045   0.433   0.377
 9759SOL    HW130176   6.065   0.335   0.389
 9759SOL    HW230177   6.130   0.485   0.380
 9760SOL     OW30178   5.116   0.371   5.973
 9760SOL    HW130179   5.020   0.376   5.998
 9760SOL    HW230180   5.171   0.352   6.055
 9761SOL     OW30181   0.560   2.259   1.316
 9761SOL    HW130182   0.624   2.228   1.246
 9761SOL    HW230183   0.610   2.298   1.393
 9762SOL     OW30184   4.398   1.401   5.385
 9762SOL    HW130185   4.301   1.381   5.375
 9762SOL    HW230186   4.409   1.490   5.430
 9763SOL     OW30187   6.402   2.178   0.362
 9763SOL    HW130188   6.321   2.132   0.327
 9763SOL    HW230189   6.472   2.183   0.291
 9764SOL     OW30190   6.629   2.845   3.270
 9764SOL    HW130191   6.566   2.770   3.289
 9764SOL    HW230192   6.718   2.807   3.242
 9765SOL     OW30193   6.957   1.829   1.135
 9765SOL    HW130194   6.997   1.857   1.047
 9765SOL    HW230195   6.858   1.843   1.132
 9766SOL     OW30196   0.610   3.120   2.675
 9766SOL    HW130197   0.595   3.177   2.595
 9766SOL    HW230198   0.698   3.073   2.668
 9767SOL     OW30199   3.853   0.928   4.524
 9767SOL    HW130200   3.846   1.017   4.478
 9767SOL    HW230201   3.870   0.943   4.621
 9768SOL     OW30202   4.141   3.718   7.009
 9768SOL    HW130203   4.177   3.713   6.916
 9768SOL    HW230204   4.157   3.810   0.021
 9769SOL     OW30205   2.821   0.767   5.908
 9769SOL    HW130206   2.817   0.797   5.812
 9769SOL    HW230207   2.773   0.680   5.917
 9770SOL     OW30208   2.145   3.277   4.866
 9770SOL    HW130209   2.158   3.294   4.964
 9770SOL    HW230210   2.142   3.178   4.850
 9771SOL     OW30211   3.672   0.475   1.092
 9771SOL    HW130212   3.614   0.539   1.041
 9771SOL    HW230213   3.734   0.428   1.029
 9772SOL     OW30214   0.209   0.095   1.737
 9772SOL    HW130215   0.263   0.100   1.653
 9772SOL    HW230216   0.142   0.020   1.730
 9773SOL     OW30217   4.333   6.106   2.962
 9773SOL    HW130218   4.374   6.049   3.034
 9773SOL    HW230219   4.277   6.049   2.902
 9774SOL     OW30220   1.595   5.616   5.224
 9774SOL    HW130221   1.560   5.660   5.141
 9774SOL    HW230222   1.535   5.540   5.249
 9775SOL     OW30223   1.347   1.626   3.672
 9775SOL    HW130224   1.428   1.632   3.613
 9775SOL    HW230225   1.310   1.533   3.669
 9776SOL     OW30226   1.090   6.210   1.310
 9776SOL    HW130227   1.175   6.211   1.363
 9776SOL    HW230228   1.094   6.136   1.242
 9777SOL     OW30229   5.402   2.686   5.266
 9777SOL    HW130230   5.407   2.619   5.191
 9777SOL    HW230231   5.339   2.759   5.241
 9778SOL     OW30232   1.502   3.032   3.334
 9778SOL    HW130233   1.457   3.083   3.407
 9778SOL    HW230234   1.596   3.064   3.323
 9779SOL     OW30235   2.118   0.892   2.864
 9779SOL    HW130236   2.195   0.941   2.824
 9779SOL    HW230237   2.140   0.867   2.958
 9780SOL     OW30238   1.432   1.967   1.569
 9780SOL    HW130239   1.386   1.883   1.543
 9780SOL    HW230240   1.365   2.040   1.580
 9781SOL     OW30241   0.425   0.968   2.101
 9781SOL    HW130242   0.362   0.997   2.173
 9781SOL    HW230243   0.374   0.926   2.027
 9782SOL     OW30244   0.521   2.344   6.556
 9782SOL    HW130245   0.523   2.402   6.638
 9782SOL    HW230246   0.444   2.281   6.562
 9783SOL     OW30247   5.299   1.669   1.831
 9783SOL    HW130248   5.388   1.657   1.788
 9783SOL    HW230249   5.230   1.683   1.761
 9784SOL     OW30250   1.995   1.382   0.094
 9784SOL    HW130251   1.938   1.434   0.158
 9784SOL    HW230252   2.034   1.444   0.026
 9785SOL     OW30253   2.189   3.780   4.400
 9785SOL    HW130254   2.236   3.815   4.482
 9785SOL    HW230255   2.091   3.774   4.418
 9786SOL     OW30256   2.529   4.458   0.695
 9786SOL    HW130257   2.442   4.503   0.676
 9786SOL    HW230258   2.572   4.500   0.775
 9787SOL     OW30259   2.648   3.242   1.165
 9787SOL    HW130260   2.670   3.248   1.068
 9787SOL    HW230261   2.549   3.231   1.176
 9788SOL     OW30262   2.997   6.883   3.973
 9788SOL    HW130263   2.978   6.804   4.031
 9788SOL    HW230264   2.962   6.867   3.881
 9789SOL     OW30265   4.164   1.875   0.370
 9789SOL    HW130266   4.130   1.899   0.279
 9789SOL    HW230267   4.212   1.787   0.365
 9790SOL     OW30268   4.737   5.513   5.375
 9790SOL    HW130269   4.663   5.450   5.396
 9790SOL    HW230270   4.762   5.564   5.457
 9791SOL     OW30271   6.919   1.038   0.714
 9791SOL    HW130272   6.991   1.026   0.646
 9791SOL    HW230273   6.940   1.117   0.772
 9792SOL     OW30274   2.512   4.098   6.652
 9792SOL    HW130275   2.546   4.045   6.731
 9792SOL    HW230276   2.567   4.077   6.572
 9793SOL     OW30277   5.454   0.684   1.706
 9793SOL    HW130278   5.542   0.714   1.743
 9793SOL    HW230279   5.381   0.709   1.770
 9794SOL     OW30280   4.617   5.787   5.792
 9794SOL    HW130281   4.626   5.868   5.733
 9794SOL    HW230282   4.548   5.726   5.754
 9795SOL     OW30283   1.700   3.801   3.132
 9795SOL    HW130284   1.757   3.876   3.100
 9795SOL    HW230285   1.740   3.762   3.216
 9796SOL     OW30286   3.837   3.175   5.333
 9796SOL    HW130287   3.813   3.115   5.409
 9796SOL    HW230288   3.922   3.143   5.291
 9797SOL     OW30289   3.681   5.080   6.959
 9797SOL    HW130290   3.640   5.005   7.010
 9797SOL    HW230291   3.761   5.115   7.010
 9798SOL     OW30292   1.025   3.785   5.627
 9798SOL    HW130293   1.020   3.730   5.710
 9798SOL    HW230294   0.944   3.769   5.571
 9799SOL     OW30295   2.900   0.365   6.604
 9799SOL    HW130296   2.948   0.304   6.666
 9799SOL    HW230297   2.912   0.333   6.510
 9800SOL     OW30298   0.398   4.210   4.642
 9800SOL    HW130299   0.383   4.117   4.606
 9800SOL    HW230300   0.326   4.232   4.708
 9801SOL     OW30301   4.146   6.394   1.011
 9801SOL    HW130302   4.152   6.378   1.109
 9801SOL    HW230303   4.168   6.490   0.992
 9802SOL     OW30304   4.271   2.628   0.363
 9802SOL    HW130305   4.230   2.559   0.303
 9802SOL    HW230306   4.276   2.715   0.315
 9803SOL     OW30307   2.080   3.497   0.092
 9803SOL    HW130308   2.142   3.433   0.045
 9803SOL    HW230309   1.996   3.449   0.116
 9804SOL     OW30310   0.755   3.682   2.792
 9804SOL    HW130311   0.838   3.704   2.844
 9804SOL    HW230312   0.735   3.585   2.801
 9805SOL     OW30313   6.731   4.373   5.201
 9805SOL    HW130314   6.825   4.348   5.222
 9805SOL    HW230315   6.674   4.358   5.282
 9806SOL     OW30316   3.590   0.957   0.310
 9806SOL    HW130317   3.510   1.002   0.351
 9806SOL    HW230318   3.644   1.023   0.260
 9807SOL     OW30319   3.791   2.896   4.952
 9807SOL    HW130320   3.773   2.806   4.913
 9807SOL    HW230321   3.880   2.897   4.997
 9808SOL     OW30322   2.764   0.054   2.282
 9808SOL    HW130323   2.696   7.007   2.288
 9808SOL    HW230324   2.855   0.014   2.277
 9809SOL     OW30325   0.173   3.775   1.087
 9809SOL    HW130326   0.079   3.799   1.110
 9809SOL    HW230327   0.175   3.726   1.000
 9810SOL     OW30328   3.491   2.684   1.211
 9810SOL    HW130329   3.440   2.712   1.293
 9810SOL    HW230330   3.581   2.727   1.212
 9811SOL     OW30331   5.476   3.801   4.013
 9811SOL    HW130332   5.413   3.749   3.954
 9811SOL    HW230333   5.568   3.796   3.975
 9812SOL     OW30334   3.054   5.749   6.341
 9812SOL    HW130335   2.969   5.797   6.319
 9812SOL    HW230336   3.052   5.657   6.301
 9813SOL     OW30337   4.382   0.640   1.806
 9813SOL    HW130338   4.370   0.587   1.722
 9813SOL    HW230339   4.365   0.581   1.885
 9814SOL     OW30340   6.563   1.507   6.310
 9814SOL    HW130341   6.629   1.434   6.294
 9814SOL    HW230342   6.541   1.551   6.224
 9815SOL     OW30343   4.925   2.683   4.659
 9815SOL    HW130344   4.860   2.751   4.623
 9815SOL    HW230345   4.988   2.729   4.722
 9816SOL     OW30346   4.276   0.688   0.320
 9816SOL    HW130347   4.291   0.672   0.417
 9816SOL    HW230348   4.320   0.773   0.292
 9817SOL     OW30349   6.217   0.212   1.476
 9817SOL    HW130350   6.237   0.115   1.469
 9817SOL    HW230351   6.220   0.254   1.385
 9818SOL     OW30352   4.062   2.145   5.035
 9818SOL    HW130353   4.011   2.134   4.950
 9818SOL    HW230354   4.125   2.222   5.027
 9819SOL     OW30355   2.313   6.823   2.216
 9819SOL    HW130356   2.301   6.797   2.120
 9819SOL    HW230357   2.231   6.872   2.248
 9820SOL     OW30358   4.101   2.743   0.009
 9820SOL    HW130359   4.103   2.823   0.069
 9820SOL    HW230360   4.050   2.669   0.053
 9821SOL     OW30361   0.792   6.093   0.077
 9821SOL    HW130362   0.845   6.009   0.081
 9821SOL    HW230363   0.780   6.130   0.170
 9822SOL     OW30364   0.048   2.247   2.593
 9822SOL    HW130365   0.008   2.240   2.684
 9822SOL    HW230366   0.023   2.166   2.539
 9823SOL     OW30367   2.363   6.419   3.159
 9823SOL    HW130368   2.330   6.439   3.066
 9823SOL    HW230369   2.453   6.377   3.154
 9824SOL     OW30370   2.058   4.016   5.610
 9824SOL    HW130371   2.097   3.924   5.599
 9824SOL    HW230372   2.127   4.077   5.650
 9825SOL     OW30373   4.592   4.540   5.342
 9825SOL    HW130374   4.563   4.517   5.434
 9825SOL    HW230375   4.692   4.545   5.339
 9826SOL     OW30376   5.908   0.334   5.063
 9826SOL    HW130377   5.902   0.266   4.990
 9826SOL    HW230378   5.920   0.425   5.023
 9827SOL     OW30379   1.201   5.939   4.755
 9827SOL    HW130380   1.156   6.014   4.707
 9827SOL    HW230381   1.205   5.960   4.853
 9828SOL     OW30382   2.466   1.410   0.370
 9828SOL    HW130383   2.520   1.388   0.451
 9828SOL    HW230384   2.378   1.362   0.375
 9829SOL     OW30385   3.244   4.669   1.106
 9829SOL    HW130386   3.214   4.740   1.170
 9829SOL    HW230387   3.183   4.591   1.112
 9830SOL     OW30388   6.138   0.724   1.038
 9830SOL    HW130389   6.087   0.804   1.008
 9830SOL    HW230390   6.192   0.748   1.120
 9831SOL     OW30391   0.280   6.008   1.141
 9831SOL    HW130392   0.341   6.036   1.067
 9831SOL    HW230393   0.335   5.982   1.221
 9832SOL     OW30394   2.880   3.811   1.853
 9832SOL    HW130395   2.941   3.848   1.783
 9832SOL    HW230396   2.799   3.772   1.810
 9833SOL     OW30397   5.198   4.821   0.309
 9833SOL    HW130398   5.105   4.843   0.280
 9833SOL    HW230399   5.218   4.725   0.287
 9834SOL     OW30400   2.181   2.990   3.706
 9834SOL    HW130401   2.188   3.086   3.733
 9834SOL    HW230402   2.138   2.984   3.616
 9835SOL     OW30403   5.324   2.772   4.375
 9835SOL    HW130404   5.322   2.860   4.327
 9835SOL    HW230405   5.243   2.719   4.352
 9836SOL     OW30406   4.817   4.668   1.706
 9836SOL    HW130407   4.839   4.740   1.772
 9836SOL    HW230408   4.745   4.609   1.744
 9837SOL     OW30409   1.959   5.069   4.986
 9837SOL    HW130410   2.023   5.141   4.961
 9837SOL    HW230411   2.010   4.987   5.012
 9838SOL     OW30412   6.643   6.636   4.634
 9838SOL    HW130413   6.636   6.571   4.559
 9838SOL    HW230414   6.729   6.622   4.682
 9839SOL     OW30415   5.848   3.148   3.205
 9839SOL    HW130416   5.809   3.078   3.266
 9839SOL    HW230417   5.948   3.144   3.210
 9840SOL     OW30418   6.110   6.891   0.519
 9840SOL    HW130419   6.039   6.822   0.506
 9840SOL    HW230420   6.076   6.980   0.491
 9841SOL     OW30421   1.492   2.935   4.175
 9841SOL    HW130422   1.494   3.034   4.189
 9841SOL    HW230423   1.586   2.899   4.177
 9842SOL     OW30424   2.921   3.451   3.898
 9842SOL    HW130425   2.931   3.550   3.896
 9842SOL    HW230426   2.860   3.425   3.973
 9843SOL     OW30427   5.959   4.300   3.171
 9843SOL    HW130428   5.978   4.396   3.152
 9843SOL    HW230429   5.869   4.292   3.215
 9844SOL     OW30430   4.080   0.371   0.928
 9844SOL    HW130431   4.105   0.276   0.945
 9844SOL    HW230432   4.056   0.415   1.015
 9845SOL     OW30433   1.381   1.515   4.451
 9845SOL    HW130434   1.416   1.602   4.485
 9845SOL    HW230435   1.295   1.530   4.403
 9846SOL     OW30436   2.860   3.653   4.175
 9846SOL    HW130437   2.862   3.718   4.252
 9846SOL    HW230438   2.885   3.562   4.208
 9847SOL     OW30439   2.524   4.654   3.860
 9847SOL    HW130440   2.554   4.618   3.772
 9847SOL    HW230441   2.478   4.742   3.845
 9848SOL     OW30442   0.040   4.368   0.410
 9848SOL    HW130443   0.068   4.288   0.464
 9848SOL    HW230444   7.021   4.434   0.470
 9849SOL     OW30445   0.213   5.854   5.154
 9849SOL    HW130446   0.167   5.849   5.243
 9849SOL    HW230447   0.309   5.829   5.165
 9850SOL     OW30448   5.346   0.320   3.536
 9850SOL    HW130449   5.429   0.285   3.492
 9850SOL    HW230450   5.266   0.284   3.489
 9851SOL     OW30451   5.174   2.655   4.845
 9851SOL    HW130452   5.127   2.677   4.931
 9851SOL    HW230453   5.172   2.556   4.829
 9852SOL     OW30454   4.938   2.303   4.154
 9852SOL    HW130455   4.919   2.261   4.065
 9852SOL    HW230456   4.880   2.260   4.224
 9853SOL     OW30457   7.013   5.638   1.402
 9853SOL    HW130458   0.044   5.687   1.335
 9853SOL    HW230459   0.036   5.633   1.489
 9854SOL     OW30460   3.143   0.109   4.598
 9854SOL    HW130461   3.175   0.203   4.582
 9854SOL    HW230462   3.176   0.050   4.525
 9855SOL     OW30463   2.183   4.387   1.343
 9855SOL    HW130464   2.271   4.428   1.318
 9855SOL    HW230465   2.156   4.322   1.272
 9856SOL     OW30466   3.217   3.379   1.450
 9856SOL    HW130467   3.122   3.346   1.451
 9856SOL    HW230468   3.260   3.351   1.365
 9857SOL     OW30469   5.643   5.342   2.976
 9857SOL    HW130470   5.679   5.252   2.999
 9857SOL    HW230471   5.661   5.405   3.052
 9858SOL     OW30472   3.662   0.994   1.672
 9858SOL    HW130473   3.581   1.049   1.695
 9858SOL    HW230474   3.664   0.979   1.573
 9859SOL     OW30475   0.469   6.546   1.250
 9859SOL    HW130476   0.537   6.539   1.177
 9859SOL    HW230477   0.437   6.641   1.256
 9860SOL     OW30478   0.967   1.188   2.912
 9860SOL    HW130479   0.977   1.201   2.814
 9860SOL    HW230480   0.874   1.158   2.933
 9861SOL     OW30481   1.861   6.420   4.356
 9861SOL    HW130482   1.809   6.357   4.298
 9861SOL    HW230483   1.875   6.378   4.446
 9862SOL     OW30484   0.157   1.793   0.349
 9862SOL    HW130485   0.138   1.857   0.275
 9862SOL    HW230486   0.072   1.766   0.394
 9863SOL     OW30487   5.298   0.395   6.954
 9863SOL    HW130488   5.322   0.346   6.870
 9863SOL    HW230489   5.278   0.491   6.933
 9864SOL     OW30490   3.970   5.493   3.845
 9864SOL    HW130491   4.068   5.473   3.856
 9864SOL    HW230492   3.959   5.571   3.783
 9865SOL     OW30493   2.151   3.497   3.666
 9865SOL    HW130494   2.145   3.595   3.649
 9865SOL    HW230495   2.119   3.447   3.585
 9866SOL     OW30496   2.841   4.729   3.406
 9866SOL    HW130497   2.795   4.816   3.427
 9866SOL    HW230498   2.932   4.747   3.371
 9867SOL     OW30499   3.708   6.583   5.627
 9867SOL    HW130500   3.731   6.591   5.724
 9867SOL    HW230501   3.618   6.624   5.610
 9868SOL     OW30502   1.839   5.393   6.078
 9868SOL    HW130503   1.817   5.448   6.159
 9868SOL    HW230504   1.909   5.440   6.024
 9869SOL     OW30505   0.889   5.209   2.974
 9869SOL    HW130506   0.908   5.122   3.018
 9869SOL    HW230507   0.877   5.280   3.044
 9870SOL     OW30508   4.218   5.928   1.673
 9870SOL    HW130509   4.143   5.984   1.710
 9870SOL    HW230510   4.211   5.835   1.710
 9871SOL     OW30511   2.304   2.563   5.919
 9871SOL    HW130512   2.257   2.628   5.979
 9871SOL    HW230513   2.269   2.471   5.937
 9872SOL     OW30514   1.361   3.564   2.825
 9872SOL    HW130515   1.454   3.573   2.860
 9872SOL    HW230516   1.360   3.499   2.749
 9873SOL     OW30517   2.123   2.285   1.660
 9873SOL    HW130518   2.180   2.314   1.737
 9873SOL    HW230519   2.027   2.304   1.681
 9874SOL     OW30520   1.041   3.646   4.590
 9874SOL    HW130521   1.082   3.569   4.542
 9874SOL    HW230522   1.080   3.653   4.682
 9875SOL     OW30523   1.184   1.311   3.162
 9875SOL    HW130524   1.143   1.380   3.104
 9875SOL    HW230525   1.172   1.221   3.121
 9876SOL     OW30526   6.861   5.940   1.705
 9876SOL    HW130527   6.896   6.031   1.726
 9876SOL    HW230528   6.888   5.876   1.777
 9877SOL     OW30529   4.333   6.615   0.666
 9877SOL    HW130530   4.387   6.699   0.668
 9877SOL    HW230531   4.385   6.544   0.619
 9878SOL     OW30532   6.815   1.840   4.844
 9878SOL    HW130533   6.782   1.768   4.782
 9878SOL    HW230534   6.759   1.841   4.926
 9879SOL     OW30535   5.194   5.295   5.780
 9879SOL    HW130536   5.121   5.355   5.812
 9879SOL    HW230537   5.160   5.238   5.705
 9880SOL     OW30538   0.932   2.510   3.780
 9880SOL    HW130539   0.925   2.463   3.869
 9880SOL    HW230540   1.028   2.525   3.758
 9881SOL     OW30541   0.024   1.897   5.828
 9881SOL    HW130542   6.999   1.874   5.912
 9881SOL    HW230543   0.086   1.822   5.805
 9882SOL     OW30544   1.499   2.637   3.535
 9882SOL    HW130545   1.492   2.539   3.522
 9882SOL    HW230546   1.533   2.680   3.451
 9883SOL     OW30547   2.975   1.455   1.896
 9883SOL    HW130548   3.045   1.481   1.962
 9883SOL    HW230549   3.004   1.481   1.804
 9884SOL     OW30550   2.939   0.929   3.886
 9884SOL    HW130551   2.989   0.849   3.921
 9884SOL    HW230552   2.854   0.940   3.938
 9885SOL     OW30553   6.602   3.529   4.706
 9885SOL    HW130554   6.607   3.606   4.643
 9885SOL    HW230555   6.649   3.450   4.666
 9886SOL     OW30556   0.284   2.303   2.054
 9886SOL    HW130557   0.309   2.396   2.082
 9886SOL    HW230558   0.225   2.262   2.124
 9887SOL     OW30559   4.335   6.005   5.555
 9887SOL    HW130560   4.275   6.074   5.516
 9887SOL    HW230561   4.415   5.993   5.496
 9888SOL     OW30562   0.044   5.129   5.329
 9888SOL    HW130563   0.112   5.168   5.267
 9888SOL    HW230564   0.083   5.120   5.421
 9889SOL     OW30565   0.444   6.102   0.939
 9889SOL    HW130566   0.542   6.095   0.958
 9889SOL    HW230567   0.431   6.139   0.847
 9890SOL     OW30568   0.758   2.928   1.160
 9890SOL    HW130569   0.658   2.932   1.156
 9890SOL    HW230570   0.788   2.833   1.166
 9891SOL     OW30571   4.760   1.252   2.616
 9891SOL    HW130572   4.844   1.212   2.580
 9891SOL    HW230573   4.777   1.347   2.642
 9892SOL     OW30574   1.201   6.936   6.563
 9892SOL    HW130575   1.252   6.853   6.541
 9892SOL    HW230576   1.182   6.938   6.662
 9893SOL     OW30577   1.946   1.860   0.222
 9893SOL    HW130578   2.024   1.799   0.231
 9893SOL    HW230579   1.862   1.811   0.246
 9894SOL     OW30580   2.074   0.822   1.494
 9894SOL    HW130581   2.076   0.734   1.542
 9894SOL    HW230582   1.994   0.874   1.523
 9895SOL     OW30583   4.076   2.612   5.559
 9895SOL    HW130584   3.990   2.636   5.514
 9895SOL    HW230585   4.056   2.563   5.644
 9896SOL     OW30586   7.003   6.755   5.806
 9896SOL    HW130587   6.934   6.683   5.800
 9896SOL    HW230588   0.040   6.748   5.728
 9897SOL     OW30589   5.951   4.992   4.927
 9897SOL    HW130590   6.044   4.988   4.892
 9897SOL    HW230591   5.902   4.909   4.901
 9898SOL     OW30592   2.491   6.796   6.944
 9898SOL    HW130593   2.489   6.772   6.848
 9898SOL    HW230594   2.563   6.864   6.960
 9899SOL     OW30595   0.347   4.779   0.699
 9899SOL    HW130596   0.428   4.769   0.756
 9899SOL    HW230597   0.275   4.825   0.752
 9900SOL     OW30598   2.399   5.073   3.298
 9900SOL    HW130599   2.452   5.092   3.216
 9900SOL    HW230600   2.409   4.976   3.322
 9901SOL     OW30601   2.197   3.230   5.125
 9901SOL    HW130602   2.251   3.152   5.095
 9901SOL    HW230603   2.190   3.230   5.225
 9902SOL     OW30604   3.069   4.384   0.812
 9902SOL    HW130605   3.070   4.483   0.798
 9902SOL    HW230606   3.054   4.364   0.909
 9903SOL     OW30607   5.346   1.361   4.977
 9903SOL    HW130608   5.378   1.399   4.890
 9903SOL    HW230609   5.249   1.384   4.990
 9904SOL     OW30610   6.135   1.033   0.345
 9904SOL    HW130611   6.226   0.995   0.363
 9904SOL    HW230612   6.093   0.985   0.268
 9905SOL     OW30613   5.282   6.844   0.231
 9905SOL    HW130614   5.301   6.746   0.239
 9905SOL    HW230615   5.222   6.861   0.152
 9906SOL     OW30616   3.052   3.523   5.409
 9906SOL    HW130617   2.982   3.530   5.338
 9906SOL    HW230618   3.030   3.447   5.470
 9907SOL     OW30619   1.890   5.710   2.265
 9907SOL    HW130620   1.868   5.747   2.174
 9907SOL    HW230621   1.911   5.613   2.257
 9908SOL     OW30622   5.205   3.478   1.672
 9908SOL    HW130623   5.141   3.539   1.720
 9908SOL    HW230624   5.160   3.390   1.654
 9909SOL     OW30625   1.917   0.524   4.575
 9909SOL    HW130626   1.850   0.596   4.555
 9909SOL    HW230627   1.999   0.539   4.520
 9910SOL     OW30628   0.902   4.524   4.034
 9910SOL    HW130629   0.978   4.520   4.099
 9910SOL    HW230630   0.894   4.436   3.986
 9911SOL     OW30631   2.724   6.529   2.455
 9911SOL    HW130632   2.631   6.548   2.487
 9911SOL    HW230633   2.730   6.434   2.425
 9912SOL     OW30634   5.402   0.595   5.648
 9912SOL    HW130635   5.325   0.655   5.668
 9912SOL    HW230636   5.427   0.544   5.731
 9913SOL     OW30637   5.145   3.047   0.939
 9913SOL    HW130638   5.179   3.139   0.919
 9913SOL    HW230639   5.191   3.011   1.020
 9914SOL     OW30640   0.561   3.134   4.192
 9914SOL    HW130641   0.629   3.201   4.163
 9914SOL    HW230642   0.550   3.140   4.292
 9915SOL     OW30643   4.486   1.664   3.813
 9915SOL    HW130644   4.419   1.599   3.849
 9915SOL    HW230645   4.502   1.737   3.879
 9916SOL     OW30646   1.407   3.609   1.476
 9916SOL    HW130647   1.483   3.593   1.540
 9916SOL    HW230648   1.441   3.655   1.394
 9917SOL     OW30649   6.279   4.989   5.824
 9917SOL    HW130650   6.181   5.010   5.829
 9917SOL    HW230651   6.331   5.074   5.815
 9918SOL     OW30652   4.792   2.813   2.274
 9918SOL    HW130653   4.882   2.832   2.314
 9918SOL    HW230654   4.777   2.874   2.196
 9919SOL     OW30655   4.705   6.113   6.672
 9919SOL    HW130656   4.773   6.097   6.743
 9919SOL    HW230657   4.699   6.033   6.612
 9920SOL     OW30658   4.425   0.845   2.256
 9920SOL    HW130659   4.343   0.790   2.274
 9920SOL    HW230660   4.461   0.822   2.166
 9921SOL     OW30661   4.369   4.128   5.830
 9921SOL    HW130662   4.428   4.047   5.823
 9921SOL    HW230663   4.324   4.144   5.742
 9922SOL     OW30664   6.804   6.329   1.078
 9922SOL    HW130665   6.847   6.244   1.107
 9922SOL    HW230666   6.706   6.325   1.099
 9923SOL     OW30667   5.983   3.755   0.634
 9923SOL    HW130668   5.904   3.721   0.582
 9923SOL    HW230669   5.964   3.848   0.665
 9924SOL     OW30670   2.141   4.612   4.395
 9924SOL    HW130671   2.102   4.696   4.432
 9924SOL    HW230672   2.225   4.590   4.444
 9925SOL     OW30673   4.700   2.676   4.241
 9925SOL    HW130674   4.780   2.713   4.195
 9925SOL    HW230675   4.651   2.616   4.177
 9926SOL     OW30676   3.367   5.157   1.878
 9926SOL    HW130677   3.388   5.147   1.781
 9926SOL    HW230678   3.355   5.067   1.919
 9927SOL     OW30679   5.460   0.259   4.033
 9927SOL    HW130680   5.382   0.270   4.095
 9927SOL    HW230681   5.449   0.174   3.980
 9928SOL     OW30682   4.656   4.281   2.490
 9928SOL    HW130683   4.664   4.263   2.392
 9928SOL    HW230684   4.578   4.229   2.527
 9929SOL     OW30685   0.949   3.835   3.570
 9929SOL    HW130686   1.017   3.813   3.500
 9929SOL    HW230687   0.887   3.758   3.583
 9930SOL     OW30688   5.375   1.037   2.802
 9930SOL    HW130689   5.367   1.135   2.821
 9930SOL    HW230690   5.294   1.005   2.753
 9931SOL     OW30691   1.516   5.238   4.873
 9931SOL    HW130692   1.578   5.160   4.866
 9931SOL    HW230693   1.433   5.210   4.921
 9932SOL     OW30694   0.383   5.858   4.374
 9932SOL    HW130695   0.358   5.783   4.435
 9932SOL    HW230696   0.479   5.881   4.387
 9933SOL     OW30697   6.547   6.670   2.791
 9933SOL    HW130698   6.477   6.735   2.762
 9933SOL    HW230699   6.518   6.577   2.769
 9934SOL     OW30700   0.160   3.312   4.966
 9934SOL    HW130701   0.255   3.289   4.986
 9934SOL    HW230702   0.130   3.263   4.884
 9935SOL     OW30703   1.637   0.005   6.141
 9935SOL    HW130704   1.667   0.100   6.138
 9935SOL    HW230705   1.537   0.001   6.145
 9936SOL     OW30706   1.909   3.684   3.348
 9936SOL    HW130707   1.816   3.690   3.385
 9936SOL    HW230708   1.974   3.666   3.422
 9937SOL     OW30709   6.775   3.600   5.820
 9937SOL    HW130710   6.866   3.586   5.779
 9937SOL    HW230711   6.765   3.543   5.901
 9938SOL     OW30712   6.257   6.260   2.575
 9938SOL    HW130713   6.196   6.189   2.542
 9938SOL    HW230714   6.315   6.292   2.500
 9939SOL     OW30715   3.357   2.925   3.625
 9939SOL    HW130716   3.397   2.900   3.537
 9939SOL    HW230717   3.270   2.971   3.610
 9940SOL     OW30718   0.189   1.048   1.504
 9940SOL    HW130719   0.136   1.125   1.470
 9940SOL    HW230720   0.187   1.046   1.604
 9941SOL     OW30721   3.853   5.737   5.376
 9941SOL    HW130722   3.766   5.757   5.332
 9941SOL    HW230723   3.857   5.781   5.466
 9942SOL     OW30724   2.522   5.847   4.062
 9942SOL    HW130725   2.502   5.940   4.091
 9942SOL    HW230726   2.494   5.783   4.134
 9943SOL     OW30727   0.366   6.306   4.562
 9943SOL    HW130728   0.359   6.355   4.648
 9943SOL    HW230729   0.384   6.371   4.488
 9944SOL     OW30730   1.657   4.677   5.797
 9944SOL    HW130731   1.612   4.601   5.843
 9944SOL    HW230732   1.681   4.650   5.704
 9945SOL     OW30733   0.439   6.050   6.876
 9945SOL    HW130734   0.428   6.083   6.783
 9945SOL    HW230735   0.382   6.106   6.938
 9946SOL     OW30736   5.451   0.647   3.275
 9946SOL    HW130737   5.400   0.603   3.201
 9946SOL    HW230738   5.422   0.610   3.363
 9947SOL     OW30739   5.996   4.560   3.180
 9947SOL    HW130740   5.944   4.643   3.161
 9947SOL    HW230741   6.090   4.572   3.147
 9948SOL     OW30742   5.166   4.303   3.611
 9948SOL    HW130743   5.260   4.331   3.629
 9948SOL    HW230744   5.104   4.354   3.671
 9949SOL     OW30745   5.428   5.059   1.876
 9949SOL    HW130746   5.525   5.054   1.851
 9949SOL    HW230747   5.406   5.152   1.903
 9950SOL     OW30748   3.523   0.039   0.369
 9950SOL    HW130749   3.521   0.007   0.275
 9950SOL    HW230750   3.532   6.986   0.431
 9951SOL     OW30751   5.462   3.151   2.571
 9951SOL    HW130752   5.406   3.225   2.534
 9951SOL    HW230753   5.412   3.064   2.564
 9952SOL     OW30754   1.089   5.254   6.233
 9952SOL    HW130755   1.075   5.187   6.160
 9952SOL    HW230756   1.021   5.326   6.225
 9953SOL     OW30757   5.753   3.496   3.957
 9953SOL    HW130758   5.745   3.427   3.886
 9953SOL    HW230759   5.680   3.484   4.024
 9954SOL     OW30760   5.541   0.964   4.732
 9954SOL    HW130761   5.506   0.909   4.657
 9954SOL    HW230762   5.521   0.919   4.819
 9955SOL     OW30763   1.029   4.817   5.048
 9955SOL    HW130764   1.053   4.761   4.969
 9955SOL    HW230765   0.937   4.853   5.037
 9956SOL     OW30766   0.864   5.819   0.080
 9956SOL    HW130767   0.939   5.797   0.142
 9956SOL    HW230768   0.838   5.737   0.028
 9957SOL     OW30769   6.069   6.069   2.548
 9957SOL    HW130770   6.004   6.040   2.477
 9957SOL    HW230771   6.051   6.019   2.632
 9958SOL     OW30772   2.648   4.642   1.008
 9958SOL    HW130773   2.630   4.683   1.098
 9958SOL    HW230774   2.735   4.677   0.973
 9959SOL     OW30775   3.892   4.204   1.204
 9959SOL    HW130776   3.893   4.191   1.105
 9959SOL    HW230777   3.862   4.297   1.225
 9960SOL     OW30778   6.780   0.982   1.682
 9960SOL    HW130779   6.714   0.957   1.753
 9960SOL    HW230780   6.764   0.927   1.600
 9961SOL     OW30781   1.593   3.954   4.626
 9961SOL    HW130782   1.649   3.916   4.552
 9961SOL    HW230783   1.634   3.932   4.714
 9962SOL     OW30784   6.583   6.357   4.532
 9962SOL    HW130785   6.498   6.320   4.568
 9962SOL    HW230786   6.598   6.323   4.439
 9963SOL     OW30787   3.560   2.273   0.160
 9963SOL    HW130788   3.495   2.223   0.217
 9963SOL    HW230789   3.595   2.352   0.212
 9964SOL     OW30790   5.278   6.283   4.382
 9964SOL    HW130791   5.258   6.194   4.423
 9964SOL    HW230792   5.365   6.280   4.333
 9965SOL     OW30793   4.505   0.252   1.630
 9965SOL    HW130794   4.505   0.153   1.647
 9965SOL    HW230795   4.554   0.271   1.545
 9966SOL     OW30796   6.435   1.469   2.327
 9966SOL    HW130797   6.368   1.483   2.400
 9966SOL    HW230798   6.435   1.372   2.301
 9967SOL     OW30799   1.232   5.503   0.629
 9967SOL    HW130800   1.210   5.409   0.604
 9967SOL    HW230801   1.256   5.555   0.546
 9968SOL     OW30802   3.475   2.987   2.929
 9968SOL    HW130803   3.457   2.940   2.843
 9968SOL    HW230804   3.513   3.078   2.910
 9969SOL     OW30805   1.415   3.123   1.170
 9969SOL    HW130806   1.424   3.222   1.174
 9969SOL    HW230807   1.365   3.091   1.250
 9970SOL     OW30808   6.837   4.445   3.102
 9970SOL    HW130809   6.791   4.533   3.117
 9970SOL    HW230810   6.935   4.456   3.114
 9971SOL     OW30811   3.742   6.683   6.546
 9971SOL    HW130812   3.761   6.713   6.639
 9971SOL    HW230813   3.696   6.756   6.496
 9972SOL     OW30814   0.229   4.775   1.791
 9972SOL    HW130815   0.326   4.796   1.781
 9972SOL    HW230816   0.217   4.676   1.801
 9973SOL     OW30817   4.987   6.338   3.541
 9973SOL    HW130818   4.922   6.380   3.478
 9973SOL    HW230819   5.014   6.248   3.506
 9974SOL     OW30820   3.279   0.893   4.143
 9974SOL    HW130821   3.355   0.845   4.100
 9974SOL    HW230822   3.276   0.987   4.109
 9975SOL     OW30823   6.192   3.642   1.952
 9975SOL    HW130824   6.278   3.606   1.988
 9975SOL    HW230825   6.129   3.566   1.935
 9976SOL     OW30826   3.823   6.646   4.434
 9976SOL    HW130827   3.767   6.569   4.402
 9976SOL    HW230828   3.869   6.621   4.519
 9977SOL     OW30829   0.026   4.966   3.916
 9977SOL    HW130830   0.095   5.037   3.933
 9977SOL    HW230831   7.008   4.941   4.002
 9978SOL     OW30832   6.970   3.265   4.032
 9978SOL    HW130833   7.016   3.179   4.011
 9978SOL    HW230834   0.010   3.340   4.024
 9979SOL     OW30835   0.711   3.427   5.419
 9979SOL    HW130836   0.805   3.419   5.451
 9979SOL    HW230837   0.704   3.502   5.353
 9980SOL     OW30838   3.038   0.256   6.129
 9980SOL    HW130839   3.001   0.210   6.049
 9980SOL    HW230840   3.069   0.348   6.104
 9981SOL     OW30841   3.468   1.415   3.272
 9981SOL    HW130842   3.468   1.488   3.205
 9981SOL    HW230843   3.383   1.362   3.264
 9982SOL     OW30844   5.951   0.543   3.037
 9982SOL    HW130845   5.990   0.506   3.121
 9982SOL    HW230846   5.852   0.553   3.048
 9983SOL     OW30847   6.690   0.971   0.544
 9983SOL    HW130848   6.728   0.987   0.635
 9983SOL    HW230849   6.668   1.059   0.502
 9984SOL     OW30850   3.053   0.722   0.326
 9984SOL    HW130851   3.122   0.772   0.273
 9984SOL    HW230852   3.010   0.653   0.268
 9985SOL     OW30853   1.278   1.832   0.730
 9985SOL    HW130854   1.243   1.848   0.822
 9985SOL    HW230855   1.237   1.898   0.667
 9986SOL     OW30856   5.784   4.259   4.937
 9986SOL    HW130857   5.719   4.231   5.008
 9986SOL    HW230858   5.871   4.284   4.980
 9987SOL     OW30859   0.079   4.369   5.064
 9987SOL    HW130860   0.034   4.320   4.990
 9987SOL    HW230861   0.072   4.316   5.149
 9988SOL     OW30862   6.035   1.789   3.819
 9988SOL    HW130863   6.046   1.748   3.910
 9988SOL    HW230864   6.056   1.721   3.749
 9989SOL     OW30865   1.824   2.511   5.036
 9989SOL    HW130866   1.813   2.604   5.001
 9989SOL    HW230867   1.920   2.485   5.035
 9990SOL     OW30868   1.067   4.879   0.897
 9990SOL    HW130869   1.022   4.864   0.985
 9990SOL    HW230870   1.166   4.867   0.908
 9991SOL     OW30871   3.722   1.890   3.870
 9991SOL    HW130872   3.756   1.946   3.795
 9991SOL    HW230873   3.624   1.873   3.857
 9992SOL     OW30874   0.046   5.071   6.525
 9992SOL    HW130875   0.028   5.044   6.620
 9992SOL    HW230876   0.008   5.003   6.463
 9993SOL     OW30877   1.042   1.052   1.931
 9993SOL    HW130878   1.118   1.117   1.940
 9993SOL    HW230879   1.029   1.004   2.017
 9994SOL     OW30880   5.772   4.204   3.464
 9994SOL    HW130881   5.681   4.168   3.443
 9994SOL    HW230882   5.826   4.134   3.511
 9995SOL     OW30883   5.551   1.936   4.582
 9995SOL    HW130884   5.525   1.994   4.659
 9995SOL    HW230885   5.521   1.978   4.496
 9996SOL     OW30886   2.814   3.057   1.551
 9996SOL    HW130887   2.856   3.028   1.637
 9996SOL    HW230888   2.717   3.078   1.567
 9997SOL     OW30889   2.753   1.089   4.582
 9997SOL    HW130890   2.779   1.010   4.526
 9997SOL    HW230891   2.683   1.142   4.534
 9998SOL     OW30892   6.350   5.789   5.936
 9998SOL    HW130893   6.447   5.781   5.910
 9998SOL    HW230894   6.329   5.723   6.008
 9999SOL     OW30895   0.198   0.877   5.483
 9999SOL    HW130896   0.266   0.873   5.556
 9999SOL    HW230897   0.146   0.792   5.482
10000SOL     OW30898   6.694   4.870   0.941
10000SOL    HW130899   6.629   4.794   0.941
10000SOL    HW230900   6.785   4.836   0.962
10001SOL     OW30901   3.703   1.041   4.029
10001SOL    HW130902   3.699   0.992   4.116
10001SOL    HW230903   3.772   0.999   3.971
10002SOL     OW30904   0.994   2.102   1.973
10002SOL    HW130905   1.082   2.127   2.016
10002SOL    HW230906   0.927   2.082   2.044
10003SOL     OW30907   5.508   3.499   1.088
10003SOL    HW130908   5.467   3.496   0.996
10003SOL    HW230909   5.465   3.573   1.140
10004SOL     OW30910   6.137   3.309   3.949
10004SOL    HW130911   6.151   3.399   3.908
10004SOL    HW230912   6.173   3.308   4.042
10005SOL     OW30913   4.760   0.223   2.782
10005SOL    HW130914   4.667   0.257   2.768
10005SOL    HW230915   4.764   0.171   2.867
10006SOL     OW30916   5.276   2.813   3.857
10006SOL    HW130917   5.307   2.727   3.896
10006SOL    HW230918   5.198   2.797   3.795
10007SOL     OW30919   5.308   5.809   4.417
10007SOL    HW130920   5.309   5.908   4.430
10007SOL    HW230921   5.266   5.765   4.496
10008SOL     OW30922   2.712   6.426   4.043
10008SOL    HW130923   2.731   6.335   4.004
10008SOL    HW230924   2.641   6.471   3.989
10009SOL     OW30925   2.218   4.517   1.744
10009SOL    HW130926   2.251   4.481   1.831
10009SOL    HW230927   2.294   4.520   1.678
10010SOL     OW30928   5.740   0.672   4.682
10010SOL    HW130929   5.730   0.771   4.690
10010SOL    HW230930   5.693   0.628   4.759
10011SOL     OW30931   6.159   6.658   3.231
10011SOL    HW130932   6.122   6.695   3.316
10011SOL    HW230933   6.149   6.559   3.230
10012SOL     OW30934   4.628   1.460   4.993
10012SOL    HW130935   4.602   1.524   4.920
10012SOL    HW230936   4.721   1.481   5.024
10013SOL     OW30937   1.832   0.756   1.092
10013SOL    HW130938   1.800   0.665   1.063
10013SOL    HW230939   1.847   0.756   1.190
10014SOL     OW30940   1.511   5.144   5.713
10014SOL    HW130941   1.419   5.169   5.743
10014SOL    HW230942   1.507   5.107   5.621
10015SOL     OW30943   2.739   6.309   6.096
10015SOL    HW130944   2.687   6.236   6.141
10015SOL    HW230945   2.836   6.299   6.119
10016SOL     OW30946   3.063   1.307   5.499
10016SOL    HW130947   3.128   1.332   5.571
10016SOL    HW230948   3.013   1.389   5.469
10017SOL     OW30949   6.078   2.054   2.799
10017SOL    HW130950   6.060   2.052   2.897
10017SOL    HW230951   5.991   2.063   2.750
10018SOL     OW30952   4.669   0.001   5.398
10018SOL    HW130953   4.723   6.956   5.445
10018SOL    HW230954   4.635   6.990   5.311
10019SOL     OW30955   0.569   0.471   3.555
10019SOL    HW130956   0.546   0.534   3.480
10019SOL    HW230957   0.564   0.377   3.522
10020SOL     OW30958   0.639   3.904   0.402
10020SOL    HW130959   0.674   3.896   0.496
10020SOL    HW230960   0.705   3.865   0.338
10021SOL     OW30961   4.893   3.165   0.545
10021SOL    HW130962   4.971   3.121   0.500
10021SOL    HW230963   4.811   3.151   0.490
10022SOL     OW30964   1.952   1.540   5.983
10022SOL    HW130965   1.984   1.612   5.921
10022SOL    HW230966   1.906   1.468   5.930
10023SOL     OW30967   0.691   3.149   0.537
10023SOL    HW130968   0.663   3.207   0.613
10023SOL    HW230969   0.791   3.141   0.536
10024SOL     OW30970   0.640   3.989   2.571
10024SOL    HW130971   0.575   3.960   2.501
10024SOL    HW230972   0.729   4.008   2.529
10025SOL     OW30973   0.999   1.463   0.609
10025SOL    HW130974   1.009   1.520   0.691
10025SOL    HW230975   0.979   1.522   0.531
10026SOL     OW30976   6.206   0.695   3.961
10026SOL    HW130977   6.267   0.763   3.919
10026SOL    HW230978   6.252   0.654   4.041
10027SOL     OW30979   6.924   2.847   5.644
10027SOL    HW130980   6.991   2.783   5.606
10027SOL    HW230981   6.942   2.859   5.742
10028SOL     OW30982   1.349   1.471   0.552
10028SOL    HW130983   1.405   1.460   0.470
10028SOL    HW230984   1.257   1.502   0.525
10029SOL     OW30985   3.930   0.963   4.779
10029SOL    HW130986   3.854   0.913   4.820
10029SOL    HW230987   3.977   1.018   4.849
10030SOL     OW30988   0.660   0.866   1.842
10030SOL    HW130989   0.754   0.889   1.869
10030SOL    HW230990   0.604   0.949   1.841
10031SOL     OW30991   7.015   5.433   3.103
10031SOL    HW130992   0.018   5.448   3.009
10031SOL    HW230993   0.036   5.352   3.140
10032SOL     OW30994   3.951   2.195   5.329
10032SOL    HW130995   4.018   2.267   5.348
10032SOL    HW230996   3.955   2.171   5.232
10033SOL     OW30997   6.184   2.923   4.286
10033SOL    HW130998   6.188   2.977   4.202
10033SOL    HW230999   6.105   2.951   4.340
10034SOL     OW31000   4.133   6.926   5.596
10034SOL    HW131001   4.086   6.851   5.642
10034SOL    HW231002   4.190   6.890   5.522
10035SOL     OW31003   0.123   5.832   4.272
10035SOL    HW131004   0.216   5.867   4.279
10035SOL    HW231005   0.066   5.897   4.222
10036SOL     OW31006   6.399   6.840   7.011
10036SOL    HW131007   6.488   6.873   6.980
10036SOL    HW231008   6.406   6.745   0.016
10037SOL     OW31009   6.954   0.248   1.548
10037SOL    HW131010   6.953   0.190   1.629
10037SOL    HW231011   6.993   0.196   1.471
10038SOL     OW31012   5.365   6.330   1.438
10038SOL    HW131013   5.287   6.384   1.408
10038SOL    HW231014   5.336   6.236   1.458
10039SOL     OW31015   3.350   1.176   3.045
10039SOL    HW131016   3.270   1.158   3.102
10039SOL    HW231017   3.410   1.096   3.045
10040SOL     OW31018   0.416   1.827   0.447
10040SOL    HW131019   0.423   1.921   0.413
10040SOL    HW231020   0.329   1.788   0.418
10041SOL     OW31021   0.445   6.872   0.130
10041SOL    HW131022   0.518   6.933   0.161
10041SOL    HW231023   0.481   6.808   0.062
10042SOL     OW31024   6.394   1.725   3.914
10042SOL    HW131025   6.415   1.735   4.012
10042SOL    HW231026   6.366   1.813   3.877
10043SOL     OW31027   2.502   3.242   5.500
10043SOL    HW131028   2.505   3.318   5.434
10043SOL    HW231029   2.410   3.202   5.500
10044SOL     OW31030   3.678   0.432   6.104
10044SOL    HW131031   3.706   0.474   6.018
10044SOL    HW231032   3.637   0.343   6.087
10045SOL     OW31033   2.445   6.697   1.043
10045SOL    HW131034   2.472   6.688   1.139
10045SOL    HW231035   2.478   6.783   1.006
10046SOL     OW31036   0.736   6.827   0.413
10046SOL    HW131037   0.638   6.812   0.394
10046SOL    HW231038   0.746   6.867   0.503
10047SOL     OW31039   1.649   3.738   1.066
10047SOL    HW131040   1.722   3.671   1.053
10047SOL    HW231041   1.684   3.816   1.118
10048SOL     OW31042   6.495   2.757   1.087
10048SOL    HW131043   6.526   2.799   1.001
10048SOL    HW231044   6.408   2.709   1.071
10049SOL     OW31045   6.810   2.166   4.655
10049SOL    HW131046   6.852   2.085   4.694
10049SOL    HW231047   6.753   2.140   4.577
10050SOL     OW31048   0.655   2.130   5.352
10050SOL    HW131049   0.648   2.106   5.449
10050SOL    HW231050   0.575   2.183   5.324
10051SOL     OW31051   0.858   0.479   2.574
10051SOL    HW131052   0.891   0.483   2.668
10051SOL    HW231053   0.884   0.391   2.533
10052SOL     OW31054   0.220   6.886   4.324
10052SOL    HW131055   0.165   6.861   4.404
10052SOL    HW231056   0.187   6.972   4.286
10053SOL     OW31057   5.885   6.063   2.060
10053SOL    HW131058   5.984   6.055   2.052
10053SOL    HW231059   5.844   5.972   2.058
10054SOL     OW31060   4.930   4.474   3.524
10054SOL    HW131061   4.910   4.422   3.440
10054SOL    HW231062   4.850   4.471   3.583
10055SOL     OW31063   1.978   1.813   6.484
10055SOL    HW131064   1.917   1.740   6.451
10055SOL    HW231065   1.944   1.901   6.453
10056SOL     OW31066   5.447   3.668   4.900
10056SOL    HW131067   5.531   3.713   4.870
10056SOL    HW231068   5.469   3.584   4.949
10057SOL     OW31069   6.218   4.740   5.011
10057SOL    HW131070   6.129   4.734   5.056
10057SOL    HW231071   6.229   4.830   4.969
10058SOL     OW31072   5.447   3.705   4.281
10058SOL    HW131073   5.541   3.698   4.317
10058SOL    HW231074   5.451   3.729   4.184
10059SOL     OW31075   5.126   6.104   5.723
10059SOL    HW131076   5.192   6.104   5.647
10059SOL    HW231077   5.175   6.107   5.810
10060SOL     OW31078   2.647   1.221   1.413
10060SOL    HW131079   2.628   1.164   1.332
10060SOL    HW231080   2.601   1.309   1.402
10061SOL     OW31081   3.396   0.488   2.848
10061SOL    HW131082   3.434   0.483   2.941
10061SOL    HW231083   3.399   0.583   2.816
10062SOL     OW31084   5.903   6.809   3.965
10062SOL    HW131085   5.866   6.799   4.057
10062SOL    HW231086   5.975   6.878   3.966
10063SOL     OW31087   4.535   2.582   2.532
10063SOL    HW131088   4.592   2.658   2.562
10063SOL    HW231089   4.547   2.567   2.434
10064SOL     OW31090   1.412   6.219   2.725
10064SOL    HW131091   1.377   6.200   2.817
10064SOL    HW231092   1.364   6.161   2.659
10065SOL     OW31093   6.578   1.939   1.319
10065SOL    HW131094   6.489   1.980   1.295
10065SOL    HW231095   6.626   1.912   1.236
10066SOL     OW31096   6.170   4.046   3.665
10066SOL    HW131097   6.144   4.123   3.723
10066SOL    HW231098   6.247   4.073   3.607
10067SOL     OW31099   5.535   3.150   5.053
10067SOL    HW131100   5.488   3.131   4.967
10067SOL    HW231101   5.494   3.094   5.126
10068SOL     OW31102   2.471   4.504   3.140
10068SOL    HW131103   2.484   4.518   3.042
10068SOL    HW231104   2.522   4.573   3.191
10069SOL     OW31105   3.384   5.231   0.983
10069SOL    HW131106   3.326   5.155   1.012
10069SOL    HW231107   3.471   5.229   1.033
10070SOL     OW31108   5.652   0.581   6.769
10070SOL    HW131109   5.653   0.482   6.755
10070SOL    HW231110   5.568   0.607   6.817
10071SOL     OW31111   5.183   1.799   4.156
10071SOL    HW131112   5.176   1.832   4.062
10071SOL    HW231113   5.112   1.843   4.212
10072SOL     OW31114   6.125   2.708   1.499
10072SOL    HW131115   6.096   2.691   1.593
10072SOL    HW231116   6.201   2.648   1.475
10073SOL     OW31117   5.644   4.682   4.925
10073SOL    HW131118   5.698   4.729   4.855
10073SOL    HW231119   5.599   4.750   4.983
10074SOL     OW31120   2.195   4.842   1.664
10074SOL    HW131121   2.181   4.811   1.758
10074SOL    HW231122   2.106   4.857   1.621
10075SOL     OW31123   0.824   3.908   1.375
10075SOL    HW131124   0.805   3.884   1.470
10075SOL    HW231125   0.803   3.831   1.316
10076SOL     OW31126   5.976   4.592   4.120
10076SOL    HW131127   6.055   4.534   4.102
10076SOL    HW231128   5.898   4.561   4.066
10077SOL     OW31129   4.627   4.485   6.844
10077SOL    HW131130   4.680   4.521   6.767
10077SOL    HW231131   4.539   4.451   6.810
10078SOL     OW31132   5.806   6.365   4.075
10078SOL    HW131133   5.758   6.278   4.061
10078SOL    HW231134   5.837   6.399   3.986
10079SOL     OW31135   5.954   5.553   3.914
10079SOL    HW131136   5.998   5.553   3.824
10079SOL    HW231137   5.942   5.459   3.946
10080SOL     OW31138   4.793   3.046   3.887
10080SOL    HW131139   4.747   2.960   3.909
10080SOL    HW231140   4.855   3.032   3.810
10081SOL     OW31141   2.049   5.167   0.572
10081SOL    HW131142   2.085   5.173   0.479
10081SOL    HW231143   1.949   5.163   0.569
10082SOL     OW31144   6.748   4.184   1.839
10082SOL    HW131145   6.749   4.087   1.864
10082SOL    HW231146   6.653   4.215   1.828
10083SOL     OW31147   3.247   5.261   2.894
10083SOL    HW131148   3.345   5.267   2.875
10083SOL    HW231149   3.221   5.165   2.906
10084SOL     OW31150   1.972   4.029   4.197
10084SOL    HW131151   1.934   4.048   4.288
10084SOL    HW231152   2.071   4.043   4.199
10085SOL     OW31153   3.095   6.401   1.793
10085SOL    HW131154   3.163   6.361   1.732
10085SOL    HW231155   3.141   6.433   1.876
10086SOL     OW31156   2.529   0.787   2.966
10086SOL    HW131157   2.552   0.881   2.940
10086SOL    HW231158   2.601   0.725   2.935
10087SOL     OW31159   2.291   5.729   6.816
10087SOL    HW131160   2.248   5.659   6.758
10087SOL    HW231161   2.390   5.726   6.804
10088SOL     OW31162   5.324   2.114   1.115
10088SOL    HW131163   5.248   2.089   1.175
10088SOL    HW231164   5.296   2.189   1.056
10089SOL     OW31165   3.323   0.317   3.739
10089SOL    HW131166   3.373   0.319   3.826
10089SOL    HW231167   3.259   0.394   3.736
10090SOL     OW31168   3.224   5.867   3.720
10090SOL    HW131169   3.162   5.834   3.792
10090SOL    HW231170   3.231   5.797   3.649
10091SOL     OW31171   4.623   6.543   2.997
10091SOL    HW131172   4.551   6.506   2.938
10091SOL    HW231173   4.606   6.640   3.014
10092SOL     OW31174   6.233   0.800   2.124
10092SOL    HW131175   6.209   0.712   2.082
10092SOL    HW231176   6.260   0.785   2.219
10093SOL     OW31177   4.142   4.023   6.556
10093SOL    HW131178   4.046   3.996   6.559
10093SOL    HW231179   4.172   4.052   6.647
10094SOL     OW31180   4.330   3.355   0.226
10094SOL    HW131181   4.350   3.423   0.156
10094SOL    HW231182   4.307   3.400   0.312
10095SOL     OW31183   4.093   2.758   5.340
10095SOL    HW131184   4.117   2.708   5.257
10095SOL    HW231185   4.121   2.706   5.420
10096SOL     OW31186   6.368   4.506   1.436
10096SOL    HW131187   6.275   4.480   1.464
10096SOL    HW231188   6.432   4.484   1.510
10097SOL     OW31189   0.789   0.525   0.764
10097SOL    HW131190   0.798   0.529   0.664
10097SOL    HW231191   0.707   0.473   0.787
10098SOL     OW31192   3.771   4.705   0.821
10098SOL    HW131193   3.749   4.716   0.724
10098SOL    HW231194   3.865   4.734   0.838
10099SOL     OW31195   6.389   6.045   3.096
10099SOL    HW131196   6.303   6.092   3.078
10099SOL    HW231197   6.415   5.992   3.015
10100SOL     OW31198   5.905   5.988   4.418
10100SOL    HW131199   5.924   6.075   4.373
10100SOL    HW231200   5.982   5.962   4.475
10101SOL     OW31201   6.967   2.542   5.789
10101SOL    HW131202   0.009   2.593   5.843
10101SOL    HW231203   7.003   2.451   5.768
10102SOL     OW31204   0.453   4.996   4.066
10102SOL    HW131205   0.412   4.909   4.093
10102SOL    HW231206   0.400   5.071   4.106
10103SOL     OW31207   0.574   0.418   6.605
10103SOL    HW131208   0.495   0.395   6.548
10103SOL    HW231209   0.577   0.358   6.685
10104SOL     OW31210   2.888   1.362   4.381
10104SOL    HW131211   2.934   1.361   4.470
10104SOL    HW231212   2.891   1.270   4.341
10105SOL     OW31213   3.206   1.248   4.368
10105SOL    HW131214   3.234   1.303   4.446
10105SOL    HW231215   3.117   1.206   4.386
10106SOL     OW31216   6.959   3.327   1.735
10106SOL    HW131217   6.930   3.398   1.671
10106SOL    HW231218   6.990   3.246   1.685
10107SOL     OW31219   4.210   5.881   5.200
10107SOL    HW131220   4.229   5.816   5.273
10107SOL    HW231221   4.290   5.938   5.184
10108SOL     OW31222   3.142   2.166   4.758
10108SOL    HW131223   3.168   2.107   4.835
10108SOL    HW231224   3.171   2.260   4.778
10109SOL     OW31225   1.124   2.715   0.728
10109SOL    HW131226   1.170   2.764   0.654
10109SOL    HW231227   1.068   2.641   0.690
10110SOL     OW31228   6.195   6.250   1.656
10110SOL    HW131229   6.141   6.169   1.680
10110SOL    HW231230   6.160   6.289   1.571
10111SOL     OW31231   0.030   2.461   0.627
10111SOL    HW131232   6.978   2.423   0.576
10111SOL    HW231233   0.040   2.558   0.605
10112SOL     OW31234   0.031   3.197   2.660
10112SOL    HW131235   6.957   3.189   2.648
10112SOL    HW231236   0.076   3.134   2.596
10113SOL     OW31237   0.523   6.313   6.340
10113SOL    HW131238   0.511   6.293   6.243
10113SOL    HW231239   0.509   6.411   6.356
10114SOL     OW31240   5.784   4.097   1.436
10114SOL    HW131241   5.822   4.006   1.419
10114SOL    HW231242   5.781   4.114   1.535
10115SOL     OW31243   2.489   1.244   6.569
10115SOL    HW131244   2.391   1.262   6.561
10115SOL    HW231245   2.503   1.148   6.593
10116SOL     OW31246   1.440   0.100   6.424
10116SOL    HW131247   1.418   0.081   6.329
10116SOL    HW231248   1.356   0.094   6.480
10117SOL     OW31249   0.576   4.274   0.846
10117SOL    HW131250   0.664   4.320   0.849
10117SOL    HW231251   0.524   4.295   0.929
10118SOL     OW31252   4.327   5.940   3.514
10118SOL    HW131253   4.255   5.979   3.572
10118SOL    HW231254   4.294   5.856   3.472
10119SOL     OW31255   5.658   5.557   0.114
10119SOL    HW131256   5.577   5.562   0.056
10119SOL    HW231257   5.665   5.640   0.169
10120SOL     OW31258   2.527   2.115   2.646
10120SOL    HW131259   2.509   2.148   2.738
10120SOL    HW231260   2.513   2.189   2.580
10121SOL     OW31261   6.771   6.347   1.800
10121SOL    HW131262   6.689   6.308   1.842
10121SOL    HW231263   6.745   6.407   1.724
10122SOL     OW31264   1.916   7.006   3.831
10122SOL    HW131265   1.947   6.971   3.743
10122SOL    HW231266   1.818   6.987   3.841
10123SOL     OW31267   6.409   5.944   6.451
10123SOL    HW131268   6.379   5.853   6.421
10123SOL    HW231269   6.339   6.011   6.427
10124SOL     OW31270   0.474   4.997   3.601
10124SOL    HW131271   0.389   4.997   3.654
10124SOL    HW231272   0.551   4.978   3.661
10125SOL     OW31273   2.374   2.640   3.968
10125SOL    HW131274   2.454   2.605   4.017
10125SOL    HW231275   2.403   2.695   3.890
10126SOL     OW31276   6.970   5.989   4.098
10126SOL    HW131277   6.907   6.037   4.159
10126SOL    HW231278   6.996   6.050   4.023
10127SOL     OW31279   2.150   0.830   5.564
10127SOL    HW131280   2.189   0.889   5.635
10127SOL    HW231281   2.216   0.760   5.539
10128SOL     OW31282   3.007   0.050   0.746
10128SOL    HW131283   3.048   6.996   0.791
10128SOL    HW231284   3.075   0.093   0.686
10129SOL     OW31285   6.831   2.481   5.470
10129SOL    HW131286   6.813   2.398   5.522
10129SOL    HW231287   6.773   2.555   5.503
10130SOL     OW31288   0.305   2.433   3.225
10130SOL    HW131289   0.328   2.431   3.128
10130SOL    HW231290   0.382   2.471   3.276
10131SOL     OW31291   2.753   0.541   5.143
10131SOL    HW131292   2.806   0.624   5.125
10131SOL    HW231293   2.694   0.522   5.064
10132SOL     OW31294   6.044   0.865   1.265
10132SOL    HW131295   6.125   0.823   1.305
10132SOL    HW231296   5.965   0.806   1.279
10133SOL     OW31297   4.651   5.100   0.738
10133SOL    HW131298   4.735   5.099   0.792
10133SOL    HW231299   4.595   5.178   0.766
10134SOL     OW31300   5.787   1.368   3.048
10134SOL    HW131301   5.781   1.322   2.960
10134SOL    HW231302   5.842   1.451   3.039
10135SOL     OW31303   5.976   6.228   3.427
10135SOL    HW131304   5.995   6.316   3.470
10135SOL    HW231305   6.055   6.168   3.437
10136SOL     OW31306   4.999   0.287   2.967
10136SOL    HW131307   4.965   0.221   2.900
10136SOL    HW231308   4.932   0.297   3.041
10137SOL     OW31309   5.967   6.360   2.269
10137SOL    HW131310   5.953   6.261   2.276
10137SOL    HW231311   5.943   6.390   2.177
10138SOL     OW31312   0.301   1.261   1.747
10138SOL    HW131313   0.259   1.322   1.679
10138SOL    HW231314   0.246   1.178   1.755
10139SOL     OW31315   4.591   1.999   0.132
10139SOL    HW131316   4.611   2.045   0.045
10139SOL    HW231317   4.562   1.905   0.114
10140SOL     OW31318   6.329   6.340   3.347
10140SOL    HW131319   6.322   6.397   3.429
10140SOL    HW231320   6.276   6.257   3.358
10141SOL     OW31321   0.501   2.262   5.042
10141SOL    HW131322   0.477   2.252   5.138
10141SOL    HW231323   0.564   2.189   5.015
10142SOL     OW31324   4.274   5.567   0.866
10142SOL    HW131325   4.364   5.544   0.903
10142SOL    HW231326   4.282   5.647   0.806
10143SOL     OW31327   1.075   3.050   6.340
10143SOL    HW131328   1.107   2.961   6.310
10143SOL    HW231329   0.982   3.064   6.307
10144SOL     OW31330   4.272   0.405   2.513
10144SOL    HW131331   4.219   0.323   2.491
10144SOL    HW231332   4.263   0.425   2.610
10145SOL     OW31333   6.166   1.216   4.823
10145SOL    HW131334   6.149   1.303   4.777
10145SOL    HW231335   6.185   1.232   4.920
10146SOL     OW31336   1.807   0.975   5.726
10146SOL    HW131337   1.795   0.939   5.634
10146SOL    HW231338   1.718   1.003   5.763
10147SOL     OW31339   4.326   4.818   6.455
10147SOL    HW131340   4.264   4.766   6.514
10147SOL    HW231341   4.278   4.843   6.371
10148SOL     OW31342   6.697   5.600   6.464
10148SOL    HW131343   6.785   5.627   6.426
10148SOL    HW231344   6.685   5.501   6.455
10149SOL     OW31345   3.252   3.286   4.635
10149SOL    HW131346   3.226   3.382   4.641
10149SOL    HW231347   3.333   3.270   4.692
10150SOL     OW31348   6.513   4.114   6.752
10150SOL    HW131349   6.435   4.103   6.814
10150SOL    HW231350   6.549   4.024   6.728
10151SOL     OW31351   0.442   7.024   6.347
10151SOL    HW131352   0.496   0.066   6.297
10151SOL    HW231353   0.344   0.018   6.335
10152SOL     OW31354   3.249   6.644   3.886
10152SOL    HW131355   3.323   6.691   3.838
10152SOL    HW231356   3.173   6.629   3.823
10153SOL     OW31357   3.271   4.478   6.963
10153SOL    HW131358   3.179   4.473   7.001
10153SOL    HW231359   3.311   4.567   6.986
10154SOL     OW31360   4.371   4.428   6.130
10154SOL    HW131361   4.365   4.466   6.037
10154SOL    HW231362   4.393   4.331   6.125
10155SOL     OW31363   4.717   2.795   4.471
10155SOL    HW131364   4.663   2.769   4.550
10155SOL    HW231365   4.687   2.743   4.391
10156SOL     OW31366   2.945   2.193   6.848
10156SOL    HW131367   3.038   2.180   6.814
10156SOL    HW231368   2.885   2.123   6.809
10157SOL     OW31369   0.178   5.249   2.878
10157SOL    HW131370   0.224   5.272   2.964
10157SOL    HW231371   0.126   5.327   2.845
10158SOL     OW31372   0.554   5.345   5.745
10158SOL    HW131373   0.577   5.312   5.653
10158SOL    HW231374   0.511   5.436   5.738
10159SOL     OW31375   4.092   2.772   1.723
10159SOL    HW131376   4.093   2.865   1.760
10159SOL    HW231377   4.164   2.764   1.654
10160SOL     OW31378   6.784   4.673   2.850
10160SOL    HW131379   6.862   4.722   2.890
10160SOL    HW231380   6.817   4.611   2.779
10161SOL     OW31381   6.338   3.028   0.125
10161SOL    HW131382   6.340   3.110   0.067
10161SOL    HW231383   6.244   3.013   0.156
10162SOL     OW31384   1.811   1.853   2.650
10162SOL    HW131385   1.752   1.811   2.719
10162SOL    HW231386   1.898   1.804   2.647
10163SOL     OW31387   4.205   5.938   4.471
10163SOL    HW131388   4.122   5.952   4.525
10163SOL    HW231389   4.275   6.002   4.501
10164SOL     OW31390   0.494   1.459   3.823
10164SOL    HW131391   0.544   1.434   3.906
10164SOL    HW231392   0.515   1.394   3.750
10165SOL     OW31393   1.559   2.610   4.189
10165SOL    HW131394   1.489   2.652   4.130
10165SOL    HW231395   1.611   2.543   4.136
10166SOL     OW31396   3.894   6.179   3.577
10166SOL    HW131397   3.994   6.187   3.571
10166SOL    HW231398   3.868   6.164   3.672
10167SOL     OW31399   3.962   2.264   6.991
10167SOL    HW131400   4.046   2.211   6.983
10167SOL    HW231401   3.937   2.273   0.062
10168SOL     OW31402   0.436   0.804   6.023
10168SOL    HW131403   0.390   0.731   5.972
10168SOL    HW231404   0.419   0.792   6.121
10169SOL     OW31405   4.639   4.747   2.629
10169SOL    HW131406   4.691   4.730   2.712
10169SOL    HW231407   4.600   4.660   2.596
10170SOL     OW31408   4.682   6.991   6.864
10170SOL    HW131409   4.751   6.999   6.936
10170SOL    HW231410   4.628   6.909   6.880
10171SOL     OW31411   0.907   5.039   3.396
10171SOL    HW131412   0.854   5.058   3.479
10171SOL    HW231413   0.993   4.995   3.421
10172SOL     OW31414   0.857   0.468   3.402
10172SOL    HW131415   0.786   0.412   3.359
10172SOL    HW231416   0.831   0.564   3.396
10173SOL     OW31417   4.566   2.540   3.707
10173SOL    HW131418   4.651   2.577   3.671
10173SOL    HW231419   4.586   2.460   3.764
10174SOL     OW31420   3.914   5.614   0.693
10174SOL    HW131421   3.818   5.632   0.716
10174SOL    HW231422   3.935   5.518   0.708
10175SOL     OW31423   6.845   6.606   4.831
10175SOL    HW131424   6.892   6.667   4.894
10175SOL    HW231425   6.773   6.557   4.879
10176SOL     OW31426   7.019   1.631   4.751
10176SOL    HW131427   0.082   1.591   4.777
10176SOL    HW231428   7.024   1.664   4.657
10177SOL     OW31429   2.551   0.802   4.373
10177SOL    HW131430   2.505   0.838   4.454
10177SOL    HW231431   2.496   0.824   4.292
10178SOL     OW31432   5.690   1.090   1.505
10178SOL    HW131433   5.765   1.110   1.443
10178SOL    HW231434   5.606   1.131   1.471
10179SOL     OW31435   6.362   5.443   0.705
10179SOL    HW131436   6.286   5.468   0.765
10179SOL    HW231437   6.355   5.491   0.618
10180SOL     OW31438   1.649   0.891   6.330
10180SOL    HW131439   1.625   0.920   6.237
10180SOL    HW231440   1.740   0.926   6.353
10181SOL     OW31441   0.140   4.527   2.651
10181SOL    HW131442   0.173   4.528   2.745
10181SOL    HW231443   0.104   4.436   2.629
10182SOL     OW31444   2.955   6.787   6.847
10182SOL    HW131445   2.969   6.804   6.749
10182SOL    HW231446   2.927   6.692   6.861
10183SOL     OW31447   3.489   6.593   6.195
10183SOL    HW131448   3.518   6.534   6.270
10183SOL    HW231449   3.566   6.650   6.166
10184SOL     OW31450   4.883   2.772   4.066
10184SOL    HW131451   4.942   2.692   4.055
10184SOL    HW231452   4.801   2.761   4.009
10185SOL     OW31453   2.654   4.602   1.734
10185SOL    HW131454   2.726   4.583   1.801
10185SOL    HW231455   2.589   4.526   1.733
10186SOL     OW31456   3.677   3.129   2.320
10186SOL    HW131457   3.703   3.163   2.410
10186SOL    HW231458   3.584   3.158   2.298
10187SOL     OW31459   1.483   3.203   4.817
10187SOL    HW131460   1.526   3.154   4.893
10187SOL    HW231461   1.533   3.184   4.733
10188SOL     OW31462   2.510   6.107   0.214
10188SOL    HW131463   2.470   6.029   0.165
10188SOL    HW231464   2.586   6.076   0.270
10189SOL     OW31465   1.524   1.034   5.772
10189SOL    HW131466   1.521   0.934   5.771
10189SOL    HW231467   1.452   1.070   5.712
10190SOL     OW31468   2.624   4.137   1.373
10190SOL    HW131469   2.623   4.205   1.445
10190SOL    HW231470   2.714   4.136   1.328
10191SOL     OW31471   6.820   0.310   6.555
10191SOL    HW131472   6.792   0.226   6.603
10191SOL    HW231473   6.920   0.314   6.552
10192SOL     OW31474   2.986   1.369   3.501
10192SOL    HW131475   2.954   1.275   3.513
10192SOL    HW231476   3.085   1.368   3.485
10193SOL     OW31477   3.232   2.974   4.390
10193SOL    HW131478   3.267   2.942   4.302
10193SOL    HW231479   3.308   2.991   4.452
10194SOL     OW31480   3.107   5.699   3.274
10194SOL    HW131481   3.093   5.602   3.254
10194SOL    HW231482   3.090   5.753   3.192
10195SOL     OW31483   5.411   6.408   1.978
10195SOL    HW131484   5.495   6.362   1.947
10195SOL    HW231485   5.383   6.476   1.910
10196SOL     OW31486   4.916   4.430   4.770
10196SOL    HW131487   4.967   4.436   4.684
10196SOL    HW231488   4.968   4.474   4.843
10197SOL     OW31489   6.136   2.509   2.358
10197SOL    HW131490   6.044   2.549   2.354
10197SOL    HW231491   6.154   2.460   2.273
10198SOL     OW31492   3.227   1.364   2.250
10198SOL    HW131493   3.202   1.422   2.172
10198SOL    HW231494   3.284   1.289   2.219
10199SOL     OW31495   1.787   2.079   6.688
10199SOL    HW131496   1.804   2.001   6.747
10199SOL    HW231497   1.689   2.090   6.673
10200SOL     OW31498   4.056   6.657   3.024
10200SOL    HW131499   4.018   6.748   3.043
10200SOL    HW231500   3.994   6.587   3.058
10201SOL     OW31501   0.314   4.656   2.384
10201SOL    HW131502   0.401   4.683   2.342
10201SOL    HW231503   0.324   4.649   2.483
10202SOL     OW31504   2.020   2.757   3.773
10202SOL    HW131505   2.059   2.670   3.802
10202SOL    HW231506   2.085   2.831   3.792
10203SOL     OW31507   6.297   2.365   0.880
10203SOL    HW131508   6.198   2.349   0.888
10203SOL    HW231509   6.320   2.383   0.785
10204SOL     OW31510   0.698   5.816   4.365
10204SOL    HW131511   0.746   5.900   4.341
10204SOL    HW231512   0.763   5.751   4.404
10205SOL     OW31513   3.463   7.009   1.198
10205SOL    HW131514   3.403   0.021   1.269
10205SOL    HW231515   3.527   0.054   1.167
10206SOL     OW31516   6.325   5.578   6.650
10206SOL    HW131517   6.391   5.524   6.703
10206SOL    HW231518   6.289   5.652   6.707
10207SOL     OW31519   2.606   1.549   1.084
10207SOL    HW131520   2.588   1.589   1.173
10207SOL    HW231521   2.654   1.462   1.095
10208SOL     OW31522   1.181   2.581   5.613
10208SOL    HW131523   1.097   2.546   5.656
10208SOL    HW231524   1.204   2.523   5.534
10209SOL     OW31525   4.132   6.303   0.605
10209SOL    HW131526   4.143   6.236   0.531
10209SOL    HW231527   4.212   6.363   0.608
10210SOL     OW31528   4.357   5.766   6.728
10210SOL    HW131529   4.315   5.769   6.637
10210SOL    HW231530   4.344   5.854   6.773
10211SOL     OW31531   3.851   5.349   5.149
10211SOL    HW131532   3.863   5.421   5.081
10211SOL    HW231533   3.753   5.335   5.166
10212SOL     OW31534   6.729   5.683   5.527
10212SOL    HW131535   6.799   5.753   5.537
10212SOL    HW231536   6.710   5.640   5.615
10213SOL     OW31537   3.213   0.360   4.728
10213SOL    HW131538   3.238   0.368   4.631
10213SOL    HW231539   3.251   0.275   4.765
10214SOL     OW31540   0.245   0.031   0.186
10214SOL    HW131541   0.324   6.997   0.167
10214SOL    HW231542   0.171   0.009   0.122
10215SOL     OW31543   5.193   2.404   0.162
10215SOL    HW131544   5.120   2.369   0.221
10215SOL    HW231545   5.161   2.404   0.067
10216SOL     OW31546   4.941   0.395   2.649
10216SOL    HW131547   4.892   0.349   2.723
10216SOL    HW231548   4.935   0.494   2.663
10217SOL     OW31549   3.054   1.612   6.463
10217SOL    HW131550   2.999   1.657   6.534
10217SOL    HW231551   3.033   1.652   6.374
10218SOL     OW31552   4.139   0.618   5.711
10218SOL    HW131553   4.157   0.547   5.779
10218SOL    HW231554   4.055   0.666   5.735
10219SOL     OW31555   6.894   5.256   0.487
10219SOL    HW131556   6.949   5.322   0.538
10219SOL    HW231557   6.878   5.175   0.544
10220SOL     OW31558   3.894   2.365   6.498
10220SOL    HW131559   3.844   2.444   6.533
10220SOL    HW231560   3.863   2.282   6.545
10221SOL     OW31561   2.235   0.260   4.448
10221SOL    HW131562   2.208   0.195   4.519
10221SOL    HW231563   2.313   0.223   4.397
10222SOL     OW31564   2.558   5.177   5.426
10222SOL    HW131565   2.480   5.235   5.447
10222SOL    HW231566   2.527   5.083   5.412
10223SOL     OW31567   2.402   5.673   5.726
10223SOL    HW131568   2.407   5.574   5.733
10223SOL    HW231569   2.344   5.698   5.648
10224SOL     OW31570   4.207   5.775   5.524
10224SOL    HW131571   4.257   5.850   5.566
10224SOL    HW231572   4.111   5.778   5.551
10225SOL     OW31573   5.487   0.224   5.562
10225SOL    HW131574   5.527   0.137   5.532
10225SOL    HW231575   5.388   0.220   5.550
10226SOL     OW31576   6.597   2.477   6.333
10226SOL    HW131577   6.696   2.472   6.348
10226SOL    HW231578   6.573   2.420   6.254
10227SOL     OW31579   4.549   4.978   5.104
10227SOL    HW131580   4.465   4.926   5.090
10227SOL    HW231581   4.586   4.958   5.195
10228SOL     OW31582   0.950   2.749   0.966
10228SOL    HW131583   1.038   2.797   0.968
10228SOL    HW231584   0.961   2.657   1.003
10229SOL     OW31585   2.353   0.642   1.502
10229SOL    HW131586   2.282   0.575   1.484
10229SOL    HW231587   2.323   0.732   1.470
10230SOL     OW31588   5.361   0.603   3.526
10230SOL    HW131589   5.291   0.648   3.582
10230SOL    HW231590   5.348   0.504   3.530
10231SOL     OW31591   5.354   0.409   4.814
10231SOL    HW131592   5.421   0.335   4.820
10231SOL    HW231593   5.392   0.492   4.855
10232SOL     OW31594   3.689   2.035   2.571
10232SOL    HW131595   3.772   2.067   2.617
10232SOL    HW231596   3.703   2.034   2.472
10233SOL     OW31597   4.867   6.594   4.698
10233SOL    HW131598   4.854   6.555   4.607
10233SOL    HW231599   4.863   6.694   4.692
10234SOL     OW31600   3.402   4.301   1.095
10234SOL    HW131601   3.465   4.227   1.121
10234SOL    HW231602   3.328   4.306   1.163
10235SOL     OW31603   4.985   6.318   6.926
10235SOL    HW131604   4.933   6.236   6.903
10235SOL    HW231605   5.082   6.296   6.933
10236SOL     OW31606   1.176   5.133   0.817
10236SOL    HW131607   1.157   5.037   0.837
10236SOL    HW231608   1.197   5.182   0.902
10237SOL     OW31609   5.800   1.473   1.895
10237SOL    HW131610   5.810   1.393   1.954
10237SOL    HW231611   5.885   1.489   1.846
10238SOL     OW31612   5.189   4.878   6.432
10238SOL    HW131613   5.224   4.859   6.340
10238SOL    HW231614   5.167   4.976   6.439
10239SOL     OW31615   5.527   4.145   3.418
10239SOL    HW131616   5.480   4.232   3.405
10239SOL    HW231617   5.479   4.092   3.488
10240SOL     OW31618   5.284   3.759   1.962
10240SOL    HW131619   5.342   3.738   1.884
10240SOL    HW231620   5.190   3.730   1.944
10241SOL     OW31621   0.929   2.233   2.747
10241SOL    HW131622   0.862   2.164   2.772
10241SOL    HW231623   0.881   2.315   2.713
10242SOL     OW31624   1.380   5.662   6.403
10242SOL    HW131625   1.292   5.689   6.443
10242SOL    HW231626   1.391   5.706   6.314
10243SOL     OW31627   6.835   5.961   3.760
10243SOL    HW131628   6.871   5.869   3.774
10243SOL    HW231629   6.903   6.028   3.787
10244SOL     OW31630   2.499   6.194   0.626
10244SOL    HW131631   2.475   6.254   0.549
10244SOL    HW231632   2.417   6.145   0.655
10245SOL     OW31633   3.678   3.542   1.008
10245SOL    HW131634   3.629   3.568   0.925
10245SOL    HW231635   3.698   3.444   1.007
10246SOL     OW31636   3.512   3.320   5.106
10246SOL    HW131637   3.415   3.343   5.093
10246SOL    HW231638   3.556   3.309   5.016
10247SOL     OW31639   1.306   5.452   6.155
10247SOL    HW131640   1.346   5.380   6.211
10247SOL    HW231641   1.347   5.540   6.179
10248SOL     OW31642   5.661   0.615   3.983
10248SOL    HW131643   5.748   0.590   3.940
10248SOL    HW231644   5.586   0.569   3.936
10249SOL     OW31645   4.651   1.541   5.981
10249SOL    HW131646   4.647   1.449   6.020
10249SOL    HW231647   4.746   1.572   5.979
10250SOL     OW31648   4.377   5.170   0.981
10250SOL    HW131649   4.403   5.246   0.921
10250SOL    HW231650   4.428   5.088   0.955
10251SOL     OW31651   4.186   4.115   1.112
10251SOL    HW131652   4.195   4.212   1.088
10251SOL    HW231653   4.201   4.059   1.030
10252SOL     OW31654   6.930   3.171   1.346
10252SOL    HW131655   6.870   3.163   1.267
10252SOL    HW231656   7.025   3.172   1.316
10253SOL     OW31657   5.446   3.718   0.163
10253SOL    HW131658   5.474   3.626   0.134
10253SOL    HW231659   5.527   3.772   0.186
10254SOL     OW31660   3.683   2.068   5.959
10254SOL    HW131661   3.586   2.043   5.957
10254SOL    HW231662   3.693   2.164   5.983
10255SOL     OW31663   2.431   4.468   4.528
10255SOL    HW131664   2.454   4.561   4.498
10255SOL    HW231665   2.420   4.467   4.627
10256SOL     OW31666   6.061   4.696   6.805
10256SOL    HW131667   6.123   4.618   6.813
10256SOL    HW231668   6.075   4.757   6.883
10257SOL     OW31669   1.539   4.216   4.544
10257SOL    HW131670   1.568   4.123   4.566
10257SOL    HW231671   1.598   4.282   4.591
10258SOL     OW31672   3.692   1.377   2.195
10258SOL    HW131673   3.666   1.410   2.104
10258SOL    HW231674   3.759   1.439   2.235
10259SOL     OW31675   5.932   3.520   3.237
10259SOL    HW131676   5.939   3.550   3.142
10259SOL    HW231677   6.017   3.540   3.285
10260SOL     OW31678   0.070   6.343   3.084
10260SOL    HW131679   7.024   6.412   3.072
10260SOL    HW231680   0.132   6.371   3.158
10261SOL     OW31681   1.836   0.309   2.556
10261SOL    HW131682   1.773   0.357   2.494
10261SOL    HW231683   1.861   0.221   2.516
10262SOL     OW31684   6.103   6.778   2.836
10262SOL    HW131685   6.034   6.775   2.763
10262SOL    HW231686   6.193   6.795   2.796
10263SOL     OW31687   6.447   3.861   4.803
10263SOL    HW131688   6.407   3.775   4.835
10263SOL    HW231689   6.378   3.914   4.753
10264SOL     OW31690   0.758   7.024   1.298
10264SOL    HW131691   0.727   0.091   1.319
10264SOL    HW231692   0.690   6.978   1.239
10265SOL     OW31693   5.465   2.340   4.660
10265SOL    HW131694   5.438   2.329   4.756
10265SOL    HW231695   5.423   2.423   4.623
10266SOL     OW31696   2.812   3.697   0.115
10266SOL    HW131697   2.724   3.726   0.077
10266SOL    HW231698   2.797   3.633   0.190
10267SOL     OW31699   0.113   0.246   6.102
10267SOL    HW131700   0.037   0.227   6.165
10267SOL    HW231701   0.157   0.159   6.077
10268SOL     OW31702   6.756   4.972   0.570
10268SOL    HW131703   6.779   4.988   0.474
10268SOL    HW231704   6.773   4.876   0.593
10269SOL     OW31705   3.702   1.208   6.050
10269SOL    HW131706   3.672   1.302   6.065
10269SOL    HW231707   3.681   1.181   5.956
10270SOL     OW31708   4.002   6.252   4.120
10270SOL    HW131709   4.031   6.207   4.036
10270SOL    HW231710   3.933   6.321   4.099
10271SOL     OW31711   1.137   4.793   0.396
10271SOL    HW131712   1.083   4.711   0.377
10271SOL    HW231713   1.199   4.810   0.319
10272SOL     OW31714   1.528   3.277   3.494
10272SOL    HW131715   1.469   3.326   3.430
10272SOL    HW231716   1.602   3.338   3.524
10273SOL     OW31717   4.824   0.725   4.739
10273SOL    HW131718   4.835   0.820   4.709
10273SOL    HW231719   4.753   0.681   4.684
10274SOL     OW31720   1.663   4.467   6.761
10274SOL    HW131721   1.591   4.479   6.829
10274SOL    HW231722   1.688   4.556   6.723
10275SOL     OW31723   6.586   6.057   1.791
10275SOL    HW131724   6.498   6.016   1.816
10275SOL    HW231725   6.600   6.048   1.693
10276SOL     OW31726   3.015   5.981   0.718
10276SOL    HW131727   3.045   6.012   0.628
10276SOL    HW231728   3.094   5.957   0.774
10277SOL     OW31729   5.807   6.349   2.541
10277SOL    HW131730   5.818   6.312   2.633
10277SOL    HW231731   5.896   6.355   2.497
10278SOL     OW31732   6.038   1.195   5.267
10278SOL    HW131733   6.109   1.257   5.302
10278SOL    HW231734   5.976   1.246   5.207
10279SOL     OW31735   3.754   6.551   3.561
10279SOL    HW131736   3.673   6.609   3.569
10279SOL    HW231737   3.729   6.465   3.516
10280SOL     OW31738   3.227   2.088   7.023
10280SOL    HW131739   3.268   2.058   6.937
10280SOL    HW231740   3.296   2.090   0.069
10281SOL     OW31741   3.782   1.298   5.068
10281SOL    HW131742   3.683   1.291   5.077
10281SOL    HW231743   3.809   1.283   4.973
10282SOL     OW31744   1.502   3.203   4.219
10282SOL    HW131745   1.573   3.274   4.218
10282SOL    HW231746   1.418   3.240   4.180
10283SOL     OW31747   2.489   6.337   6.479
10283SOL    HW131748   2.390   6.333   6.492
10283SOL    HW231749   2.527   6.412   6.533
10284SOL     OW31750   5.438   2.457   0.853
10284SOL    HW131751   5.415   2.509   0.935
10284SOL    HW231752   5.396   2.500   0.773
10285SOL     OW31753   4.825   1.482   0.331
10285SOL    HW131754   4.832   1.440   0.240
10285SOL    HW231755   4.733   1.466   0.367
10286SOL     OW31756   2.264   6.622   3.305
10286SOL    HW131757   2.165   6.609   3.300
10286SOL    HW231758   2.309   6.561   3.239
10287SOL     OW31759   2.183   4.855   2.534
10287SOL    HW131760   2.264   4.802   2.506
10287SOL    HW231761   2.161   4.922   2.463
10288SOL     OW31762   4.699   0.041   4.016
10288SOL    HW131763   4.739   6.991   4.069
10288SOL    HW231764   4.753   0.124   4.032
10289SOL     OW31765   2.629   1.580   2.552
10289SOL    HW131766   2.608   1.672   2.519
10289SOL    HW231767   2.676   1.585   2.640
10290SOL     OW31768   3.330   3.768   3.177
10290SOL    HW131769   3.254   3.831   3.196
10290SOL    HW231770   3.350   3.770   3.079
10291SOL     OW31771   4.091   0.619   3.263
10291SOL    HW131772   4.009   0.596   3.316
10291SOL    HW231773   4.073   0.607   3.166
10292SOL     OW31774   0.273   3.237   4.472
10292SOL    HW131775   0.316   3.309   4.527
10292SOL    HW231776   0.344   3.175   4.438
10293SOL     OW31777   1.725   5.174   3.603
10293SOL    HW131778   1.671   5.125   3.672
10293SOL    HW231779   1.663   5.227   3.544
10294SOL     OW31780   5.444   1.463   3.200
10294SOL    HW131781   5.488   1.373   3.208
10294SOL    HW231782   5.506   1.534   3.235
10295SOL     OW31783   1.467   4.310   2.852
10295SOL    HW131784   1.545   4.348   2.903
10295SOL    HW231785   1.490   4.220   2.817
10296SOL     OW31786   0.210   3.501   1.414
10296SOL    HW131787   0.114   3.473   1.408
10296SOL    HW231788   0.221   3.591   1.370
10297SOL     OW31789   3.945   4.102   6.217
10297SOL    HW131790   4.039   4.096   6.185
10297SOL    HW231791   3.911   4.010   6.238
10298SOL     OW31792   5.975   3.124   2.751
10298SOL    HW131793   5.912   3.050   2.774
10298SOL    HW231794   5.959   3.202   2.811
10299SOL     OW31795   4.226   5.230   3.262
10299SOL    HW131796   4.266   5.155   3.210
10299SOL    HW231797   4.205   5.199   3.355
10300SOL     OW31798   0.096   5.872   2.247
10300SOL    HW131799   0.003   5.888   2.282
10300SOL    HW231800   0.139   5.960   2.227
10301SOL     OW31801   4.378   1.052   1.701
10301SOL    HW131802   4.402   1.063   1.797
10301SOL    HW231803   4.297   1.108   1.680
10302SOL     OW31804   6.857   4.700   3.211
10302SOL    HW131805   6.897   4.697   3.303
10302SOL    HW231806   6.926   4.727   3.145
10303SOL     OW31807   4.594   3.053   0.670
10303SOL    HW131808   4.533   2.978   0.642
10303SOL    HW231809   4.678   3.050   0.616
10304SOL     OW31810   6.221   6.203   4.918
10304SOL    HW131811   6.282   6.280   4.901
10304SOL    HW231812   6.191   6.205   5.014
10305SOL     OW31813   0.775   5.280   0.920
10305SOL    HW131814   0.853   5.343   0.921
10305SOL    HW231815   0.726   5.286   1.007
10306SOL     OW31816   4.753   3.449   6.651
10306SOL    HW131817   4.762   3.473   6.748
10306SOL    HW231818   4.709   3.360   6.643
10307SOL     OW31819   2.645   1.910   6.052
10307SOL    HW131820   2.606   1.821   6.028
10307SOL    HW231821   2.744   1.903   6.057
10308SOL     OW31822   3.243   4.919   4.331
10308SOL    HW131823   3.202   4.977   4.402
10308SOL    HW231824   3.175   4.900   4.260
10309SOL     OW31825   6.717   6.904   3.833
10309SOL    HW131826   6.766   6.960   3.900
10309SOL    HW231827   6.776   6.888   3.754
10310SOL     OW31828   4.133   3.440   4.534
10310SOL    HW131829   4.086   3.363   4.490
10310SOL    HW231830   4.159   3.507   4.465
10311SOL     OW31831   1.442   1.318   0.015
10311SOL    HW131832   1.514   1.250   0.002
10311SOL    HW231833   1.450   1.359   0.106
10312SOL     OW31834   2.794   4.328   0.368
10312SOL    HW131835   2.870   4.376   0.411
10312SOL    HW231836   2.765   4.379   0.286
10313SOL     OW31837   6.216   6.115   3.477
10313SOL    HW131838   6.273   6.151   3.551
10313SOL    HW231839   6.249   6.025   3.450
10314SOL     OW31840   0.544   5.442   4.818
10314SOL    HW131841   0.450   5.452   4.785
10314SOL    HW231842   0.608   5.454   4.742
10315SOL     OW31843   4.681   5.221   5.158
10315SOL    HW131844   4.760   5.180   5.204
10315SOL    HW231845   4.619   5.149   5.128
10316SOL     OW31846   0.186   2.458   2.882
10316SOL    HW131847   0.280   2.466   2.915
10316SOL    HW231848   0.176   2.512   2.797
10317SOL     OW31849   6.393   3.894   6.156
10317SOL    HW131850   6.411   3.863   6.062
10317SOL    HW231851   6.409   3.992   6.162
10318SOL     OW31852   5.156   4.824   1.967
10318SOL    HW131853   5.108   4.907   1.937
10318SOL    HW231854   5.218   4.794   1.896
10319SOL     OW31855   6.273   6.506   3.553
10319SOL    HW131856   6.295   6.599   3.585
10319SOL    HW231857   6.178   6.502   3.523
10320SOL     OW31858   2.739   6.778   2.018
10320SOL    HW131859   2.711   6.700   1.962
10320SOL    HW231860   2.832   6.805   1.994
10321SOL     OW31861   5.162   5.868   6.114
10321SOL    HW131862   5.197   5.775   6.107
10321SOL    HW231863   5.224   5.931   6.066
10322SOL     OW31864   6.820   2.202   6.344
10322SOL    HW131865   6.729   2.229   6.376
10322SOL    HW231866   6.839   2.246   6.256
10323SOL     OW31867   6.527   2.015   5.532
10323SOL    HW131868   6.599   1.993   5.466
10323SOL    HW231869   6.560   1.998   5.625
10324SOL     OW31870   2.772   3.690   5.295
10324SOL    HW131871   2.786   3.667   5.391
10324SOL    HW231872   2.675   3.711   5.280
10325SOL     OW31873   0.557   2.536   3.435
10325SOL    HW131874   0.531   2.547   3.531
10325SOL    HW231875   0.577   2.440   3.417
10326SOL     OW31876   4.857   0.978   0.798
10326SOL    HW131877   4.834   0.980   0.700
10326SOL    HW231878   4.779   0.945   0.850
10327SOL     OW31879   6.357   2.494   3.696
10327SOL    HW131880   6.420   2.424   3.729
10327SOL    HW231881   6.405   2.581   3.687
10328SOL     OW31882   0.659   3.220   1.871
10328SOL    HW131883   0.705   3.307   1.851
10328SOL    HW231884   0.673   3.157   1.795
10329SOL     OW31885   2.105   5.604   2.843
10329SOL    HW131886   2.052   5.689   2.840
10329SOL    HW231887   2.187   5.617   2.898
10330SOL     OW31888   4.156   3.128   0.406
10330SOL    HW131889   4.112   3.062   0.467
10330SOL    HW231890   4.222   3.183   0.458
10331SOL     OW31891   4.439   2.171   3.685
10331SOL    HW131892   4.498   2.113   3.628
10331SOL    HW231893   4.408   2.249   3.632
10332SOL     OW31894   2.339   2.900   6.481
10332SOL    HW131895   2.416   2.849   6.518
10332SOL    HW231896   2.307   2.857   6.397
10333SOL     OW31897   0.466   4.487   5.780
10333SOL    HW131898   0.514   4.411   5.736
10333SOL    HW231899   0.374   4.495   5.743
10334SOL     OW31900   0.286   4.696   5.550
10334SOL    HW131901   0.356   4.738   5.607
10334SOL    HW231902   0.253   4.612   5.594
10335SOL     OW31903   2.364   5.542   2.511
10335SOL    HW131904   2.316   5.501   2.588
10335SOL    HW231905   2.462   5.549   2.531
10336SOL     OW31906   4.039   0.194   2.505
10336SOL    HW131907   3.962   0.238   2.551
10336SOL    HW231908   4.047   0.099   2.536
10337SOL     OW31909   2.251   3.016   6.756
10337SOL    HW131910   2.250   2.934   6.813
10337SOL    HW231911   2.249   2.990   6.660
10338SOL     OW31912   2.247   3.983   3.060
10338SOL    HW131913   2.188   3.963   3.138
10338SOL    HW231914   2.340   3.952   3.078
10339SOL     OW31915   3.796   6.902   6.732
10339SOL    HW131916   3.827   6.974   6.794
10339SOL    HW231917   3.727   6.846   6.778
10340SOL     OW31918   1.951   5.982   1.229
10340SOL    HW131919   2.010   5.969   1.149
10340SOL    HW231920   1.855   5.974   1.201
10341SOL     OW31921   0.321   2.238   1.770
10341SOL    HW131922   0.330   2.145   1.737
10341SOL    HW231923   0.302   2.237   1.869
10342SOL     OW31924   3.513   4.932   4.389
10342SOL    HW131925   3.547   4.863   4.453
10342SOL    HW231926   3.419   4.910   4.364
10343SOL     OW31927   2.705   2.451   5.106
10343SOL    HW131928   2.613   2.460   5.144
10343SOL    HW231929   2.709   2.370   5.047
10344SOL     OW31930   4.853   4.779   1.223
10344SOL    HW131931   4.885   4.873   1.239
10344SOL    HW231932   4.820   4.771   1.128
10345SOL     OW31933   2.672   1.899   6.505
10345SOL    HW131934   2.670   1.845   6.590
10345SOL    HW231935   2.582   1.939   6.489
10346SOL     OW31936   6.704   5.317   6.460
10346SOL    HW131937   6.688   5.276   6.550
10346SOL    HW231938   6.652   5.266   6.391
10347SOL     OW31939   3.636   6.504   2.658
10347SOL    HW131940   3.726   6.484   2.619
10347SOL    HW231941   3.618   6.602   2.652
10348SOL     OW31942   0.350   2.850   4.159
10348SOL    HW131943   0.443   2.817   4.178
10348SOL    HW231944   0.303   2.869   4.245
10349SOL     OW31945   6.623   1.342   0.044
10349SOL    HW131946   6.628   1.370   6.973
10349SOL    HW231947   6.540   1.289   0.059
10350SOL     OW31948   2.143   5.115   4.575
10350SOL    HW131949   2.224   5.123   4.634
10350SOL    HW231950   2.119   5.205   4.540
10351SOL     OW31951   4.040   5.554   5.770
10351SOL    HW131952   4.122   5.595   5.811
10351SOL    HW231953   4.061   5.523   5.677
10352SOL     OW31954   6.798   1.952   2.178
10352SOL    HW131955   6.845   2.010   2.111
10352SOL    HW231956   6.701   1.946   2.154
10353SOL     OW31957   5.479   3.286   3.728
10353SOL    HW131958   5.536   3.310   3.649
10353SOL    HW231959   5.410   3.220   3.700
10354SOL     OW31960   6.655   2.492   2.350
10354SOL    HW131961   6.706   2.409   2.374
10354SOL    HW231962   6.563   2.486   2.389
10355SOL     OW31963   0.005   1.460   0.206
10355SOL    HW131964   7.011   1.366   0.178
10355SOL    HW231965   0.059   1.506   0.135
10356SOL     OW31966   6.108   3.484   5.851
10356SOL    HW131967   6.081   3.430   5.931
10356SOL    HW231968   6.161   3.426   5.788
10357SOL     OW31969   1.039   6.366   6.834
10357SOL    HW131970   0.958   6.340   6.781
10357SOL    HW231971   1.112   6.394   6.772
10358SOL     OW31972   0.863   3.533   4.124
10358SOL    HW131973   0.959   3.546   4.146
10358SOL    HW231974   0.807   3.557   4.204
10359SOL     OW31975   0.353   2.789   1.925
10359SOL    HW131976   0.414   2.799   1.846
10359SOL    HW231977   0.364   2.869   1.985
10360SOL     OW31978   5.477   5.170   1.228
10360SOL    HW131979   5.546   5.242   1.214
10360SOL    HW231980   5.463   5.120   1.143
10361SOL     OW31981   5.730   1.985   4.330
10361SOL    HW131982   5.703   1.919   4.260
10361SOL    HW231983   5.703   1.951   4.420
10362SOL     OW31984   6.487   5.651   2.403
10362SOL    HW131985   6.504   5.575   2.340
10362SOL    HW231986   6.389   5.655   2.424
10363SOL     OW31987   4.973   4.888   0.144
10363SOL    HW131988   4.981   4.987   0.149
10363SOL    HW231989   5.032   4.854   0.070
10364SOL     OW31990   6.617   5.296   1.481
10364SOL    HW131991   6.568   5.276   1.565
10364SOL    HW231992   6.679   5.373   1.496
10365SOL     OW31993   6.431   5.664   6.425
10365SOL    HW131994   6.530   5.668   6.435
10365SOL    HW231995   6.390   5.641   6.513
10366SOL     OW31996   2.303   0.640   3.240
10366SOL    HW131997   2.303   0.716   3.176
10366SOL    HW231998   2.334   0.557   3.193
10367SOL     OW31999   4.136   6.324   2.988
10367SOL    HW132000   4.143   6.356   3.082
10367SOL    HW232001   4.170   6.230   2.981
10368SOL     OW32002   1.367   6.257   2.166
10368SOL    HW132003   1.402   6.300   2.249
10368SOL    HW232004   1.326   6.169   2.188
10369SOL     OW32005   3.188   1.662   4.855
10369SOL    HW132006   3.105   1.643   4.907
10369SOL    HW232007   3.167   1.723   4.779
10370SOL     OW32008   2.201   1.730   7.017
10370SOL    HW132009   2.164   1.823   7.020
10370SOL    HW232010   2.160   1.676   0.065
10371SOL     OW32011   3.375   5.789   2.428
10371SOL    HW132012   3.319   5.869   2.410
10371SOL    HW232013   3.409   5.752   2.341
10372SOL     OW32014   1.433   5.975   1.447
10372SOL    HW132015   1.394   6.012   1.362
10372SOL    HW232016   1.525   6.012   1.460
10373SOL     OW32017   6.960   1.212   5.159
10373SOL    HW132018   0.030   1.235   5.179
10373SOL    HW232019   6.933   1.254   5.072
10374SOL     OW32020   2.121   5.488   1.911
10374SOL    HW132021   2.046   5.424   1.931
10374SOL    HW232022   2.121   5.562   1.979
10375SOL     OW32023   2.108   4.839   6.502
10375SOL    HW132024   2.115   4.927   6.550
10375SOL    HW232025   2.100   4.765   6.568
10376SOL     OW32026   1.597   5.741   4.026
10376SOL    HW132027   1.644   5.778   4.107
10376SOL    HW232028   1.587   5.642   4.037
10377SOL     OW32029   3.258   1.261   3.566
10377SOL    HW132030   3.221   1.222   3.650
10377SOL    HW232031   3.346   1.303   3.585
10378SOL     OW32032   6.806   6.439   5.129
10378SOL    HW132033   6.888   6.472   5.175
10378SOL    HW232034   6.806   6.339   5.126
10379SOL     OW32035   0.411   5.405   3.927
10379SOL    HW132036   0.405   5.429   4.024
10379SOL    HW232037   0.320   5.386   3.892
10380SOL     OW32038   2.929   1.521   3.260
10380SOL    HW132039   2.934   1.457   3.337
10380SOL    HW232040   2.896   1.609   3.292
10381SOL     OW32041   2.480   6.773   4.360
10381SOL    HW132042   2.542   6.696   4.361
10381SOL    HW232043   2.532   6.858   4.354
10382SOL     OW32044   3.357   5.772   3.011
10382SOL    HW132045   3.386   5.850   2.955
10382SOL    HW232046   3.287   5.801   3.076
10383SOL     OW32047   0.584   0.034   0.299
10383SOL    HW132048   0.682   0.056   0.305
10383SOL    HW232049   0.533   0.089   0.364
10384SOL     OW32050   5.103   4.928   0.896
10384SOL    HW132051   5.145   4.905   0.809
10384SOL    HW232052   5.162   4.897   0.971
10385SOL     OW32053   3.625   4.158   6.822
10385SOL    HW132054   3.549   4.187   6.880
10385SOL    HW232055   3.711   4.173   6.871
10386SOL     OW32056   0.047   0.197   1.310
10386SOL    HW132057   7.005   0.155   1.248
10386SOL    HW232058   0.138   0.164   1.288
10387SOL     OW32059   5.248   1.279   1.994
10387SOL    HW132060   5.155   1.243   2.001
10387SOL    HW232061   5.264   1.312   1.901
10388SOL     OW32062   0.718   6.649   5.061
10388SOL    HW132063   0.769   6.570   5.026
10388SOL    HW232064   0.722   6.649   5.161
10389SOL     OW32065   0.397   3.580   1.139
10389SOL    HW132066   0.325   3.643   1.113
10389SOL    HW232067   0.371   3.487   1.113
10390SOL     OW32068   1.257   2.116   2.135
10390SOL    HW132069   1.305   2.173   2.068
10390SOL    HW232070   1.298   2.129   2.226
10391SOL     OW32071   6.089   0.674   3.414
10391SOL    HW132072   6.130   0.691   3.324
10391SOL    HW232073   6.092   0.758   3.468
10392SOL     OW32074   5.225   3.338   4.302
10392SOL    HW132075   5.218   3.326   4.401
10392SOL    HW232076   5.231   3.435   4.280
10393SOL     OW32077   1.365   2.240   1.235
10393SOL    HW132078   1.446   2.283   1.274
10393SOL    HW232079   1.307   2.310   1.194
10394SOL     OW32080   2.808   5.750   4.009
10394SOL    HW132081   2.805   5.654   4.035
10394SOL    HW232082   2.721   5.794   4.028
10395SOL     OW32083   0.665   0.976   1.527
10395SOL    HW132084   0.757   1.004   1.498
10395SOL    HW232085   0.655   0.993   1.625
10396SOL     OW32086   3.241   2.142   5.296
10396SOL    HW132087   3.334   2.116   5.271
10396SOL    HW232088   3.218   2.229   5.254
10397SOL     OW32089   4.800   1.278   3.989
10397SOL    HW132090   4.899   1.266   3.978
10397SOL    HW232091   4.752   1.218   3.925
10398SOL     OW32092   4.754   2.636   2.971
10398SOL    HW132093   4.725   2.732   2.970
10398SOL    HW232094   4.676   2.577   2.953
10399SOL     OW32095   1.158   2.457   1.883
10399SOL    HW132096   1.243   2.504   1.859
10399SOL    HW232097   1.150   2.450   1.982
10400SOL     OW32098   1.514   6.987   6.951
10400SOL    HW132099   1.463   6.958   0.006
10400SOL    HW232100   1.569   6.910   6.917
10401SOL     OW32101   6.500   1.138   5.767
10401SOL    HW132102   6.544   1.158   5.679
10401SOL    HW232103   6.524   1.045   5.795
10402SOL     OW32104   6.575   4.233   6.391
10402SOL    HW132105   6.549   4.278   6.476
10402SOL    HW232106   6.518   4.269   6.316
10403SOL     OW32107   3.512   0.256   1.562
10403SOL    HW132108   3.453   0.294   1.490
10403SOL    HW232109   3.600   0.228   1.522
10404SOL     OW32110   0.632   5.316   5.481
10404SOL    HW132111   0.664   5.232   5.437
10404SOL    HW232112   0.679   5.395   5.441
10405SOL     OW32113   0.121   1.518   6.983
10405SOL    HW132114   0.160   1.430   6.954
10405SOL    HW232115   0.025   1.523   6.955
10406SOL     OW32116   1.665   4.561   1.899
10406SOL    HW132117   1.613   4.622   1.959
10406SOL    HW232118   1.725   4.615   1.840
10407SOL     OW32119   2.170   6.456   0.792
10407SOL    HW132120   2.162   6.519   0.869
10407SOL    HW232121   2.213   6.503   0.715
10408SOL     OW32122   4.822   0.217   6.436
10408SOL    HW132123   4.753   0.197   6.506
10408SOL    HW232124   4.886   0.141   6.429
10409SOL     OW32125   6.350   3.646   0.684
10409SOL    HW132126   6.376   3.576   0.750
10409SOL    HW232127   6.307   3.723   0.732
10410SOL     OW32128   3.965   0.201   0.589
10410SOL    HW132129   3.903   0.123   0.598
10410SOL    HW232130   3.999   0.228   0.679
10411SOL     OW32131   1.795   4.317   3.588
10411SOL    HW132132   1.754   4.381   3.653
10411SOL    HW232133   1.738   4.236   3.581
10412SOL     OW32134   4.604   0.871   2.023
10412SOL    HW132135   4.625   0.962   1.989
10412SOL    HW232136   4.615   0.804   1.950
10413SOL     OW32137   6.157   3.744   2.563
10413SOL    HW132138   6.102   3.752   2.647
10413SOL    HW232139   6.195   3.834   2.541
10414SOL     OW32140   4.845   3.901   3.693
10414SOL    HW132141   4.838   3.960   3.774
10414SOL    HW232142   4.886   3.814   3.719
10415SOL     OW32143   0.607   1.120   6.249
10415SOL    HW132144   0.510   1.131   6.270
10415SOL    HW232145   0.644   1.205   6.214
10416SOL     OW32146   4.907   2.042   2.658
10416SOL    HW132147   4.815   2.081   2.646
10416SOL    HW232148   4.947   2.023   2.568
10417SOL     OW32149   1.878   4.154   2.380
10417SOL    HW132150   1.912   4.244   2.352
10417SOL    HW232151   1.856   4.155   2.477
10418SOL     OW32152   1.968   5.685   5.788
10418SOL    HW132153   1.982   5.602   5.842
10418SOL    HW232154   1.924   5.660   5.701
10419SOL     OW32155   1.033   1.080   6.217
10419SOL    HW132156   0.993   1.144   6.282
10419SOL    HW232157   0.961   1.038   6.162
10420SOL     OW32158   0.886   2.925   2.081
10420SOL    HW132159   0.838   2.838   2.072
10420SOL    HW232160   0.902   2.964   1.990
10421SOL     OW32161   0.735   2.128   2.497
10421SOL    HW132162   0.691   2.217   2.499
10421SOL    HW232163   0.835   2.139   2.491
10422SOL     OW32164   5.546   1.766   6.933
10422SOL    HW132165   5.601   1.847   6.913
10422SOL    HW232166   5.551   1.703   6.855
10423SOL     OW32167   4.437   5.428   2.828
10423SOL    HW132168   4.343   5.396   2.818
10423SOL    HW232169   4.457   5.441   2.925
10424SOL     OW32170   4.870   1.306   6.220
10424SOL    HW132171   4.810   1.319   6.142
10424SOL    HW232172   4.959   1.347   6.200
10425SOL     OW32173   1.472   6.609   2.025
10425SOL    HW132174   1.518   6.521   2.031
10425SOL    HW232175   1.502   6.657   1.942
10426SOL     OW32176   6.400   4.568   6.302
10426SOL    HW132177   6.364   4.543   6.391
10426SOL    HW232178   6.348   4.522   6.230
10427SOL     OW32179   5.308   0.668   0.625
10427SOL    HW132180   5.213   0.698   0.629
10427SOL    HW232181   5.337   0.661   0.530
10428SOL     OW32182   3.963   2.217   3.736
10428SOL    HW132183   4.008   2.133   3.707
10428SOL    HW232184   4.004   2.295   3.690
10429SOL     OW32185   6.170   5.578   2.167
10429SOL    HW132186   6.200   5.504   2.227
10429SOL    HW232187   6.173   5.665   2.216
10430SOL     OW32188   3.128   6.354   2.909
10430SOL    HW132189   3.119   6.359   2.810
10430SOL    HW232190   3.197   6.419   2.940
10431SOL     OW32191   3.260   1.679   5.716
10431SOL    HW132192   3.298   1.713   5.802
10431SOL    HW232193   3.171   1.721   5.700
10432SOL     OW32194   4.424   0.628   4.450
10432SOL    HW132195   4.330   0.594   4.458
10432SOL    HW232196   4.466   0.589   4.367
10433SOL     OW32197   1.785   6.285   1.224
10433SOL    HW132198   1.795   6.385   1.226
10433SOL    HW232199   1.874   6.244   1.207
10434SOL     OW32200   3.817   2.604   5.434
10434SOL    HW132201   3.749   2.666   5.394
10434SOL    HW232202   3.791   2.509   5.416
10435SOL     OW32203   5.836   5.076   6.840
10435SOL    HW132204   5.788   5.091   6.754
10435SOL    HW232205   5.778   5.106   6.916
10436SOL     OW32206   0.351   2.054   3.087
10436SOL    HW132207   0.407   1.982   3.129
10436SOL    HW232208   0.303   2.105   3.158
10437SOL     OW32209   0.884   3.133   0.956
10437SOL    HW132210   0.898   3.068   0.882
10437SOL    HW232211   0.853   3.084   1.038
10438SOL     OW32212   2.430   0.325   5.712
10438SOL    HW132213   2.395   0.416   5.690
10438SOL    HW232214   2.372   0.256   5.669
10439SOL     OW32215   3.412   0.457   5.650
10439SOL    HW132216   3.398   0.542   5.701
10439SOL    HW232217   3.504   0.458   5.610
10440SOL     OW32218   1.277   5.515   0.319
10440SOL    HW132219   1.303   5.526   0.223
10440SOL    HW232220   1.179   5.499   0.326
10441SOL     OW32221   4.525   6.285   0.799
10441SOL    HW132222   4.499   6.320   0.709
10441SOL    HW232223   4.616   6.243   0.793
10442SOL     OW32224   3.307   6.223   6.526
10442SOL    HW132225   3.284   6.186   6.436
10442SOL    HW232226   3.394   6.185   6.557
10443SOL     OW32227   0.507   3.068   4.469
10443SOL    HW132228   0.540   3.099   4.558
10443SOL    HW232229   0.528   2.971   4.457
10444SOL     OW32230   3.795   4.556   5.335
10444SOL    HW132231   3.848   4.478   5.299
10444SOL    HW232232   3.849   4.604   5.404
10445SOL     OW32233   6.432   6.409   1.689
10445SOL    HW132234   6.354   6.346   1.695
10445SOL    HW232235   6.425   6.477   1.762
10446SOL     OW32236   1.285   0.260   5.553
10446SOL    HW132237   1.353   0.301   5.613
10446SOL    HW232238   1.195   0.265   5.596
10447SOL     OW32239   5.452   2.995   6.712
10447SOL    HW132240   5.459   2.933   6.634
10447SOL    HW232241   5.482   3.086   6.685
10448SOL     OW32242   4.105   3.210   2.148
10448SOL    HW132243   4.190   3.162   2.127
10448SOL    HW232244   4.125   3.303   2.177
10449SOL     OW32245   1.109   4.999   5.231
10449SOL    HW132246   1.189   5.057   5.217
10449SOL    HW232247   1.099   4.936   5.154
10450SOL     OW32248   0.332   3.165   0.194
10450SOL    HW132249   0.259   3.230   0.215
10450SOL    HW232250   0.414   3.190   0.245
10451SOL     OW32251   1.646   4.481   2.463
10451SOL    HW132252   1.643   4.554   2.531
10451SOL    HW232253   1.686   4.399   2.503
10452SOL     OW32254   2.258   2.801   6.199
10452SOL    HW132255   2.160   2.795   6.177
10452SOL    HW232256   2.292   2.710   6.224
10453SOL     OW32257   5.053   0.521   2.343
10453SOL    HW132258   4.997   0.585   2.292
10453SOL    HW232259   5.048   0.541   2.441
10454SOL     OW32260   3.932   5.113   3.083
10454SOL    HW132261   4.023   5.072   3.087
10454SOL    HW232262   3.865   5.046   3.052
10455SOL     OW32263   1.567   4.394   3.408
10455SOL    HW132264   1.641   4.351   3.458
10455SOL    HW232265   1.531   4.470   3.461
10456SOL     OW32266   3.877   6.473   0.920
10456SOL    HW132267   3.819   6.391   0.920
10456SOL    HW232268   3.963   6.453   0.965
10457SOL     OW32269   3.775   2.963   4.088
10457SOL    HW132270   3.760   2.897   4.015
10457SOL    HW232271   3.714   3.041   4.076
10458SOL     OW32272   6.372   5.996   2.640
10458SOL    HW132273   6.275   6.008   2.618
10458SOL    HW232274   6.423   6.076   2.611
10459SOL     OW32275   6.979   5.773   2.574
10459SOL    HW132276   6.997   5.782   2.672
10459SOL    HW232277   6.934   5.686   2.556
10460SOL     OW32278   1.375   4.538   1.184
10460SOL    HW132279   1.288   4.566   1.145
10460SOL    HW232280   1.363   4.452   1.235
10461SOL     OW32281   3.527   0.407   6.325
10461SOL    HW132282   3.589   0.420   6.248
10461SOL    HW232283   3.480   0.319   6.317
10462SOL     OW32284   5.621   6.617   1.214
10462SOL    HW132285   5.598   6.653   1.124
10462SOL    HW232286   5.692   6.674   1.256
10463SOL     OW32287   4.105   2.988   0.171
10463SOL    HW132288   4.051   3.039   0.104
10463SOL    HW232289   4.130   3.048   0.247
10464SOL     OW32290   5.592   6.488   1.519
10464SOL    HW132291   5.511   6.432   1.498
10464SOL    HW232292   5.564   6.570   1.569
10465SOL     OW32293   0.691   5.004   5.971
10465SOL    HW132294   0.759   4.964   5.909
10465SOL    HW232295   0.614   4.941   5.982
10466SOL     OW32296   4.621   5.299   5.542
10466SOL    HW132297   4.574   5.219   5.505
10466SOL    HW232298   4.712   5.274   5.574
10467SOL     OW32299   3.860   1.510   4.478
10467SOL    HW132300   3.826   1.427   4.433
10467SOL    HW232301   3.953   1.495   4.509
10468SOL     OW32302   2.609   5.590   3.188
10468SOL    HW132303   2.658   5.528   3.126
10468SOL    HW232304   2.564   5.536   3.259
10469SOL     OW32305   0.560   5.229   6.017
10469SOL    HW132306   0.557   5.286   5.934
10469SOL    HW232307   0.607   5.143   5.996
10470SOL     OW32308   2.607   2.504   3.992
10470SOL    HW132309   2.705   2.487   3.989
10470SOL    HW232310   2.560   2.440   3.932
10471SOL     OW32311   4.895   3.796   6.829
10471SOL    HW132312   4.814   3.783   6.887
10471SOL    HW232313   4.887   3.738   6.748
10472SOL     OW32314   4.226   1.717   3.654
10472SOL    HW132315   4.174   1.688   3.574
10472SOL    HW232316   4.323   1.694   3.641
10473SOL     OW32317   4.385   4.325   1.189
10473SOL    HW132318   4.339   4.389   1.129
10473SOL    HW232319   4.329   4.309   1.270
10474SOL     OW32320   5.097   1.531   4.040
10474SOL    HW132321   5.167   1.565   4.103
10474SOL    HW232322   5.137   1.518   3.949
10475SOL     OW32323   4.063   6.161   0.839
10475SOL    HW132324   4.066   6.199   0.747
10475SOL    HW232325   4.122   6.214   0.899
10476SOL     OW32326   0.646   5.127   6.950
10476SOL    HW132327   0.550   5.102   6.940
10476SOL    HW232328   0.677   5.102   0.017
10477SOL     OW32329   5.334   4.282   4.495
10477SOL    HW132330   5.348   4.196   4.447
10477SOL    HW232331   5.254   4.275   4.554
10478SOL     OW32332   0.182   0.318   2.850
10478SOL    HW132333   0.205   0.412   2.825
10478SOL    HW232334   0.140   0.273   2.771
10479SOL     OW32335   1.243   3.819   2.843
10479SOL    HW132336   1.303   3.880   2.895
10479SOL    HW232337   1.290   3.733   2.825
10480SOL     OW32338   4.916   1.075   6.358
10480SOL    HW132339   4.878   0.992   6.320
10480SOL    HW232340   4.900   1.152   6.296
10481SOL     OW32341   3.819   1.755   3.345
10481SOL    HW132342   3.808   1.853   3.333
10481SOL    HW232343   3.770   1.725   3.426
10482SOL     OW32344   0.849   6.525   5.972
10482SOL    HW132345   0.887   6.554   5.884
10482SOL    HW232346   0.906   6.560   6.046
10483SOL     OW32347   1.323   6.114   0.882
10483SOL    HW132348   1.309   6.153   0.790
10483SOL    HW232349   1.396   6.046   0.878
10484SOL     OW32350   6.577   1.512   1.859
10484SOL    HW132351   6.605   1.422   1.892
10484SOL    HW232352   6.538   1.503   1.768
10485SOL     OW32353   3.655   3.746   5.105
10485SOL    HW132354   3.640   3.739   5.007
10485SOL    HW232355   3.660   3.842   5.132
10486SOL     OW32356   6.053   4.892   6.162
10486SOL    HW132357   5.987   4.931   6.098
10486SOL    HW232358   6.022   4.801   6.190
10487SOL     OW32359   4.971   4.092   2.422
10487SOL    HW132360   5.026   4.085   2.338
10487SOL    HW232361   4.998   4.174   2.473
10488SOL     OW32362   1.307   2.058   5.257
10488SOL    HW132363   1.228   2.110   5.290
10488SOL    HW232364   1.368   2.038   5.334
10489SOL     OW32365   5.775   5.038   2.684
10489SOL    HW132366   5.822   4.994   2.607
10489SOL    HW232367   5.679   5.011   2.684
10490SOL     OW32368   5.490   6.298   6.215
10490SOL    HW132369   5.501   6.375   6.152
10490SOL    HW232370   5.404   6.307   6.264
10491SOL     OW32371   2.265   1.752   5.576
10491SOL    HW132372   2.354   1.710   5.596
10491SOL    HW232373   2.211   1.690   5.520
10492SOL     OW32374   3.245   6.934   7.024
10492SOL    HW132375   3.243   6.838   0.027
10492SOL    HW232376   3.157   6.976   0.019
10493SOL     OW32377   4.572   0.122   0.154
10493SOL    HW132378   4.641   0.192   0.172
10493SOL    HW232379   4.484   0.153   0.189
10494SOL     OW32380   6.727   5.497   3.552
10494SOL    HW132381   6.661   5.559   3.595
10494SOL    HW232382   6.752   5.532   3.462
10495SOL     OW32383   6.044   6.185   0.493
10495SOL    HW132384   6.094   6.181   0.580
10495SOL    HW232385   6.091   6.128   0.425
10496SOL     OW32386   1.832   3.903   6.288
10496SOL    HW132387   1.857   3.857   6.372
10496SOL    HW232388   1.893   3.875   6.214
10497SOL     OW32389   4.033   0.285   0.113
10497SOL    HW132390   4.003   0.312   0.204
10497SOL    HW232391   4.107   0.218   0.122
10498SOL     OW32392   3.494   4.324   0.384
10498SOL    HW132393   3.465   4.264   0.309
10498SOL    HW232394   3.426   4.321   0.457
10499SOL     OW32395   4.465   5.279   4.072
10499SOL    HW132396   4.460   5.193   4.124
10499SOL    HW232397   4.506   5.350   4.129
10500SOL     OW32398   1.863   2.808   4.634
10500SOL    HW132399   1.849   2.795   4.732
10500SOL    HW232400   1.941   2.752   4.604
10501SOL     OW32401   3.863   4.818   2.927
10501SOL    HW132402   3.921   4.769   2.992
10501SOL    HW232403   3.911   4.824   2.839
10502SOL     OW32404   3.672   3.108   3.229
10502SOL    HW132405   3.684   3.123   3.327
10502SOL    HW232406   3.619   3.024   3.215
10503SOL     OW32407   6.837   6.005   1.018
10503SOL    HW132408   6.889   6.082   0.980
10503SOL    HW232409   6.890   5.962   1.091
10504SOL     OW32410   2.115   2.541   5.163
10504SOL    HW132411   2.200   2.489   5.168
10504SOL    HW232412   2.104   2.594   5.247
10505SOL     OW32413   4.680   6.759   0.828
10505SOL    HW132414   4.597   6.805   0.797
10505SOL    HW232415   4.760   6.813   0.801
10506SOL     OW32416   0.597   5.573   6.150
10506SOL    HW132417   0.512   5.521   6.146
10506SOL    HW232418   0.658   5.543   6.077
10507SOL     OW32419   2.470   6.180   5.869
10507SOL    HW132420   2.459   6.164   5.771
10507SOL    HW232421   2.450   6.276   5.890
10508SOL     OW32422   1.800   6.499   1.523
10508SOL    HW132423   1.723   6.533   1.469
10508SOL    HW232424   1.856   6.576   1.553
10509SOL     OW32425   4.763   3.529   1.678
10509SOL    HW132426   4.759   3.440   1.724
10509SOL    HW232427   4.681   3.582   1.701
10510SOL     OW32428   5.246   6.582   1.814
10510SOL    HW132429   5.227   6.631   1.728
10510SOL    HW232430   5.178   6.510   1.826
10511SOL     OW32431   3.744   1.744   0.918
10511SOL    HW132432   3.842   1.731   0.903
10511SOL    HW232433   3.726   1.756   1.015
10512SOL     OW32434   4.301   0.141   4.396
10512SOL    HW132435   4.206   0.168   4.383
10512SOL    HW232436   4.308   0.041   4.396
10513SOL     OW32437   4.430   3.850   1.098
10513SOL    HW132438   4.379   3.861   1.183
10513SOL    HW232439   4.390   3.776   1.044
10514SOL     OW32440   0.856   4.760   1.553
10514SOL    HW132441   0.809   4.766   1.640
10514SOL    HW232442   0.890   4.667   1.540
10515SOL     OW32443   1.758   3.113   4.719
10515SOL    HW132444   1.701   3.093   4.639
10515SOL    HW232445   1.814   3.193   4.700
10516SOL     OW32446   4.848   2.030   1.023
10516SOL    HW132447   4.871   1.933   1.031
10516SOL    HW232448   4.882   2.065   0.936
10517SOL     OW32449   6.095   1.326   1.880
10517SOL    HW132450   6.019   1.282   1.929
10517SOL    HW232451   6.165   1.352   1.946
10518SOL     OW32452   6.921   5.753   3.452
10518SOL    HW132453   6.839   5.782   3.401
10518SOL    HW232454   6.990   5.825   3.447
10519SOL     OW32455   1.615   0.152   0.647
10519SOL    HW132456   1.693   0.189   0.596
10519SOL    HW232457   1.566   0.226   0.693
10520SOL     OW32458   3.663   2.334   6.023
10520SOL    HW132459   3.569   2.314   6.050
10520SOL    HW232460   3.685   2.428   6.048
10521SOL     OW32461   5.701   1.758   0.953
10521SOL    HW132462   5.681   1.856   0.961
10521SOL    HW232463   5.635   1.716   0.891
10522SOL     OW32464   4.810   1.480   2.200
10522SOL    HW132465   4.909   1.479   2.185
10522SOL    HW232466   4.765   1.510   2.116
10523SOL     OW32467   6.901   4.263   1.624
10523SOL    HW132468   6.840   4.278   1.547
10523SOL    HW232469   6.853   4.213   1.696
10524SOL     OW32470   6.321   6.382   4.717
10524SOL    HW132471   6.246   6.449   4.713
10524SOL    HW232472   6.290   6.296   4.675
10525SOL     OW32473   5.165   2.111   4.505
10525SOL    HW132474   5.083   2.163   4.526
10525SOL    HW232475   5.192   2.057   4.585
10526SOL     OW32476   1.770   6.655   6.401
10526SOL    HW132477   1.726   6.603   6.327
10526SOL    HW232478   1.846   6.707   6.364
10527SOL     OW32479   1.336   6.680   4.859
10527SOL    HW132480   1.410   6.731   4.814
10527SOL    HW232481   1.260   6.742   4.878
10528SOL     OW32482   2.834   6.052   5.293
10528SOL    HW132483   2.843   5.964   5.248
10528SOL    HW232484   2.895   6.055   5.372
10529SOL     OW32485   0.051   5.838   6.337
10529SOL    HW132486   0.041   5.738   6.332
10529SOL    HW232487   0.141   5.864   6.303
10530SOL     OW32488   5.909   0.475   1.415
10530SOL    HW132489   5.935   0.394   1.468
10530SOL    HW232490   5.810   0.488   1.420
10531SOL     OW32491   3.255   0.817   6.888
10531SOL    HW132492   3.296   0.857   6.970
10531SOL    HW232493   3.313   0.742   6.856
10532SOL     OW32494   3.626   5.786   5.854
10532SOL    HW132495   3.679   5.837   5.922
10532SOL    HW232496   3.606   5.846   5.776
10533SOL     OW32497   4.295   6.762   4.014
10533SOL    HW132498   4.383   6.740   3.972
10533SOL    HW232499   4.223   6.707   3.971
10534SOL     OW32500   0.429   6.075   4.702
10534SOL    HW132501   0.421   6.148   4.634
10534SOL    HW232502   0.356   6.085   4.770
10535SOL     OW32503   3.888   1.604   2.352
10535SOL    HW132504   3.918   1.532   2.415
10535SOL    HW232505   3.830   1.669   2.401
10536SOL     OW32506   5.700   3.028   4.593
10536SOL    HW132507   5.636   2.951   4.600
10536SOL    HW232508   5.676   3.084   4.514
10537SOL     OW32509   2.637   1.309   2.449
10537SOL    HW132510   2.682   1.292   2.361
10537SOL    HW232511   2.649   1.405   2.474
10538SOL     OW32512   6.536   2.984   3.698
10538SOL    HW132513   6.484   3.039   3.633
10538SOL    HW232514   6.623   3.029   3.719
10539SOL     OW32515   6.591   0.192   1.444
10539SOL    HW132516   6.575   0.139   1.527
10539SOL    HW232517   6.635   0.279   1.468
10540SOL     OW32518   1.927   2.728   5.844
10540SOL    HW132519   1.845   2.758   5.796
10540SOL    HW232520   1.928   2.766   5.937
10541SOL     OW32521   3.782   2.977   6.859
10541SOL    HW132522   3.694   3.017   6.833
10541SOL    HW232523   3.849   2.994   6.786
10542SOL     OW32524   2.767   6.056   3.029
10542SOL    HW132525   2.746   5.959   3.039
10542SOL    HW232526   2.860   6.073   3.062
10543SOL     OW32527   0.680   2.788   3.452
10543SOL    HW132528   0.639   2.699   3.427
10543SOL    HW232529   0.614   2.860   3.434
10544SOL     OW32530   2.966   2.203   2.287
10544SOL    HW132531   2.907   2.176   2.363
10544SOL    HW232532   2.917   2.264   2.226
10545SOL     OW32533   0.968   3.131   1.509
10545SOL    HW132534   0.972   3.216   1.457
10545SOL    HW232535   0.993   3.054   1.450
10546SOL     OW32536   1.944   0.450   4.830
10546SOL    HW132537   1.860   0.398   4.842
10546SOL    HW232538   1.944   0.494   4.740
10547SOL     OW32539   2.810   5.791   6.249
10547SOL    HW132540   2.821   5.811   6.152
10547SOL    HW232541   2.752   5.860   6.292
10548SOL     OW32542   1.416   4.968   3.435
10548SOL    HW132543   1.451   5.060   3.418
10548SOL    HW232544   1.483   4.901   3.402
10549SOL     OW32545   6.603   1.843   2.426
10549SOL    HW132546   6.555   1.870   2.342
10549SOL    HW232547   6.678   1.781   2.404
10550SOL     OW32548   0.194   4.562   2.962
10550SOL    HW132549   0.259   4.487   2.970
10550SOL    HW232550   0.241   4.649   2.978
10551SOL     OW32551   4.934   0.850   4.353
10551SOL    HW132552   4.866   0.877   4.421
10551SOL    HW232553   4.920   0.754   4.328
10552SOL     OW32554   2.164   0.309   3.983
10552SOL    HW132555   2.083   0.313   3.924
10552SOL    HW232556   2.240   0.356   3.938
10553SOL     OW32557   5.510   5.432   1.690
10553SOL    HW132558   5.536   5.496   1.762
10553SOL    HW232559   5.588   5.374   1.667
10554SOL     OW32560   5.122   5.759   1.862
10554SOL    HW132561   5.077   5.675   1.833
10554SOL    HW232562   5.220   5.742   1.876
10555SOL     OW32563   3.160   3.166   2.824
10555SOL    HW132564   3.164   3.156   2.923
10555SOL    HW232565   3.243   3.128   2.783
10556SOL     OW32566   2.012   1.621   1.828
10556SOL    HW132567   1.994   1.531   1.790
10556SOL    HW232568   2.062   1.612   1.914
10557SOL     OW32569   1.152   4.969   3.523
10557SOL    HW132570   1.233   4.973   3.465
10557SOL    HW232571   1.163   4.898   3.592
10558SOL     OW32572   5.455   5.733   4.715
10558SOL    HW132573   5.372   5.678   4.727
10558SOL    HW232574   5.524   5.704   4.781
10559SOL     OW32575   3.700   6.102   1.810
10559SOL    HW132576   3.670   6.122   1.903
10559SOL    HW232577   3.736   6.009   1.806
10560SOL     OW32578   6.006   0.044   4.083
10560SOL    HW132579   5.930   0.110   4.078
10560SOL    HW232580   6.025   0.023   4.179
10561SOL     OW32581   1.270   5.389   5.670
10561SOL    HW132582   1.171   5.404   5.671
10561SOL    HW232583   1.317   5.471   5.702
10562SOL     OW32584   2.408   0.224   2.972
10562SOL    HW132585   2.473   0.205   3.046
10562SOL    HW232586   2.330   0.276   3.008
10563SOL     OW32587   1.632   5.231   2.201
10563SOL    HW132588   1.693   5.164   2.243
10563SOL    HW232589   1.623   5.310   2.261
10564SOL     OW32590   4.873   6.556   3.745
10564SOL    HW132591   4.917   6.467   3.733
10564SOL    HW232592   4.941   6.628   3.735
10565SOL     OW32593   0.421   1.004   4.777
10565SOL    HW132594   0.387   0.954   4.698
10565SOL    HW232595   0.345   1.051   4.822
10566SOL     OW32596   3.660   1.578   1.175
10566SOL    HW132597   3.757   1.556   1.168
10566SOL    HW232598   3.617   1.573   1.085
10567SOL     OW32599   3.479   1.392   5.973
10567SOL    HW132600   3.420   1.311   5.971
10567SOL    HW232601   3.429   1.471   5.939
10568SOL     OW32602   5.891   1.023   0.511
10568SOL    HW132603   5.982   1.032   0.470
10568SOL    HW232604   5.891   0.947   0.575
10569SOL     OW32605   4.046   0.964   0.891
10569SOL    HW132606   4.112   0.890   0.876
10569SOL    HW232607   4.065   1.008   0.979
10570SOL     OW32608   1.576   4.071   2.748
10570SOL    HW132609   1.532   4.061   2.659
10570SOL    HW232610   1.632   3.991   2.767
10571SOL     OW32611   1.330   4.284   4.689
10571SOL    HW132612   1.286   4.196   4.704
10571SOL    HW232613   1.388   4.278   4.607
10572SOL     OW32614   0.040   5.428   0.905
10572SOL    HW132615   0.043   5.400   0.809
10572SOL    HW232616   0.072   5.352   0.962
10573SOL     OW32617   5.641   2.339   2.996
10573SOL    HW132618   5.641   2.359   2.898
10573SOL    HW232619   5.549   2.317   3.027
10574SOL     OW32620   5.380   3.356   2.975
10574SOL    HW132621   5.436   3.387   3.051
10574SOL    HW232622   5.344   3.435   2.925
10575SOL     OW32623   5.157   6.857   3.149
10575SOL    HW132624   5.157   6.929   3.079
10575SOL    HW232625   5.202   6.891   3.232
10576SOL     OW32626   1.012   3.198   5.263
10576SOL    HW132627   0.919   3.192   5.299
10576SOL    HW232628   1.073   3.236   5.334
10577SOL     OW32629   4.326   5.113   6.387
10577SOL    HW132630   4.379   5.073   6.462
10577SOL    HW232631   4.229   5.090   6.400
10578SOL     OW32632   1.387   2.746   2.090
10578SOL    HW132633   1.342   2.828   2.054
10578SOL    HW232634   1.405   2.758   2.187
10579SOL     OW32635   6.853   3.291   0.287
10579SOL    HW132636   6.792   3.293   0.208
10579SOL    HW232637   6.800   3.276   0.370
10580SOL     OW32638   4.157   6.229   5.975
10580SOL    HW132639   4.188   6.302   6.036
10580SOL    HW232640   4.057   6.224   5.976
10581SOL     OW32641   3.081   0.310   2.751
10581SOL    HW132642   3.039   0.343   2.835
10581SOL    HW232643   3.150   0.375   2.720
10582SOL     OW32644   0.426   3.605   0.167
10582SOL    HW132645   0.414   3.669   0.243
10582SOL    HW232646   0.393   3.646   0.083
10583SOL     OW32647   3.767   2.347   5.710
10583SOL    HW132648   3.719   2.329   5.796
10583SOL    HW232649   3.712   2.313   5.633
10584SOL     OW32650   6.196   0.276   4.006
10584SOL    HW132651   6.106   0.238   3.988
10584SOL    HW232652   6.191   0.336   4.087
10585SOL     OW32653   2.364   0.851   4.117
10585SOL    HW132654   2.290   0.785   4.128
10585SOL    HW232655   2.377   0.871   4.019
10586SOL     OW32656   4.637   3.301   6.365
10586SOL    HW132657   4.630   3.282   6.463
10586SOL    HW232658   4.546   3.325   6.330
10587SOL     OW32659   1.719   5.029   6.395
10587SOL    HW132660   1.781   4.963   6.353
10587SOL    HW232661   1.625   5.009   6.366
10588SOL     OW32662   1.586   4.664   4.567
10588SOL    HW132663   1.632   4.685   4.480
10588SOL    HW232664   1.595   4.566   4.585
10589SOL     OW32665   6.334   0.842   3.557
10589SOL    HW132666   6.389   0.853   3.639
10589SOL    HW232667   6.384   0.786   3.491
10590SOL     OW32668   5.976   6.646   2.554
10590SOL    HW132669   5.943   6.740   2.565
10590SOL    HW232670   5.917   6.597   2.490
10591SOL     OW32671   6.712   4.312   2.311
10591SOL    HW132672   6.707   4.402   2.354
10591SOL    HW232673   6.722   4.242   2.382
10592SOL     OW32674   5.997   3.259   5.590
10592SOL    HW132675   5.918   3.277   5.648
10592SOL    HW232676   6.049   3.182   5.626
10593SOL     OW32677   3.532   5.594   3.128
10593SOL    HW132678   3.613   5.569   3.073
10593SOL    HW232679   3.480   5.664   3.080
10594SOL     OW32680   3.857   6.519   3.271
10594SOL    HW132681   3.804   6.453   3.324
10594SOL    HW232682   3.844   6.611   3.309
10595SOL     OW32683   5.967   5.852   1.515
10595SOL    HW132684   6.044   5.862   1.452
10595SOL    HW232685   5.882   5.844   1.463
10596SOL     OW32686   6.374   2.828   1.725
10596SOL    HW132687   6.287   2.808   1.771
10596SOL    HW232688   6.407   2.746   1.678
10597SOL     OW32689   1.767   6.293   4.963
10597SOL    HW132690   1.842   6.228   4.974
10597SOL    HW232691   1.721   6.276   4.875
10598SOL     OW32692   3.214   1.501   0.520
10598SOL    HW132693   3.205   1.589   0.566
10598SOL    HW232694   3.263   1.437   0.580
10599SOL     OW32695   0.645   1.595   1.091
10599SOL    HW132696   0.588   1.558   1.165
10599SOL    HW232697   0.624   1.692   1.080
10600SOL     OW32698   4.262   1.347   1.711
10600SOL    HW132699   4.196   1.302   1.650
10600SOL    HW232700   4.222   1.355   1.803
10601SOL     OW32701   2.006   2.011   5.332
10601SOL    HW132702   1.990   2.109   5.327
10601SOL    HW232703   1.919   1.962   5.335
10602SOL     OW32704   6.621   6.021   0.314
10602SOL    HW132705   6.541   5.979   0.357
10602SOL    HW232706   6.697   5.956   0.315
10603SOL     OW32707   5.314   0.037   3.283
10603SOL    HW132708   5.273   0.074   3.200
10603SOL    HW232709   5.410   0.014   3.265
10604SOL     OW32710   5.748   2.400   4.632
10604SOL    HW132711   5.651   2.380   4.648
10604SOL    HW232712   5.792   2.423   4.719
10605SOL     OW32713   4.564   1.378   1.759
10605SOL    HW132714   4.473   1.399   1.796
10605SOL    HW232715   4.563   1.388   1.660
10606SOL     OW32716   5.776   2.115   0.728
10606SOL    HW132717   5.701   2.155   0.779
10606SOL    HW232718   5.802   2.027   0.770
10607SOL     OW32719   1.834   4.664   1.697
10607SOL    HW132720   1.917   4.640   1.747
10607SOL    HW232721   1.859   4.716   1.615
10608SOL     OW32722   5.688   3.625   2.624
10608SOL    HW132723   5.713   3.715   2.659
10608SOL    HW232724   5.595   3.603   2.652
10609SOL     OW32725   5.375   5.937   6.724
10609SOL    HW132726   5.347   5.851   6.683
10609SOL    HW232727   5.450   5.922   6.788
10610SOL     OW32728   0.033   2.612   3.753
10610SOL    HW132729   7.007   2.694   3.730
10610SOL    HW232730   0.091   2.629   3.832
10611SOL     OW32731   3.960   5.301   6.928
10611SOL    HW132732   4.040   5.359   6.910
10611SOL    HW232733   3.972   5.213   6.882
10612SOL     OW32734   6.161   2.422   4.395
10612SOL    HW132735   6.147   2.354   4.324
10612SOL    HW232736   6.136   2.512   4.360
10613SOL     OW32737   4.665   5.314   6.085
10613SOL    HW132738   4.635   5.220   6.100
10613SOL    HW232739   4.738   5.316   6.017
10614SOL     OW32740   4.579   1.838   0.488
10614SOL    HW132741   4.534   1.916   0.531
10614SOL    HW232742   4.624   1.868   0.404
10615SOL     OW32743   4.108   3.152   5.543
10615SOL    HW132744   4.062   3.064   5.535
10615SOL    HW232745   4.118   3.193   5.452
10616SOL     OW32746   2.044   4.783   0.036
10616SOL    HW132747   1.992   4.698   0.019
10616SOL    HW232748   2.128   4.761   0.085
10617SOL     OW32749   2.023   3.675   0.397
10617SOL    HW132750   2.043   3.773   0.404
10617SOL    HW232751   2.103   3.623   0.428
10618SOL     OW32752   0.205   5.226   5.126
10618SOL    HW132753   0.248   5.317   5.124
10618SOL    HW232754   0.276   5.156   5.121
10619SOL     OW32755   1.389   1.785   1.222
10619SOL    HW132756   1.464   1.759   1.283
10619SOL    HW232757   1.345   1.868   1.256
10620SOL     OW32758   4.005   1.254   5.624
10620SOL    HW132759   4.008   1.169   5.677
10620SOL    HW232760   3.987   1.232   5.528
10621SOL     OW32761   0.777   5.719   4.609
10621SOL    HW132762   0.836   5.799   4.597
10621SOL    HW232763   0.688   5.748   4.644
10622SOL     OW32764   3.263   2.168   6.493
10622SOL    HW132765   3.182   2.209   6.451
10622SOL    HW232766   3.345   2.200   6.446
10623SOL     OW32767   5.658   4.712   4.468
10623SOL    HW132768   5.620   4.624   4.498
10623SOL    HW232769   5.746   4.697   4.423
10624SOL     OW32770   0.595   1.214   5.331
10624SOL    HW132771   0.652   1.161   5.268
10624SOL    HW232772   0.585   1.308   5.298
10625SOL     OW32773   0.035   5.586   6.671
10625SOL    HW132774   0.004   5.501   6.630
10625SOL    HW232775   0.020   5.584   6.770
10626SOL     OW32776   4.958   3.497   1.489
10626SOL    HW132777   4.999   3.423   1.542
10626SOL    HW232778   4.876   3.530   1.535
10627SOL     OW32779   4.757   5.497   5.080
10627SOL    HW132780   4.793   5.551   5.156
10627SOL    HW232781   4.730   5.406   5.113
10628SOL     OW32782   2.306   6.561   2.351
10628SOL    HW132783   2.332   6.657   2.345
10628SOL    HW232784   2.373   6.504   2.304
10629SOL     OW32785   4.893   5.834   4.316
10629SOL    HW132786   4.889   5.747   4.268
10629SOL    HW232787   4.822   5.837   4.387
10630SOL     OW32788   4.310   0.886   1.485
10630SOL    HW132789   4.274   0.957   1.424
10630SOL    HW232790   4.343   0.928   1.569
10631SOL     OW32791   3.736   6.171   2.310
10631SOL    HW132792   3.694   6.151   2.399
10631SOL    HW232793   3.818   6.115   2.298
10632SOL     OW32794   5.967   1.024   4.897
10632SOL    HW132795   6.031   1.086   4.852
10632SOL    HW232796   5.901   0.990   4.831
10633SOL     OW32797   3.030   3.895   0.224
10633SOL    HW132798   2.945   3.946   0.211
10633SOL    HW232799   3.009   3.799   0.243
10634SOL     OW32800   0.801   4.067   0.777
10634SOL    HW132801   0.746   3.985   0.765
10634SOL    HW232802   0.767   4.139   0.717
10635SOL     OW32803   3.205   5.271   0.760
10635SOL    HW132804   3.254   5.261   0.673
10635SOL    HW232805   3.267   5.254   0.836
10636SOL     OW32806   0.358   3.103   0.505
10636SOL    HW132807   0.360   3.201   0.487
10636SOL    HW232808   0.419   3.055   0.442
10637SOL     OW32809   1.561   6.956   5.604
10637SOL    HW132810   1.540   6.889   5.675
10637SOL    HW232811   1.575   0.021   5.645
10638SOL     OW32812   5.495   4.582   6.703
10638SOL    HW132813   5.409   4.615   6.666
10638SOL    HW232814   5.511   4.623   6.793
10639SOL     OW32815   0.323   5.630   6.617
10639SOL    HW132816   0.249   5.687   6.579
10639SOL    HW232817   0.411   5.677   6.604
10640SOL     OW32818   4.492   5.701   5.286
10640SOL    HW132819   4.571   5.647   5.314
10640SOL    HW232820   4.424   5.641   5.243
10641SOL     OW32821   1.119   1.129   3.478
10641SOL    HW132822   1.175   1.197   3.526
10641SOL    HW232823   1.028   1.167   3.460
10642SOL     OW32824   6.402   2.654   6.290
10642SOL    HW132825   6.335   2.584   6.265
10642SOL    HW232826   6.486   2.609   6.323
10643SOL     OW32827   3.643   5.792   5.250
10643SOL    HW132828   3.626   5.718   5.185
10643SOL    HW232829   3.558   5.840   5.269
10644SOL     OW32830   2.286   4.145   4.005
10644SOL    HW132831   2.293   4.064   4.064
10644SOL    HW232832   2.304   4.227   4.059
10645SOL     OW32833   1.853   2.930   3.051
10645SOL    HW132834   1.849   3.008   3.113
10645SOL    HW232835   1.859   2.962   2.957
10646SOL     OW32836   5.285   1.735   3.422
10646SOL    HW132837   5.197   1.691   3.403
10646SOL    HW232838   5.332   1.684   3.494
10647SOL     OW32839   4.983   5.971   4.941
10647SOL    HW132840   4.939   6.059   4.924
10647SOL    HW232841   5.080   5.976   4.914
10648SOL     OW32842   4.868   2.755   5.913
10648SOL    HW132843   4.867   2.687   5.840
10648SOL    HW232844   4.900   2.843   5.877
10649SOL     OW32845   6.345   3.712   3.485
10649SOL    HW132846   6.396   3.781   3.432
10649SOL    HW232847   6.337   3.742   3.580
10650SOL     OW32848   0.151   0.571   2.051
10650SOL    HW132849   0.205   0.509   2.107
10650SOL    HW232850   0.094   0.519   1.988
10651SOL     OW32851   2.830   5.807   5.145
10651SOL    HW132852   2.764   5.832   5.073
10651SOL    HW232853   2.832   5.708   5.155
10652SOL     OW32854   4.040   0.428   6.923
10652SOL    HW132855   3.963   0.444   6.862
10652SOL    HW232856   4.012   0.366   6.997
10653SOL     OW32857   5.751   6.021   5.035
10653SOL    HW132858   5.793   6.037   5.124
10653SOL    HW232859   5.780   5.932   5.000
10654SOL     OW32860   6.752   2.280   3.652
10654SOL    HW132861   6.764   2.182   3.668
10654SOL    HW232862   6.754   2.298   3.554
10655SOL     OW32863   6.200   4.724   1.089
10655SOL    HW132864   6.112   4.697   1.127
10655SOL    HW232865   6.186   4.765   0.999
10656SOL     OW32866   5.627   0.520   6.080
10656SOL    HW132867   5.674   0.449   6.027
10656SOL    HW232868   5.530   0.521   6.055
10657SOL     OW32869   5.270   0.392   5.532
10657SOL    HW132870   5.316   0.474   5.566
10657SOL    HW232871   5.174   0.393   5.561
10658SOL     OW32872   1.122   1.092   4.943
10658SOL    HW132873   1.131   1.167   5.009
10658SOL    HW232874   1.075   1.015   4.985
10659SOL     OW32875   0.534   5.819   6.663
10659SOL    HW132876   0.580   5.791   6.747
10659SOL    HW232877   0.447   5.863   6.686
10660SOL     OW32878   6.582   3.028   5.938
10660SOL    HW132879   6.568   3.067   6.029
10660SOL    HW232880   6.636   2.944   5.946
10661SOL     OW32881   3.804   6.095   6.346
10661SOL    HW132882   3.876   6.162   6.330
10661SOL    HW232883   3.792   6.081   6.444
10662SOL     OW32884   3.223   1.764   1.403
10662SOL    HW132885   3.175   1.785   1.317
10662SOL    HW232886   3.252   1.849   1.446
10663SOL     OW32887   6.824   3.763   3.913
10663SOL    HW132888   6.834   3.670   3.948
10663SOL    HW232889   6.769   3.761   3.830
10664SOL     OW32890   0.382   6.469   4.106
10664SOL    HW132891   0.475   6.504   4.109
10664SOL    HW232892   0.319   6.543   4.080
10665SOL     OW32893   4.320   3.277   1.098
10665SOL    HW132894   4.396   3.342   1.092
10665SOL    HW232895   4.330   3.221   1.180
10666SOL     OW32896   5.326   4.313   1.659
10666SOL    HW132897   5.372   4.242   1.605
10666SOL    HW232898   5.244   4.275   1.701
10667SOL     OW32899   5.501   2.779   4.163
10667SOL    HW132900   5.592   2.767   4.203
10667SOL    HW232901   5.434   2.790   4.236
10668SOL     OW32902   2.766   3.419   5.910
10668SOL    HW132903   2.835   3.444   5.842
10668SOL    HW232904   2.801   3.439   6.002
10669SOL     OW32905   6.990   2.220   1.758
10669SOL    HW132906   0.040   2.205   1.695
10669SOL    HW232907   6.975   2.319   1.769
10670SOL     OW32908   5.215   4.285   4.196
10670SOL    HW132909   5.312   4.311   4.194
10670SOL    HW232910   5.165   4.349   4.254
10671SOL     OW32911   1.735   2.813   4.232
10671SOL    HW132912   1.826   2.805   4.191
10671SOL    HW232913   1.688   2.724   4.226
10672SOL     OW32914   5.945   5.244   1.705
10672SOL    HW132915   6.020   5.303   1.677
10672SOL    HW232916   5.936   5.248   1.805
10673SOL     OW32917   3.194   0.692   1.733
10673SOL    HW132918   3.112   0.725   1.780
10673SOL    HW232919   3.184   0.595   1.713
10674SOL     OW32920   3.747   3.406   3.738
10674SOL    HW132921   3.682   3.387   3.664
10674SOL    HW232922   3.698   3.417   3.824
10675SOL     OW32923   3.932   6.442   5.502
10675SOL    HW132924   3.868   6.504   5.548
10675SOL    HW232925   3.885   6.358   5.476
10676SOL     OW32926   1.227   1.529   4.799
10676SOL    HW132927   1.274   1.457   4.748
10676SOL    HW232928   1.287   1.560   4.873
10677SOL     OW32929   0.434   1.521   6.239
10677SOL    HW132930   0.411   1.430   6.274
10677SOL    HW232931   0.530   1.540   6.256
10678SOL     OW32932   3.371   5.014   2.731
10678SOL    HW132933   3.452   4.992   2.784
10678SOL    HW232934   3.389   5.093   2.672
10679SOL     OW32935   5.598   4.195   6.958
10679SOL    HW132936   5.520   4.208   7.019
10679SOL    HW232937   5.679   4.241   6.996
10680SOL     OW32938   3.681   1.854   4.974
10680SOL    HW132939   3.736   1.836   5.055
10680SOL    HW232940   3.614   1.781   4.962
10681SOL     OW32941   1.948   3.336   6.108
10681SOL    HW132942   2.047   3.342   6.121
10681SOL    HW232943   1.901   3.365   6.191
10682SOL     OW32944   5.154   3.032   6.209
10682SOL    HW132945   5.164   2.933   6.215
10682SOL    HW232946   5.211   3.075   6.279
10683SOL     OW32947   1.475   6.306   3.714
10683SOL    HW132948   1.444   6.286   3.807
10683SOL    HW232949   1.540   6.235   3.685
10684SOL     OW32950   5.023   3.503   1.238
10684SOL    HW132951   5.069   3.418   1.212
10684SOL    HW232952   4.996   3.498   1.334
10685SOL     OW32953   0.157   0.692   2.438
10685SOL    HW132954   0.150   0.775   2.384
10685SOL    HW232955   0.111   0.705   2.526
10686SOL     OW32956   2.525   2.416   6.971
10686SOL    HW132957   2.499   2.414   6.875
10686SOL    HW232958   2.477   2.344   7.020
10687SOL     OW32959   0.820   3.491   3.414
10687SOL    HW132960   0.765   3.545   3.477
10687SOL    HW232961   0.897   3.450   3.463
10688SOL     OW32962   4.751   1.346   3.270
10688SOL    HW132963   4.723   1.259   3.229
10688SOL    HW232964   4.724   1.421   3.210
10689SOL     OW32965   1.303   1.040   2.667
10689SOL    HW132966   1.285   1.010   2.573
10689SOL    HW232967   1.357   1.125   2.664
10690SOL     OW32968   1.568   6.127   4.873
10690SOL    HW132969   1.636   6.093   4.808
10690SOL    HW232970   1.533   6.052   4.928
10691SOL     OW32971   4.248   0.016   1.229
10691SOL    HW132972   4.186   0.062   1.293
10691SOL    HW232973   4.229   0.046   1.136
10692SOL     OW32974   3.222   2.088   4.124
10692SOL    HW132975   3.261   2.105   4.033
10692SOL    HW232976   3.253   1.999   4.158
10693SOL     OW32977   1.059   3.895   0.091
10693SOL    HW132978   1.101   3.808   0.115
10693SOL    HW232979   1.129   3.967   0.092
10694SOL     OW32980   4.521   2.225   5.471
10694SOL    HW132981   4.539   2.126   5.476
10694SOL    HW232982   4.452   2.250   5.538
10695SOL     OW32983   4.510   4.688   1.454
10695SOL    HW132984   4.587   4.638   1.414
10695SOL    HW232985   4.540   4.734   1.538
10696SOL     OW32986   0.001   5.179   4.591
10696SOL    HW132987   0.064   5.144   4.660
10696SOL    HW232988   0.046   5.250   4.537
10697SOL     OW32989   2.487   5.095   5.050
10697SOL    HW132990   2.559   5.068   5.113
10697SOL    HW232991   2.407   5.127   5.102
10698SOL     OW32992   3.851   4.316   6.717
10698SOL    HW132993   3.776   4.352   6.772
10698SOL    HW232994   3.934   4.310   6.773
10699SOL     OW32995   4.536   3.402   1.086
10699SOL    HW132996   4.596   3.344   1.031
10699SOL    HW232997   4.563   3.395   1.182
10700SOL     OW32998   5.164   0.277   1.406
10700SOL    HW132999   5.129   0.366   1.379
10700SOL    HW233000   5.089   0.221   1.442
10701SOL     OW33001   3.219   0.320   6.443
10701SOL    HW133002   3.261   0.261   6.374
10701SOL    HW233003   3.156   0.383   6.398
10702SOL     OW33004   5.838   3.041   2.482
10702SOL    HW133005   5.822   2.957   2.534
10702SOL    HW233006   5.910   3.094   2.526
10703SOL     OW33007   0.807   2.154   5.121
10703SOL    HW133008   0.758   2.140   5.207
10703SOL    HW233009   0.767   2.095   5.051
10704SOL     OW33010   5.418   0.226   2.397
10704SOL    HW133011   5.371   0.166   2.332
10704SOL    HW233012   5.369   0.226   2.484
10705SOL     OW33013   5.113   3.235   1.172
10705SOL    HW133014   5.116   3.136   1.154
10705SOL    HW233015   5.202   3.275   1.153
10706SOL     OW33016   2.630   0.836   1.494
10706SOL    HW133017   2.531   0.829   1.495
10706SOL    HW233018   2.668   0.768   1.432
10707SOL     OW33019   3.747   7.003   3.580
10707SOL    HW133020   3.746   0.076   3.563
10707SOL    HW233021   3.754   6.954   3.493
10708SOL     OW33022   3.843   1.170   1.241
10708SOL    HW133023   3.810   1.191   1.149
10708SOL    HW233024   3.809   1.238   1.305
10709SOL     OW33025   5.977   4.182   2.922
10709SOL    HW133026   5.955   4.209   3.015
10709SOL    HW233027   6.008   4.262   2.870
10710SOL     OW33028   4.305   1.665   2.982
10710SOL    HW133029   4.212   1.701   2.974
10710SOL    HW233030   4.302   1.565   2.974
10711SOL     OW33031   2.641   6.675   2.971
10711SOL    HW133032   2.724   6.658   3.025
10711SOL    HW233033   2.629   6.601   2.905
10712SOL     OW33034   5.233   1.413   3.539
10712SOL    HW133035   5.295   1.491   3.539
10712SOL    HW233036   5.138   1.445   3.540
10713SOL     OW33037   1.097   4.454   1.110
10713SOL    HW133038   1.048   4.371   1.138
10713SOL    HW233039   1.107   4.453   1.010
10714SOL     OW33040   3.159   4.011   4.893
10714SOL    HW133041   3.177   4.046   4.801
10714SOL    HW233042   3.184   4.081   4.960
10715SOL     OW33043   6.941   0.133   1.827
10715SOL    HW133044   6.948   0.045   1.779
10715SOL    HW233045   6.855   0.136   1.879
10716SOL     OW33046   4.715   0.584   2.749
10716SOL    HW133047   4.669   0.645   2.814
10716SOL    HW233048   4.813   0.602   2.749
10717SOL     OW33049   3.381   3.009   0.281
10717SOL    HW133050   3.453   2.957   0.235
10717SOL    HW233051   3.296   2.955   0.282
10718SOL     OW33052   1.451   4.952   6.431
10718SOL    HW133053   1.450   4.918   6.525
10718SOL    HW233054   1.358   4.956   6.396
10719SOL     OW33055   0.088   4.518   5.387
10719SOL    HW133056   0.100   4.589   5.318
10719SOL    HW233057   0.016   4.454   5.356
10720SOL     OW33058   6.273   5.387   3.086
10720SOL    HW133059   6.345   5.454   3.073
10720SOL    HW233060   6.222   5.376   3.001
10721SOL     OW33061   4.749   2.676   6.643
10721SOL    HW133062   4.656   2.663   6.677
10721SOL    HW233063   4.777   2.596   6.591
10722SOL     OW33064   0.700   4.230   5.696
10722SOL    HW133065   0.614   4.241   5.646
10722SOL    HW233066   0.729   4.135   5.691
10723SOL     OW33067   5.985   6.092   1.637
10723SOL    HW133068   5.999   6.002   1.594
10723SOL    HW233069   5.890   6.122   1.621
10724SOL     OW33070   0.492   6.284   6.085
10724SOL    HW133071   0.445   6.227   6.018
10724SOL    HW233072   0.530   6.365   6.040
10725SOL     OW33073   2.666   0.313   6.424
10725SOL    HW133074   2.750   0.259   6.421
10725SOL    HW233075   2.589   0.252   6.444
10726SOL     OW33076   3.803   0.520   4.308
10726SOL    HW133077   3.870   0.572   4.361
10726SOL    HW233078   3.815   0.538   4.211
10727SOL     OW33079   2.214   6.492   6.813
10727SOL    HW133080   2.288   6.550   6.778
10727SOL    HW233081   2.251   6.404   6.841
10728SOL     OW33082   5.455   6.619   2.252
10728SOL    HW133083   5.367   6.666   2.240
10728SOL    HW233084   5.442   6.521   2.235
10729SOL     OW33085   6.511   1.787   0.443
10729SOL    HW133086   6.479   1.774   0.537
10729SOL    HW233087   6.437   1.823   0.387
10730SOL     OW33088   5.051   0.583   2.953
10730SOL    HW133089   5.020   0.491   2.975
10730SOL    HW233090   4.989   0.650   2.994
10731SOL     OW33091   3.113   6.496   0.588
10731SOL    HW133092   3.186   6.448   0.637
10731SOL    HW233093   3.086   6.442   0.508
10732SOL     OW33094   0.459   3.525   6.104
10732SOL    HW133095   0.430   3.556   6.195
10732SOL    HW233096   0.395   3.456   6.070
10733SOL     OW33097   6.787   0.358   7.014
10733SOL    HW133098   6.815   0.263   0.001
10733SOL    HW233099   6.825   0.393   6.928
10734SOL     OW33100   5.858   2.901   1.971
10734SOL    HW133101   5.765   2.930   1.995
10734SOL    HW233102   5.874   2.918   1.874
10735SOL     OW33103   6.896   5.503   2.498
10735SOL    HW133104   6.865   5.485   2.405
10735SOL    HW233105   6.983   5.456   2.513
10736SOL     OW33106   2.359   1.465   5.326
10736SOL    HW133107   2.312   1.426   5.246
10736SOL    HW233108   2.416   1.542   5.296
10737SOL     OW33109   0.603   1.818   5.847
10737SOL    HW133110   0.550   1.779   5.772
10737SOL    HW233111   0.550   1.892   5.890
10738SOL     OW33112   3.976   6.938   4.027
10738SOL    HW133113   4.065   6.982   4.011
10738SOL    HW233114   3.916   7.002   4.075
10739SOL     OW33115   1.258   0.874   2.068
10739SOL    HW133116   1.333   0.812   2.094
10739SOL    HW233117   1.177   0.851   2.122
10740SOL     OW33118   4.409   6.378   3.859
10740SOL    HW133119   4.469   6.457   3.849
10740SOL    HW233120   4.453   6.309   3.916
10741SOL     OW33121   1.909   0.941   2.699
10741SOL    HW133122   1.814   0.928   2.726
10741SOL    HW233123   1.969   0.900   2.768
10742SOL     OW33124   6.138   5.578   0.115
10742SOL    HW133125   6.191   5.614   0.192
10742SOL    HW233126   6.129   5.649   0.046
10743SOL     OW33127   3.301   0.746   4.684
10743SOL    HW133128   3.362   0.806   4.737
10743SOL    HW233129   3.321   0.651   4.706
10744SOL     OW33130   5.655   0.790   0.243
10744SOL    HW133131   5.738   0.763   0.195
10744SOL    HW233132   5.610   0.864   0.193
10745SOL     OW33133   6.559   5.996   6.100
10745SOL    HW133134   6.603   6.032   6.181
10745SOL    HW233135   6.593   5.903   6.082
10746SOL     OW33136   1.791   4.082   5.541
10746SOL    HW133137   1.787   4.122   5.449
10746SOL    HW233138   1.886   4.069   5.568
10747SOL     OW33139   2.876   2.324   5.266
10747SOL    HW133140   2.808   2.373   5.213
10747SOL    HW233141   2.939   2.389   5.308
10748SOL     OW33142   5.763   1.545   2.759
10748SOL    HW133143   5.742   1.583   2.669
10748SOL    HW233144   5.835   1.477   2.751
10749SOL     OW33145   4.261   0.902   0.079
10749SOL    HW133146   4.174   0.904   0.127
10749SOL    HW233147   4.274   0.813   0.036
10750SOL     OW33148   4.688   5.856   6.533
10750SOL    HW133149   4.612   5.832   6.473
10750SOL    HW233150   4.770   5.870   6.478
10751SOL     OW33151   2.523   5.977   2.473
10751SOL    HW133152   2.618   5.945   2.478
10751SOL    HW233153   2.465   5.907   2.433
10752SOL     OW33154   5.379   5.398   4.247
10752SOL    HW133155   5.461   5.408   4.190
10752SOL    HW233156   5.391   5.449   4.332
10753SOL     OW33157   5.814   3.915   4.986
10753SOL    HW133158   5.870   3.941   4.909
10753SOL    HW233159   5.836   3.972   5.065
10754SOL     OW33160   0.939   6.889   2.361
10754SOL    HW133161   0.952   6.791   2.343
10754SOL    HW233162   0.858   6.922   2.313
10755SOL     OW33163   6.294   5.953   1.537
10755SOL    HW133164   6.269   5.892   1.461
10755SOL    HW233165   6.235   5.936   1.615
10756SOL     OW33166   6.616   6.643   5.043
10756SOL    HW133167   6.614   6.734   5.086
10756SOL    HW233168   6.670   6.581   5.099
10757SOL     OW33169   2.401   2.607   1.971
10757SOL    HW133170   2.487   2.562   1.946
10757SOL    HW233171   2.382   2.592   2.068
10758SOL     OW33172   6.313   5.224   4.071
10758SOL    HW133173   6.221   5.238   4.108
10758SOL    HW233174   6.356   5.312   4.052
10759SOL     OW33175   6.899   0.589   6.053
10759SOL    HW133176   6.998   0.596   6.045
10759SOL    HW233177   6.863   0.534   5.977
10760SOL     OW33178   5.897   1.975   4.642
10760SOL    HW133179   5.883   1.878   4.624
10760SOL    HW233180   5.880   2.027   4.559
10761SOL     OW33181   3.620   5.430   5.563
10761SOL    HW133182   3.649   5.499   5.630
10761SOL    HW233183   3.698   5.402   5.508
10762SOL     OW33184   3.313   0.926   6.289
10762SOL    HW133185   3.270   0.836   6.291
10762SOL    HW233186   3.255   0.991   6.339
10763SOL     OW33187   4.825   4.923   4.207
10763SOL    HW133188   4.753   4.857   4.230
10763SOL    HW233189   4.864   4.961   4.291
10764SOL     OW33190   5.207   0.357   4.612
10764SOL    HW133191   5.132   0.422   4.606
10764SOL    HW233192   5.274   0.389   4.679
10765SOL     OW33193   0.056   3.847   0.037
10765SOL    HW133194   7.002   3.788   0.030
10765SOL    HW233195   0.031   3.933   0.082
10766SOL     OW33196   3.073   3.845   2.386
10766SOL    HW133197   3.063   3.758   2.435
10766SOL    HW233198   3.021   3.841   2.301
10767SOL     OW33199   4.830   2.387   2.057
10767SOL    HW133200   4.795   2.344   2.140
10767SOL    HW233201   4.854   2.482   2.076
10768SOL     OW33202   6.203   4.401   6.132
10768SOL    HW133203   6.165   4.408   6.040
10768SOL    HW233204   6.153   4.461   6.194
10769SOL     OW33205   1.826   2.990   4.422
10769SOL    HW133206   1.762   2.951   4.356
10769SOL    HW233207   1.837   2.927   4.499
10770SOL     OW33208   4.421   6.531   4.201
10770SOL    HW133209   4.333   6.496   4.170
10770SOL    HW233210   4.410   6.579   4.288
10771SOL     OW33211   2.774   2.333   3.709
10771SOL    HW133212   2.857   2.312   3.760
10771SOL    HW233213   2.795   2.334   3.611
10772SOL     OW33214   5.100   5.783   3.272
10772SOL    HW133215   5.002   5.784   3.289
10772SOL    HW233216   5.135   5.877   3.272
10773SOL     OW33217   6.215   5.347   2.800
10773SOL    HW133218   6.292   5.291   2.769
10773SOL    HW233219   6.198   5.420   2.734
10774SOL     OW33220   0.508   0.200   3.500
10774SOL    HW133221   0.589   0.167   3.547
10774SOL    HW233222   0.428   0.147   3.529
10775SOL     OW33223   0.258   2.546   1.025
10775SOL    HW133224   0.275   2.549   1.123
10775SOL    HW233225   0.215   2.631   0.996
10776SOL     OW33226   2.072   0.598   5.289
10776SOL    HW133227   2.071   0.619   5.192
10776SOL    HW233228   2.165   0.578   5.319
10777SOL     OW33229   3.518   5.417   1.623
10777SOL    HW133230   3.504   5.468   1.539
10777SOL    HW233231   3.488   5.322   1.611
10778SOL     OW33232   5.216   5.581   1.565
10778SOL    HW133233   5.192   5.505   1.626
10778SOL    HW233234   5.304   5.620   1.594
10779SOL     OW33235   5.151   2.982   3.369
10779SOL    HW133236   5.051   2.984   3.370
10779SOL    HW233237   5.186   3.017   3.457
10780SOL     OW33238   6.793   0.207   2.252
10780SOL    HW133239   6.719   0.272   2.267
10780SOL    HW233240   6.760   0.132   2.194
10781SOL     OW33241   3.039   0.186   3.987
10781SOL    HW133242   3.074   0.217   3.898
10781SOL    HW233243   2.995   0.097   3.975
10782SOL     OW33244   0.198   5.903   3.385
10782SOL    HW133245   0.169   5.998   3.399
10782SOL    HW233246   0.186   5.879   3.288
10783SOL     OW33247   6.649   3.001   2.504
10783SOL    HW133248   6.592   2.933   2.551
10783SOL    HW233249   6.607   3.023   2.416
10784SOL     OW33250   2.032   1.639   4.938
10784SOL    HW133251   2.114   1.695   4.939
10784SOL    HW233252   2.001   1.623   5.032
10785SOL     OW33253   1.849   3.562   6.262
10785SOL    HW133254   1.750   3.547   6.260
10785SOL    HW233255   1.873   3.632   6.195
10786SOL     OW33256   0.157   4.879   4.328
10786SOL    HW133257   0.151   4.812   4.402
10786SOL    HW233258   0.238   4.859   4.272
10787SOL     OW33259   1.603   2.155   5.812
10787SOL    HW133260   1.687   2.124   5.856
10787SOL    HW233261   1.613   2.249   5.782
10788SOL     OW33262   5.335   4.218   6.282
10788SOL    HW133263   5.333   4.169   6.195
10788SOL    HW233264   5.290   4.162   6.352
10789SOL     OW33265   4.596   0.522   6.358
10789SOL    HW133266   4.516   0.580   6.372
10789SOL    HW233267   4.592   0.481   6.267
10790SOL     OW33268   5.232   7.024   2.596
10790SOL    HW133269   5.149   6.968   2.604
10790SOL    HW233270   5.208   0.088   2.558
10791SOL     OW33271   0.795   5.589   2.952
10791SOL    HW133272   0.741   5.508   2.931
10791SOL    HW233273   0.784   5.656   2.878
10792SOL     OW33274   4.672   4.801   6.385
10792SOL    HW133275   4.597   4.782   6.322
10792SOL    HW233276   4.678   4.728   6.453
10793SOL     OW33277   5.542   4.461   4.508
10793SOL    HW133278   5.578   4.470   4.601
10793SOL    HW233279   5.476   4.386   4.505
10794SOL     OW33280   3.357   3.229   4.287
10794SOL    HW133281   3.420   3.244   4.364
10794SOL    HW233282   3.270   3.194   4.321
10795SOL     OW33283   6.994   4.777   2.610
10795SOL    HW133284   0.065   4.805   2.601
10795SOL    HW233285   6.990   4.681   2.636
10796SOL     OW33286   1.147   6.451   5.463
10796SOL    HW133287   1.098   6.406   5.388
10796SOL    HW233288   1.173   6.543   5.434
10797SOL     OW33289   3.444   2.696   0.273
10797SOL    HW133290   3.349   2.725   0.262
10797SOL    HW233291   3.500   2.740   0.204
10798SOL     OW33292   5.920   1.874   0.807
10798SOL    HW133293   6.008   1.898   0.849
10798SOL    HW233294   5.863   1.826   0.873
10799SOL     OW33295   5.234   1.670   1.072
10799SOL    HW133296   5.229   1.595   1.007
10799SOL    HW233297   5.298   1.739   1.039
10800SOL     OW33298   6.075   6.702   1.710
10800SOL    HW133299   6.167   6.740   1.720
10800SOL    HW233300   6.042   6.717   1.616
10801SOL     OW33301   2.162   0.455   1.430
10801SOL    HW133302   2.156   0.472   1.332
10801SOL    HW233303   2.221   0.377   1.448
10802SOL     OW33304   5.253   1.465   3.825
10802SOL    HW133305   5.202   1.456   3.740
10802SOL    HW233306   5.288   1.558   3.835
10803SOL     OW33307   2.322   5.132   4.768
10803SOL    HW133308   2.384   5.057   4.792
10803SOL    HW233309   2.279   5.167   4.851
10804SOL     OW33310   5.859   3.050   4.181
10804SOL    HW133311   5.913   3.001   4.112
10804SOL    HW233312   5.773   3.082   4.141
10805SOL     OW33313   6.867   6.482   6.471
10805SOL    HW133314   6.941   6.415   6.467
10805SOL    HW233315   6.906   6.573   6.483
10806SOL     OW33316   2.067   5.031   1.299
10806SOL    HW133317   2.156   5.076   1.298
10806SOL    HW233318   2.058   4.972   1.219
10807SOL     OW33319   3.374   5.333   4.949
10807SOL    HW133320   3.350   5.280   5.031
10807SOL    HW233321   3.373   5.431   4.971
10808SOL     OW33322   1.830   3.197   0.585
10808SOL    HW133323   1.880   3.280   0.560
10808SOL    HW233324   1.732   3.213   0.574
10809SOL     OW33325   1.688   1.470   4.619
10809SOL    HW133326   1.731   1.441   4.534
10809SOL    HW233327   1.658   1.565   4.611
10810SOL     OW33328   6.779   0.292   3.125
10810SOL    HW133329   6.683   0.316   3.143
10810SOL    HW233330   6.791   0.194   3.139
10811SOL     OW33331   4.394   5.618   4.746
10811SOL    HW133332   4.384   5.560   4.827
10811SOL    HW233333   4.350   5.575   4.667
10812SOL     OW33334   0.502   2.710   0.768
10812SOL    HW133335   0.456   2.789   0.808
10812SOL    HW233336   0.441   2.631   0.772
10813SOL     OW33337   1.741   3.633   6.856
10813SOL    HW133338   1.765   3.723   6.818
10813SOL    HW233339   1.665   3.644   6.921
10814SOL     OW33340   3.097   1.619   2.482
10814SOL    HW133341   3.137   1.535   2.518
10814SOL    HW233342   3.162   1.664   2.421
10815SOL     OW33343   5.224   1.395   4.365
10815SOL    HW133344   5.223   1.309   4.315
10815SOL    HW233345   5.131   1.431   4.372
10816SOL     OW33346   2.847   2.119   5.818
10816SOL    HW133347   2.895   2.128   5.906
10816SOL    HW233348   2.805   2.207   5.794
10817SOL     OW33349   2.216   6.543   4.949
10817SOL    HW133350   2.239   6.536   4.852
10817SOL    HW233351   2.117   6.534   4.961
10818SOL     OW33352   5.005   3.880   0.676
10818SOL    HW133353   5.016   3.978   0.663
10818SOL    HW233354   5.051   3.830   0.602
10819SOL     OW33355   6.600   5.478   5.393
10819SOL    HW133356   6.610   5.561   5.449
10819SOL    HW233357   6.658   5.486   5.312
10820SOL     OW33358   1.623   4.991   5.909
10820SOL    HW133359   1.697   4.938   5.867
10820SOL    HW233360   1.572   5.038   5.837
10821SOL     OW33361   4.436   5.787   4.142
10821SOL    HW133362   4.421   5.774   4.044
10821SOL    HW233363   4.357   5.753   4.193
10822SOL     OW33364   5.693   0.313   3.003
10822SOL    HW133365   5.712   0.337   3.098
10822SOL    HW233366   5.772   0.265   2.964
10823SOL     OW33367   5.519   6.243   2.748
10823SOL    HW133368   5.619   6.241   2.747
10823SOL    HW233369   5.486   6.215   2.838
10824SOL     OW33370   1.491   2.093   4.066
10824SOL    HW133371   1.450   2.181   4.042
10824SOL    HW233372   1.420   2.030   4.097
10825SOL     OW33373   6.887   1.388   6.932
10825SOL    HW133374   6.852   1.327   7.003
10825SOL    HW233375   6.813   1.447   6.900
10826SOL     OW33376   6.711   3.712   2.978
10826SOL    HW133377   6.675   3.637   2.922
10826SOL    HW233378   6.811   3.715   2.969
10827SOL     OW33379   0.526   3.015   3.428
10827SOL    HW133380   0.434   3.021   3.389
10827SOL    HW233381   0.586   3.079   3.380
10828SOL     OW33382   0.017   4.070   5.152
10828SOL    HW133383   6.973   4.074   5.081
10828SOL    HW233384   0.066   3.983   5.146
10829SOL     OW33385   3.558   2.956   5.403
10829SOL    HW133386   3.460   2.956   5.384
10829SOL    HW233387   3.574   2.925   5.497
10830SOL     OW33388   5.076   2.123   3.785
10830SOL    HW133389   5.033   2.193   3.843
10830SOL    HW233390   5.108   2.165   3.700
10831SOL     OW33391   4.453   0.251   3.017
10831SOL    HW133392   4.444   0.289   3.109
10831SOL    HW233393   4.505   0.313   2.960
10832SOL     OW33394   0.132   4.243   6.179
10832SOL    HW133395   0.204   4.235   6.110
10832SOL    HW233396   0.173   4.264   6.268
10833SOL     OW33397   0.991   0.887   6.481
10833SOL    HW133398   0.985   0.852   6.387
10833SOL    HW233399   1.008   0.985   6.479
10834SOL     OW33400   6.576   5.779   2.630
10834SOL    HW133401   6.569   5.726   2.546
10834SOL    HW233402   6.486   5.815   2.655
10835SOL     OW33403   6.857   2.504   5.158
10835SOL    HW133404   6.804   2.455   5.090
10835SOL    HW233405   6.833   2.471   5.250
10836SOL     OW33406   6.686   2.171   3.337
10836SOL    HW133407   6.628   2.120   3.274
10836SOL    HW233408   6.701   2.263   3.302
10837SOL     OW33409   0.445   2.937   3.681
10837SOL    HW133410   0.461   2.962   3.585
10837SOL    HW233411   0.371   2.870   3.685
10838SOL     OW33412   6.725   6.705   2.522
10838SOL    HW133413   6.723   6.609   2.551
10838SOL    HW233414   6.803   6.751   2.564
10839SOL     OW33415   4.155   2.424   6.703
10839SOL    HW133416   4.106   2.496   6.752
10839SOL    HW233417   4.107   2.406   6.616
10840SOL     OW33418   3.040   0.520   1.943
10840SOL    HW133419   2.948   0.485   1.959
10840SOL    HW233420   3.073   0.567   2.025
10841SOL     OW33421   2.603   6.060   4.382
10841SOL    HW133422   2.563   5.968   4.378
10841SOL    HW233423   2.539   6.121   4.429
10842SOL     OW33424   6.698   4.722   2.114
10842SOL    HW133425   6.765   4.757   2.179
10842SOL    HW233426   6.725   4.748   2.021
10843SOL     OW33427   2.280   1.116   0.961
10843SOL    HW133428   2.213   1.044   0.975
10843SOL    HW233429   2.239   1.206   0.978
10844SOL     OW33430   1.494   5.473   4.444
10844SOL    HW133431   1.424   5.457   4.514
10844SOL    HW233432   1.563   5.536   4.479
10845SOL     OW33433   4.091   0.483   4.168
10845SOL    HW133434   3.993   0.493   4.147
10845SOL    HW233435   4.145   0.527   4.096
10846SOL     OW33436   5.371   6.727   6.144
10846SOL    HW133437   5.284   6.694   6.106
10846SOL    HW233438   5.352   6.785   6.223
10847SOL     OW33439   3.041   0.212   6.797
10847SOL    HW133440   3.141   0.221   6.790
10847SOL    HW233441   3.019   0.140   6.864
10848SOL     OW33442   1.940   2.712   2.665
10848SOL    HW133443   2.018   2.749   2.715
10848SOL    HW233444   1.953   2.615   2.649
10849SOL     OW33445   1.193   6.579   3.397
10849SOL    HW133446   1.191   6.545   3.491
10849SOL    HW233447   1.104   6.621   3.375
10850SOL     OW33448   4.753   4.149   0.085
10850SOL    HW133449   4.842   4.112   0.112
10850SOL    HW233450   4.754   4.171   7.013
10851SOL     OW33451   1.103   4.577   0.720
10851SOL    HW133452   1.041   4.655   0.705
10851SOL    HW233453   1.196   4.611   0.733
10852SOL     OW33454   2.462   0.306   1.290
10852SOL    HW133455   2.424   0.310   1.383
10852SOL    HW233456   2.549   0.355   1.287
10853SOL     OW33457   3.022   0.555   6.407
10853SOL    HW133458   2.953   0.595   6.347
10853SOL    HW233459   2.992   0.562   6.502
10854SOL     OW33460   2.899   6.750   5.575
10854SOL    HW133461   2.815   6.783   5.620
10854SOL    HW233462   2.875   6.683   5.505
10855SOL     OW33463   4.848   0.795   6.681
10855SOL    HW133464   4.888   0.886   6.667
10855SOL    HW233465   4.764   0.787   6.628
10856SOL     OW33466   0.514   0.395   0.791
10856SOL    HW133467   0.551   0.307   0.822
10856SOL    HW233468   0.498   0.454   0.870
10857SOL     OW33469   5.880   1.375   1.400
10857SOL    HW133470   5.923   1.376   1.490
10857SOL    HW233471   5.884   1.282   1.362
10858SOL     OW33472   2.112   6.367   2.310
10858SOL    HW133473   2.152   6.457   2.328
10858SOL    HW233474   2.091   6.323   2.397
10859SOL     OW33475   2.176   4.518   3.591
10859SOL    HW133476   2.147   4.422   3.599
10859SOL    HW233477   2.176   4.560   3.682
10860SOL     OW33478   0.980   3.752   2.966
10860SOL    HW133479   1.002   3.681   3.033
10860SOL    HW233480   1.059   3.767   2.906
10861SOL     OW33481   4.572   3.360   5.394
10861SOL    HW133482   4.634   3.307   5.336
10861SOL    HW233483   4.573   3.456   5.365
10862SOL     OW33484   0.950   0.538   5.722
10862SOL    HW133485   0.916   0.587   5.803
10862SOL    HW233486   1.031   0.584   5.687
10863SOL     OW33487   1.924   6.824   4.541
10863SOL    HW133488   1.826   6.819   4.520
10863SOL    HW233489   1.972   6.752   4.491
10864SOL     OW33490   3.257   6.997   4.060
10864SOL    HW133491   3.165   6.961   4.041
10864SOL    HW233492   3.325   6.927   4.042
10865SOL     OW33493   6.789   0.395   5.768
10865SOL    HW133494   6.728   0.316   5.758
10865SOL    HW233495   6.748   0.475   5.724
10866SOL     OW33496   6.965   5.297   6.865
10866SOL    HW133497   6.950   5.293   6.766
10866SOL    HW233498   7.021   5.378   6.887
10867SOL     OW33499   3.045   1.275   0.152
10867SOL    HW133500   3.112   1.287   0.226
10867SOL    HW233501   3.093   1.258   0.066
10868SOL     OW33502   1.882   2.428   3.819
10868SOL    HW133503   1.864   2.480   3.736
10868SOL    HW233504   1.967   2.460   3.860
10869NA      NA33505   6.421   2.387   5.154
10870NA      NA33506   4.546   4.487   5.113
10871NA      NA33507   2.015   3.503   1.931
10872NA      NA33508   4.904   3.404   4.918
10873NA      NA33509   4.382   2.363   5.126
10874NA      NA33510   3.797   4.903   2.059
10875NA      NA33511   6.729   6.187   4.853
10876NA      NA33512   3.589   3.165   5.278
10877NA      NA33513   4.560   6.113   6.063
10878NA      NA33514   2.833   6.783   4.760
10879NA      NA33515   0.454   5.052   3.362
10880NA      NA33516   2.025   0.498   2.173
10881NA      NA33517   4.053   4.066   1.304
10882NA      NA33518   3.859   3.314   3.173
   7.02525   7.02525   7.02525
