Generated by trjconv : CNT in water t= 601.00000
33518
    1C        C    1   2.847   2.771   4.747
    1C        C    2   2.897   2.715   4.866
    1C        C    3   2.845   2.771   4.984
    1C        C    4   2.852   2.776   4.260
    1C        C    5   2.901   2.724   4.382
    1C        C    6   2.850   2.775   4.504
    1C        C    7   3.014   2.639   4.627
    1C        C    8   2.899   2.722   4.625
    1C        C    9   3.075   2.598   4.747
    1C        C   10   3.007   2.627   4.867
    1C        C   11   3.181   2.492   4.979
    1C        C   12   3.057   2.558   4.979
    1C        C   13   2.854   2.772   3.772
    1C        C   14   2.906   2.724   3.895
    1C        C   15   2.854   2.775   4.016
    1C        C   16   3.019   2.644   4.140
    1C        C   17   2.909   2.731   4.138
    1C        C   18   3.081   2.614   4.263
    1C        C   19   3.020   2.649   4.386
    1C        C   20   3.213   2.558   4.506
    1C        C   21   3.082   2.609   4.507
    1C        C   22   3.281   2.530   4.627
    1C        C   23   3.207   2.545   4.747
    1C        C   24   3.412   2.487   4.866
    1C        C   25   3.270   2.504   4.868
    1C        C   26   3.486   2.475   4.985
    1C        C   27   2.853   2.771   3.283
    1C        C   28   2.910   2.727   3.405
    1C        C   29   2.858   2.773   3.528
    1C        C   30   3.018   2.635   3.650
    1C        C   31   2.906   2.721   3.651
    1C        C   32   3.078   2.600   3.773
    1C        C   33   3.018   2.638   3.895
    1C        C   34   3.210   2.551   4.017
    1C        C   35   3.078   2.602   4.018
    1C        C   36   3.277   2.533   4.140
    1C        C   37   3.211   2.559   4.262
    1C        C   38   3.417   2.503   4.382
    1C        C   39   3.279   2.533   4.384
    1C        C   40   3.487   2.497   4.504
    1C        C   41   3.417   2.491   4.627
    1C        C   42   3.632   2.477   4.745
    1C        C   43   3.489   2.478   4.747
    1C        C   44   3.705   2.482   4.865
    1C        C   45   3.625   2.476   4.980
    1C        C   46   2.842   2.755   2.795
    1C        C   47   2.898   2.711   2.917
    1C        C   48   2.848   2.765   3.037
    1C        C   49   3.017   2.638   3.162
    1C        C   50   2.903   2.722   3.160
    1C        C   51   3.083   2.603   3.282
    1C        C   52   3.023   2.642   3.404
    1C        C   53   3.210   2.548   3.528
    1C        C   54   3.079   2.602   3.527
    1C        C   55   3.278   2.529   3.651
    1C        C   56   3.209   2.546   3.773
    1C        C   57   3.416   2.502   3.895
    1C        C   58   3.276   2.523   3.895
    1C        C   59   3.486   2.493   4.017
    1C        C   60   3.414   2.500   4.138
    1C        C   61   3.628   2.496   4.259
    1C        C   62   3.487   2.492   4.259
    1C        C   63   3.699   2.500   4.382
    1C        C   64   3.628   2.493   4.503
    1C        C   65   3.837   2.537   4.620
    1C        C   66   3.701   2.500   4.624
    1C        C   67   3.900   2.563   4.744
    1C        C   68   3.841   2.521   4.865
    1C        C   69   4.050   2.586   4.977
    1C        C   70   3.922   2.528   4.979
    1C        C   71   2.825   2.735   2.308
    1C        C   72   2.883   2.694   2.429
    1C        C   73   2.831   2.741   2.552
    1C        C   74   3.010   2.624   2.673
    1C        C   75   2.892   2.702   2.673
    1C        C   76   3.078   2.595   2.794
    1C        C   77   3.017   2.634   2.915
    1C        C   78   3.203   2.541   3.037
    1C        C   79   3.077   2.605   3.039
    1C        C   80   3.275   2.522   3.157
    1C        C   81   3.214   2.550   3.282
    1C        C   82   3.414   2.493   3.402
    1C        C   83   3.276   2.523   3.406
    1C        C   84   3.483   2.481   3.525
    1C        C   85   3.415   2.494   3.648
    1C        C   86   3.625   2.492   3.770
    1C        C   87   3.483   2.495   3.771
    1C        C   88   3.697   2.499   3.891
    1C        C   89   3.627   2.491   4.013
    1C        C   90   3.831   2.546   4.136
    1C        C   91   3.697   2.503   4.136
    1C        C   92   3.900   2.570   4.257
    1C        C   93   3.833   2.545   4.379
    1C        C   94   4.025   2.638   4.499
    1C        C   95   3.904   2.565   4.499
    1C        C   96   4.087   2.674   4.621
    1C        C   97   4.026   2.629   4.740
    1C        C   98   4.184   2.770   4.860
    1C        C   99   4.093   2.660   4.862
    1C        C  100   4.215   2.838   4.978
    1C        C  101   2.822   2.727   2.070
    1C        C  102   2.990   2.589   2.189
    1C        C  103   2.877   2.677   2.189
    1C        C  104   3.061   2.572   2.312
    1C        C  105   3.001   2.616   2.432
    1C        C  106   3.202   2.535   2.549
    1C        C  107   3.071   2.588   2.551
    1C        C  108   3.270   2.509   2.670
    1C        C  109   3.206   2.535   2.793
    1C        C  110   3.411   2.490   2.912
    1C        C  111   3.272   2.516   2.916
    1C        C  112   3.482   2.483   3.034
    1C        C  113   3.413   2.494   3.157
    1C        C  114   3.624   2.497   3.277
    1C        C  115   3.483   2.486   3.279
    1C        C  116   3.691   2.506   3.401
    1C        C  117   3.624   2.488   3.524
    1C        C  118   3.827   2.547   3.647
    1C        C  119   3.694   2.500   3.647
    1C        C  120   3.894   2.571   3.769
    1C        C  121   3.832   2.542   3.892
    1C        C  122   4.021   2.641   4.011
    1C        C  123   3.896   2.575   4.014
    1C        C  124   4.082   2.678   4.133
    1C        C  125   4.025   2.634   4.255
    1C        C  126   4.192   2.768   4.374
    1C        C  127   4.083   2.678   4.377
    1C        C  128   4.240   2.821   4.496
    1C        C  129   4.190   2.770   4.617
    1C        C  130   4.321   2.938   4.738
    1C        C  131   4.236   2.824   4.739
    1C        C  132   4.350   3.005   4.859
    1C        C  133   4.285   2.958   4.974
    1C        C  134   3.173   2.467   2.081
    1C        C  135   3.038   2.505   2.084
    1C        C  136   3.260   2.480   2.190
    1C        C  137   3.193   2.520   2.308
    1C        C  138   3.404   2.476   2.425
    1C        C  139   3.265   2.499   2.428
    1C        C  140   3.478   2.474   2.545
    1C        C  141   3.410   2.489   2.669
    1C        C  142   3.623   2.491   2.788
    1C        C  143   3.482   2.485   2.790
    1C        C  144   3.693   2.497   2.911
    1C        C  145   3.624   2.486   3.033
    1C        C  146   3.832   2.531   3.157
    1C        C  147   3.695   2.498   3.155
    1C        C  148   3.897   2.562   3.279
    1C        C  149   3.828   2.540   3.400
    1C        C  150   4.021   2.626   3.522
    1C        C  151   3.893   2.565   3.523
    1C        C  152   4.081   2.668   3.643
    1C        C  153   4.021   2.634   3.766
    1C        C  154   4.188   2.767   3.887
    1C        C  155   4.080   2.676   3.888
    1C        C  156   4.233   2.824   4.008
    1C        C  157   4.188   2.771   4.132
    1C        C  158   4.332   2.928   4.251
    1C        C  159   4.243   2.818   4.253
    1C        C  160   4.367   2.992   4.373
    1C        C  161   4.325   2.934   4.495
    1C        C  162   4.436   3.116   4.614
    1C        C  163   4.370   2.991   4.616
    1C        C  164   4.465   3.185   4.733
    1C        C  165   4.429   3.121   4.854
    1C        C  166   4.512   3.322   4.972
    1C        C  167   4.478   3.188   4.967
    1C        C  168   3.477   2.432   2.071
    1C        C  169   3.400   2.462   2.184
    1C        C  170   3.617   2.464   2.302
    1C        C  171   3.475   2.462   2.303
    1C        C  172   3.690   2.485   2.421
    1C        C  173   3.619   2.484   2.543
    1C        C  174   3.827   2.531   2.665
    1C        C  175   3.691   2.494   2.664
    1C        C  176   3.894   2.557   2.787
    1C        C  177   3.829   2.536   2.910
    1C        C  178   4.021   2.623   3.032
    1C        C  179   3.895   2.559   3.033
    1C        C  180   4.081   2.662   3.154
    1C        C  181   4.020   2.630   3.277
    1C        C  182   4.190   2.755   3.397
    1C        C  183   4.078   2.669   3.400
    1C        C  184   4.237   2.809   3.519
    1C        C  185   4.185   2.763   3.643
    1C        C  186   4.328   2.922   3.763
    1C        C  187   4.238   2.813   3.764
    1C        C  188   4.370   2.982   3.884
    1C        C  189   4.327   2.929   4.008
    1C        C  190   4.442   3.109   4.130
    1C        C  191   4.373   2.986   4.129
    1C        C  192   4.473   3.176   4.250
    1C        C  193   4.439   3.113   4.372
    1C        C  194   4.511   3.316   4.491
    1C        C  195   4.469   3.181   4.493
    1C        C  196   4.529   3.388   4.611
    1C        C  197   4.507   3.321   4.734
    1C        C  198   4.559   3.535   4.849
    1C        C  199   4.534   3.394   4.853
    1C        C  200   4.582   3.617   4.964
    1C        C  201   3.616   2.414   2.070
    1C        C  202   3.825   2.513   2.180
    1C        C  203   3.692   2.462   2.181
    1C        C  204   3.897   2.537   2.300
    1C        C  205   3.827   2.519   2.421
    1C        C  206   4.019   2.615   2.542
    1C        C  207   3.895   2.547   2.542
    1C        C  208   4.078   2.657   2.663
    1C        C  209   4.017   2.626   2.787
    1C        C  210   4.185   2.755   2.908
    1C        C  211   4.077   2.665   2.909
    1C        C  212   4.241   2.802   3.029
    1C        C  213   4.191   2.750   3.151
    1C        C  214   4.326   2.913   3.270
    1C        C  215   4.241   2.801   3.274
    1C        C  216   4.363   2.975   3.392
    1C        C  217   4.323   2.920   3.516
    1C        C  218   4.426   3.105   3.637
    1C        C  219   4.363   2.978   3.638
    1C        C  220   4.462   3.169   3.758
    1C        C  221   4.438   3.105   3.882
    1C        C  222   4.508   3.305   4.001
    1C        C  223   4.468   3.170   4.005
    1C        C  224   4.524   3.378   4.121
    1C        C  225   4.513   3.311   4.244
    1C        C  226   4.524   3.523   4.364
    1C        C  227   4.516   3.382   4.367
    1C        C  228   4.523   3.596   4.485
    1C        C  229   4.532   3.529   4.609
    1C        C  230   4.502   3.742   4.726
    1C        C  231   4.539   3.605   4.727
    1C        C  232   4.496   3.817   4.846
    1C        C  233   4.542   3.752   4.961
    1C        C  234   4.019   2.609   2.062
    1C        C  235   3.894   2.547   2.063
    1C        C  236   4.081   2.652   2.180
    1C        C  237   4.021   2.608   2.300
    1C        C  238   4.197   2.732   2.422
    1C        C  239   4.081   2.650   2.420
    1C        C  240   4.248   2.787   2.541
    1C        C  241   4.190   2.743   2.663
    1C        C  242   4.330   2.905   2.782
    1C        C  243   4.239   2.797   2.784
    1C        C  244   4.372   2.963   2.903
    1C        C  245   4.334   2.909   3.028
    1C        C  246   4.436   3.095   3.146
    1C        C  247   4.374   2.969   3.149
    1C        C  248   4.460   3.162   3.269
    1C        C  249   4.429   3.100   3.392
    1C        C  250   4.494   3.303   3.515
    1C        C  251   4.454   3.167   3.514
    1C        C  252   4.511   3.374   3.636
    1C        C  253   4.502   3.304   3.758
    1C        C  254   4.527   3.517   3.879
    1C        C  255   4.521   3.375   3.879
    1C        C  256   4.525   3.590   4.000
    1C        C  257   4.525   3.520   4.122
    1C        C  258   4.498   3.734   4.242
    1C        C  259   4.518   3.594   4.242
    1C        C  260   4.485   3.809   4.361
    1C        C  261   4.497   3.735   4.481
    1C        C  262   4.423   3.936   4.604
    1C        C  263   4.476   3.805   4.602
    1C        C  264   4.398   4.008   4.722
    1C        C  265   4.432   3.943   4.843
    1C        C  266   4.321   4.132   4.957
    1C        C  267   4.393   4.013   4.958
    1C        C  268   4.261   2.777   2.063
    1C        C  269   4.196   2.734   2.180
    1C        C  270   4.345   2.888   2.297
    1C        C  271   4.252   2.780   2.301
    1C        C  272   4.387   2.946   2.419
    1C        C  273   4.344   2.891   2.541
    1C        C  274   4.447   3.081   2.659
    1C        C  275   4.381   2.957   2.660
    1C        C  276   4.470   3.150   2.781
    1C        C  277   4.439   3.088   2.904
    1C        C  278   4.503   3.294   3.023
    1C        C  279   4.467   3.157   3.023
    1C        C  280   4.515   3.363   3.145
    1C        C  281   4.504   3.296   3.269
    1C        C  282   4.519   3.509   3.387
    1C        C  283   4.509   3.368   3.390
    1C        C  284   4.521   3.582   3.508
    1C        C  285   4.521   3.515   3.633
    1C        C  286   4.494   3.724   3.753
    1C        C  287   4.518   3.585   3.755
    1C        C  288   4.471   3.792   3.874
    1C        C  289   4.494   3.728   3.998
    1C        C  290   4.430   3.931   4.116
    1C        C  291   4.483   3.800   4.118
    1C        C  292   4.398   3.997   4.237
    1C        C  293   4.428   3.939   4.362
    1C        C  294   4.323   4.125   4.480
    1C        C  295   4.396   4.004   4.483
    1C        C  296   4.287   4.189   4.601
    1C        C  297   4.332   4.134   4.723
    1C        C  298   4.196   4.312   4.837
    1C        C  299   4.281   4.197   4.839
    1C        C  300   4.170   4.404   4.944
    1C        C  301   4.352   2.882   2.061
    1C        C  302   4.471   3.067   2.178
    1C        C  303   4.400   2.942   2.178
    1C        C  304   4.490   3.139   2.299
    1C        C  305   4.453   3.071   2.417
    1C        C  306   4.513   3.279   2.537
    1C        C  307   4.481   3.142   2.536
    1C        C  308   4.518   3.354   2.657
    1C        C  309   4.505   3.287   2.780
    1C        C  310   4.530   3.501   2.897
    1C        C  311   4.522   3.360   2.899
    1C        C  312   4.526   3.573   3.018
    1C        C  313   4.524   3.504   3.142
    1C        C  314   4.491   3.715   3.263
    1C        C  315   4.519   3.577   3.263
    1C        C  316   4.473   3.786   3.384
    1C        C  317   4.495   3.721   3.507
    1C        C  318   4.426   3.922   3.625
    1C        C  319   4.477   3.790   3.629
    1C        C  320   4.390   3.986   3.746
    1C        C  321   4.419   3.924   3.870
    1C        C  322   4.318   4.110   3.991
    1C        C  323   4.394   3.990   3.992
    1C        C  324   4.276   4.171   4.112
    1C        C  325   4.319   4.115   4.234
    1C        C  326   4.184   4.278   4.355
    1C        C  327   4.284   4.178   4.355
    1C        C  328   4.131   4.334   4.473
    1C        C  329   4.189   4.291   4.594
    1C        C  330   4.022   4.431   4.711
    1C        C  331   4.139   4.350   4.713
    1C        C  332   3.966   4.486   4.829
    1C        C  333   4.051   4.477   4.940
    1C        C  334   4.548   3.269   2.058
    1C        C  335   4.528   3.131   2.064
    1C        C  336   4.542   3.348   2.174
    1C        C  337   4.516   3.279   2.295
    1C        C  338   4.523   3.493   2.410
    1C        C  339   4.520   3.352   2.416
    1C        C  340   4.524   3.567   2.531
    1C        C  341   4.529   3.495   2.652
    1C        C  342   4.497   3.707   2.773
    1C        C  343   4.523   3.568   2.773
    1C        C  344   4.478   3.777   2.894
    1C        C  345   4.497   3.711   3.018
    1C        C  346   4.421   3.911   3.138
    1C        C  347   4.473   3.779   3.139
    1C        C  348   4.387   3.976   3.259
    1C        C  349   4.423   3.919   3.383
    1C        C  350   4.312   4.101   3.499
    1C        C  351   4.392   3.985   3.504
    1C        C  352   4.270   4.159   3.621
    1C        C  353   4.312   4.104   3.744
    1C        C  354   4.174   4.261   3.865
    1C        C  355   4.270   4.158   3.867
    1C        C  356   4.122   4.314   3.986
    1C        C  357   4.173   4.268   4.109
    1C        C  358   4.013   4.402   4.230
    1C        C  359   4.127   4.319   4.232
    1C        C  360   3.951   4.444   4.350
    1C        C  361   4.016   4.416   4.472
    1C        C  362   3.825   4.517   4.592
    1C        C  363   3.955   4.461   4.591
    1C        C  364   3.760   4.547   4.714
    1C        C  365   3.836   4.541   4.833
    1C        C  366   3.627   4.594   4.948
    1C        C  367   3.764   4.574   4.948
    1C        C  368   4.509   3.564   2.055
    1C        C  369   4.528   3.488   2.171
    1C        C  370   4.508   3.706   2.287
    1C        C  371   4.519   3.565   2.289
    1C        C  372   4.490   3.777   2.408
    1C        C  373   4.503   3.706   2.530
    1C        C  374   4.424   3.905   2.650
    1C        C  375   4.480   3.776   2.651
    1C        C  376   4.394   3.972   2.771
    1C        C  377   4.427   3.909   2.893
    1C        C  378   4.312   4.089   3.009
    1C        C  379   4.388   3.970   3.014
    1C        C  380   4.261   4.143   3.129
    1C        C  381   4.303   4.090   3.253
    1C        C  382   4.169   4.253   3.374
    1C        C  383   4.269   4.153   3.375
    1C        C  384   4.116   4.299   3.496
    1C        C  385   4.169   4.258   3.620
    1C        C  386   4.002   4.386   3.739
    1C        C  387   4.119   4.306   3.743
    1C        C  388   3.943   4.425   3.862
    1C        C  389   4.005   4.393   3.985
    1C        C  390   3.816   4.483   4.106
    1C        C  391   3.945   4.427   4.108
    1C        C  392   3.750   4.511   4.228
    1C        C  393   3.821   4.500   4.350
    1C        C  394   3.616   4.555   4.471
    1C        C  395   3.756   4.536   4.470
    1C        C  396   3.547   4.565   4.594
    1C        C  397   3.621   4.567   4.714
    1C        C  398   3.408   4.553   4.837
    1C        C  399   3.547   4.578   4.834
    1C        C  400   3.340   4.523   4.956
    1C        C  401   4.504   3.703   2.051
    1C        C  402   4.453   3.915   2.166
    1C        C  403   4.495   3.780   2.168
    1C        C  404   4.409   3.974   2.286
    1C        C  405   4.438   3.908   2.407
    1C        C  406   4.319   4.088   2.523
    1C        C  407   4.399   3.971   2.527
    1C        C  408   4.271   4.141   2.645
    1C        C  409   4.313   4.088   2.769
    1C        C  410   4.173   4.252   2.887
    1C        C  411   4.269   4.148   2.888
    1C        C  412   4.120   4.299   3.009
    1C        C  413   4.167   4.248   3.131
    1C        C  414   4.000   4.381   3.249
    1C        C  415   4.118   4.303   3.252
    1C        C  416   3.940   4.413   3.372
    1C        C  417   4.002   4.384   3.495
    1C        C  418   3.812   4.480   3.617
    1C        C  419   3.941   4.422   3.617
    1C        C  420   3.747   4.504   3.740
    1C        C  421   3.815   4.483   3.862
    1C        C  422   3.611   4.540   3.983
    1C        C  423   3.748   4.507   3.985
    1C        C  424   3.542   4.546   4.106
    1C        C  425   3.612   4.539   4.228
    1C        C  426   3.401   4.552   4.354
    1C        C  427   3.542   4.556   4.350
    1C        C  428   3.331   4.547   4.477
    1C        C  429   3.406   4.555   4.596
    1C        C  430   3.195   4.515   4.723
    1C        C  431   3.334   4.543   4.717
    1C        C  432   3.122   4.494   4.843
    1C        C  433   3.204   4.492   4.956
    1C        C  434   4.383   4.122   2.050
    1C        C  435   4.446   3.997   2.052
    1C        C  436   4.302   4.161   2.161
    1C        C  437   4.330   4.092   2.282
    1C        C  438   4.178   4.246   2.400
    1C        C  439   4.282   4.150   2.402
    1C        C  440   4.122   4.292   2.521
    1C        C  441   4.174   4.244   2.643
    1C        C  442   4.004   4.375   2.764
    1C        C  443   4.120   4.295   2.763
    1C        C  444   3.940   4.413   2.884
    1C        C  445   4.002   4.378   3.006
    1C        C  446   3.811   4.475   3.128
    1C        C  447   3.940   4.418   3.126
    1C        C  448   3.744   4.500   3.250
    1C        C  449   3.811   4.470   3.371
    1C        C  450   3.607   4.527   3.494
    1C        C  451   3.745   4.498   3.494
    1C        C  452   3.540   4.543   3.618
    1C        C  453   3.610   4.539   3.740
    1C        C  454   3.397   4.545   3.863
    1C        C  455   3.539   4.550   3.862
    1C        C  456   3.330   4.535   3.987
    1C        C  457   3.401   4.533   4.109
    1C        C  458   3.194   4.505   4.235
    1C        C  459   3.332   4.533   4.233
    1C        C  460   3.127   4.484   4.358
    1C        C  461   3.194   4.512   4.479
    1C        C  462   2.998   4.432   4.599
    1C        C  463   3.127   4.490   4.601
    1C        C  464   2.932   4.401   4.720
    1C        C  465   2.988   4.443   4.844
    1C        C  466   2.801   4.339   4.961
    1C        C  467   2.910   4.427   4.962
    1C        C  468   4.120   4.283   2.041
    1C        C  469   4.187   4.247   2.158
    1C        C  470   4.008   4.373   2.278
    1C        C  471   4.126   4.295   2.278
    1C        C  472   3.941   4.403   2.399
    1C        C  473   4.005   4.370   2.521
    1C        C  474   3.812   4.466   2.642
    1C        C  475   3.941   4.408   2.641
    1C        C  476   3.744   4.497   2.761
    1C        C  477   3.812   4.472   2.883
    1C        C  478   3.607   4.527   3.007
    1C        C  479   3.745   4.495   3.005
    1C        C  480   3.535   4.535   3.128
    1C        C  481   3.605   4.524   3.251
    1C        C  482   3.394   4.534   3.374
    1C        C  483   3.535   4.534   3.373
    1C        C  484   3.327   4.532   3.498
    1C        C  485   3.399   4.544   3.619
    1C        C  486   3.190   4.505   3.742
    1C        C  487   3.327   4.538   3.741
    1C        C  488   3.127   4.481   3.867
    1C        C  489   3.191   4.510   3.989
    1C        C  490   3.006   4.412   4.111
    1C        C  491   3.127   4.484   4.113
    1C        C  492   2.946   4.379   4.235
    1C        C  493   2.998   4.425   4.358
    1C        C  494   2.826   4.302   4.483
    1C        C  495   2.936   4.390   4.480
    1C        C  496   2.773   4.256   4.607
    1C        C  497   2.819   4.315   4.727
    1C        C  498   2.667   4.165   4.845
    1C        C  499   2.753   4.277   4.845
    1C        C  500   2.592   4.120   4.955
    1C        C  501   4.003   4.357   2.040
    1C        C  502   3.815   4.465   2.156
    1C        C  503   3.943   4.406   2.157
    1C        C  504   3.745   4.484   2.277
    1C        C  505   3.809   4.452   2.399
    1C        C  506   3.604   4.511   2.518
    1C        C  507   3.743   4.482   2.520
    1C        C  508   3.534   4.517   2.640
    1C        C  509   3.604   4.519   2.763
    1C        C  510   3.395   4.525   2.886
    1C        C  511   3.536   4.531   2.885
    1C        C  512   3.324   4.521   3.008
    1C        C  513   3.394   4.539   3.130
    1C        C  514   3.186   4.497   3.254
    1C        C  515   3.323   4.533   3.252
    1C        C  516   3.122   4.470   3.377
    1C        C  517   3.190   4.498   3.498
    1C        C  518   3.000   4.408   3.621
    1C        C  519   3.122   4.479   3.621
    1C        C  520   2.944   4.370   3.745
    1C        C  521   3.006   4.409   3.866
    1C        C  522   2.839   4.280   3.994
    1C        C  523   2.947   4.370   3.989
    1C        C  524   2.789   4.235   4.119
    1C        C  525   2.838   4.288   4.240
    1C        C  526   2.697   4.132   4.361
    1C        C  527   2.779   4.246   4.362
    1C        C  528   2.659   4.075   4.485
    1C        C  529   2.685   4.146   4.604
    1C        C  530   2.584   3.962   4.730
    1C        C  531   2.641   4.092   4.727
    1C        C  532   2.543   3.900   4.851
    1C        C  533   2.528   3.995   4.957
    1C        C  534   3.618   4.552   2.037
    1C        C  535   3.750   4.506   2.038
    1C        C  536   3.537   4.536   2.154
    1C        C  537   3.605   4.509   2.276
    1C        C  538   3.391   4.517   2.397
    1C        C  539   3.532   4.516   2.397
    1C        C  540   3.321   4.511   2.520
    1C        C  541   3.392   4.516   2.641
    1C        C  542   3.185   4.487   2.766
    1C        C  543   3.324   4.514   2.764
    1C        C  544   3.120   4.461   2.889
    1C        C  545   3.188   4.483   3.011
    1C        C  546   2.994   4.399   3.134
    1C        C  547   3.122   4.459   3.134
    1C        C  548   2.936   4.362   3.258
    1C        C  549   2.999   4.400   3.379
    1C        C  550   2.831   4.274   3.503
    1C        C  551   2.938   4.366   3.501
    1C        C  552   2.779   4.231   3.627
    1C        C  553   2.831   4.285   3.747
    1C        C  554   2.704   4.121   3.874
    1C        C  555   2.786   4.235   3.871
    1C        C  556   2.661   4.066   3.997
    1C        C  557   2.698   4.127   4.119
    1C        C  558   2.595   3.943   4.245
    1C        C  559   2.656   4.070   4.241
    1C        C  560   2.565   3.880   4.368
    1C        C  561   2.591   3.951   4.488
    1C        C  562   2.528   3.751   4.613
    1C        C  563   2.563   3.888   4.611
    1C        C  564   2.516   3.682   4.735
    1C        C  565   2.524   3.759   4.855
    1C        C  566   2.519   3.546   4.975
    1C        C  567   2.514   3.685   4.974
    1C        C  568   3.324   4.476   2.042
    1C        C  569   3.396   4.517   2.155
    1C        C  570   3.183   4.473   2.279
    1C        C  571   3.320   4.510   2.275
    1C        C  572   3.117   4.450   2.402
    1C        C  573   3.182   4.482   2.523
    1C        C  574   2.990   4.399   2.647
    1C        C  575   3.115   4.465   2.646
    1C        C  576   2.930   4.361   2.769
    1C        C  577   2.996   4.394   2.890
    1C        C  578   2.829   4.265   3.013
    1C        C  579   2.937   4.356   3.013
    1C        C  580   2.780   4.218   3.137
    1C        C  581   2.826   4.274   3.259
    1C        C  582   2.691   4.112   3.385
    1C        C  583   2.779   4.223   3.382
    1C        C  584   2.660   4.053   3.510
    1C        C  585   2.697   4.116   3.630
    1C        C  586   2.592   3.935   3.757
    1C        C  587   2.661   4.059   3.754
    1C        C  588   2.564   3.873   3.880
    1C        C  589   2.598   3.940   4.000
    1C        C  590   2.536   3.739   4.124
    1C        C  591   2.573   3.875   4.123
    1C        C  592   2.523   3.673   4.249
    1C        C  593   2.534   3.742   4.371
    1C        C  594   2.513   3.534   4.495
    1C        C  595   2.521   3.675   4.494
    1C        C  596   2.518   3.465   4.618
    1C        C  597   2.514   3.540   4.738
    1C        C  598   2.529   3.327   4.859
    1C        C  599   2.517   3.467   4.859
    1C        C  600   2.534   3.250   4.977
    1C        C  601   3.194   4.432   2.043
    1C        C  602   2.979   4.394   2.158
    1C        C  603   3.115   4.440   2.158
    1C        C  604   2.924   4.355   2.283
    1C        C  605   2.990   4.389   2.404
    1C        C  606   2.819   4.268   2.527
    1C        C  607   2.927   4.359   2.526
    1C        C  608   2.771   4.218   2.650
    1C        C  609   2.820   4.273   2.770
    1C        C  610   2.683   4.110   2.893
    1C        C  611   2.771   4.220   2.892
    1C        C  612   2.653   4.051   3.018
    1C        C  613   2.695   4.106   3.141
    1C        C  614   2.587   3.926   3.264
    1C        C  615   2.650   4.052   3.264
    1C        C  616   2.560   3.865   3.389
    1C        C  617   2.593   3.928   3.511
    1C        C  618   2.525   3.732   3.639
    1C        C  619   2.568   3.867   3.635
    1C        C  620   2.507   3.664   3.762
    1C        C  621   2.520   3.738   3.882
    1C        C  622   2.504   3.527   4.008
    1C        C  623   2.517   3.667   4.004
    1C        C  624   2.509   3.457   4.131
    1C        C  625   2.512   3.532   4.251
    1C        C  626   2.535   3.323   4.379
    1C        C  627   2.509   3.462   4.374
    1C        C  628   2.555   3.253   4.500
    1C        C  629   2.532   3.324   4.620
    1C        C  630   2.592   3.118   4.743
    1C        C  631   2.542   3.251   4.741
    1C        C  632   2.621   3.051   4.865
    1C        C  633   2.561   3.113   4.979
    1C        C  634   2.775   4.307   2.057
    1C        C  635   2.888   4.390   2.048
    1C        C  636   2.751   4.225   2.167
    1C        C  637   2.815   4.265   2.287
    1C        C  638   2.676   4.105   2.407
    1C        C  639   2.761   4.218   2.409
    1C        C  640   2.639   4.047   2.530
    1C        C  641   2.678   4.111   2.650
    1C        C  642   2.588   3.919   2.776
    1C        C  643   2.643   4.049   2.772
    1C        C  644   2.565   3.853   2.899
    1C        C  645   2.587   3.926   3.019
    1C        C  646   2.518   3.726   3.148
    1C        C  647   2.555   3.863   3.141
    1C        C  648   2.510   3.660   3.273
    1C        C  649   2.521   3.729   3.395
    1C        C  650   2.504   3.520   3.519
    1C        C  651   2.511   3.661   3.518
    1C        C  652   2.508   3.450   3.642
    1C        C  653   2.501   3.523   3.763
    1C        C  654   2.536   3.318   3.889
    1C        C  655   2.502   3.455   3.886
    1C        C  656   2.554   3.251   4.012
    1C        C  657   2.531   3.318   4.134
    1C        C  658   2.611   3.124   4.257
    1C        C  659   2.553   3.253   4.258
    1C        C  660   2.640   3.060   4.379
    1C        C  661   2.601   3.120   4.501
    1C        C  662   2.713   2.939   4.624
    1C        C  663   2.630   3.054   4.622
    1C        C  664   2.758   2.883   4.745
    1C        C  665   2.705   2.935   4.866
    1C        C  666   2.746   2.869   4.982
    1C        C  667   2.682   4.022   2.051
    1C        C  668   2.677   4.104   2.165
    1C        C  669   2.586   3.911   2.291
    1C        C  670   2.639   4.043   2.286
    1C        C  671   2.559   3.846   2.413
    1C        C  672   2.583   3.918   2.532
    1C        C  673   2.519   3.717   2.657
    1C        C  674   2.560   3.852   2.655
    1C        C  675   2.510   3.648   2.780
    1C        C  676   2.523   3.719   2.901
    1C        C  677   2.503   3.514   3.029
    1C        C  678   2.511   3.655   3.027
    1C        C  679   2.505   3.447   3.153
    1C        C  680   2.503   3.519   3.275
    1C        C  681   2.531   3.309   3.400
    1C        C  682   2.507   3.448   3.397
    1C        C  683   2.557   3.243   3.522
    1C        C  684   2.539   3.312   3.644
    1C        C  685   2.604   3.114   3.769
    1C        C  686   2.551   3.245   3.768
    1C        C  687   2.641   3.054   3.892
    1C        C  688   2.604   3.119   4.012
    1C        C  689   2.716   2.939   4.138
    1C        C  690   2.639   3.058   4.135
    1C        C  691   2.759   2.883   4.260
    1C        C  692   2.716   2.941   4.381
    1C        C  693   2.761   2.885   4.502
    1C        C  694   2.629   3.892   2.056
    1C        C  695   2.525   3.703   2.174
    1C        C  696   2.576   3.835   2.172
    1C        C  697   2.503   3.636   2.296
    1C        C  698   2.519   3.710   2.415
    1C        C  699   2.491   3.502   2.541
    1C        C  700   2.502   3.642   2.538
    1C        C  701   2.495   3.433   2.665
    1C        C  702   2.497   3.507   2.785
    1C        C  703   2.522   3.299   2.913
    1C        C  704   2.500   3.439   2.909
    1C        C  705   2.544   3.235   3.037
    1C        C  706   2.526   3.307   3.157
    1C        C  707   2.607   3.110   3.278
    1C        C  708   2.550   3.240   3.279
    1C        C  709   2.638   3.050   3.402
    1C        C  710   2.608   3.111   3.526
    1C        C  711   2.714   2.930   3.650
    1C        C  712   2.636   3.048   3.649
    1C        C  713   2.760   2.877   3.772
    1C        C  714   2.720   2.938   3.894
    1C        C  715   2.764   2.884   4.017
    1C        C  716   2.447   3.497   2.062
    1C        C  717   2.492   3.630   2.059
    1C        C  718   2.464   3.418   2.180
    1C        C  719   2.479   3.496   2.298
    1C        C  720   2.520   3.289   2.424
    1C        C  721   2.491   3.427   2.421
    1C        C  722   2.538   3.222   2.547
    1C        C  723   2.520   3.294   2.667
    1C        C  724   2.595   3.100   2.791
    1C        C  725   2.540   3.230   2.791
    1C        C  726   2.626   3.038   2.914
    1C        C  727   2.599   3.105   3.036
    1C        C  728   2.713   2.925   3.160
    1C        C  729   2.635   3.042   3.158
    1C        C  730   2.758   2.875   3.284
    1C        C  731   2.717   2.932   3.407
    1C        C  732   2.761   2.875   3.528
    1C        C  733   2.494   3.199   2.069
    1C        C  734   2.491   3.278   2.185
    1C        C  735   2.589   3.084   2.304
    1C        C  736   2.532   3.214   2.305
    1C        C  737   2.618   3.022   2.428
    1C        C  738   2.590   3.090   2.548
    1C        C  739   2.703   2.913   2.672
    1C        C  740   2.627   3.032   2.671
    1C        C  741   2.747   2.859   2.795
    1C        C  742   2.704   2.921   2.914
    1C        C  743   2.750   2.867   3.036
    1C        C  744   2.543   3.069   2.074
    1C        C  745   2.684   2.893   2.186
    1C        C  746   2.610   3.013   2.183
    1C        C  747   2.730   2.841   2.309
    1C        C  748   2.689   2.900   2.430
    1C        C  749   2.740   2.848   2.552
    1C        C  750   2.737   2.837   2.068
    1C        C  751   3.671   2.321   1.968
    1C        O  752   3.702   2.202   1.997
    1C        O  753   3.627   2.326   1.836
    1C        C  754   4.622   3.052   1.981
    1C        O  755   4.639   3.078   1.859
    1C        O  756   4.726   2.989   2.051
    1C        C  757   4.452   4.227   1.972
    1C        O  758   4.557   4.275   2.022
    1C        O  759   4.432   4.252   1.835
    1C        C  760   3.593   4.649   1.928
    1C        O  761   3.593   4.769   1.967
    1C        O  762   3.585   4.626   1.790
    1C        C  763   2.877   4.486   1.936
    1C        O  764   2.877   4.445   1.817
    1C        O  765   2.800   4.603   1.946
    1C        C  766   2.336   3.474   1.967
    1C        O  767   2.344   3.484   1.842
    1C        O  768   2.215   3.417   2.006
    1C        C  769   4.679   3.591   5.072
    1C        O  770   4.648   3.536   5.181
    1C        O  771   4.814   3.576   5.037
    1C        C  772   4.281   4.476   5.010
    1C        O  773   4.369   4.419   5.080
    1C        O  774   4.341   4.583   4.941
    1C        C  775   4.153   2.498   5.037
    1C        O  776   4.190   2.390   4.985
    1C        O  777   4.196   2.507   5.170
    1C        C  778   2.909   4.530   5.069
    1C        O  779   2.861   4.644   5.040
    1C        O  780   2.977   4.539   5.190
    1C        C  781   2.464   3.035   5.059
    1C        O  782   2.342   3.019   5.031
    1C        O  783   2.470   3.027   5.198
    1C        C  784   2.410   4.008   5.046
    1C        O  785   2.290   3.993   5.011
    1C        O  786   2.427   4.017   5.185
    1C        C  787   2.948   2.425   1.998
    1C        O  788   2.949   2.455   1.876
    1C        O  789   2.828   2.363   2.031
    1C        C  790   3.188   2.380   5.076
    1C        O  791   3.154   2.266   5.035
    1C        O  792   3.211   2.398   5.212
    1C        H  793   4.320   2.996   5.068
    1C        H  794   4.243   2.771   5.056
    1C        H  795   4.529   3.127   5.039
    1C        H  796   4.466   3.379   5.050
    1C        H  797   4.552   3.806   5.052
    1C        H  798   4.452   3.996   5.046
    1C        H  799   4.325   4.188   5.048
    1C        H  800   4.024   4.533   5.027
    1C        H  801   3.814   4.572   5.043
    1C        H  802   3.581   4.599   5.044
    1C        H  803   3.400   4.480   5.034
    1C        H  804   3.162   4.477   5.053
    1C        H  805   3.884   2.493   5.073
    1C        H  806   3.670   2.415   5.055
    1C        H  807   2.990   2.535   5.059
    1C        H  808   3.443   2.423   5.068
    1C        H  809   2.879   2.748   5.083
    1C        H  810   2.691   2.874   5.074
    1C        H  811   2.486   3.297   5.060
    1C        H  812   2.554   3.505   5.067
    1C        H  813   2.460   3.736   5.051
    1C        H  814   2.579   4.196   5.029
    1C        H  815   2.776   4.294   5.054
    1C        H  816   2.687   2.859   1.976
    1C        H  817   2.866   2.700   1.977
    1C        H  818   3.221   2.464   1.985
    1C        H  819   3.438   2.467   1.978
    1C        H  820   3.860   2.509   1.969
    1C        H  821   4.085   2.573   1.986
    1C        H  822   4.276   2.702   1.988
    1C        H  823   4.346   2.948   1.977
    1C        H  824   4.604   3.306   1.975
    1C        H  825   4.477   3.518   1.963
    1C        H  826   4.569   3.743   1.977
    1C        H  827   3.797   4.484   1.944
    1C        H  828   3.985   4.408   1.947
    1C        H  829   4.177   4.287   1.950
    1C        H  830   4.526   3.980   1.983
    1C        H  831   2.665   3.825   1.981
    1C        H  832   2.720   4.058   1.958
    1C        H  833   2.700   4.329   1.983
    1C        H  834   3.385   4.438   1.963
    1C        H  835   3.153   4.405   1.948
    1C        H  836   2.507   3.000   2.000
    1C        H  837   2.437   3.231   1.984
    1C        H  838   2.515   3.665   1.961
    2V3OU   H29  839   2.797   3.540   6.532
    2V3OU   C27  840   2.789   3.503   6.637
    2V3OU   H27  841   2.725   3.573   6.696
    2V3OU   H28  842   2.734   3.405   6.634
    2V3OU   O11  843   2.912   3.466   6.700
    2V3OU   C15  844   2.920   3.392   6.817
    2V3OU   C13  845   3.049   3.373   6.869
    2V3OU   C14  846   3.076   3.270   6.959
    2V3OU   C16  847   2.969   3.188   6.994
    2V3OU    H6  848   2.988   3.112   0.050
    2V3OU   C12  849   3.213   3.223   6.990
    2V3OU    O2  850   3.235   3.125   0.042
    2V3OU   C10  851   3.326   3.302   6.938
    2V3OU    C8  852   3.460   3.273   6.963
    2V3OU   O10  853   3.489   3.148   7.009
    2V3OU   H26  854   3.403   3.117   0.021
    2V3OU    C6  855   3.569   3.352   6.916
    2V3OU    C5  856   3.538   3.464   6.840
    2V3OU    C4  857   3.705   3.292   6.908
    2V3OU    H4  858   3.726   3.228   6.998
    2V3OU    H5  859   3.711   3.228   6.815
    2V3OU    C2  860   3.816   3.398   6.904
    2V3OU    O6  861   3.808   3.472   0.004
    2V3OU   H21  862   3.772   3.557   6.997
    2V3OU    C3  863   3.780   3.495   6.791
    2V3OU    H2  864   3.866   3.566   6.780
    2V3OU    H3  865   3.779   3.437   6.695
    2V3OU   C25  866   3.950   3.327   6.883
    2V3OU    O7  867   3.999   3.290   6.777
    2V3OU   C26  868   4.026   3.289   7.009
    2V3OU   H22  869   4.065   3.380   0.038
    2V3OU   H23  870   4.113   3.224   6.984
    2V3OU    O8  871   3.946   3.206   0.070
    2V3OU   H24  872   3.922   3.262   0.146
    2V3OU    C1  873   3.645   3.563   6.803
    2V3OU    H1  874   3.621   3.614   6.705
    2V3OU    O3  875   3.663   3.657   6.909
    2V3OU   C19  876   3.614   3.791   6.902
    2V3OU    H9  877   3.518   3.801   6.844
    2V3OU    O4  878   3.710   3.852   6.818
    2V3OU   C20  879   3.845   3.871   6.863
    2V3OU   H10  880   3.899   3.772   6.866
    2V3OU   C24  881   3.611   3.858   0.018
    2V3OU   H16  882   3.541   3.799   0.083
    2V3OU   H17  883   3.568   3.960   0.001
    2V3OU   C23  884   3.750   3.872   0.079
    2V3OU   H15  885   3.793   3.770   0.103
    2V3OU    N1  886   3.738   3.953   0.199
    2V3OU   H19  887   3.807   3.913   0.260
    2V3OU   H20  888   3.652   3.934   0.248
    2V3OU   C21  889   3.847   3.940   6.999
    2V3OU   H11  890   3.945   3.919   0.029
    2V3OU    O5  891   3.833   4.081   6.993
    2V3OU   H18  892   3.779   4.107   0.048
    2V3OU   C22  893   3.912   3.951   6.753
    2V3OU   H12  894   3.854   4.044   6.732
    2V3OU   H13  895   3.909   3.892   6.658
    2V3OU   H14  896   4.019   3.965   6.784
    2V3OU   C11  897   3.159   3.463   6.831
    2V3OU    O1  898   3.142   3.583   6.801
    2V3OU    C9  899   3.297   3.418   6.861
    2V3OU    C7  900   3.401   3.498   6.817
    2V3OU    O9  901   3.384   3.612   6.742
    2V3OU   H25  902   3.288   3.622   6.742
    2V3OU   C17  903   2.816   3.310   6.864
    2V3OU    H7  904   2.713   3.343   6.851
    2V3OU   C18  905   2.838   3.205   6.953
    2V3OU    H8  906   2.752   3.148   6.993
    3SOL     OW  907   2.545   3.433   5.362
    3SOL    HW1  908   2.595   3.478   5.436
    3SOL    HW2  909   2.467   3.490   5.335
    4SOL     OW  910   1.007   0.539   0.837
    4SOL    HW1  911   1.089   0.483   0.825
    4SOL    HW2  912   0.975   0.569   0.747
    5SOL     OW  913   3.391   1.475   0.292
    5SOL    HW1  914   3.311   1.533   0.307
    5SOL    HW2  915   3.474   1.524   0.320
    6SOL     OW  916   2.880   2.142   1.864
    6SOL    HW1  917   2.884   2.228   1.915
    6SOL    HW2  918   2.972   2.104   1.856
    7SOL     OW  919   1.953   3.075   4.678
    7SOL    HW1  920   1.937   3.173   4.688
    7SOL    HW2  921   1.994   3.039   4.762
    8SOL     OW  922   1.114   1.355   5.943
    8SOL    HW1  923   1.068   1.312   6.021
    8SOL    HW2  924   1.210   1.372   5.965
    9SOL     OW  925   1.814   2.779   5.478
    9SOL    HW1  926   1.886   2.842   5.506
    9SOL    HW2  927   1.853   2.688   5.465
   10SOL     OW  928   6.208   5.195   0.687
   10SOL    HW1  929   6.195   5.101   0.657
   10SOL    HW2  930   6.306   5.212   0.702
   11SOL     OW  931   3.520   0.618   0.813
   11SOL    HW1  932   3.494   0.678   0.737
   11SOL    HW2  933   3.440   0.566   0.843
   12SOL     OW  934   6.024   5.132   1.230
   12SOL    HW1  935   6.017   5.046   1.179
   12SOL    HW2  936   5.932   5.169   1.245
   13SOL     OW  937   4.795   6.182   1.899
   13SOL    HW1  938   4.788   6.226   1.988
   13SOL    HW2  939   4.721   6.215   1.840
   14SOL     OW  940   4.906   5.531   1.523
   14SOL    HW1  941   4.935   5.537   1.619
   14SOL    HW2  942   4.872   5.439   1.505
   15SOL     OW  943   0.572   0.414   6.849
   15SOL    HW1  944   0.511   0.346   6.891
   15SOL    HW2  945   0.560   0.502   6.894
   16SOL     OW  946   1.954   4.544   5.012
   16SOL    HW1  947   2.040   4.538   5.063
   16SOL    HW2  948   1.973   4.577   4.920
   17SOL     OW  949   0.287   2.199   4.284
   17SOL    HW1  950   0.294   2.100   4.275
   17SOL    HW2  951   0.246   2.222   4.372
   18SOL     OW  952   2.982   6.849   4.878
   18SOL    HW1  953   3.051   6.782   4.905
   18SOL    HW2  954   2.950   6.899   4.958
   19SOL     OW  955   4.675   5.832   3.451
   19SOL    HW1  956   4.579   5.817   3.474
   19SOL    HW2  957   4.694   5.930   3.451
   20SOL     OW  958   0.121   1.881   4.622
   20SOL    HW1  959   0.218   1.856   4.617
   20SOL    HW2  960   0.111   1.962   4.679
   21SOL     OW  961   2.134   3.171   1.887
   21SOL    HW1  962   2.151   3.261   1.927
   21SOL    HW2  963   2.099   3.110   1.958
   22SOL     OW  964   0.118   0.721   0.273
   22SOL    HW1  965   0.181   0.659   0.227
   22SOL    HW2  966   0.027   0.711   0.232
   23SOL     OW  967   0.611   5.289   0.679
   23SOL    HW1  968   0.537   5.346   0.716
   23SOL    HW2  969   0.667   5.254   0.753
   24SOL     OW  970   5.046   0.714   5.700
   24SOL    HW1  971   5.009   0.656   5.773
   24SOL    HW2  972   4.995   0.698   5.616
   25SOL     OW  973   1.986   0.178   5.775
   25SOL    HW1  974   2.055   0.126   5.724
   25SOL    HW2  975   1.951   0.252   5.716
   26SOL     OW  976   2.455   6.548   5.785
   26SOL    HW1  977   2.467   6.617   5.857
   26SOL    HW2  978   2.520   6.474   5.800
   27SOL     OW  979   0.355   0.077   2.182
   27SOL    HW1  980   0.419   0.067   2.258
   27SOL    HW2  981   0.374   0.007   2.113
   28SOL     OW  982   2.235   0.159   5.276
   28SOL    HW1  983   2.231   0.258   5.290
   28SOL    HW2  984   2.155   0.116   5.316
   29SOL     OW  985   4.950   1.162   2.074
   29SOL    HW1  986   4.986   1.080   2.118
   29SOL    HW2  987   4.932   1.143   1.977
   30SOL     OW  988   4.364   6.627   4.650
   30SOL    HW1  989   4.285   6.569   4.629
   30SOL    HW2  990   4.372   6.638   4.750
   31SOL     OW  991   5.981   3.916   3.967
   31SOL    HW1  992   6.006   3.969   4.048
   31SOL    HW2  993   5.881   3.917   3.956
   32SOL     OW  994   3.918   0.777   1.568
   32SOL    HW1  995   3.957   0.843   1.503
   32SOL    HW2  996   3.849   0.722   1.521
   33SOL     OW  997   1.762   4.568   5.207
   33SOL    HW1  998   1.686   4.627   5.182
   33SOL    HW2  999   1.823   4.557   5.128
   34SOL     OW 1000   2.675   6.779   5.206
   34SOL    HW1 1001   2.696   6.682   5.220
   34SOL    HW2 1002   2.581   6.798   5.236
   35SOL     OW 1003   0.908   3.548   5.052
   35SOL    HW1 1004   0.919   3.644   5.077
   35SOL    HW2 1005   0.984   3.496   5.090
   36SOL     OW 1006   5.755   1.246   4.581
   36SOL    HW1 1007   5.775   1.157   4.540
   36SOL    HW2 1008   5.758   1.317   4.510
   37SOL     OW 1009   1.199   5.820   3.901
   37SOL    HW1 1010   1.235   5.749   3.963
   37SOL    HW2 1011   1.118   5.785   3.854
   38SOL     OW 1012   0.844   3.337   1.929
   38SOL    HW1 1013   0.907   3.268   1.965
   38SOL    HW2 1014   0.897   3.409   1.883
   39SOL     OW 1015   6.221   5.683   1.487
   39SOL    HW1 1016   6.177   5.656   1.401
   39SOL    HW2 1017   6.265   5.772   1.475
   40SOL     OW 1018   4.419   0.243   5.489
   40SOL    HW1 1019   4.362   0.171   5.448
   40SOL    HW2 1020   4.471   0.289   5.417
   41SOL     OW 1021   0.252   3.442   1.099
   41SOL    HW1 1022   0.205   3.362   1.137
   41SOL    HW2 1023   0.240   3.444   1.000
   42SOL     OW 1024   2.402   3.709   0.688
   42SOL    HW1 1025   2.419   3.804   0.661
   42SOL    HW2 1026   2.475   3.651   0.653
   43SOL     OW 1027   4.950   0.967   2.750
   43SOL    HW1 1028   4.978   0.871   2.758
   43SOL    HW2 1029   4.982   1.004   2.663
   44SOL     OW 1030   6.888   0.739   6.379
   44SOL    HW1 1031   6.897   0.838   6.378
   44SOL    HW2 1032   6.902   0.703   6.286
   45SOL     OW 1033   2.108   3.663   4.786
   45SOL    HW1 1034   2.079   3.655   4.690
   45SOL    HW2 1035   2.138   3.573   4.819
   46SOL     OW 1036   0.688   6.093   4.898
   46SOL    HW1 1037   0.711   6.034   4.820
   46SOL    HW2 1038   0.595   6.129   4.885
   47SOL     OW 1039   0.644   4.165   6.437
   47SOL    HW1 1040   0.740   4.145   6.420
   47SOL    HW2 1041   0.628   4.171   6.536
   48SOL     OW 1042   0.997   3.951   0.347
   48SOL    HW1 1043   1.065   3.959   0.419
   48SOL    HW2 1044   0.976   4.042   0.310
   49SOL     OW 1045   4.037   6.711   6.705
   49SOL    HW1 1046   3.985   6.722   6.790
   49SOL    HW2 1047   4.049   6.799   6.661
   50SOL     OW 1048   5.011   1.748   6.128
   50SOL    HW1 1049   5.092   1.807   6.122
   50SOL    HW2 1050   5.016   1.694   6.212
   51SOL     OW 1051   1.256   6.760   1.246
   51SOL    HW1 1052   1.342   6.718   1.275
   51SOL    HW2 1053   1.230   6.831   1.312
   52SOL     OW 1054   5.033   2.980   2.571
   52SOL    HW1 1055   5.020   3.021   2.661
   52SOL    HW2 1056   5.037   3.051   2.502
   53SOL     OW 1057   4.273   6.844   1.219
   53SOL    HW1 1058   4.309   6.814   1.130
   53SOL    HW2 1059   4.239   6.938   1.211
   54SOL     OW 1060   0.530   1.300   6.013
   54SOL    HW1 1061   0.490   1.212   5.985
   54SOL    HW2 1062   0.457   1.366   6.028
   55SOL     OW 1063   2.856   3.735   6.351
   55SOL    HW1 1064   2.770   3.695   6.381
   55SOL    HW2 1065   2.928   3.713   6.417
   56SOL     OW 1066   1.492   1.746   0.316
   56SOL    HW1 1067   1.416   1.683   0.297
   56SOL    HW2 1068   1.471   1.836   0.276
   57SOL     OW 1069   3.950   6.507   1.620
   57SOL    HW1 1070   3.990   6.421   1.653
   57SOL    HW2 1071   3.888   6.543   1.689
   58SOL     OW 1072   0.723   0.380   0.615
   58SOL    HW1 1073   0.777   0.361   0.533
   58SOL    HW2 1074   0.631   0.407   0.589
   59SOL     OW 1075   4.687   4.083   6.574
   59SOL    HW1 1076   4.589   4.063   6.573
   59SOL    HW2 1077   4.701   4.181   6.592
   60SOL     OW 1078   6.309   2.655   2.370
   60SOL    HW1 1079   6.304   2.561   2.404
   60SOL    HW2 1080   6.298   2.719   2.446
   61SOL     OW 1081   0.681   4.406   2.659
   61SOL    HW1 1082   0.723   4.493   2.686
   61SOL    HW2 1083   0.668   4.349   2.740
   62SOL     OW 1084   5.202   4.144   3.196
   62SOL    HW1 1085   5.235   4.231   3.233
   62SOL    HW2 1086   5.111   4.125   3.232
   63SOL     OW 1087   4.854   0.259   5.855
   63SOL    HW1 1088   4.952   0.240   5.846
   63SOL    HW2 1089   4.841   0.347   5.900
   64SOL     OW 1090   2.251   1.728   6.539
   64SOL    HW1 1091   2.231   1.649   6.481
   64SOL    HW2 1092   2.165   1.773   6.565
   65SOL     OW 1093   0.927   5.186   5.035
   65SOL    HW1 1094   0.982   5.269   5.022
   65SOL    HW2 1095   0.863   5.178   4.958
   66SOL     OW 1096   4.409   1.735   1.504
   66SOL    HW1 1097   4.362   1.679   1.572
   66SOL    HW2 1098   4.504   1.749   1.533
   67SOL     OW 1099   0.170   2.887   3.058
   67SOL    HW1 1100   0.091   2.875   3.119
   67SOL    HW2 1101   0.192   2.800   3.014
   68SOL     OW 1102   7.012   0.943   5.458
   68SOL    HW1 1103   6.934   0.891   5.423
   68SOL    HW2 1104   0.063   0.879   5.485
   69SOL     OW 1105   1.866   1.061   6.007
   69SOL    HW1 1106   1.965   1.055   6.018
   69SOL    HW2 1107   1.842   1.042   5.912
   70SOL     OW 1108   5.262   5.319   2.727
   70SOL    HW1 1109   5.241   5.417   2.735
   70SOL    HW2 1110   5.329   5.305   2.654
   71SOL     OW 1111   5.790   1.366   5.264
   71SOL    HW1 1112   5.724   1.309   5.216
   71SOL    HW2 1113   5.851   1.308   5.319
   72SOL     OW 1114   6.513   2.440   2.551
   72SOL    HW1 1115   6.416   2.462   2.562
   72SOL    HW2 1116   6.534   2.358   2.605
   73SOL     OW 1117   2.071   1.527   0.335
   73SOL    HW1 1118   2.089   1.454   0.401
   73SOL    HW2 1119   2.139   1.600   0.346
   74SOL     OW 1120   2.607   0.580   0.229
   74SOL    HW1 1121   2.679   0.526   0.271
   74SOL    HW2 1122   2.574   0.533   0.147
   75SOL     OW 1123   2.983   3.341   1.215
   75SOL    HW1 1124   2.991   3.439   1.196
   75SOL    HW2 1125   3.004   3.324   1.312
   76SOL     OW 1126   3.005   5.036   6.039
   76SOL    HW1 1127   2.947   5.060   5.960
   76SOL    HW2 1128   2.976   5.090   6.118
   77SOL     OW 1129   0.383   4.777   5.266
   77SOL    HW1 1130   0.332   4.699   5.303
   77SOL    HW2 1131   0.481   4.758   5.272
   78SOL     OW 1132   4.632   1.803   0.833
   78SOL    HW1 1133   4.628   1.767   0.740
   78SOL    HW2 1134   4.668   1.896   0.832
   79SOL     OW 1135   2.566   4.914   4.176
   79SOL    HW1 1136   2.588   4.837   4.236
   79SOL    HW2 1137   2.473   4.905   4.142
   80SOL     OW 1138   4.286   2.172   5.229
   80SOL    HW1 1139   4.281   2.075   5.205
   80SOL    HW2 1140   4.205   2.199   5.280
   81SOL     OW 1141   1.674   5.166   2.730
   81SOL    HW1 1142   1.769   5.189   2.713
   81SOL    HW2 1143   1.643   5.099   2.662
   82SOL     OW 1144   2.592   0.115   1.270
   82SOL    HW1 1145   2.652   0.195   1.269
   82SOL    HW2 1146   2.500   0.144   1.296
   83SOL     OW 1147   6.088   2.601   3.734
   83SOL    HW1 1148   6.036   2.605   3.649
   83SOL    HW2 1149   6.045   2.537   3.797
   84SOL     OW 1150   5.235   2.150   3.101
   84SOL    HW1 1151   5.214   2.244   3.128
   84SOL    HW2 1152   5.205   2.087   3.173
   85SOL     OW 1153   2.285   5.288   2.993
   85SOL    HW1 1154   2.224   5.214   2.964
   85SOL    HW2 1155   2.359   5.250   3.048
   86SOL     OW 1156   5.036   1.130   5.475
   86SOL    HW1 1157   5.084   1.058   5.424
   86SOL    HW2 1158   4.955   1.091   5.519
   87SOL     OW 1159   2.764   1.690   6.620
   87SOL    HW1 1160   2.685   1.752   6.627
   87SOL    HW2 1161   2.734   1.603   6.582
   88SOL     OW 1162   1.024   1.810   0.260
   88SOL    HW1 1163   0.952   1.752   0.300
   88SOL    HW2 1164   0.995   1.842   0.171
   89SOL     OW 1165   4.469   4.137   6.181
   89SOL    HW1 1166   4.523   4.196   6.241
   89SOL    HW2 1167   4.457   4.047   6.224
   90SOL     OW 1168   6.987   3.942   1.965
   90SOL    HW1 1169   6.919   3.872   1.945
   90SOL    HW2 1170   0.045   3.928   1.906
   91SOL     OW 1171   5.301   4.928   0.819
   91SOL    HW1 1172   5.382   4.918   0.762
   91SOL    HW2 1173   5.276   4.839   0.857
   92SOL     OW 1174   0.307   6.214   6.957
   92SOL    HW1 1175   0.228   6.248   7.008
   92SOL    HW2 1176   0.312   6.261   6.869
   93SOL     OW 1177   3.067   3.651   2.611
   93SOL    HW1 1178   3.126   3.572   2.623
   93SOL    HW2 1179   2.978   3.633   2.654
   94SOL     OW 1180   3.939   0.722   4.353
   94SOL    HW1 1181   3.910   0.818   4.349
   94SOL    HW2 1182   3.988   0.706   4.438
   95SOL     OW 1183   0.574   6.831   3.764
   95SOL    HW1 1184   0.611   6.738   3.764
   95SOL    HW2 1185   0.525   6.847   3.679
   96SOL     OW 1186   0.713   0.074   0.474
   96SOL    HW1 1187   0.731   0.062   0.376
   96SOL    HW2 1188   0.622   0.113   0.486
   97SOL     OW 1189   4.075   5.162   5.231
   97SOL    HW1 1190   4.140   5.105   5.181
   97SOL    HW2 1191   4.080   5.256   5.197
   98SOL     OW 1192   6.414   1.974   5.414
   98SOL    HW1 1193   6.513   1.973   5.428
   98SOL    HW2 1194   6.369   1.937   5.495
   99SOL     OW 1195   5.440   4.789   4.839
   99SOL    HW1 1196   5.524   4.825   4.879
   99SOL    HW2 1197   5.427   4.828   4.748
  100SOL     OW 1198   1.758   1.762   5.682
  100SOL    HW1 1199   1.777   1.823   5.759
  100SOL    HW2 1200   1.805   1.794   5.600
  101SOL     OW 1201   5.263   2.641   2.515
  101SOL    HW1 1202   5.316   2.632   2.431
  101SOL    HW2 1203   5.295   2.574   2.582
  102SOL     OW 1204   5.308   6.385   0.852
  102SOL    HW1 1205   5.340   6.378   0.758
  102SOL    HW2 1206   5.352   6.463   0.896
  103SOL     OW 1207   2.108   2.339   0.962
  103SOL    HW1 1208   2.018   2.307   0.988
  103SOL    HW2 1209   2.171   2.328   1.039
  104SOL     OW 1210   0.921   3.841   1.653
  104SOL    HW1 1211   0.897   3.938   1.653
  104SOL    HW2 1212   0.890   3.799   1.567
  105SOL     OW 1213   0.713   1.660   4.353
  105SOL    HW1 1214   0.750   1.576   4.393
  105SOL    HW2 1215   0.621   1.643   4.319
  106SOL     OW 1216   5.516   3.130   1.797
  106SOL    HW1 1217   5.430   3.159   1.840
  106SOL    HW2 1218   5.496   3.075   1.716
  107SOL     OW 1219   4.881   0.369   2.203
  107SOL    HW1 1220   4.863   0.287   2.149
  107SOL    HW2 1221   4.973   0.364   2.243
  108SOL     OW 1222   4.372   0.960   4.909
  108SOL    HW1 1223   4.426   0.876   4.913
  108SOL    HW2 1224   4.279   0.942   4.942
  109SOL     OW 1225   2.302   1.550   3.826
  109SOL    HW1 1226   2.313   1.467   3.772
  109SOL    HW2 1227   2.212   1.551   3.869
  110SOL     OW 1228   4.662   4.846   5.376
  110SOL    HW1 1229   4.584   4.850   5.438
  110SOL    HW2 1230   4.747   4.846   5.430
  111SOL     OW 1231   6.743   3.559   0.199
  111SOL    HW1 1232   6.644   3.558   0.193
  111SOL    HW2 1233   6.771   3.553   0.295
  112SOL     OW 1234   3.867   6.009   5.247
  112SOL    HW1 1235   3.784   5.963   5.277
  112SOL    HW2 1236   3.848   6.104   5.225
  113SOL     OW 1237   1.329   4.803   2.397
  113SOL    HW1 1238   1.296   4.710   2.381
  113SOL    HW2 1239   1.305   4.832   2.490
  114SOL     OW 1240   6.504   1.831   1.606
  114SOL    HW1 1241   6.476   1.792   1.694
  114SOL    HW2 1242   6.494   1.762   1.534
  115SOL     OW 1243   4.594   0.235   3.358
  115SOL    HW1 1244   4.668   0.265   3.418
  115SOL    HW2 1245   4.516   0.204   3.413
  116SOL     OW 1246   6.070   5.848   6.531
  116SOL    HW1 1247   6.101   5.754   6.518
  116SOL    HW2 1248   6.005   5.852   6.608
  117SOL     OW 1249   1.267   1.590   0.271
  117SOL    HW1 1250   1.206   1.648   0.325
  117SOL    HW2 1251   1.220   1.561   0.188
  118SOL     OW 1252   0.923   2.928   1.854
  118SOL    HW1 1253   0.891   2.834   1.855
  118SOL    HW2 1254   0.959   2.950   1.763
  119SOL     OW 1255   5.016   5.186   4.264
  119SOL    HW1 1256   5.004   5.088   4.275
  119SOL    HW2 1257   5.100   5.216   4.308
  120SOL     OW 1258   5.036   1.177   4.030
  120SOL    HW1 1259   5.059   1.266   3.991
  120SOL    HW2 1260   5.104   1.109   4.002
  121SOL     OW 1261   6.809   5.401   5.659
  121SOL    HW1 1262   6.905   5.417   5.639
  121SOL    HW2 1263   6.789   5.303   5.655
  122SOL     OW 1264   0.493   5.678   5.512
  122SOL    HW1 1265   0.540   5.716   5.434
  122SOL    HW2 1266   0.394   5.692   5.502
  123SOL     OW 1267   1.024   1.977   1.163
  123SOL    HW1 1268   1.018   1.877   1.156
  123SOL    HW2 1269   0.989   2.007   1.252
  124SOL     OW 1270   1.665   3.421   6.960
  124SOL    HW1 1271   1.702   3.355   6.895
  124SOL    HW2 1272   1.574   3.390   6.991
  125SOL     OW 1273   3.864   3.206   2.002
  125SOL    HW1 1274   3.941   3.153   2.039
  125SOL    HW2 1275   3.894   3.256   1.921
  126SOL     OW 1276   3.503   3.285   5.370
  126SOL    HW1 1277   3.500   3.259   5.467
  126SOL    HW2 1278   3.461   3.375   5.359
  127SOL     OW 1279   0.670   4.875   6.408
  127SOL    HW1 1280   0.699   4.858   6.503
  127SOL    HW2 1281   0.633   4.968   6.402
  128SOL     OW 1282   4.723   4.179   6.300
  128SOL    HW1 1283   4.739   4.081   6.290
  128SOL    HW2 1284   4.723   4.203   6.397
  129SOL     OW 1285   1.133   5.265   3.158
  129SOL    HW1 1286   1.114   5.189   3.096
  129SOL    HW2 1287   1.219   5.248   3.206
  130SOL     OW 1288   6.449   4.400   5.364
  130SOL    HW1 1289   6.378   4.468   5.385
  130SOL    HW2 1290   6.409   4.309   5.360
  131SOL     OW 1291   0.318   2.642   1.630
  131SOL    HW1 1292   0.386   2.603   1.569
  131SOL    HW2 1293   0.359   2.659   1.719
  132SOL     OW 1294   3.354   3.822   1.784
  132SOL    HW1 1295   3.256   3.844   1.776
  132SOL    HW2 1296   3.382   3.833   1.880
  133SOL     OW 1297   4.795   4.449   6.174
  133SOL    HW1 1298   4.721   4.382   6.182
  133SOL    HW2 1299   4.869   4.425   6.237
  134SOL     OW 1300   0.425   1.752   6.755
  134SOL    HW1 1301   0.500   1.816   6.741
  134SOL    HW2 1302   0.400   1.751   6.852
  135SOL     OW 1303   4.398   5.094   3.661
  135SOL    HW1 1304   4.408   5.050   3.572
  135SOL    HW2 1305   4.398   5.025   3.733
  136SOL     OW 1306   3.315   6.606   6.939
  136SOL    HW1 1307   3.391   6.607   7.004
  136SOL    HW2 1308   3.242   6.547   6.975
  137SOL     OW 1309   1.499   4.234   0.458
  137SOL    HW1 1310   1.545   4.322   0.446
  137SOL    HW2 1311   1.475   4.221   0.554
  138SOL     OW 1312   0.171   6.955   1.860
  138SOL    HW1 1313   0.152   6.889   1.933
  138SOL    HW2 1314   0.085   6.983   1.817
  139SOL     OW 1315   1.225   0.377   0.797
  139SOL    HW1 1316   1.252   0.307   0.731
  139SOL    HW2 1317   1.286   0.375   0.876
  140SOL     OW 1318   2.288   0.233   3.619
  140SOL    HW1 1319   2.339   0.277   3.545
  140SOL    HW2 1320   2.308   0.135   3.621
  141SOL     OW 1321   2.251   2.362   1.194
  141SOL    HW1 1322   2.282   2.279   1.148
  141SOL    HW2 1323   2.278   2.359   1.290
  142SOL     OW 1324   1.015   4.728   5.854
  142SOL    HW1 1325   1.031   4.731   5.756
  142SOL    HW2 1326   1.082   4.669   5.898
  143SOL     OW 1327   4.306   6.092   2.118
  143SOL    HW1 1328   4.365   6.012   2.111
  143SOL    HW2 1329   4.280   6.122   2.027
  144SOL     OW 1330   2.321   4.841   3.011
  144SOL    HW1 1331   2.335   4.933   2.975
  144SOL    HW2 1332   2.263   4.789   2.948
  145SOL     OW 1333   6.097   6.762   2.270
  145SOL    HW1 1334   6.063   6.825   2.340
  145SOL    HW2 1335   6.107   6.671   2.309
  146SOL     OW 1336   6.366   1.264   4.907
  146SOL    HW1 1337   6.450   1.233   4.863
  146SOL    HW2 1338   6.385   1.347   4.959
  147SOL     OW 1339   5.913   6.344   5.569
  147SOL    HW1 1340   5.972   6.315   5.645
  147SOL    HW2 1341   5.967   6.349   5.485
  148SOL     OW 1342   2.615   0.208   3.730
  148SOL    HW1 1343   2.622   0.302   3.696
  148SOL    HW2 1344   2.634   0.144   3.655
  149SOL     OW 1345   2.121   1.992   5.372
  149SOL    HW1 1346   2.125   1.897   5.402
  149SOL    HW2 1347   2.026   2.018   5.357
  150SOL     OW 1348   5.167   3.404   3.923
  150SOL    HW1 1349   5.204   3.355   4.002
  150SOL    HW2 1350   5.067   3.397   3.923
  151SOL     OW 1351   6.306   2.583   1.956
  151SOL    HW1 1352   6.304   2.619   1.863
  151SOL    HW2 1353   6.378   2.515   1.964
  152SOL     OW 1354   6.303   1.573   0.248
  152SOL    HW1 1355   6.205   1.560   0.263
  152SOL    HW2 1356   6.350   1.485   0.250
  153SOL     OW 1357   1.789   1.697   3.854
  153SOL    HW1 1358   1.728   1.726   3.927
  153SOL    HW2 1359   1.742   1.702   3.766
  154SOL     OW 1360   0.216   1.755   3.389
  154SOL    HW1 1361   0.306   1.766   3.431
  154SOL    HW2 1362   0.160   1.835   3.410
  155SOL     OW 1363   5.916   5.496   3.550
  155SOL    HW1 1364   5.982   5.457   3.487
  155SOL    HW2 1365   5.877   5.423   3.607
  156SOL     OW 1366   3.951   0.012   0.622
  156SOL    HW1 1367   3.882   6.999   0.558
  156SOL    HW2 1368   3.972   6.964   0.690
  157SOL     OW 1369   5.940   1.574   0.403
  157SOL    HW1 1370   5.934   1.507   0.477
  157SOL    HW2 1371   5.871   1.646   0.419
  158SOL     OW 1372   0.904   2.786   5.473
  158SOL    HW1 1373   0.874   2.881   5.468
  158SOL    HW2 1374   1.003   2.782   5.481
  159SOL     OW 1375   0.310   4.719   0.002
  159SOL    HW1 1376   0.315   4.776   0.084
  159SOL    HW2 1377   0.376   4.644   0.009
  160SOL     OW 1378   4.362   0.234   1.587
  160SOL    HW1 1379   4.333   0.141   1.609
  160SOL    HW2 1380   4.353   0.250   1.489
  161SOL     OW 1381   5.684   6.557   1.444
  161SOL    HW1 1382   5.674   6.652   1.473
  161SOL    HW2 1383   5.596   6.510   1.450
  162SOL     OW 1384   4.169   0.200   5.227
  162SOL    HW1 1385   4.120   0.252   5.158
  162SOL    HW2 1386   4.118   0.203   5.313
  163SOL     OW 1387   1.801   4.439   3.176
  163SOL    HW1 1388   1.817   4.532   3.208
  163SOL    HW2 1389   1.730   4.397   3.231
  164SOL     OW 1390   2.164   3.021   2.339
  164SOL    HW1 1391   2.099   2.945   2.351
  164SOL    HW2 1392   2.253   2.995   2.376
  165SOL     OW 1393   6.965   6.022   4.590
  165SOL    HW1 1394   6.895   6.045   4.657
  165SOL    HW2 1395   0.008   6.098   4.582
  166SOL     OW 1396   0.569   5.532   4.461
  166SOL    HW1 1397   0.647   5.473   4.482
  166SOL    HW2 1398   0.557   5.600   4.533
  167SOL     OW 1399   0.296   1.361   3.248
  167SOL    HW1 1400   0.378   1.393   3.296
  167SOL    HW2 1401   0.299   1.262   3.240
  168SOL     OW 1402   3.305   4.096   4.762
  168SOL    HW1 1403   3.243   4.120   4.687
  168SOL    HW2 1404   3.253   4.094   4.848
  169SOL     OW 1405   4.508   2.803   6.159
  169SOL    HW1 1406   4.513   2.825   6.256
  169SOL    HW2 1407   4.526   2.705   6.145
  170SOL     OW 1408   6.040   5.121   2.962
  170SOL    HW1 1409   5.964   5.146   3.022
  170SOL    HW2 1410   6.098   5.201   2.945
  171SOL     OW 1411   3.279   2.989   1.108
  171SOL    HW1 1412   3.307   3.003   1.203
  171SOL    HW2 1413   3.232   3.071   1.075
  172SOL     OW 1414   1.697   0.475   0.246
  172SOL    HW1 1415   1.746   0.456   0.331
  172SOL    HW2 1416   1.631   0.549   0.262
  173SOL     OW 1417   5.563   1.222   4.770
  173SOL    HW1 1418   5.646   1.239   4.718
  173SOL    HW2 1419   5.544   1.124   4.773
  174SOL     OW 1420   6.574   5.322   3.700
  174SOL    HW1 1421   6.674   5.312   3.701
  174SOL    HW2 1422   6.550   5.415   3.728
  175SOL     OW 1423   0.409   5.465   1.850
  175SOL    HW1 1424   0.498   5.510   1.843
  175SOL    HW2 1425   0.368   5.484   1.939
  176SOL     OW 1426   5.312   3.508   0.825
  176SOL    HW1 1427   5.386   3.576   0.817
  176SOL    HW2 1428   5.235   3.549   0.874
  177SOL     OW 1429   5.284   2.609   4.057
  177SOL    HW1 1430   5.304   2.511   4.047
  177SOL    HW2 1431   5.220   2.622   4.132
  178SOL     OW 1432   1.063   4.957   4.306
  178SOL    HW1 1433   1.006   5.000   4.236
  178SOL    HW2 1434   1.148   4.924   4.264
  179SOL     OW 1435   3.056   3.924   1.773
  179SOL    HW1 1436   3.051   3.885   1.681
  179SOL    HW2 1437   3.049   4.023   1.768
  180SOL     OW 1438   5.812   0.541   5.519
  180SOL    HW1 1439   5.716   0.543   5.548
  180SOL    HW2 1440   5.833   0.451   5.480
  181SOL     OW 1441   2.753   5.638   5.617
  181SOL    HW1 1442   2.657   5.619   5.636
  181SOL    HW2 1443   2.768   5.737   5.619
  182SOL     OW 1444   3.194   2.663   5.295
  182SOL    HW1 1445   3.139   2.653   5.378
  182SOL    HW2 1446   3.218   2.573   5.259
  183SOL     OW 1447   1.835   0.370   2.558
  183SOL    HW1 1448   1.892   0.422   2.495
  183SOL    HW2 1449   1.773   0.432   2.606
  184SOL     OW 1450   5.471   6.511   4.014
  184SOL    HW1 1451   5.371   6.506   4.023
  184SOL    HW2 1452   5.513   6.505   4.105
  185SOL     OW 1453   0.285   6.165   5.090
  185SOL    HW1 1454   0.235   6.248   5.116
  185SOL    HW2 1455   0.225   6.104   5.039
  186SOL     OW 1456   3.325   4.857   0.093
  186SOL    HW1 1457   3.331   4.882   0.190
  186SOL    HW2 1458   3.380   4.921   0.039
  187SOL     OW 1459   3.660   5.581   6.845
  187SOL    HW1 1460   3.760   5.592   6.849
  187SOL    HW2 1461   3.621   5.597   6.936
  188SOL     OW 1462   1.350   4.332   3.105
  188SOL    HW1 1463   1.360   4.256   3.169
  188SOL    HW2 1464   1.423   4.328   3.036
  189SOL     OW 1465   6.471   3.554   5.696
  189SOL    HW1 1466   6.467   3.461   5.660
  189SOL    HW2 1467   6.490   3.618   5.622
  190SOL     OW 1468   6.324   6.568   6.956
  190SOL    HW1 1469   6.355   6.486   7.004
  190SOL    HW2 1470   6.224   6.569   6.951
  191SOL     OW 1471   1.851   4.038   6.505
  191SOL    HW1 1472   1.932   4.095   6.511
  191SOL    HW2 1473   1.805   4.035   6.594
  192SOL     OW 1474   0.956   6.386   0.417
  192SOL    HW1 1475   0.967   6.471   0.468
  192SOL    HW2 1476   0.876   6.392   0.358
  193SOL     OW 1477   3.047   0.267   2.037
  193SOL    HW1 1478   3.052   0.356   2.083
  193SOL    HW2 1479   3.098   0.199   2.089
  194SOL     OW 1480   4.675   6.753   3.028
  194SOL    HW1 1481   4.617   6.678   2.996
  194SOL    HW2 1482   4.633   6.797   3.107
  195SOL     OW 1483   3.212   0.726   1.427
  195SOL    HW1 1484   3.145   0.800   1.419
  195SOL    HW2 1485   3.232   0.709   1.523
  196SOL     OW 1486   3.453   2.709   1.297
  196SOL    HW1 1487   3.398   2.667   1.370
  196SOL    HW2 1488   3.398   2.713   1.213
  197SOL     OW 1489   0.796   6.303   1.153
  197SOL    HW1 1490   0.803   6.384   1.211
  197SOL    HW2 1491   0.811   6.329   1.058
  198SOL     OW 1492   6.710   1.055   5.363
  198SOL    HW1 1493   6.641   0.991   5.331
  198SOL    HW2 1494   6.777   1.070   5.291
  199SOL     OW 1495   1.164   6.919   3.400
  199SOL    HW1 1496   1.071   6.950   3.378
  199SOL    HW2 1497   1.224   6.938   3.323
  200SOL     OW 1498   2.190   3.106   3.119
  200SOL    HW1 1499   2.212   3.124   3.023
  200SOL    HW2 1500   2.099   3.142   3.140
  201SOL     OW 1501   5.325   0.776   0.175
  201SOL    HW1 1502   5.245   0.768   0.116
  201SOL    HW2 1503   5.299   0.753   0.269
  202SOL     OW 1504   3.497   0.677   2.477
  202SOL    HW1 1505   3.512   0.771   2.506
  202SOL    HW2 1506   3.564   0.652   2.407
  203SOL     OW 1507   5.649   2.274   1.746
  203SOL    HW1 1508   5.572   2.239   1.693
  203SOL    HW2 1509   5.642   2.241   1.840
  204SOL     OW 1510   2.746   6.167   0.910
  204SOL    HW1 1511   2.699   6.095   0.860
  204SOL    HW2 1512   2.719   6.164   1.006
  205SOL     OW 1513   5.186   0.878   6.727
  205SOL    HW1 1514   5.096   0.856   6.765
  205SOL    HW2 1515   5.176   0.937   6.647
  206SOL     OW 1516   0.280   5.214   2.145
  206SOL    HW1 1517   0.289   5.138   2.080
  206SOL    HW2 1518   0.188   5.253   2.136
  207SOL     OW 1519   6.680   2.902   5.951
  207SOL    HW1 1520   6.610   2.919   6.021
  207SOL    HW2 1521   6.770   2.925   5.988
  208SOL     OW 1522   4.704   4.001   0.985
  208SOL    HW1 1523   4.778   4.003   1.052
  208SOL    HW2 1524   4.617   3.989   1.031
  209SOL     OW 1525   6.354   1.206   4.144
  209SOL    HW1 1526   6.377   1.240   4.053
  209SOL    HW2 1527   6.433   1.161   4.184
  210SOL     OW 1528   5.291   3.369   0.390
  210SOL    HW1 1529   5.322   3.295   0.450
  210SOL    HW2 1530   5.197   3.394   0.414
  211SOL     OW 1531   0.396   4.790   2.242
  211SOL    HW1 1532   0.433   4.879   2.267
  211SOL    HW2 1533   0.456   4.718   2.276
  212SOL     OW 1534   0.607   5.143   5.424
  212SOL    HW1 1535   0.695   5.169   5.465
  212SOL    HW2 1536   0.622   5.118   5.328
  213SOL     OW 1537   5.101   2.351   1.774
  213SOL    HW1 1538   5.158   2.340   1.855
  213SOL    HW2 1539   5.042   2.432   1.786
  214SOL     OW 1540   6.906   5.689   3.638
  214SOL    HW1 1541   6.933   5.739   3.555
  214SOL    HW2 1542   6.901   5.591   3.618
  215SOL     OW 1543   3.593   2.910   3.503
  215SOL    HW1 1544   3.593   3.002   3.463
  215SOL    HW2 1545   3.654   2.851   3.450
  216SOL     OW 1546   4.516   6.965   4.439
  216SOL    HW1 1547   4.456   6.985   4.516
  216SOL    HW2 1548   4.463   6.929   4.363
  217SOL     OW 1549   6.210   1.951   4.708
  217SOL    HW1 1550   6.295   1.986   4.747
  217SOL    HW2 1551   6.137   1.956   4.776
  218SOL     OW 1552   2.693   4.780   5.479
  218SOL    HW1 1553   2.766   4.846   5.462
  218SOL    HW2 1554   2.717   4.692   5.437
  219SOL     OW 1555   3.485   6.731   0.112
  219SOL    HW1 1556   3.487   6.824   0.075
  219SOL    HW2 1557   3.506   6.733   0.210
  220SOL     OW 1558   1.370   4.278   0.716
  220SOL    HW1 1559   1.431   4.340   0.767
  220SOL    HW2 1560   1.302   4.332   0.668
  221SOL     OW 1561   6.048   4.090   4.213
  221SOL    HW1 1562   5.959   4.136   4.208
  221SOL    HW2 1563   6.107   4.124   4.139
  222SOL     OW 1564   0.688   0.565   4.790
  222SOL    HW1 1565   0.721   0.633   4.855
  222SOL    HW2 1566   0.716   0.474   4.820
  223SOL     OW 1567   5.501   5.870   2.098
  223SOL    HW1 1568   5.593   5.839   2.124
  223SOL    HW2 1569   5.507   5.960   2.056
  224SOL     OW 1570   5.409   4.538   2.080
  224SOL    HW1 1571   5.334   4.499   2.027
  224SOL    HW2 1572   5.386   4.536   2.177
  225SOL     OW 1573   4.333   5.937   0.620
  225SOL    HW1 1574   4.389   5.867   0.665
  225SOL    HW2 1575   4.309   6.008   0.687
  226SOL     OW 1576   1.352   5.577   3.242
  226SOL    HW1 1577   1.438   5.622   3.220
  226SOL    HW2 1578   1.297   5.566   3.160
  227SOL     OW 1579   1.587   3.668   3.012
  227SOL    HW1 1580   1.571   3.742   3.076
  227SOL    HW2 1581   1.670   3.618   3.038
  228SOL     OW 1582   3.821   5.737   3.401
  228SOL    HW1 1583   3.823   5.810   3.469
  228SOL    HW2 1584   3.797   5.651   3.446
  229SOL     OW 1585   5.733   6.819   2.329
  229SOL    HW1 1586   5.780   6.904   2.302
  229SOL    HW2 1587   5.635   6.836   2.334
  230SOL     OW 1588   0.985   4.947   4.573
  230SOL    HW1 1589   1.001   5.036   4.617
  230SOL    HW2 1590   1.017   4.952   4.478
  231SOL     OW 1591   6.714   2.594   6.742
  231SOL    HW1 1592   6.800   2.551   6.711
  231SOL    HW2 1593   6.721   2.615   6.839
  232SOL     OW 1594   2.098   3.321   0.457
  232SOL    HW1 1595   2.179   3.270   0.485
  232SOL    HW2 1596   2.085   3.399   0.519
  233SOL     OW 1597   3.491   0.327   0.534
  233SOL    HW1 1598   3.405   0.372   0.557
  233SOL    HW2 1599   3.474   0.258   0.463
  234SOL     OW 1600   2.021   5.656   0.591
  234SOL    HW1 1601   1.990   5.596   0.517
  234SOL    HW2 1602   1.956   5.653   0.666
  235SOL     OW 1603   4.430   2.645   5.426
  235SOL    HW1 1604   4.472   2.717   5.483
  235SOL    HW2 1605   4.339   2.675   5.397
  236SOL     OW 1606   6.973   6.598   6.676
  236SOL    HW1 1607   6.972   6.618   6.774
  236SOL    HW2 1608   0.045   6.585   6.645
  237SOL     OW 1609   5.813   0.609   2.784
  237SOL    HW1 1610   5.837   0.573   2.875
  237SOL    HW2 1611   5.863   0.694   2.768
  238SOL     OW 1612   0.589   1.878   3.284
  238SOL    HW1 1613   0.534   1.946   3.332
  238SOL    HW2 1614   0.532   1.832   3.216
  239SOL     OW 1615   6.342   4.622   5.960
  239SOL    HW1 1616   6.384   4.641   6.048
  239SOL    HW2 1617   6.290   4.702   5.930
  240SOL     OW 1618   0.058   2.990   4.310
  240SOL    HW1 1619   0.077   3.040   4.225
  240SOL    HW2 1620   0.020   2.900   4.287
  241SOL     OW 1621   5.978   2.506   3.948
  241SOL    HW1 1622   5.966   2.580   4.015
  241SOL    HW2 1623   5.900   2.444   3.953
  242SOL     OW 1624   2.165   1.960   2.614
  242SOL    HW1 1625   2.244   1.971   2.553
  242SOL    HW2 1626   2.161   2.038   2.676
  243SOL     OW 1627   5.417   1.229   6.889
  243SOL    HW1 1628   5.425   1.176   6.805
  243SOL    HW2 1629   5.488   1.200   6.953
  244SOL     OW 1630   1.728   0.699   5.879
  244SOL    HW1 1631   1.814   0.751   5.879
  244SOL    HW2 1632   1.677   0.719   5.796
  245SOL     OW 1633   4.472   2.239   4.979
  245SOL    HW1 1634   4.539   2.182   4.931
  245SOL    HW2 1635   4.394   2.256   4.918
  246SOL     OW 1636   5.129   3.982   4.627
  246SOL    HW1 1637   5.128   3.946   4.534
  246SOL    HW2 1638   5.224   3.999   4.655
  247SOL     OW 1639   1.178   0.205   2.672
  247SOL    HW1 1640   1.252   0.138   2.677
  247SOL    HW2 1641   1.217   0.297   2.672
  248SOL     OW 1642   7.009   3.351   3.556
  248SOL    HW1 1643   0.074   3.307   3.577
  248SOL    HW2 1644   6.935   3.304   3.605
  249SOL     OW 1645   1.766   6.535   4.576
  249SOL    HW1 1646   1.842   6.473   4.596
  249SOL    HW2 1647   1.758   6.547   4.477
  250SOL     OW 1648   5.876   2.386   0.579
  250SOL    HW1 1649   5.799   2.430   0.533
  250SOL    HW2 1650   5.962   2.425   0.545
  251SOL     OW 1651   2.277   6.937   2.558
  251SOL    HW1 1652   2.332   6.880   2.620
  251SOL    HW2 1653   2.293   0.011   2.580
  252SOL     OW 1654   6.643   3.299   6.648
  252SOL    HW1 1655   6.600   3.389   6.647
  252SOL    HW2 1656   6.584   3.234   6.695
  253SOL     OW 1657   1.891   4.665   5.441
  253SOL    HW1 1658   1.861   4.637   5.350
  253SOL    HW2 1659   1.987   4.691   5.439
  254SOL     OW 1660   5.410   3.853   6.931
  254SOL    HW1 1661   5.362   3.868   7.018
  254SOL    HW2 1662   5.440   3.757   6.926
  255SOL     OW 1663   4.441   2.379   2.105
  255SOL    HW1 1664   4.452   2.311   2.177
  255SOL    HW2 1665   4.365   2.353   2.046
  256SOL     OW 1666   0.450   6.594   0.822
  256SOL    HW1 1667   0.462   6.536   0.903
  256SOL    HW2 1668   0.502   6.555   0.745
  257SOL     OW 1669   2.647   6.141   6.398
  257SOL    HW1 1670   2.598   6.195   6.466
  257SOL    HW2 1671   2.586   6.072   6.360
  258SOL     OW 1672   5.246   5.201   3.781
  258SOL    HW1 1673   5.267   5.239   3.871
  258SOL    HW2 1674   5.209   5.273   3.723
  259SOL     OW 1675   6.187   1.510   1.878
  259SOL    HW1 1676   6.283   1.488   1.897
  259SOL    HW2 1677   6.132   1.489   1.959
  260SOL     OW 1678   6.264   6.982   6.153
  260SOL    HW1 1679   6.212   6.902   6.185
  260SOL    HW2 1680   6.361   6.959   6.149
  261SOL     OW 1681   6.518   0.989   3.148
  261SOL    HW1 1682   6.450   0.916   3.146
  261SOL    HW2 1683   6.541   1.017   3.055
  262SOL     OW 1684   1.196   5.737   0.774
  262SOL    HW1 1685   1.185   5.638   0.783
  262SOL    HW2 1686   1.159   5.783   0.854
  263SOL     OW 1687   0.936   4.520   5.177
  263SOL    HW1 1688   0.962   4.593   5.241
  263SOL    HW2 1689   0.837   4.520   5.166
  264SOL     OW 1690   4.253   4.708   0.640
  264SOL    HW1 1691   4.171   4.658   0.667
  264SOL    HW2 1692   4.241   4.744   0.547
  265SOL     OW 1693   4.114   5.284   4.621
  265SOL    HW1 1694   4.167   5.216   4.570
  265SOL    HW2 1695   4.044   5.323   4.562
  266SOL     OW 1696   5.036   3.271   6.503
  266SOL    HW1 1697   5.001   3.178   6.500
  266SOL    HW2 1698   4.985   3.328   6.439
  267SOL     OW 1699   3.246   1.612   6.493
  267SOL    HW1 1700   3.266   1.703   6.457
  267SOL    HW2 1701   3.205   1.620   6.584
  268SOL     OW 1702   1.879   4.236   3.026
  268SOL    HW1 1703   1.942   4.270   2.955
  268SOL    HW2 1704   1.859   4.310   3.090
  269SOL     OW 1705   3.538   1.406   5.538
  269SOL    HW1 1706   3.599   1.398   5.460
  269SOL    HW2 1707   3.516   1.502   5.554
  270SOL     OW 1708   4.884   5.814   4.758
  270SOL    HW1 1709   4.915   5.909   4.765
  270SOL    HW2 1710   4.810   5.808   4.691
  271SOL     OW 1711   2.414   0.738   0.361
  271SOL    HW1 1712   2.499   0.689   0.339
  271SOL    HW2 1713   2.337   0.674   0.356
  272SOL     OW 1714   5.762   4.050   6.615
  272SOL    HW1 1715   5.792   4.037   6.520
  272SOL    HW2 1716   5.727   4.143   6.626
  273SOL     OW 1717   0.480   5.577   4.191
  273SOL    HW1 1718   0.501   5.642   4.118
  273SOL    HW2 1719   0.518   5.612   4.277
  274SOL     OW 1720   5.076   2.800   2.363
  274SOL    HW1 1721   5.035   2.874   2.418
  274SOL    HW2 1722   5.137   2.746   2.421
  275SOL     OW 1723   5.494   5.092   5.919
  275SOL    HW1 1724   5.451   5.158   5.981
  275SOL    HW2 1725   5.440   5.086   5.835
  276SOL     OW 1726   0.508   0.189   4.885
  276SOL    HW1 1727   0.594   0.141   4.901
  276SOL    HW2 1728   0.497   0.207   4.787
  277SOL     OW 1729   4.090   3.308   6.138
  277SOL    HW1 1730   4.007   3.305   6.193
  277SOL    HW2 1731   4.067   3.334   6.044
  278SOL     OW 1732   5.937   5.237   1.972
  278SOL    HW1 1733   6.011   5.172   1.992
  278SOL    HW2 1734   5.856   5.213   2.026
  279SOL     OW 1735   6.620   3.267   4.248
  279SOL    HW1 1736   6.582   3.349   4.206
  279SOL    HW2 1737   6.704   3.290   4.297
  280SOL     OW 1738   4.145   1.014   2.450
  280SOL    HW1 1739   4.224   0.982   2.398
  280SOL    HW2 1740   4.063   0.963   2.422
  281SOL     OW 1741   4.964   5.426   6.196
  281SOL    HW1 1742   4.971   5.423   6.296
  281SOL    HW2 1743   4.909   5.349   6.165
  282SOL     OW 1744   0.542   1.171   6.786
  282SOL    HW1 1745   0.500   1.119   6.712
  282SOL    HW2 1746   0.591   1.249   6.748
  283SOL     OW 1747   6.523   4.017   3.303
  283SOL    HW1 1748   6.576   3.941   3.339
  283SOL    HW2 1749   6.560   4.044   3.214
  284SOL     OW 1750   5.597   0.091   2.722
  284SOL    HW1 1751   5.501   0.077   2.749
  284SOL    HW2 1752   5.652   0.111   2.804
  285SOL     OW 1753   5.383   6.010   6.456
  285SOL    HW1 1754   5.439   6.075   6.403
  285SOL    HW2 1755   5.402   6.022   6.553
  286SOL     OW 1756   3.344   6.076   5.474
  286SOL    HW1 1757   3.327   6.143   5.547
  286SOL    HW2 1758   3.438   6.042   5.482
  287SOL     OW 1759   5.080   0.011   0.494
  287SOL    HW1 1760   5.180   0.013   0.489
  287SOL    HW2 1761   5.048   6.940   0.479
  288SOL     OW 1762   3.628   0.392   7.016
  288SOL    HW1 1763   3.692   0.408   0.069
  288SOL    HW2 1764   3.534   0.395   0.029
  289SOL     OW 1765   6.197   5.050   4.412
  289SOL    HW1 1766   6.238   5.011   4.494
  289SOL    HW2 1767   6.248   5.131   4.384
  290SOL     OW 1768   3.033   1.434   4.976
  290SOL    HW1 1769   3.006   1.436   5.073
  290SOL    HW2 1770   2.971   1.492   4.924
  291SOL     OW 1771   6.041   1.369   4.787
  291SOL    HW1 1772   6.094   1.442   4.830
  291SOL    HW2 1773   6.013   1.396   4.695
  292SOL     OW 1774   2.684   0.479   4.832
  292SOL    HW1 1775   2.625   0.454   4.909
  292SOL    HW2 1776   2.643   0.555   4.782
  293SOL     OW 1777   5.773   0.901   2.799
  293SOL    HW1 1778   5.685   0.947   2.798
  293SOL    HW2 1779   5.846   0.967   2.817
  294SOL     OW 1780   6.655   0.871   6.124
  294SOL    HW1 1781   6.597   0.940   6.080
  294SOL    HW2 1782   6.748   0.880   6.089
  295SOL     OW 1783   0.320   0.518   5.318
  295SOL    HW1 1784   0.365   0.534   5.230
  295SOL    HW2 1785   0.304   0.605   5.363
  296SOL     OW 1786   0.033   1.523   6.227
  296SOL    HW1 1787   7.003   1.596   6.271
  296SOL    HW2 1788   7.012   1.435   6.247
  297SOL     OW 1789   4.991   4.392   3.172
  297SOL    HW1 1790   5.079   4.345   3.183
  297SOL    HW2 1791   5.005   4.478   3.123
  298SOL     OW 1792   4.259   6.149   5.097
  298SOL    HW1 1793   4.178   6.141   5.039
  298SOL    HW2 1794   4.295   6.242   5.091
  299SOL     OW 1795   6.614   1.708   6.281
  299SOL    HW1 1796   6.565   1.782   6.235
  299SOL    HW2 1797   6.619   1.629   6.221
  300SOL     OW 1798   4.608   6.551   4.485
  300SOL    HW1 1799   4.633   6.633   4.536
  300SOL    HW2 1800   4.531   6.506   4.530
  301SOL     OW 1801   0.235   6.432   5.727
  301SOL    HW1 1802   0.206   6.508   5.668
  301SOL    HW2 1803   0.268   6.357   5.669
  302SOL     OW 1804   0.755   5.706   2.682
  302SOL    HW1 1805   0.840   5.754   2.659
  302SOL    HW2 1806   0.706   5.682   2.599
  303SOL     OW 1807   4.308   5.307   2.297
  303SOL    HW1 1808   4.350   5.246   2.229
  303SOL    HW2 1809   4.223   5.344   2.261
  304SOL     OW 1810   1.470   1.097   5.256
  304SOL    HW1 1811   1.484   1.193   5.232
  304SOL    HW2 1812   1.408   1.092   5.334
  305SOL     OW 1813   3.263   1.148   1.170
  305SOL    HW1 1814   3.330   1.082   1.205
  305SOL    HW2 1815   3.222   1.112   1.086
  306SOL     OW 1816   6.934   6.480   2.113
  306SOL    HW1 1817   6.838   6.494   2.137
  306SOL    HW2 1818   6.941   6.463   2.014
  307SOL     OW 1819   3.777   2.921   4.390
  307SOL    HW1 1820   3.689   2.895   4.352
  307SOL    HW2 1821   3.842   2.937   4.316
  308SOL     OW 1822   6.333   2.960   0.367
  308SOL    HW1 1823   6.269   2.938   0.294
  308SOL    HW2 1824   6.385   3.042   0.342
  309SOL     OW 1825   1.890   5.473   0.354
  309SOL    HW1 1826   1.946   5.424   0.287
  309SOL    HW2 1827   1.816   5.413   0.386
  310SOL     OW 1828   4.352   6.554   5.382
  310SOL    HW1 1829   4.417   6.479   5.369
  310SOL    HW2 1830   4.270   6.518   5.427
  311SOL     OW 1831   1.760   5.849   2.102
  311SOL    HW1 1832   1.734   5.756   2.127
  311SOL    HW2 1833   1.695   5.885   2.035
  312SOL     OW 1834   3.257   0.119   4.840
  312SOL    HW1 1835   3.211   0.102   4.928
  312SOL    HW2 1836   3.189   0.144   4.771
  313SOL     OW 1837   3.435   4.081   3.374
  313SOL    HW1 1838   3.421   4.107   3.279
  313SOL    HW2 1839   3.346   4.075   3.421
  314SOL     OW 1840   1.777   4.427   6.264
  314SOL    HW1 1841   1.800   4.368   6.187
  314SOL    HW2 1842   1.717   4.501   6.234
  315SOL     OW 1843   6.202   0.842   3.981
  315SOL    HW1 1844   6.114   0.854   3.935
  315SOL    HW2 1845   6.264   0.915   3.952
  316SOL     OW 1846   4.108   0.854   5.050
  316SOL    HW1 1847   4.026   0.903   5.078
  316SOL    HW2 1848   4.092   0.809   4.962
  317SOL     OW 1849   0.052   1.243   2.052
  317SOL    HW1 1850   0.142   1.258   2.011
  317SOL    HW2 1851   7.005   1.292   1.999
  318SOL     OW 1852   0.939   1.647   3.600
  318SOL    HW1 1853   1.023   1.631   3.548
  318SOL    HW2 1854   0.954   1.722   3.665
  319SOL     OW 1855   6.928   1.377   1.867
  319SOL    HW1 1856   6.947   1.471   1.894
  319SOL    HW2 1857   6.831   1.366   1.847
  320SOL     OW 1858   4.971   0.644   6.543
  320SOL    HW1 1859   4.968   0.723   6.482
  320SOL    HW2 1860   5.020   0.569   6.498
  321SOL     OW 1861   4.371   3.991   0.679
  321SOL    HW1 1862   4.327   3.933   0.748
  321SOL    HW2 1863   4.447   4.040   0.721
  322SOL     OW 1864   2.691   1.135   0.400
  322SOL    HW1 1865   2.670   1.038   0.387
  322SOL    HW2 1866   2.656   1.187   0.322
  323SOL     OW 1867   0.332   4.226   2.384
  323SOL    HW1 1868   0.271   4.305   2.375
  323SOL    HW2 1869   0.326   4.170   2.302
  324SOL     OW 1870   6.820   0.929   3.806
  324SOL    HW1 1871   6.774   1.017   3.792
  324SOL    HW2 1872   6.757   0.855   3.785
  325SOL     OW 1873   0.017   2.498   6.851
  325SOL    HW1 1874   7.015   2.423   6.913
  325SOL    HW2 1875   0.008   2.585   6.901
  326SOL     OW 1876   6.417   5.568   5.702
  326SOL    HW1 1877   6.429   5.524   5.613
  326SOL    HW2 1878   6.497   5.551   5.759
  327SOL     OW 1879   3.967   6.353   6.333
  327SOL    HW1 1880   3.893   6.291   6.359
  327SOL    HW2 1881   3.935   6.447   6.343
  328SOL     OW 1882   2.439   5.407   3.441
  328SOL    HW1 1883   2.356   5.451   3.476
  328SOL    HW2 1884   2.473   5.340   3.507
  329SOL     OW 1885   3.050   3.695   3.002
  329SOL    HW1 1886   3.114   3.717   3.075
  329SOL    HW2 1887   3.019   3.600   3.011
  330SOL     OW 1888   2.156   3.573   6.644
  330SOL    HW1 1889   2.083   3.532   6.698
  330SOL    HW2 1890   2.196   3.504   6.583
  331SOL     OW 1891   4.355   5.916   4.750
  331SOL    HW1 1892   4.335   5.921   4.848
  331SOL    HW2 1893   4.367   5.820   4.723
  332SOL     OW 1894   5.951   2.420   2.768
  332SOL    HW1 1895   5.851   2.418   2.766
  332SOL    HW2 1896   5.986   2.330   2.741
  333SOL     OW 1897   3.058   6.408   4.049
  333SOL    HW1 1898   3.068   6.456   4.137
  333SOL    HW2 1899   3.101   6.318   4.055
  334SOL     OW 1900   3.469   3.473   4.242
  334SOL    HW1 1901   3.475   3.573   4.244
  334SOL    HW2 1902   3.509   3.436   4.326
  335SOL     OW 1903   4.736   1.074   6.509
  335SOL    HW1 1904   4.746   1.120   6.421
  335SOL    HW2 1905   4.736   1.141   6.583
  336SOL     OW 1906   3.651   1.390   4.682
  336SOL    HW1 1907   3.707   1.473   4.677
  336SOL    HW2 1908   3.670   1.332   4.603
  337SOL     OW 1909   0.869   1.635   5.441
  337SOL    HW1 1910   0.944   1.688   5.481
  337SOL    HW2 1911   0.782   1.668   5.478
  338SOL     OW 1912   4.314   2.114   1.279
  338SOL    HW1 1913   4.314   2.089   1.375
  338SOL    HW2 1914   4.253   2.053   1.228
  339SOL     OW 1915   3.871   4.293   5.728
  339SOL    HW1 1916   3.833   4.223   5.668
  339SOL    HW2 1917   3.797   4.351   5.762
  340SOL     OW 1918   5.815   4.733   4.329
  340SOL    HW1 1919   5.815   4.685   4.241
  340SOL    HW2 1920   5.853   4.825   4.316
  341SOL     OW 1921   6.161   0.681   1.698
  341SOL    HW1 1922   6.110   0.755   1.654
  341SOL    HW2 1923   6.172   0.605   1.635
  342SOL     OW 1924   4.632   0.400   1.371
  342SOL    HW1 1925   4.537   0.378   1.347
  342SOL    HW2 1926   4.690   0.390   1.290
  343SOL     OW 1927   5.690   0.723   1.940
  343SOL    HW1 1928   5.687   0.634   1.986
  343SOL    HW2 1929   5.610   0.731   1.881
  344SOL     OW 1930   6.503   3.016   1.433
  344SOL    HW1 1931   6.492   3.085   1.504
  344SOL    HW2 1932   6.564   3.051   1.362
  345SOL     OW 1933   0.155   3.484   3.381
  345SOL    HW1 1934   0.100   3.433   3.447
  345SOL    HW2 1935   0.118   3.577   3.371
  346SOL     OW 1936   0.562   0.633   3.470
  346SOL    HW1 1937   0.657   0.656   3.449
  346SOL    HW2 1938   0.508   0.631   3.386
  347SOL     OW 1939   1.655   4.309   1.252
  347SOL    HW1 1940   1.565   4.305   1.296
  347SOL    HW2 1941   1.726   4.316   1.322
  348SOL     OW 1942   6.327   4.720   1.208
  348SOL    HW1 1943   6.264   4.783   1.164
  348SOL    HW2 1944   6.321   4.731   1.307
  349SOL     OW 1945   5.801   5.212   6.841
  349SOL    HW1 1946   5.727   5.160   6.798
  349SOL    HW2 1947   5.765   5.298   6.878
  350SOL     OW 1948   2.155   0.957   0.556
  350SOL    HW1 1949   2.057   0.961   0.577
  350SOL    HW2 1950   2.178   1.028   0.490
  351SOL     OW 1951   4.088   4.709   1.090
  351SOL    HW1 1952   4.176   4.690   1.047
  351SOL    HW2 1953   4.040   4.779   1.037
  352SOL     OW 1954   3.765   0.989   2.625
  352SOL    HW1 1955   3.668   1.007   2.607
  352SOL    HW2 1956   3.785   0.893   2.605
  353SOL     OW 1957   2.355   6.330   0.845
  353SOL    HW1 1958   2.281   6.308   0.908
  353SOL    HW2 1959   2.393   6.420   0.868
  354SOL     OW 1960   3.161   2.358   1.081
  354SOL    HW1 1961   3.260   2.366   1.092
  354SOL    HW2 1962   3.127   2.437   1.029
  355SOL     OW 1963   6.550   2.248   2.752
  355SOL    HW1 1964   6.541   2.159   2.706
  355SOL    HW2 1965   6.629   2.246   2.814
  356SOL     OW 1966   2.810   6.994   5.838
  356SOL    HW1 1967   2.725   7.012   5.887
  356SOL    HW2 1968   2.794   7.001   5.739
  357SOL     OW 1969   6.169   5.492   4.390
  357SOL    HW1 1970   6.223   5.543   4.457
  357SOL    HW2 1971   6.115   5.556   4.334
  358SOL     OW 1972   3.342   6.181   7.009
  358SOL    HW1 1973   3.329   6.114   0.060
  358SOL    HW2 1974   3.294   6.265   0.010
  359SOL     OW 1975   1.887   2.040   1.114
  359SOL    HW1 1976   1.810   2.003   1.166
  359SOL    HW2 1977   1.903   1.983   1.033
  360SOL     OW 1978   1.774   4.954   2.502
  360SOL    HW1 1979   1.783   4.856   2.520
  360SOL    HW2 1980   1.700   4.969   2.436
  361SOL     OW 1981   5.853   3.155   2.823
  361SOL    HW1 1982   5.777   3.147   2.759
  361SOL    HW2 1983   5.819   3.186   2.912
  362SOL     OW 1984   3.682   2.892   3.156
  362SOL    HW1 1985   3.713   2.801   3.129
  362SOL    HW2 1986   3.614   2.925   3.091
  363SOL     OW 1987   4.815   5.738   1.852
  363SOL    HW1 1988   4.850   5.792   1.775
  363SOL    HW2 1989   4.843   5.780   1.938
  364SOL     OW 1990   1.328   1.060   6.918
  364SOL    HW1 1991   1.252   1.026   6.974
  364SOL    HW2 1992   1.381   1.127   6.970
  365SOL     OW 1993   4.952   0.069   3.472
  365SOL    HW1 1994   4.944   0.092   3.375
  365SOL    HW2 1995   5.035   0.015   3.487
  366SOL     OW 1996   5.660   0.357   0.514
  366SOL    HW1 1997   5.642   0.370   0.611
  366SOL    HW2 1998   5.720   0.430   0.481
  367SOL     OW 1999   6.461   6.242   6.797
  367SOL    HW1 2000   6.414   6.161   6.833
  367SOL    HW2 2001   6.506   6.290   6.872
  368SOL     OW 2002   2.773   0.775   4.802
  368SOL    HW1 2003   2.737   0.867   4.820
  368SOL    HW2 2004   2.855   0.760   4.857
  369SOL     OW 2005   5.201   3.516   6.190
  369SOL    HW1 2006   5.235   3.432   6.232
  369SOL    HW2 2007   5.176   3.498   6.094
  370SOL     OW 2008   1.605   1.802   4.018
  370SOL    HW1 2009   1.510   1.795   3.990
  370SOL    HW2 2010   1.629   1.899   4.031
  371SOL     OW 2011   2.699   5.215   0.941
  371SOL    HW1 2012   2.781   5.168   0.974
  371SOL    HW2 2013   2.717   5.313   0.933
  372SOL     OW 2014   2.220   5.780   5.786
  372SOL    HW1 2015   2.183   5.873   5.775
  372SOL    HW2 2016   2.153   5.714   5.753
  373SOL     OW 2017   5.825   4.638   2.048
  373SOL    HW1 2018   5.774   4.600   2.126
  373SOL    HW2 2019   5.811   4.737   2.044
  374SOL     OW 2020   2.424   2.654   2.477
  374SOL    HW1 2021   2.388   2.576   2.428
  374SOL    HW2 2022   2.486   2.623   2.550
  375SOL     OW 2023   0.534   5.069   4.384
  375SOL    HW1 2024   0.461   5.020   4.337
  375SOL    HW2 2025   0.507   5.164   4.398
  376SOL     OW 2026   5.482   6.642   3.577
  376SOL    HW1 2027   5.388   6.642   3.540
  376SOL    HW2 2028   5.493   6.566   3.640
  377SOL     OW 2029   2.598   3.636   6.395
  377SOL    HW1 2030   2.617   3.567   6.325
  377SOL    HW2 2031   2.505   3.623   6.430
  378SOL     OW 2032   4.675   1.219   1.095
  378SOL    HW1 2033   4.747   1.189   1.032
  378SOL    HW2 2034   4.621   1.140   1.123
  379SOL     OW 2035   2.827   3.627   0.825
  379SOL    HW1 2036   2.914   3.656   0.865
  379SOL    HW2 2037   2.808   3.532   0.852
  380SOL     OW 2038   5.674   1.710   0.461
  380SOL    HW1 2039   5.605   1.708   0.533
  380SOL    HW2 2040   5.651   1.779   0.393
  381SOL     OW 2041   0.309   3.196   2.430
  381SOL    HW1 2042   0.393   3.227   2.474
  381SOL    HW2 2043   0.251   3.276   2.410
  382SOL     OW 2044   5.753   0.263   0.877
  382SOL    HW1 2045   5.830   0.280   0.816
  382SOL    HW2 2046   5.680   0.329   0.858
  383SOL     OW 2047   5.211   3.056   1.513
  383SOL    HW1 2048   5.199   3.005   1.428
  383SOL    HW2 2049   5.308   3.055   1.539
  384SOL     OW 2050   1.606   2.779   4.416
  384SOL    HW1 2051   1.511   2.765   4.387
  384SOL    HW2 2052   1.628   2.714   4.488
  385SOL     OW 2053   4.544   3.532   6.892
  385SOL    HW1 2054   4.596   3.616   6.907
  385SOL    HW2 2055   4.605   3.453   6.904
  386SOL     OW 2056   2.845   6.307   5.680
  386SOL    HW1 2057   2.940   6.337   5.687
  386SOL    HW2 2058   2.842   6.209   5.662
  387SOL     OW 2059   1.738   6.626   3.540
  387SOL    HW1 2060   1.796   6.666   3.610
  387SOL    HW2 2061   1.735   6.527   3.552
  388SOL     OW 2062   1.992   5.627   5.671
  388SOL    HW1 2063   1.982   5.527   5.670
  388SOL    HW2 2064   1.920   5.668   5.726
  389SOL     OW 2065   4.200   1.386   6.903
  389SOL    HW1 2066   4.152   1.446   6.839
  389SOL    HW2 2067   4.137   1.356   6.975
  390SOL     OW 2068   3.845   1.034   3.585
  390SOL    HW1 2069   3.829   1.121   3.631
  390SOL    HW2 2070   3.919   0.985   3.631
  391SOL     OW 2071   0.435   1.109   0.365
  391SOL    HW1 2072   0.488   1.145   0.288
  391SOL    HW2 2073   0.461   1.157   0.448
  392SOL     OW 2074   4.298   5.413   4.167
  392SOL    HW1 2075   4.277   5.508   4.187
  392SOL    HW2 2076   4.350   5.407   4.082
  393SOL     OW 2077   5.346   2.354   5.626
  393SOL    HW1 2078   5.337   2.351   5.527
  393SOL    HW2 2079   5.417   2.291   5.655
  394SOL     OW 2080   2.504   1.395   6.823
  394SOL    HW1 2081   2.586   1.451   6.835
  394SOL    HW2 2082   2.478   1.394   6.726
  395SOL     OW 2083   0.110   2.743   0.657
  395SOL    HW1 2084   0.194   2.797   0.653
  395SOL    HW2 2085   0.038   2.795   0.702
  396SOL     OW 2086   4.169   2.049   5.771
  396SOL    HW1 2087   4.095   2.106   5.807
  396SOL    HW2 2088   4.219   2.008   5.847
  397SOL     OW 2089   5.110   6.739   6.896
  397SOL    HW1 2090   5.019   6.778   6.880
  397SOL    HW2 2091   5.120   6.717   6.993
  398SOL     OW 2092   5.381   4.240   2.122
  398SOL    HW1 2093   5.395   4.240   2.023
  398SOL    HW2 2094   5.469   4.253   2.167
  399SOL     OW 2095   1.952   5.406   1.445
  399SOL    HW1 2096   2.006   5.350   1.383
  399SOL    HW2 2097   1.996   5.496   1.455
  400SOL     OW 2098   2.112   4.575   6.037
  400SOL    HW1 2099   2.020   4.614   6.033
  400SOL    HW2 2100   2.106   4.478   6.062
  401SOL     OW 2101   6.740   1.495   1.181
  401SOL    HW1 2102   6.650   1.458   1.204
  401SOL    HW2 2103   6.739   1.594   1.191
  402SOL     OW 2104   0.718   5.647   0.742
  402SOL    HW1 2105   0.770   5.667   0.659
  402SOL    HW2 2106   0.621   5.645   0.720
  403SOL     OW 2107   5.293   4.309   0.146
  403SOL    HW1 2108   5.222   4.263   0.092
  403SOL    HW2 2109   5.313   4.254   0.227
  404SOL     OW 2110   6.565   6.075   4.379
  404SOL    HW1 2111   6.556   5.984   4.341
  404SOL    HW2 2112   6.585   6.140   4.305
  405SOL     OW 2113   1.308   1.603   1.408
  405SOL    HW1 2114   1.223   1.553   1.424
  405SOL    HW2 2115   1.290   1.701   1.408
  406SOL     OW 2116   0.532   2.776   4.018
  406SOL    HW1 2117   0.571   2.868   4.027
  406SOL    HW2 2118   0.457   2.765   4.083
  407SOL     OW 2119   3.196   1.684   3.578
  407SOL    HW1 2120   3.201   1.743   3.658
  407SOL    HW2 2121   3.288   1.653   3.554
  408SOL     OW 2122   2.724   0.206   3.979
  408SOL    HW1 2123   2.719   0.305   3.988
  408SOL    HW2 2124   2.690   0.179   3.889
  409SOL     OW 2125   0.348   5.064   4.768
  409SOL    HW1 2126   0.347   5.050   4.867
  409SOL    HW2 2127   0.382   4.983   4.722
  410SOL     OW 2128   2.593   7.004   6.603
  410SOL    HW1 2129   2.648   6.952   6.538
  410SOL    HW2 2130   2.497   7.001   6.576
  411SOL     OW 2131   0.597   4.478   6.057
  411SOL    HW1 2132   0.646   4.553   6.103
  411SOL    HW2 2133   0.504   4.473   6.094
  412SOL     OW 2134   3.557   5.723   3.307
  412SOL    HW1 2135   3.652   5.737   3.335
  412SOL    HW2 2136   3.546   5.752   3.212
  413SOL     OW 2137   1.997   0.794   1.632
  413SOL    HW1 2138   2.010   0.869   1.696
  413SOL    HW2 2139   1.900   0.783   1.612
  414SOL     OW 2140   4.309   5.052   0.602
  414SOL    HW1 2141   4.361   5.068   0.518
  414SOL    HW2 2142   4.348   4.975   0.651
  415SOL     OW 2143   3.664   6.175   3.051
  415SOL    HW1 2144   3.620   6.248   3.103
  415SOL    HW2 2145   3.762   6.192   3.045
  416SOL     OW 2146   3.850   5.909   6.908
  416SOL    HW1 2147   3.843   5.838   6.838
  416SOL    HW2 2148   3.866   5.997   6.863
  417SOL     OW 2149   5.872   5.346   1.327
  417SOL    HW1 2150   5.971   5.348   1.336
  417SOL    HW2 2151   5.831   5.412   1.390
  418SOL     OW 2152   0.277   5.127   6.297
  418SOL    HW1 2153   0.364   5.095   6.333
  418SOL    HW2 2154   0.242   5.200   6.355
  419SOL     OW 2155   5.298   5.431   6.455
  419SOL    HW1 2156   5.233   5.476   6.516
  419SOL    HW2 2157   5.258   5.345   6.423
  420SOL     OW 2158   5.743   3.427   0.103
  420SOL    HW1 2159   5.796   3.348   0.072
  420SOL    HW2 2160   5.798   3.480   0.168
  421SOL     OW 2161   1.661   6.266   5.828
  421SOL    HW1 2162   1.703   6.355   5.814
  421SOL    HW2 2163   1.573   6.262   5.780
  422SOL     OW 2164   6.170   3.793   0.317
  422SOL    HW1 2165   6.111   3.791   0.397
  422SOL    HW2 2166   6.189   3.700   0.287
  423SOL     OW 2167   1.796   2.889   6.193
  423SOL    HW1 2168   1.804   2.789   6.196
  423SOL    HW2 2169   1.701   2.914   6.175
  424SOL     OW 2170   2.193   4.351   5.837
  424SOL    HW1 2171   2.291   4.368   5.834
  424SOL    HW2 2172   2.165   4.330   5.931
  425SOL     OW 2173   2.226   0.268   0.019
  425SOL    HW1 2174   2.278   0.352   0.036
  425SOL    HW2 2175   2.204   0.224   0.107
  426SOL     OW 2176   1.267   2.993   0.025
  426SOL    HW1 2177   1.358   3.015   0.059
  426SOL    HW2 2178   1.271   2.972   6.950
  427SOL     OW 2179   4.016   2.818   0.454
  427SOL    HW1 2180   4.027   2.767   0.540
  427SOL    HW2 2181   4.027   2.916   0.473
  428SOL     OW 2182   3.495   0.596   4.462
  428SOL    HW1 2183   3.430   0.634   4.397
  428SOL    HW2 2184   3.588   0.620   4.433
  429SOL     OW 2185   3.905   5.721   6.701
  429SOL    HW1 2186   3.981   5.660   6.719
  429SOL    HW2 2187   3.863   5.699   6.613
  430SOL     OW 2188   2.734   1.150   4.169
  430SOL    HW1 2189   2.675   1.191   4.099
  430SOL    HW2 2190   2.773   1.065   4.134
  431SOL     OW 2191   3.225   0.741   6.038
  431SOL    HW1 2192   3.225   0.840   6.030
  431SOL    HW2 2193   3.231   0.715   6.135
  432SOL     OW 2194   6.489   0.709   1.240
  432SOL    HW1 2195   6.449   0.749   1.157
  432SOL    HW2 2196   6.589   0.716   1.235
  433SOL     OW 2197   3.943   6.381   4.855
  433SOL    HW1 2198   3.932   6.480   4.852
  433SOL    HW2 2199   4.003   6.351   4.781
  434SOL     OW 2200   6.456   3.605   1.007
  434SOL    HW1 2201   6.556   3.599   1.000
  434SOL    HW2 2202   6.427   3.697   0.980
  435SOL     OW 2203   3.420   3.763   1.115
  435SOL    HW1 2204   3.471   3.770   1.030
  435SOL    HW2 2205   3.474   3.715   1.184
  436SOL     OW 2206   2.693   1.435   0.929
  436SOL    HW1 2207   2.601   1.413   0.896
  436SOL    HW2 2208   2.756   1.362   0.902
  437SOL     OW 2209   6.037   6.462   6.313
  437SOL    HW1 2210   6.114   6.505   6.267
  437SOL    HW2 2211   5.971   6.532   6.339
  438SOL     OW 2212   1.160   3.550   1.060
  438SOL    HW1 2213   1.096   3.586   0.992
  438SOL    HW2 2214   1.253   3.580   1.037
  439SOL     OW 2215   6.053   5.461   1.522
  439SOL    HW1 2216   6.124   5.529   1.505
  439SOL    HW2 2217   5.964   5.505   1.523
  440SOL     OW 2218   1.204   2.888   2.450
  440SOL    HW1 2219   1.148   2.916   2.529
  440SOL    HW2 2220   1.276   2.826   2.481
  441SOL     OW 2221   6.755   1.927   2.965
  441SOL    HW1 2222   6.657   1.949   2.965
  441SOL    HW2 2223   6.803   1.992   3.024
  442SOL     OW 2224   1.238   5.160   6.631
  442SOL    HW1 2225   1.241   5.098   6.553
  442SOL    HW2 2226   1.298   5.238   6.613
  443SOL     OW 2227   6.956   6.102   5.624
  443SOL    HW1 2228   6.923   6.174   5.563
  443SOL    HW2 2229   7.004   6.143   5.702
  444SOL     OW 2230   5.185   2.933   6.572
  444SOL    HW1 2231   5.174   2.943   6.473
  444SOL    HW2 2232   5.209   3.022   6.611
  445SOL     OW 2233   1.584   3.837   2.500
  445SOL    HW1 2234   1.529   3.920   2.488
  445SOL    HW2 2235   1.613   3.831   2.596
  446SOL     OW 2236   1.487   5.499   4.635
  446SOL    HW1 2237   1.521   5.434   4.703
  446SOL    HW2 2238   1.394   5.527   4.658
  447SOL     OW 2239   1.185   5.649   0.480
  447SOL    HW1 2240   1.189   5.748   0.495
  447SOL    HW2 2241   1.186   5.630   0.382
  448SOL     OW 2242   4.930   0.686   5.377
  448SOL    HW1 2243   4.863   0.616   5.352
  448SOL    HW2 2244   5.021   0.657   5.349
  449SOL     OW 2245   6.600   0.836   4.259
  449SOL    HW1 2246   6.531   0.780   4.213
  449SOL    HW2 2247   6.613   0.921   4.208
  450SOL     OW 2248   0.048   6.029   2.721
  450SOL    HW1 2249   0.097   5.942   2.722
  450SOL    HW2 2250   0.092   6.091   2.656
  451SOL     OW 2251   6.092   3.605   4.004
  451SOL    HW1 2252   6.056   3.604   3.910
  451SOL    HW2 2253   6.183   3.646   4.004
  452SOL     OW 2254   5.961   4.991   5.807
  452SOL    HW1 2255   6.030   5.058   5.780
  452SOL    HW2 2256   5.870   5.029   5.793
  453SOL     OW 2257   4.247   1.843   5.981
  453SOL    HW1 2258   4.338   1.839   6.022
  453SOL    HW2 2259   4.243   1.782   5.902
  454SOL     OW 2260   0.768   5.620   0.200
  454SOL    HW1 2261   0.820   5.701   0.173
  454SOL    HW2 2262   0.720   5.638   0.286
  455SOL     OW 2263   5.467   2.294   4.902
  455SOL    HW1 2264   5.507   2.364   4.961
  455SOL    HW2 2265   5.367   2.305   4.900
  456SOL     OW 2266   4.231   6.090   0.812
  456SOL    HW1 2267   4.290   6.080   0.892
  456SOL    HW2 2268   4.189   6.181   0.812
  457SOL     OW 2269   0.420   3.801   1.929
  457SOL    HW1 2270   0.502   3.756   1.893
  457SOL    HW2 2271   0.432   3.821   2.026
  458SOL     OW 2272   0.758   0.434   5.027
  458SOL    HW1 2273   0.833   0.381   4.987
  458SOL    HW2 2274   0.697   0.372   5.077
  459SOL     OW 2275   1.657   0.515   3.115
  459SOL    HW1 2276   1.689   0.446   3.051
  459SOL    HW2 2277   1.677   0.485   3.209
  460SOL     OW 2278   6.497   2.752   2.776
  460SOL    HW1 2279   6.513   2.672   2.835
  460SOL    HW2 2280   6.414   2.737   2.722
  461SOL     OW 2281   5.896   4.318   5.564
  461SOL    HW1 2282   5.889   4.392   5.497
  461SOL    HW2 2283   5.844   4.239   5.531
  462SOL     OW 2284   3.268   2.435   0.174
  462SOL    HW1 2285   3.318   2.391   0.099
  462SOL    HW2 2286   3.284   2.384   0.258
  463SOL     OW 2287   5.895   6.635   1.293
  463SOL    HW1 2288   5.869   6.603   1.202
  463SOL    HW2 2289   5.816   6.631   1.354
  464SOL     OW 2290   1.705   1.599   6.004
  464SOL    HW1 2291   1.683   1.513   5.958
  464SOL    HW2 2292   1.754   1.578   6.089
  465SOL     OW 2293   1.059   3.612   5.811
  465SOL    HW1 2294   1.072   3.542   5.881
  465SOL    HW2 2295   0.978   3.667   5.834
  466SOL     OW 2296   1.917   0.196   3.331
  466SOL    HW1 2297   2.007   0.153   3.339
  466SOL    HW2 2298   1.876   0.172   3.243
  467SOL     OW 2299   1.996   1.467   4.702
  467SOL    HW1 2300   1.896   1.469   4.699
  467SOL    HW2 2301   2.027   1.478   4.796
  468SOL     OW 2302   3.843   4.006   3.716
  468SOL    HW1 2303   3.819   4.057   3.799
  468SOL    HW2 2304   3.833   4.066   3.637
  469SOL     OW 2305   3.261   6.817   6.595
  469SOL    HW1 2306   3.296   6.726   6.620
  469SOL    HW2 2307   3.174   6.807   6.548
  470SOL     OW 2308   4.393   0.007   3.050
  470SOL    HW1 2309   4.294   7.015   3.055
  470SOL    HW2 2310   4.439   6.972   3.117
  471SOL     OW 2311   2.059   2.345   3.686
  471SOL    HW1 2312   1.983   2.404   3.658
  471SOL    HW2 2313   2.040   2.251   3.657
  472SOL     OW 2314   3.407   4.312   5.232
  472SOL    HW1 2315   3.381   4.401   5.270
  472SOL    HW2 2316   3.500   4.316   5.196
  473SOL     OW 2317   0.856   4.855   4.000
  473SOL    HW1 2318   0.830   4.758   4.004
  473SOL    HW2 2319   0.791   4.909   4.054
  474SOL     OW 2320   5.245   5.382   5.320
  474SOL    HW1 2321   5.228   5.358   5.224
  474SOL    HW2 2322   5.278   5.301   5.369
  475SOL     OW 2323   2.942   6.825   0.008
  475SOL    HW1 2324   2.853   6.826   0.052
  475SOL    HW2 2325   2.932   6.798   6.934
  476SOL     OW 2326   6.651   5.501   2.874
  476SOL    HW1 2327   6.699   5.441   2.937
  476SOL    HW2 2328   6.600   5.446   2.807
  477SOL     OW 2329   1.798   4.726   3.241
  477SOL    HW1 2330   1.847   4.699   3.325
  477SOL    HW2 2331   1.701   4.705   3.251
  478SOL     OW 2332   1.884   4.239   3.917
  478SOL    HW1 2333   1.983   4.236   3.899
  478SOL    HW2 2334   1.850   4.146   3.929
  479SOL     OW 2335   4.279   1.996   2.189
  479SOL    HW1 2336   4.335   2.024   2.112
  479SOL    HW2 2337   4.183   2.015   2.169
  480SOL     OW 2338   2.080   6.681   4.209
  480SOL    HW1 2339   2.030   6.594   4.201
  480SOL    HW2 2340   2.133   6.696   4.126
  481SOL     OW 2341   2.061   0.344   0.618
  481SOL    HW1 2342   2.128   0.274   0.595
  481SOL    HW2 2343   2.099   0.434   0.602
  482SOL     OW 2344   5.505   5.754   1.418
  482SOL    HW1 2345   5.562   5.703   1.354
  482SOL    HW2 2346   5.523   5.852   1.408
  483SOL     OW 2347   4.551   1.686   3.322
  483SOL    HW1 2348   4.519   1.605   3.273
  483SOL    HW2 2349   4.520   1.769   3.274
  484SOL     OW 2350   6.223   2.031   3.368
  484SOL    HW1 2351   6.180   1.972   3.436
  484SOL    HW2 2352   6.314   1.996   3.345
  485SOL     OW 2353   2.693   5.834   0.385
  485SOL    HW1 2354   2.773   5.887   0.356
  485SOL    HW2 2355   2.681   5.757   0.323
  486SOL     OW 2356   6.230   0.422   5.609
  486SOL    HW1 2357   6.321   0.453   5.638
  486SOL    HW2 2358   6.187   0.492   5.552
  487SOL     OW 2359   6.630   2.160   6.570
  487SOL    HW1 2360   6.635   2.213   6.486
  487SOL    HW2 2361   6.620   2.222   6.648
  488SOL     OW 2362   1.268   4.587   3.754
  488SOL    HW1 2363   1.203   4.655   3.722
  488SOL    HW2 2364   1.324   4.626   3.827
  489SOL     OW 2365   3.631   4.898   6.065
  489SOL    HW1 2366   3.652   4.993   6.041
  489SOL    HW2 2367   3.536   4.877   6.041
  490SOL     OW 2368   5.206   1.246   4.287
  490SOL    HW1 2369   5.145   1.226   4.211
  490SOL    HW2 2370   5.271   1.170   4.298
  491SOL     OW 2371   0.422   2.760   3.730
  491SOL    HW1 2372   0.445   2.753   3.827
  491SOL    HW2 2373   0.332   2.719   3.714
  492SOL     OW 2374   1.216   1.710   4.753
  492SOL    HW1 2375   1.261   1.788   4.709
  492SOL    HW2 2376   1.275   1.630   4.749
  493SOL     OW 2377   5.479   3.795   5.170
  493SOL    HW1 2378   5.488   3.804   5.269
  493SOL    HW2 2379   5.569   3.778   5.130
  494SOL     OW 2380   5.912   0.831   6.563
  494SOL    HW1 2381   5.815   0.809   6.557
  494SOL    HW2 2382   5.962   0.786   6.488
  495SOL     OW 2383   5.890   4.448   0.047
  495SOL    HW1 2384   5.906   4.532   7.017
  495SOL    HW2 2385   5.964   4.435   0.113
  496SOL     OW 2386   5.991   3.747   2.820
  496SOL    HW1 2387   6.012   3.669   2.880
  496SOL    HW2 2388   6.065   3.758   2.754
  497SOL     OW 2389   4.461   0.265   3.778
  497SOL    HW1 2390   4.417   0.351   3.752
  497SOL    HW2 2391   4.559   0.280   3.790
  498SOL     OW 2392   1.834   3.539   1.145
  498SOL    HW1 2393   1.901   3.609   1.171
  498SOL    HW2 2394   1.821   3.476   1.221
  499SOL     OW 2395   3.812   1.880   5.833
  499SOL    HW1 2396   3.720   1.849   5.809
  499SOL    HW2 2397   3.839   1.955   5.772
  500SOL     OW 2398   1.311   4.801   3.138
  500SOL    HW1 2399   1.263   4.716   3.163
  500SOL    HW2 2400   1.402   4.779   3.103
  501SOL     OW 2401   0.904   5.280   6.021
  501SOL    HW1 2402   0.827   5.289   6.084
  501SOL    HW2 2403   0.895   5.193   5.971
  502SOL     OW 2404   2.367   5.040   5.950
  502SOL    HW1 2405   2.334   4.955   5.909
  502SOL    HW2 2406   2.365   5.113   5.882
  503SOL     OW 2407   0.026   5.327   4.306
  503SOL    HW1 2408   0.064   5.385   4.234
  503SOL    HW2 2409   0.074   5.345   4.392
  504SOL     OW 2410   1.484   5.203   3.954
  504SOL    HW1 2411   1.541   5.147   3.893
  504SOL    HW2 2412   1.445   5.146   4.026
  505SOL     OW 2413   3.593   6.311   4.791
  505SOL    HW1 2414   3.560   6.223   4.758
  505SOL    HW2 2415   3.574   6.319   4.889
  506SOL     OW 2416   2.189   3.199   0.804
  506SOL    HW1 2417   2.109   3.258   0.792
  506SOL    HW2 2418   2.232   3.183   0.716
  507SOL     OW 2419   3.915   1.765   4.116
  507SOL    HW1 2420   4.015   1.769   4.118
  507SOL    HW2 2421   3.879   1.852   4.082
  508SOL     OW 2422   5.572   5.429   4.619
  508SOL    HW1 2423   5.572   5.481   4.533
  508SOL    HW2 2424   5.523   5.343   4.605
  509SOL     OW 2425   4.374   3.391   1.667
  509SOL    HW1 2426   4.352   3.407   1.570
  509SOL    HW2 2427   4.335   3.464   1.723
  510SOL     OW 2428   1.430   3.808   4.418
  510SOL    HW1 2429   1.366   3.885   4.419
  510SOL    HW2 2430   1.466   3.795   4.326
  511SOL     OW 2431   0.170   6.236   1.690
  511SOL    HW1 2432   0.251   6.262   1.637
  511SOL    HW2 2433   0.190   6.153   1.743
  512SOL     OW 2434   2.068   4.301   6.120
  512SOL    HW1 2435   1.979   4.256   6.116
  512SOL    HW2 2436   2.111   4.284   6.208
  513SOL     OW 2437   0.809   5.475   4.858
  513SOL    HW1 2438   0.767   5.474   4.948
  513SOL    HW2 2439   0.784   5.392   4.808
  514SOL     OW 2440   5.447   2.338   3.583
  514SOL    HW1 2441   5.468   2.241   3.573
  514SOL    HW2 2442   5.528   2.385   3.618
  515SOL     OW 2443   3.032   6.161   0.121
  515SOL    HW1 2444   2.961   6.166   0.051
  515SOL    HW2 2445   3.057   6.253   0.151
  516SOL     OW 2446   1.999   4.655   3.412
  516SOL    HW1 2447   2.072   4.589   3.427
  516SOL    HW2 2448   1.985   4.708   3.496
  517SOL     OW 2449   5.099   0.093   5.829
  517SOL    HW1 2450   5.112   0.031   5.907
  517SOL    HW2 2451   5.116   0.044   5.744
  518SOL     OW 2452   2.207   1.959   6.897
  518SOL    HW1 2453   2.190   1.940   6.801
  518SOL    HW2 2454   2.305   1.948   6.917
  519SOL     OW 2455   0.857   6.637   0.760
  519SOL    HW1 2456   0.855   6.727   0.716
  519SOL    HW2 2457   0.783   6.581   0.724
  520SOL     OW 2458   6.654   4.159   5.406
  520SOL    HW1 2459   6.650   4.125   5.313
  520SOL    HW2 2460   6.745   4.196   5.425
  521SOL     OW 2461   6.255   1.044   0.397
  521SOL    HW1 2462   6.340   1.094   0.382
  521SOL    HW2 2463   6.241   0.979   0.322
  522SOL     OW 2464   3.161   4.273   5.599
  522SOL    HW1 2465   3.103   4.327   5.538
  522SOL    HW2 2466   3.167   4.179   5.565
  523SOL     OW 2467   6.116   0.171   3.120
  523SOL    HW1 2468   6.196   0.209   3.165
  523SOL    HW2 2469   6.134   0.161   3.022
  524SOL     OW 2470   4.356   0.638   4.064
  524SOL    HW1 2471   4.449   0.608   4.042
  524SOL    HW2 2472   4.361   0.724   4.115
  525SOL     OW 2473   3.239   3.087   6.702
  525SOL    HW1 2474   3.251   3.160   6.634
  525SOL    HW2 2475   3.156   3.036   6.682
  526SOL     OW 2476   4.899   0.514   4.245
  526SOL    HW1 2477   4.938   0.586   4.302
  526SOL    HW2 2478   4.864   0.440   4.303
  527SOL     OW 2479   1.088   1.157   6.781
  527SOL    HW1 2480   1.162   1.092   6.795
  527SOL    HW2 2481   1.002   1.118   6.814
  528SOL     OW 2482   1.375   2.197   5.996
  528SOL    HW1 2483   1.281   2.192   6.029
  528SOL    HW2 2484   1.437   2.194   6.074
  529SOL     OW 2485   0.458   4.832   4.626
  529SOL    HW1 2486   0.498   4.779   4.701
  529SOL    HW2 2487   0.485   4.792   4.539
  530SOL     OW 2488   6.827   3.421   5.421
  530SOL    HW1 2489   6.904   3.385   5.370
  530SOL    HW2 2490   6.826   3.382   5.513
  531SOL     OW 2491   0.160   6.875   0.505
  531SOL    HW1 2492   0.182   6.968   0.475
  531SOL    HW2 2493   0.111   6.827   0.432
  532SOL     OW 2494   1.711   1.500   5.683
  532SOL    HW1 2495   1.639   1.474   5.748
  532SOL    HW2 2496   1.716   1.600   5.678
  533SOL     OW 2497   4.907   0.409   5.581
  533SOL    HW1 2498   4.867   0.327   5.539
  533SOL    HW2 2499   4.896   0.405   5.680
  534SOL     OW 2500   2.283   5.207   3.997
  534SOL    HW1 2501   2.199   5.241   4.039
  534SOL    HW2 2502   2.268   5.195   3.899
  535SOL     OW 2503   6.875   3.814   2.444
  535SOL    HW1 2504   6.972   3.808   2.466
  535SOL    HW2 2505   6.865   3.857   2.354
  536SOL     OW 2506   2.007   5.845   1.973
  536SOL    HW1 2507   1.928   5.871   2.028
  536SOL    HW2 2508   2.063   5.779   2.024
  537SOL     OW 2509   2.410   0.053   3.368
  537SOL    HW1 2510   2.445   6.981   3.367
  537SOL    HW2 2511   2.474   0.113   3.322
  538SOL     OW 2512   1.844   5.502   3.885
  538SOL    HW1 2513   1.745   5.518   3.880
  538SOL    HW2 2514   1.889   5.545   3.807
  539SOL     OW 2515   1.680   5.490   0.720
  539SOL    HW1 2516   1.620   5.519   0.645
  539SOL    HW2 2517   1.736   5.568   0.749
  540SOL     OW 2518   2.426   2.551   0.621
  540SOL    HW1 2519   2.449   2.595   0.534
  540SOL    HW2 2520   2.353   2.603   0.666
  541SOL     OW 2521   5.525   6.114   4.957
  541SOL    HW1 2522   5.450   6.080   4.901
  541SOL    HW2 2523   5.603   6.052   4.950
  542SOL     OW 2524   6.048   6.941   5.817
  542SOL    HW1 2525   6.069   0.005   5.864
  542SOL    HW2 2526   6.062   6.864   5.879
  543SOL     OW 2527   6.205   0.700   2.317
  543SOL    HW1 2528   6.119   0.650   2.317
  543SOL    HW2 2529   6.281   0.636   2.333
  544SOL     OW 2530   0.494   4.965   0.663
  544SOL    HW1 2531   0.582   4.925   0.688
  544SOL    HW2 2532   0.498   4.999   0.569
  545SOL     OW 2533   2.689   1.822   3.878
  545SOL    HW1 2534   2.781   1.818   3.918
  545SOL    HW2 2535   2.648   1.912   3.898
  546SOL     OW 2536   1.064   2.253   6.943
  546SOL    HW1 2537   1.143   2.312   6.959
  546SOL    HW2 2538   1.010   2.246   0.006
  547SOL     OW 2539   3.300   1.928   0.370
  547SOL    HW1 2540   3.348   1.970   0.292
  547SOL    HW2 2541   3.219   1.981   0.392
  548SOL     OW 2542   3.157   3.794   5.752
  548SOL    HW1 2543   3.108   3.736   5.818
  548SOL    HW2 2544   3.255   3.788   5.769
  549SOL     OW 2545   6.611   4.333   1.414
  549SOL    HW1 2546   6.618   4.389   1.331
  549SOL    HW2 2547   6.602   4.391   1.494
  550SOL     OW 2548   6.823   4.059   1.246
  550SOL    HW1 2549   6.764   3.983   1.218
  550SOL    HW2 2550   6.879   4.088   1.168
  551SOL     OW 2551   0.408   0.320   0.183
  551SOL    HW1 2552   0.310   0.333   0.195
  551SOL    HW2 2553   0.426   0.274   0.096
  552SOL     OW 2554   4.694   5.321   0.280
  552SOL    HW1 2555   4.607   5.288   0.318
  552SOL    HW2 2556   4.717   5.268   0.199
  553SOL     OW 2557   0.840   2.880   1.406
  553SOL    HW1 2558   0.892   2.905   1.324
  553SOL    HW2 2559   0.881   2.923   1.486
  554SOL     OW 2560   5.101   4.955   5.525
  554SOL    HW1 2561   5.017   4.907   5.496
  554SOL    HW2 2562   5.172   4.888   5.544
  555SOL     OW 2563   1.712   4.196   5.810
  555SOL    HW1 2564   1.768   4.266   5.766
  555SOL    HW2 2565   1.668   4.141   5.739
  556SOL     OW 2566   6.242   4.093   3.312
  556SOL    HW1 2567   6.333   4.052   3.314
  556SOL    HW2 2568   6.173   4.021   3.301
  557SOL     OW 2569   6.404   5.491   5.159
  557SOL    HW1 2570   6.308   5.516   5.146
  557SOL    HW2 2571   6.446   5.554   5.224
  558SOL     OW 2572   3.663   3.775   6.026
  558SOL    HW1 2573   3.604   3.742   6.101
  558SOL    HW2 2574   3.726   3.703   5.999
  559SOL     OW 2575   5.147   4.573   6.012
  559SOL    HW1 2576   5.180   4.481   5.993
  559SOL    HW2 2577   5.112   4.578   6.105
  560SOL     OW 2578   4.964   6.563   0.551
  560SOL    HW1 2579   5.037   6.496   0.538
  560SOL    HW2 2580   5.002   6.646   0.592
  561SOL     OW 2581   4.321   6.694   2.540
  561SOL    HW1 2582   4.257   6.716   2.614
  561SOL    HW2 2583   4.296   6.744   2.458
  562SOL     OW 2584   5.331   0.102   1.381
  562SOL    HW1 2585   5.272   0.179   1.405
  562SOL    HW2 2586   5.380   0.070   1.463
  563SOL     OW 2587   2.997   0.747   4.976
  563SOL    HW1 2588   3.083   0.734   4.926
  563SOL    HW2 2589   2.999   0.835   5.023
  564SOL     OW 2590   0.446   1.523   5.329
  564SOL    HW1 2591   0.457   1.543   5.232
  564SOL    HW2 2592   0.422   1.606   5.378
  565SOL     OW 2593   4.457   3.443   5.583
  565SOL    HW1 2594   4.550   3.411   5.598
  565SOL    HW2 2595   4.452   3.492   5.495
  566SOL     OW 2596   6.786   4.383   2.114
  566SOL    HW1 2597   6.721   4.414   2.184
  566SOL    HW2 2598   6.798   4.456   2.046
  567SOL     OW 2599   3.862   3.581   6.209
  567SOL    HW1 2600   3.874   3.581   6.109
  567SOL    HW2 2601   3.771   3.545   6.230
  568SOL     OW 2602   2.864   1.368   6.302
  568SOL    HW1 2603   2.902   1.439   6.243
  568SOL    HW2 2604   2.788   1.406   6.355
  569SOL     OW 2605   1.943   4.717   6.890
  569SOL    HW1 2606   1.897   4.637   6.851
  569SOL    HW2 2607   2.016   4.688   6.952
  570SOL     OW 2608   0.694   5.371   6.511
  570SOL    HW1 2609   0.654   5.462   6.507
  570SOL    HW2 2610   0.788   5.377   6.545
  571SOL     OW 2611   4.988   5.790   2.131
  571SOL    HW1 2612   4.985   5.869   2.069
  571SOL    HW2 2613   4.925   5.804   2.207
  572SOL     OW 2614   1.797   4.441   4.077
  572SOL    HW1 2615   1.828   4.390   3.997
  572SOL    HW2 2616   1.850   4.411   4.157
  573SOL     OW 2617   4.108   2.218   6.873
  573SOL    HW1 2618   4.198   2.255   6.852
  573SOL    HW2 2619   4.038   2.287   6.852
  574SOL     OW 2620   2.604   2.019   3.316
  574SOL    HW1 2621   2.677   2.027   3.248
  574SOL    HW2 2622   2.613   1.932   3.364
  575SOL     OW 2623   4.127   2.239   6.151
  575SOL    HW1 2624   4.081   2.310   6.204
  575SOL    HW2 2625   4.088   2.235   6.059
  576SOL     OW 2626   0.494   3.431   3.397
  576SOL    HW1 2627   0.404   3.459   3.429
  576SOL    HW2 2628   0.531   3.361   3.459
  577SOL     OW 2629   3.624   1.343   3.470
  577SOL    HW1 2630   3.683   1.310   3.544
  577SOL    HW2 2631   3.606   1.269   3.406
  578SOL     OW 2632   0.329   3.998   4.510
  578SOL    HW1 2633   0.324   3.950   4.423
  578SOL    HW2 2634   0.361   3.935   4.581
  579SOL     OW 2635   4.064   3.679   1.494
  579SOL    HW1 2636   4.040   3.674   1.591
  579SOL    HW2 2637   4.009   3.613   1.443
  580SOL     OW 2638   6.946   0.207   6.797
  580SOL    HW1 2639   6.905   0.129   6.844
  580SOL    HW2 2640   6.882   0.242   6.728
  581SOL     OW 2641   3.796   3.600   4.162
  581SOL    HW1 2642   3.726   3.581   4.094
  581SOL    HW2 2643   3.774   3.552   4.247
  582SOL     OW 2644   6.871   3.312   0.534
  582SOL    HW1 2645   6.875   3.326   0.633
  582SOL    HW2 2646   6.835   3.221   0.514
  583SOL     OW 2647   2.609   0.061   6.847
  583SOL    HW1 2648   2.634   0.044   6.752
  583SOL    HW2 2649   2.680   0.114   6.892
  584SOL     OW 2650   2.727   5.251   4.645
  584SOL    HW1 2651   2.698   5.256   4.740
  584SOL    HW2 2652   2.649   5.271   4.585
  585SOL     OW 2653   5.492   1.951   5.443
  585SOL    HW1 2654   5.431   1.879   5.474
  585SOL    HW2 2655   5.477   2.033   5.498
  586SOL     OW 2656   3.440   4.553   0.899
  586SOL    HW1 2657   3.449   4.533   0.997
  586SOL    HW2 2658   3.407   4.471   0.852
  587SOL     OW 2659   2.590   3.105   6.158
  587SOL    HW1 2660   2.512   3.101   6.221
  587SOL    HW2 2661   2.674   3.121   6.211
  588SOL     OW 2662   2.022   0.377   1.945
  588SOL    HW1 2663   2.004   0.399   1.849
  588SOL    HW2 2664   2.051   0.282   1.953
  589SOL     OW 2665   4.920   5.235   1.802
  589SOL    HW1 2666   4.943   5.189   1.888
  589SOL    HW2 2667   4.929   5.334   1.815
  590SOL     OW 2668   0.465   4.800   1.653
  590SOL    HW1 2669   0.511   4.723   1.608
  590SOL    HW2 2670   0.488   4.885   1.607
  591SOL     OW 2671   2.536   0.233   3.233
  591SOL    HW1 2672   2.495   0.262   3.146
  591SOL    HW2 2673   2.631   0.208   3.218
  592SOL     OW 2674   5.666   0.265   6.405
  592SOL    HW1 2675   5.730   0.211   6.460
  592SOL    HW2 2676   5.572   0.246   6.435
  593SOL     OW 2677   0.143   0.913   4.684
  593SOL    HW1 2678   0.124   1.001   4.640
  593SOL    HW2 2679   0.098   0.909   4.773
  594SOL     OW 2680   4.789   2.734   1.304
  594SOL    HW1 2681   4.865   2.680   1.267
  594SOL    HW2 2682   4.813   2.765   1.396
  595SOL     OW 2683   2.485   6.682   4.193
  595SOL    HW1 2684   2.578   6.697   4.227
  595SOL    HW2 2685   2.480   6.705   4.096
  596SOL     OW 2686   0.701   4.811   2.561
  596SOL    HW1 2687   0.733   4.885   2.502
  596SOL    HW2 2688   0.779   4.772   2.610
  597SOL     OW 2689   4.680   2.180   5.189
  597SOL    HW1 2690   4.752   2.120   5.223
  597SOL    HW2 2691   4.607   2.125   5.149
  598SOL     OW 2692   3.540   3.465   2.002
  598SOL    HW1 2693   3.564   3.539   1.940
  598SOL    HW2 2694   3.441   3.449   1.999
  599SOL     OW 2695   5.961   5.720   3.347
  599SOL    HW1 2696   5.952   5.802   3.404
  599SOL    HW2 2697   5.966   5.639   3.406
  600SOL     OW 2698   2.910   1.712   0.309
  600SOL    HW1 2699   2.852   1.659   0.371
  600SOL    HW2 2700   2.852   1.764   0.245
  601SOL     OW 2701   1.260   5.196   1.194
  601SOL    HW1 2702   1.237   5.165   1.287
  601SOL    HW2 2703   1.209   5.279   1.173
  602SOL     OW 2704   6.717   1.074   3.326
  602SOL    HW1 2705   6.662   1.140   3.377
  602SOL    HW2 2706   6.658   1.024   3.261
  603SOL     OW 2707   4.424   1.946   2.998
  603SOL    HW1 2708   4.348   1.883   3.008
  603SOL    HW2 2709   4.488   1.911   2.929
  604SOL     OW 2710   2.243   3.011   5.836
  604SOL    HW1 2711   2.259   2.914   5.848
  604SOL    HW2 2712   2.300   3.046   5.761
  605SOL     OW 2713   5.226   6.793   4.428
  605SOL    HW1 2714   5.308   6.737   4.417
  605SOL    HW2 2715   5.154   6.760   4.367
  606SOL     OW 2716   2.279   6.771   2.355
  606SOL    HW1 2717   2.259   6.824   2.437
  606SOL    HW2 2718   2.236   6.814   2.276
  607SOL     OW 2719   3.806   0.067   4.151
  607SOL    HW1 2720   3.727   0.005   4.157
  607SOL    HW2 2721   3.791   0.146   4.211
  608SOL     OW 2722   6.188   2.641   0.926
  608SOL    HW1 2723   6.118   2.629   0.856
  608SOL    HW2 2724   6.277   2.612   0.891
  609SOL     OW 2725   3.403   3.959   5.195
  609SOL    HW1 2726   3.454   4.027   5.141
  609SOL    HW2 2727   3.327   4.004   5.242
  610SOL     OW 2728   6.651   2.295   5.213
  610SOL    HW1 2729   6.731   2.328   5.164
  610SOL    HW2 2730   6.663   2.199   5.237
  611SOL     OW 2731   6.782   0.265   0.422
  611SOL    HW1 2732   6.805   0.279   0.518
  611SOL    HW2 2733   6.800   0.170   0.396
  612SOL     OW 2734   1.529   4.308   6.466
  612SOL    HW1 2735   1.610   4.309   6.407
  612SOL    HW2 2736   1.481   4.396   6.459
  613SOL     OW 2737   3.666   1.541   6.591
  613SOL    HW1 2738   3.578   1.494   6.581
  613SOL    HW2 2739   3.670   1.583   6.682
  614SOL     OW 2740   5.148   2.997   0.511
  614SOL    HW1 2741   5.131   3.019   0.414
  614SOL    HW2 2742   5.224   3.052   0.544
  615SOL     OW 2743   6.250   5.313   1.208
  615SOL    HW1 2744   6.183   5.239   1.205
  615SOL    HW2 2745   6.326   5.287   1.267
  616SOL     OW 2746   5.468   1.483   4.784
  616SOL    HW1 2747   5.532   1.552   4.752
  616SOL    HW2 2748   5.505   1.392   4.765
  617SOL     OW 2749   6.296   0.255   5.035
  617SOL    HW1 2750   6.347   0.177   5.071
  617SOL    HW2 2751   6.356   0.311   4.979
  618SOL     OW 2752   5.608   4.571   1.093
  618SOL    HW1 2753   5.684   4.598   1.152
  618SOL    HW2 2754   5.625   4.605   1.000
  619SOL     OW 2755   1.118   0.019   0.269
  619SOL    HW1 2756   1.211   7.014   0.244
  619SOL    HW2 2757   1.072   0.060   0.191
  620SOL     OW 2758   4.074   2.049   1.111
  620SOL    HW1 2759   4.026   2.129   1.147
  620SOL    HW2 2760   4.072   1.976   1.179
  621SOL     OW 2761   1.968   6.827   6.302
  621SOL    HW1 2762   1.961   6.873   6.391
  621SOL    HW2 2763   2.062   6.831   6.270
  622SOL     OW 2764   0.319   2.623   5.914
  622SOL    HW1 2765   0.249   2.556   5.939
  622SOL    HW2 2766   0.357   2.664   5.997
  623SOL     OW 2767   5.922   1.436   2.475
  623SOL    HW1 2768   5.901   1.474   2.385
  623SOL    HW2 2769   5.881   1.494   2.546
  624SOL     OW 2770   6.207   0.739   5.845
  624SOL    HW1 2771   6.193   0.709   5.939
  624SOL    HW2 2772   6.118   0.760   5.803
  625SOL     OW 2773   3.437   0.698   1.283
  625SOL    HW1 2774   3.456   0.791   1.252
  625SOL    HW2 2775   3.345   0.694   1.322
  626SOL     OW 2776   6.975   6.792   3.596
  626SOL    HW1 2777   6.879   6.812   3.614
  626SOL    HW2 2778   6.989   6.776   3.499
  627SOL     OW 2779   6.593   4.284   5.661
  627SOL    HW1 2780   6.604   4.260   5.565
  627SOL    HW2 2781   6.527   4.360   5.668
  628SOL     OW 2782   3.646   4.406   6.974
  628SOL    HW1 2783   3.553   4.442   6.981
  628SOL    HW2 2784   3.663   4.374   6.881
  629SOL     OW 2785   2.099   6.865   0.411
  629SOL    HW1 2786   2.174   6.844   0.350
  629SOL    HW2 2787   2.123   6.839   0.505
  630SOL     OW 2788   6.554   2.176   0.073
  630SOL    HW1 2789   6.516   2.116   0.003
  630SOL    HW2 2790   6.562   2.126   0.159
  631SOL     OW 2791   1.955   4.237   2.014
  631SOL    HW1 2792   2.027   4.217   2.082
  631SOL    HW2 2793   1.981   4.318   1.961
  632SOL     OW 2794   4.097   5.173   0.960
  632SOL    HW1 2795   4.191   5.158   0.930
  632SOL    HW2 2796   4.054   5.242   0.902
  633SOL     OW 2797   1.379   5.826   6.734
  633SOL    HW1 2798   1.329   5.898   6.781
  633SOL    HW2 2799   1.467   5.811   6.780
  634SOL     OW 2800   2.110   3.445   5.434
  634SOL    HW1 2801   2.080   3.540   5.438
  634SOL    HW2 2802   2.142   3.416   5.524
  635SOL     OW 2803   0.421   5.854   6.535
  635SOL    HW1 2804   0.363   5.929   6.567
  635SOL    HW2 2805   0.477   5.822   6.611
  636SOL     OW 2806   1.401   2.031   4.808
  636SOL    HW1 2807   1.366   2.083   4.886
  636SOL    HW2 2808   1.496   2.056   4.790
  637SOL     OW 2809   5.683   1.362   1.106
  637SOL    HW1 2810   5.631   1.284   1.142
  637SOL    HW2 2811   5.750   1.392   1.173
  638SOL     OW 2812   6.992   3.763   5.344
  638SOL    HW1 2813   6.899   3.757   5.379
  638SOL    HW2 2814   6.989   3.773   5.244
  639SOL     OW 2815   6.249   2.852   1.355
  639SOL    HW1 2816   6.247   2.920   1.429
  639SOL    HW2 2817   6.173   2.788   1.367
  640SOL     OW 2818   5.942   4.239   2.590
  640SOL    HW1 2819   5.850   4.271   2.567
  640SOL    HW2 2820   5.992   4.312   2.635
  641SOL     OW 2821   2.933   5.903   4.143
  641SOL    HW1 2822   2.875   5.830   4.177
  641SOL    HW2 2823   2.958   5.884   4.048
  642SOL     OW 2824   0.839   5.177   4.081
  642SOL    HW1 2825   0.827   5.131   4.169
  642SOL    HW2 2826   0.750   5.196   4.040
  643SOL     OW 2827   3.809   4.559   0.408
  643SOL    HW1 2828   3.793   4.528   0.314
  643SOL    HW2 2829   3.784   4.486   0.472
  644SOL     OW 2830   6.012   0.958   4.219
  644SOL    HW1 2831   5.914   0.965   4.203
  644SOL    HW2 2832   6.051   1.050   4.229
  645SOL     OW 2833   4.066   5.901   2.664
  645SOL    HW1 2834   4.004   5.887   2.741
  645SOL    HW2 2835   4.153   5.857   2.682
  646SOL     OW 2836   3.390   0.843   5.431
  646SOL    HW1 2837   3.460   0.772   5.420
  646SOL    HW2 2838   3.410   0.897   5.513
  647SOL     OW 2839   1.309   2.156   6.671
  647SOL    HW1 2840   1.304   2.248   6.632
  647SOL    HW2 2841   1.219   2.127   6.702
  648SOL     OW 2842   4.838   2.457   3.664
  648SOL    HW1 2843   4.770   2.390   3.693
  648SOL    HW2 2844   4.918   2.451   3.723
  649SOL     OW 2845   4.082   6.485   1.275
  649SOL    HW1 2846   4.119   6.460   1.365
  649SOL    HW2 2847   3.992   6.442   1.264
  650SOL     OW 2848   2.451   3.775   1.447
  650SOL    HW1 2849   2.489   3.685   1.427
  650SOL    HW2 2850   2.435   3.783   1.545
  651SOL     OW 2851   0.149   1.748   3.103
  651SOL    HW1 2852   0.143   1.754   3.203
  651SOL    HW2 2853   0.083   1.680   3.070
  652SOL     OW 2854   3.796   6.371   0.544
  652SOL    HW1 2855   3.773   6.437   0.473
  652SOL    HW2 2856   3.887   6.333   0.525
  653SOL     OW 2857   1.439   0.194   3.212
  653SOL    HW1 2858   1.458   0.235   3.123
  653SOL    HW2 2859   1.478   0.102   3.215
  654SOL     OW 2860   1.512   0.186   6.752
  654SOL    HW1 2861   1.481   0.276   6.721
  654SOL    HW2 2862   1.490   0.118   6.683
  655SOL     OW 2863   1.329   4.270   1.669
  655SOL    HW1 2864   1.295   4.182   1.701
  655SOL    HW2 2865   1.359   4.325   1.747
  656SOL     OW 2866   2.038   0.087   6.888
  656SOL    HW1 2867   2.084   0.133   6.965
  656SOL    HW2 2868   1.942   0.071   6.912
  657SOL     OW 2869   3.715   3.447   4.430
  657SOL    HW1 2870   3.780   3.373   4.411
  657SOL    HW2 2871   3.680   3.438   4.524
  658SOL     OW 2872   2.879   0.083   5.011
  658SOL    HW1 2873   2.920   0.145   5.078
  658SOL    HW2 2874   2.845   0.001   5.058
  659SOL     OW 2875   1.554   4.679   0.290
  659SOL    HW1 2876   1.620   4.692   0.216
  659SOL    HW2 2877   1.462   4.699   0.256
  660SOL     OW 2878   5.911   3.415   2.108
  660SOL    HW1 2879   5.843   3.481   2.137
  660SOL    HW2 2880   5.963   3.452   2.031
  661SOL     OW 2881   5.108   5.619   3.943
  661SOL    HW1 2882   5.058   5.623   4.029
  661SOL    HW2 2883   5.083   5.697   3.886
  662SOL     OW 2884   6.475   3.181   0.324
  662SOL    HW1 2885   6.439   3.272   0.342
  662SOL    HW2 2886   6.506   3.175   0.229
  663SOL     OW 2887   1.443   4.541   5.968
  663SOL    HW1 2888   1.349   4.550   6.001
  663SOL    HW2 2889   1.467   4.445   5.961
  664SOL     OW 2890   2.232   0.333   5.854
  664SOL    HW1 2891   2.198   0.421   5.889
  664SOL    HW2 2892   2.158   0.267   5.851
  665SOL     OW 2893   2.263   4.711   3.271
  665SOL    HW1 2894   2.195   4.650   3.230
  665SOL    HW2 2895   2.292   4.778   3.202
  666SOL     OW 2896   2.892   0.396   0.288
  666SOL    HW1 2897   2.972   0.360   0.337
  666SOL    HW2 2898   2.921   0.435   0.201
  667SOL     OW 2899   2.101   2.549   2.912
  667SOL    HW1 2900   2.160   2.591   2.981
  667SOL    HW2 2901   2.009   2.589   2.918
  668SOL     OW 2902   5.280   6.930   0.791
  668SOL    HW1 2903   5.314   6.958   0.881
  668SOL    HW2 2904   5.357   6.908   0.731
  669SOL     OW 2905   6.173   6.017   1.966
  669SOL    HW1 2906   6.159   5.936   1.910
  669SOL    HW2 2907   6.271   6.034   1.977
  670SOL     OW 2908   3.951   3.749   3.260
  670SOL    HW1 2909   3.885   3.773   3.332
  670SOL    HW2 2910   3.974   3.831   3.207
  671SOL     OW 2911   0.848   0.299   6.797
  671SOL    HW1 2912   0.758   0.332   6.768
  671SOL    HW2 2913   0.877   0.349   6.879
  672SOL     OW 2914   0.179   2.677   2.873
  672SOL    HW1 2915   0.219   2.629   2.952
  672SOL    HW2 2916   0.169   2.613   2.797
  673SOL     OW 2917   4.900   0.328   6.268
  673SOL    HW1 2918   4.993   0.361   6.251
  673SOL    HW2 2919   4.850   0.396   6.320
  674SOL     OW 2920   6.817   3.332   3.974
  674SOL    HW1 2921   6.887   3.377   4.029
  674SOL    HW2 2922   6.765   3.269   4.031
  675SOL     OW 2923   5.944   6.992   3.479
  675SOL    HW1 2924   6.027   0.024   3.493
  675SOL    HW2 2925   5.881   7.008   3.555
  676SOL     OW 2926   3.340   4.513   6.308
  676SOL    HW1 2927   3.277   4.590   6.317
  676SOL    HW2 2928   3.351   4.468   6.397
  677SOL     OW 2929   5.119   6.351   0.495
  677SOL    HW1 2930   5.152   6.259   0.476
  677SOL    HW2 2931   5.192   6.406   0.536
  678SOL     OW 2932   2.063   0.299   6.728
  678SOL    HW1 2933   2.103   0.377   6.776
  678SOL    HW2 2934   2.052   0.223   6.792
  679SOL     OW 2935   6.983   0.244   2.763
  679SOL    HW1 2936   6.927   0.193   2.698
  679SOL    HW2 2937   0.025   0.182   2.808
  680SOL     OW 2938   5.809   3.281   3.867
  680SOL    HW1 2939   5.766   3.305   3.954
  680SOL    HW2 2940   5.753   3.317   3.791
  681SOL     OW 2941   0.742   5.374   3.396
  681SOL    HW1 2942   0.767   5.381   3.492
  681SOL    HW2 2943   0.780   5.452   3.345
  682SOL     OW 2944   0.734   6.507   5.322
  682SOL    HW1 2945   0.749   6.516   5.420
  682SOL    HW2 2946   0.815   6.538   5.272
  683SOL     OW 2947   4.522   1.830   2.003
  683SOL    HW1 2948   4.468   1.905   1.966
  683SOL    HW2 2949   4.617   1.840   1.973
  684SOL     OW 2950   6.962   5.698   6.900
  684SOL    HW1 2951   0.026   5.727   6.941
  684SOL    HW2 2952   6.886   5.726   6.958
  685SOL     OW 2953   6.584   1.288   5.260
  685SOL    HW1 2954   6.642   1.218   5.301
  685SOL    HW2 2955   6.547   1.254   5.173
  686SOL     OW 2956   5.119   4.431   0.555
  686SOL    HW1 2957   5.122   4.338   0.591
  686SOL    HW2 2958   5.052   4.436   0.481
  687SOL     OW 2959   5.314   3.371   0.086
  687SOL    HW1 2960   5.320   3.387   0.184
  687SOL    HW2 2961   5.288   3.456   0.040
  688SOL     OW 2962   0.538   2.849   5.023
  688SOL    HW1 2963   0.543   2.789   5.102
  688SOL    HW2 2964   0.522   2.795   4.940
  689SOL     OW 2965   5.473   4.760   4.146
  689SOL    HW1 2966   5.439   4.829   4.209
  689SOL    HW2 2967   5.567   4.781   4.121
  690SOL     OW 2968   6.936   2.620   4.767
  690SOL    HW1 2969   6.896   2.532   4.742
  690SOL    HW2 2970   6.952   2.623   4.865
  691SOL     OW 2971   1.061   2.602   6.551
  691SOL    HW1 2972   0.994   2.560   6.612
  691SOL    HW2 2973   1.026   2.690   6.519
  692SOL     OW 2974   2.707   0.483   4.035
  692SOL    HW1 2975   2.751   0.543   3.968
  692SOL    HW2 2976   2.645   0.536   4.092
  693SOL     OW 2977   5.699   1.836   2.802
  693SOL    HW1 2978   5.741   1.829   2.711
  693SOL    HW2 2979   5.730   1.760   2.858
  694SOL     OW 2980   0.931   0.799   2.790
  694SOL    HW1 2981   0.951   0.740   2.868
  694SOL    HW2 2982   0.938   0.746   2.706
  695SOL     OW 2983   4.236   6.425   6.627
  695SOL    HW1 2984   4.246   6.476   6.541
  695SOL    HW2 2985   4.267   6.331   6.612
  696SOL     OW 2986   5.386   5.945   2.576
  696SOL    HW1 2987   5.404   6.040   2.603
  696SOL    HW2 2988   5.301   5.941   2.523
  697SOL     OW 2989   1.389   4.377   2.774
  697SOL    HW1 2990   1.463   4.400   2.837
  697SOL    HW2 2991   1.350   4.288   2.798
  698SOL     OW 2992   4.904   0.106   3.765
  698SOL    HW1 2993   4.927   0.105   3.668
  698SOL    HW2 2994   4.972   0.161   3.814
  699SOL     OW 2995   2.347   5.947   6.125
  699SOL    HW1 2996   2.290   6.018   6.085
  699SOL    HW2 2997   2.304   5.857   6.113
  700SOL     OW 2998   1.608   2.441   4.508
  700SOL    HW1 2999   1.628   2.512   4.575
  700SOL    HW2 3000   1.693   2.406   4.469
  701SOL     OW 3001   1.120   5.137   6.881
  701SOL    HW1 3002   1.084   5.227   6.907
  701SOL    HW2 3003   1.154   5.140   6.787
  702SOL     OW 3004   5.719   5.891   5.797
  702SOL    HW1 3005   5.685   5.824   5.731
  702SOL    HW2 3006   5.808   5.861   5.831
  703SOL     OW 3007   6.004   4.552   5.736
  703SOL    HW1 3008   5.939   4.483   5.702
  703SOL    HW2 3009   5.965   4.643   5.724
  704SOL     OW 3010   2.355   0.196   2.063
  704SOL    HW1 3011   2.414   0.213   1.984
  704SOL    HW2 3012   2.263   0.232   2.045
  705SOL     OW 3013   1.518   2.198   4.606
  705SOL    HW1 3014   1.570   2.270   4.560
  705SOL    HW2 3015   1.460   2.239   4.676
  706SOL     OW 3016   6.104   3.520   3.016
  706SOL    HW1 3017   6.086   3.434   2.968
  706SOL    HW2 3018   6.199   3.548   3.002
  707SOL     OW 3019   5.055   2.997   3.104
  707SOL    HW1 3020   5.052   2.904   3.141
  707SOL    HW2 3021   5.142   3.039   3.128
  708SOL     OW 3022   5.286   0.968   1.740
  708SOL    HW1 3023   5.340   1.002   1.817
  708SOL    HW2 3024   5.237   1.044   1.698
  709SOL     OW 3025   1.850   3.704   6.540
  709SOL    HW1 3026   1.943   3.689   6.573
  709SOL    HW2 3027   1.842   3.795   6.501
  710SOL     OW 3028   2.936   3.368   4.003
  710SOL    HW1 3029   2.869   3.367   4.077
  710SOL    HW2 3030   2.930   3.454   3.953
  711SOL     OW 3031   1.805   1.399   3.731
  711SOL    HW1 3032   1.731   1.332   3.729
  711SOL    HW2 3033   1.785   1.473   3.666
  712SOL     OW 3034   0.493   4.789   3.940
  712SOL    HW1 3035   0.564   4.719   3.939
  712SOL    HW2 3036   0.461   4.802   4.033
  713SOL     OW 3037   2.413   4.110   5.847
  713SOL    HW1 3038   2.417   4.209   5.864
  713SOL    HW2 3039   2.461   4.089   5.762
  714SOL     OW 3040   5.012   4.651   4.568
  714SOL    HW1 3041   5.090   4.713   4.569
  714SOL    HW2 3042   4.927   4.704   4.569
  715SOL     OW 3043   6.744   0.429   5.591
  715SOL    HW1 3044   6.724   0.513   5.642
  715SOL    HW2 3045   6.717   0.350   5.647
  716SOL     OW 3046   6.097   5.622   0.175
  716SOL    HW1 3047   6.006   5.605   0.213
  716SOL    HW2 3048   6.166   5.600   0.244
  717SOL     OW 3049   5.985   2.801   5.595
  717SOL    HW1 3050   5.913   2.798   5.664
  717SOL    HW2 3051   6.040   2.884   5.607
  718SOL     OW 3052   3.474   3.318   1.199
  718SOL    HW1 3053   3.547   3.342   1.136
  718SOL    HW2 3054   3.394   3.375   1.181
  719SOL     OW 3055   0.038   3.895   0.564
  719SOL    HW1 3056   6.986   3.961   0.561
  719SOL    HW2 3057   0.106   3.923   0.632
  720SOL     OW 3058   4.288   0.781   6.008
  720SOL    HW1 3059   4.280   0.873   6.045
  720SOL    HW2 3060   4.224   0.770   5.932
  721SOL     OW 3061   2.280   0.652   4.877
  721SOL    HW1 3062   2.263   0.560   4.914
  721SOL    HW2 3063   2.340   0.645   4.797
  722SOL     OW 3064   4.619   1.519   5.487
  722SOL    HW1 3065   4.718   1.527   5.487
  722SOL    HW2 3066   4.582   1.565   5.568
  723SOL     OW 3067   6.995   3.666   1.666
  723SOL    HW1 3068   6.998   3.570   1.691
  723SOL    HW2 3069   0.064   3.707   1.678
  724SOL     OW 3070   0.247   2.759   4.513
  724SOL    HW1 3071   0.186   2.836   4.527
  724SOL    HW2 3072   0.199   2.674   4.538
  725SOL     OW 3073   2.516   5.623   2.295
  725SOL    HW1 3074   2.553   5.707   2.256
  725SOL    HW2 3075   2.590   5.563   2.325
  726SOL     OW 3076   5.528   5.491   0.213
  726SOL    HW1 3077   5.569   5.577   0.243
  726SOL    HW2 3078   5.530   5.486   0.113
  727SOL     OW 3079   1.338   5.214   4.365
  727SOL    HW1 3080   1.345   5.142   4.296
  727SOL    HW2 3081   1.403   5.196   4.439
  728SOL     OW 3082   6.083   2.547   6.533
  728SOL    HW1 3083   6.067   2.566   6.436
  728SOL    HW2 3084   6.172   2.504   6.544
  729SOL     OW 3085   4.342   1.063   0.755
  729SOL    HW1 3086   4.440   1.078   0.755
  729SOL    HW2 3087   4.301   1.108   0.676
  730SOL     OW 3088   5.989   1.150   3.490
  730SOL    HW1 3089   5.968   1.187   3.400
  730SOL    HW2 3090   5.961   1.215   3.561
  731SOL     OW 3091   0.041   1.937   3.503
  731SOL    HW1 3092   0.051   2.010   3.570
  731SOL    HW2 3093   0.032   1.977   3.412
  732SOL     OW 3094   0.270   4.054   4.035
  732SOL    HW1 3095   0.171   4.063   4.046
  732SOL    HW2 3096   0.290   4.025   3.941
  733SOL     OW 3097   5.700   4.587   4.833
  733SOL    HW1 3098   5.729   4.503   4.878
  733SOL    HW2 3099   5.619   4.624   4.879
  734SOL     OW 3100   0.680   0.267   0.142
  734SOL    HW1 3101   0.680   0.341   0.075
  734SOL    HW2 3102   0.604   0.279   0.206
  735SOL     OW 3103   3.062   4.813   0.089
  735SOL    HW1 3104   3.161   4.827   0.087
  735SOL    HW2 3105   3.016   4.899   0.067
  736SOL     OW 3106   5.523   1.479   1.682
  736SOL    HW1 3107   5.524   1.469   1.583
  736SOL    HW2 3108   5.590   1.548   1.710
  737SOL     OW 3109   5.323   3.928   0.177
  737SOL    HW1 3110   5.313   4.020   0.215
  737SOL    HW2 3111   5.391   3.878   0.230
  738SOL     OW 3112   0.241   3.595   4.244
  738SOL    HW1 3113   0.278   3.516   4.293
  738SOL    HW2 3114   0.315   3.662   4.230
  739SOL     OW 3115   4.884   5.160   5.885
  739SOL    HW1 3116   4.867   5.063   5.866
  739SOL    HW2 3117   4.832   5.188   5.965
  740SOL     OW 3118   5.811   6.550   0.577
  740SOL    HW1 3119   5.811   6.498   0.492
  740SOL    HW2 3120   5.786   6.489   0.653
  741SOL     OW 3121   1.286   0.586   3.885
  741SOL    HW1 3122   1.269   0.564   3.789
  741SOL    HW2 3123   1.326   0.677   3.892
  742SOL     OW 3124   0.964   6.069   2.536
  742SOL    HW1 3125   0.895   6.066   2.463
  742SOL    HW2 3126   0.920   6.093   2.623
  743SOL     OW 3127   1.752   3.088   2.288
  743SOL    HW1 3128   1.797   3.009   2.247
  743SOL    HW2 3129   1.734   3.157   2.217
  744SOL     OW 3130   6.948   5.202   1.293
  744SOL    HW1 3131   6.915   5.149   1.215
  744SOL    HW2 3132   6.904   5.291   1.294
  745SOL     OW 3133   1.200   6.215   2.315
  745SOL    HW1 3134   1.189   6.136   2.375
  745SOL    HW2 3135   1.170   6.298   2.363
  746SOL     OW 3136   3.111   7.010   3.572
  746SOL    HW1 3137   3.139   0.027   3.660
  746SOL    HW2 3138   3.180   0.008   3.503
  747SOL     OW 3139   0.336   3.789   0.777
  747SOL    HW1 3140   0.348   3.869   0.718
  747SOL    HW2 3141   0.252   3.800   0.831
  748SOL     OW 3142   3.938   3.859   4.070
  748SOL    HW1 3143   3.880   3.939   4.055
  748SOL    HW2 3144   3.880   3.778   4.082
  749SOL     OW 3145   4.600   2.921   5.423
  749SOL    HW1 3146   4.533   2.959   5.487
  749SOL    HW2 3147   4.674   2.987   5.409
  750SOL     OW 3148   3.032   3.100   1.836
  750SOL    HW1 3149   2.961   3.170   1.840
  750SOL    HW2 3150   3.106   3.123   1.898
  751SOL     OW 3151   5.138   0.986   0.775
  751SOL    HW1 3152   5.158   1.083   0.765
  751SOL    HW2 3153   5.107   0.967   0.868
  752SOL     OW 3154   4.261   0.347   2.087
  752SOL    HW1 3155   4.246   0.275   2.019
  752SOL    HW2 3156   4.254   0.309   2.179
  753SOL     OW 3157   2.588   1.610   1.458
  753SOL    HW1 3158   2.687   1.611   1.475
  753SOL    HW2 3159   2.557   1.703   1.439
  754SOL     OW 3160   5.292   4.885   0.026
  754SOL    HW1 3161   5.356   4.915   6.978
  754SOL    HW2 3162   5.311   4.789   0.049
  755SOL     OW 3163   5.767   4.916   2.275
  755SOL    HW1 3164   5.671   4.907   2.250
  755SOL    HW2 3165   5.788   4.852   2.349
  756SOL     OW 3166   2.852   6.295   4.799
  756SOL    HW1 3167   2.903   6.298   4.886
  756SOL    HW2 3168   2.754   6.295   4.818
  757SOL     OW 3169   0.161   1.223   4.176
  757SOL    HW1 3170   0.171   1.244   4.079
  757SOL    HW2 3171   0.068   1.245   4.206
  758SOL     OW 3172   4.253   1.520   0.242
  758SOL    HW1 3173   4.323   1.513   0.314
  758SOL    HW2 3174   4.292   1.493   0.155
  759SOL     OW 3175   1.925   0.284   1.149
  759SOL    HW1 3176   1.976   0.355   1.099
  759SOL    HW2 3177   1.978   0.199   1.149
  760SOL     OW 3178   5.006   1.225   5.785
  760SOL    HW1 3179   4.907   1.230   5.796
  760SOL    HW2 3180   5.033   1.131   5.767
  761SOL     OW 3181   5.137   1.017   6.501
  761SOL    HW1 3182   5.047   1.038   6.463
  761SOL    HW2 3183   5.207   1.030   6.431
  762SOL     OW 3184   2.248   4.517   4.798
  762SOL    HW1 3185   2.157   4.557   4.789
  762SOL    HW2 3186   2.301   4.568   4.865
  763SOL     OW 3187   0.668   4.512   0.964
  763SOL    HW1 3188   0.660   4.547   1.057
  763SOL    HW2 3189   0.673   4.588   0.899
  764SOL     OW 3190   5.901   1.577   2.234
  764SOL    HW1 3191   5.923   1.674   2.240
  764SOL    HW2 3192   5.901   1.549   2.138
  765SOL     OW 3193   0.641   6.187   2.543
  765SOL    HW1 3194   0.703   6.187   2.622
  765SOL    HW2 3195   0.613   6.281   2.523
  766SOL     OW 3196   0.711   6.026   0.355
  766SOL    HW1 3197   0.646   6.100   0.373
  766SOL    HW2 3198   0.803   6.055   0.381
  767SOL     OW 3199   5.598   6.122   2.007
  767SOL    HW1 3200   5.696   6.107   2.018
  767SOL    HW2 3201   5.582   6.196   1.941
  768SOL     OW 3202   3.166   6.062   4.938
  768SOL    HW1 3203   3.202   6.153   4.961
  768SOL    HW2 3204   3.088   6.072   4.876
  769SOL     OW 3205   3.545   0.673   0.288
  769SOL    HW1 3206   3.637   0.708   0.307
  769SOL    HW2 3207   3.552   0.584   0.242
  770SOL     OW 3208   4.348   4.826   5.049
  770SOL    HW1 3209   4.276   4.832   5.118
  770SOL    HW2 3210   4.341   4.738   5.002
  771SOL     OW 3211   0.156   0.199   4.896
  771SOL    HW1 3212   0.129   0.180   4.802
  771SOL    HW2 3213   0.156   0.298   4.911
  772SOL     OW 3214   1.025   3.082   6.737
  772SOL    HW1 3215   0.979   2.999   6.768
  772SOL    HW2 3216   0.965   3.161   6.750
  773SOL     OW 3217   0.121   3.457   1.758
  773SOL    HW1 3218   0.177   3.405   1.694
  773SOL    HW2 3219   0.167   3.460   1.847
  774SOL     OW 3220   1.254   1.495   1.999
  774SOL    HW1 3221   1.162   1.456   1.996
  774SOL    HW2 3222   1.273   1.543   1.913
  775SOL     OW 3223   2.199   2.490   4.127
  775SOL    HW1 3224   2.186   2.410   4.069
  775SOL    HW2 3225   2.290   2.530   4.110
  776SOL     OW 3226   2.451   1.251   5.059
  776SOL    HW1 3227   2.382   1.262   4.988
  776SOL    HW2 3228   2.511   1.331   5.059
  777SOL     OW 3229   4.759   0.448   6.946
  777SOL    HW1 3230   4.692   0.442   6.872
  777SOL    HW2 3231   4.843   0.402   6.920
  778SOL     OW 3232   4.789   6.314   5.467
  778SOL    HW1 3233   4.858   6.319   5.538
  778SOL    HW2 3234   4.745   6.404   5.457
  779SOL     OW 3235   0.751   0.280   2.328
  779SOL    HW1 3236   0.708   0.248   2.243
  779SOL    HW2 3237   0.690   0.261   2.405
  780SOL     OW 3238   5.869   2.558   5.459
  780SOL    HW1 3239   5.788   2.595   5.413
  780SOL    HW2 3240   5.913   2.630   5.513
  781SOL     OW 3241   0.967   3.748   6.853
  781SOL    HW1 3242   0.885   3.801   6.875
  781SOL    HW2 3243   1.019   3.732   6.937
  782SOL     OW 3244   0.516   5.212   0.451
  782SOL    HW1 3245   0.562   5.201   0.363
  782SOL    HW2 3246   0.581   5.248   0.519
  783SOL     OW 3247   1.510   5.539   0.504
  783SOL    HW1 3248   1.435   5.500   0.451
  783SOL    HW2 3249   1.498   5.639   0.509
  784SOL     OW 3250   5.239   5.604   2.672
  784SOL    HW1 3251   5.202   5.677   2.614
  784SOL    HW2 3252   5.337   5.619   2.686
  785SOL     OW 3253   6.599   3.133   3.051
  785SOL    HW1 3254   6.672   3.065   3.066
  785SOL    HW2 3255   6.521   3.088   3.008
  786SOL     OW 3256   5.905   6.940   1.739
  786SOL    HW1 3257   5.857   6.894   1.814
  786SOL    HW2 3258   5.992   6.894   1.722
  787SOL     OW 3259   4.743   0.890   5.463
  787SOL    HW1 3260   4.658   0.837   5.470
  787SOL    HW2 3261   4.814   0.834   5.421
  788SOL     OW 3262   6.495   5.045   3.126
  788SOL    HW1 3263   6.507   5.108   3.050
  788SOL    HW2 3264   6.474   5.096   3.209
  789SOL     OW 3265   5.777   2.788   0.254
  789SOL    HW1 3266   5.782   2.701   0.205
  789SOL    HW2 3267   5.694   2.790   0.310
  790SOL     OW 3268   2.729   0.751   4.510
  790SOL    HW1 3269   2.767   0.674   4.457
  790SOL    HW2 3270   2.758   0.743   4.605
  791SOL     OW 3271   3.433   1.053   3.670
  791SOL    HW1 3272   3.488   1.029   3.589
  791SOL    HW2 3273   3.481   1.122   3.723
  792SOL     OW 3274   4.793   0.677   3.731
  792SOL    HW1 3275   4.845   0.751   3.688
  792SOL    HW2 3276   4.698   0.706   3.743
  793SOL     OW 3277   0.933   6.215   6.261
  793SOL    HW1 3278   0.940   6.126   6.307
  793SOL    HW2 3279   0.987   6.283   6.310
  794SOL     OW 3280   3.475   5.366   4.900
  794SOL    HW1 3281   3.393   5.311   4.878
  794SOL    HW2 3282   3.492   5.361   4.998
  795SOL     OW 3283   4.811   5.423   6.927
  795SOL    HW1 3284   4.829   5.473   6.842
  795SOL    HW2 3285   4.794   5.488   7.000
  796SOL     OW 3286   1.425   1.739   6.630
  796SOL    HW1 3287   1.349   1.678   6.607
  796SOL    HW2 3288   1.507   1.685   6.648
  797SOL     OW 3289   6.183   3.029   5.675
  797SOL    HW1 3290   6.277   2.995   5.680
  797SOL    HW2 3291   6.178   3.121   5.715
  798SOL     OW 3292   6.143   0.588   4.355
  798SOL    HW1 3293   6.092   0.632   4.429
  798SOL    HW2 3294   6.234   0.562   4.389
  799SOL     OW 3295   6.793   4.429   4.010
  799SOL    HW1 3296   6.777   4.346   4.064
  799SOL    HW2 3297   6.729   4.432   3.933
  800SOL     OW 3298   0.067   2.248   2.346
  800SOL    HW1 3299   0.062   2.313   2.422
  800SOL    HW2 3300   0.099   2.160   2.381
  801SOL     OW 3301   0.239   3.768   3.733
  801SOL    HW1 3302   0.238   3.760   3.633
  801SOL    HW2 3303   0.260   3.863   3.758
  802SOL     OW 3304   6.901   0.795   0.944
  802SOL    HW1 3305   6.945   0.705   0.946
  802SOL    HW2 3306   6.922   0.841   0.858
  803SOL     OW 3307   2.769   6.092   4.656
  803SOL    HW1 3308   2.835   6.159   4.691
  803SOL    HW2 3309   2.709   6.137   4.590
  804SOL     OW 3310   5.675   5.702   0.670
  804SOL    HW1 3311   5.725   5.789   0.673
  804SOL    HW2 3312   5.617   5.694   0.751
  805SOL     OW 3313   2.368   2.045   6.374
  805SOL    HW1 3314   2.281   2.093   6.362
  805SOL    HW2 3315   2.352   1.946   6.367
  806SOL     OW 3316   4.031   6.085   6.685
  806SOL    HW1 3317   4.037   6.119   6.778
  806SOL    HW2 3318   3.963   6.139   6.634
  807SOL     OW 3319   6.250   1.094   3.342
  807SOL    HW1 3320   6.283   1.000   3.354
  807SOL    HW2 3321   6.187   1.116   3.417
  808SOL     OW 3322   6.208   4.052   5.000
  808SOL    HW1 3323   6.214   4.008   5.090
  808SOL    HW2 3324   6.136   4.009   4.946
  809SOL     OW 3325   0.047   5.876   5.474
  809SOL    HW1 3326   7.003   5.947   5.496
  809SOL    HW2 3327   0.107   5.860   5.553
  810SOL     OW 3328   5.410   4.889   6.150
  810SOL    HW1 3329   5.417   4.794   6.118
  810SOL    HW2 3330   5.494   4.937   6.127
  811SOL     OW 3331   2.994   4.848   2.229
  811SOL    HW1 3332   3.003   4.824   2.132
  811SOL    HW2 3333   3.003   4.947   2.239
  812SOL     OW 3334   6.509   0.316   3.047
  812SOL    HW1 3335   6.562   0.238   3.012
  812SOL    HW2 3336   6.494   0.382   2.973
  813SOL     OW 3337   4.695   4.840   1.970
  813SOL    HW1 3338   4.750   4.770   1.924
  813SOL    HW2 3339   4.661   4.905   1.902
  814SOL     OW 3340   5.125   5.111   1.229
  814SOL    HW1 3341   5.194   5.069   1.170
  814SOL    HW2 3342   5.151   5.204   1.251
  815SOL     OW 3343   0.518   1.313   1.466
  815SOL    HW1 3344   0.505   1.410   1.446
  815SOL    HW2 3345   0.500   1.259   1.384
  816SOL     OW 3346   6.310   0.505   1.181
  816SOL    HW1 3347   6.346   0.414   1.199
  816SOL    HW2 3348   6.384   0.572   1.184
  817SOL     OW 3349   6.858   1.645   2.386
  817SOL    HW1 3350   6.802   1.563   2.377
  817SOL    HW2 3351   6.920   1.652   2.307
  818SOL     OW 3352   5.438   2.066   3.354
  818SOL    HW1 3353   5.436   2.149   3.297
  818SOL    HW2 3354   5.400   2.087   3.444
  819SOL     OW 3355   0.569   4.997   3.076
  819SOL    HW1 3356   0.648   4.976   3.133
  819SOL    HW2 3357   0.569   5.095   3.055
  820SOL     OW 3358   2.837   3.214   6.291
  820SOL    HW1 3359   2.791   3.177   6.371
  820SOL    HW2 3360   2.891   3.294   6.317
  821SOL     OW 3361   1.123   4.246   0.447
  821SOL    HW1 3362   1.145   4.338   0.480
  821SOL    HW2 3363   1.188   4.220   0.376
  822SOL     OW 3364   0.963   3.024   5.641
  822SOL    HW1 3365   0.942   3.100   5.702
  822SOL    HW2 3366   1.062   3.016   5.629
  823SOL     OW 3367   4.782   3.729   1.374
  823SOL    HW1 3368   4.728   3.717   1.291
  823SOL    HW2 3369   4.877   3.751   1.350
  824SOL     OW 3370   6.204   3.957   6.924
  824SOL    HW1 3371   6.119   3.906   6.919
  824SOL    HW2 3372   6.250   3.954   6.835
  825SOL     OW 3373   2.269   3.052   1.681
  825SOL    HW1 3374   2.224   3.098   1.758
  825SOL    HW2 3375   2.261   3.109   1.599
  826SOL     OW 3376   0.964   1.216   6.537
  826SOL    HW1 3377   1.034   1.228   6.467
  826SOL    HW2 3378   1.007   1.208   6.627
  827SOL     OW 3379   3.948   4.452   1.040
  827SOL    HW1 3380   3.868   4.482   0.988
  827SOL    HW2 3381   3.992   4.531   1.083
  828SOL     OW 3382   5.707   1.512   5.513
  828SOL    HW1 3383   5.685   1.587   5.450
  828SOL    HW2 3384   5.747   1.437   5.461
  829SOL     OW 3385   4.758   4.454   5.886
  829SOL    HW1 3386   4.710   4.366   5.890
  829SOL    HW2 3387   4.817   4.463   5.966
  830SOL     OW 3388   4.129   3.627   6.660
  830SOL    HW1 3389   4.212   3.577   6.635
  830SOL    HW2 3390   4.074   3.644   6.578
  831SOL     OW 3391   5.019   1.692   5.707
  831SOL    HW1 3392   5.085   1.617   5.706
  831SOL    HW2 3393   5.011   1.730   5.615
  832SOL     OW 3394   3.558   1.200   5.729
  832SOL    HW1 3395   3.537   1.229   5.823
  832SOL    HW2 3396   3.523   1.267   5.665
  833SOL     OW 3397   1.080   0.951   5.189
  833SOL    HW1 3398   1.100   0.859   5.155
  833SOL    HW2 3399   1.113   0.960   5.283
  834SOL     OW 3400   2.688   4.585   5.823
  834SOL    HW1 3401   2.748   4.647   5.772
  834SOL    HW2 3402   2.650   4.633   5.902
  835SOL     OW 3403   4.226   1.995   2.534
  835SOL    HW1 3404   4.236   1.940   2.618
  835SOL    HW2 3405   4.215   1.934   2.456
  836SOL     OW 3406   1.809   1.172   5.443
  836SOL    HW1 3407   1.894   1.217   5.415
  836SOL    HW2 3408   1.736   1.240   5.450
  837SOL     OW 3409   3.987   1.282   4.494
  837SOL    HW1 3410   3.942   1.366   4.462
  837SOL    HW2 3411   3.927   1.204   4.479
  838SOL     OW 3412   0.322   6.213   2.165
  838SOL    HW1 3413   0.326   6.241   2.261
  838SOL    HW2 3414   0.227   6.200   2.138
  839SOL     OW 3415   2.060   1.404   2.050
  839SOL    HW1 3416   2.058   1.352   1.964
  839SOL    HW2 3417   1.978   1.461   2.056
  840SOL     OW 3418   2.182   0.629   4.384
  840SOL    HW1 3419   2.110   0.632   4.314
  840SOL    HW2 3420   2.254   0.566   4.354
  841SOL     OW 3421   6.712   3.085   0.478
  841SOL    HW1 3422   6.676   3.024   0.549
  841SOL    HW2 3423   6.640   3.145   0.445
  842SOL     OW 3424   3.766   5.187   4.407
  842SOL    HW1 3425   3.720   5.124   4.470
  842SOL    HW2 3426   3.708   5.266   4.390
  843SOL     OW 3427   6.917   2.831   0.776
  843SOL    HW1 3428   6.835   2.824   0.719
  843SOL    HW2 3429   6.910   2.766   0.852
  844SOL     OW 3430   5.812   4.414   6.233
  844SOL    HW1 3431   5.910   4.391   6.234
  844SOL    HW2 3432   5.766   4.366   6.307
  845SOL     OW 3433   2.067   4.953   5.814
  845SOL    HW1 3434   2.047   4.934   5.910
  845SOL    HW2 3435   1.988   4.930   5.758
  846SOL     OW 3436   5.487   1.988   6.832
  846SOL    HW1 3437   5.496   2.011   6.929
  846SOL    HW2 3438   5.394   1.954   6.814
  847SOL     OW 3439   4.662   3.441   1.286
  847SOL    HW1 3440   4.645   3.534   1.317
  847SOL    HW2 3441   4.698   3.386   1.362
  848SOL     OW 3442   6.382   6.486   5.696
  848SOL    HW1 3443   6.373   6.570   5.643
  848SOL    HW2 3444   6.433   6.418   5.643
  849SOL     OW 3445   1.085   0.251   3.555
  849SOL    HW1 3446   1.006   0.307   3.581
  849SOL    HW2 3447   1.066   0.155   3.575
  850SOL     OW 3448   3.026   0.591   3.098
  850SOL    HW1 3449   2.943   0.628   3.057
  850SOL    HW2 3450   3.099   0.590   3.030
  851SOL     OW 3451   6.126   1.271   6.055
  851SOL    HW1 3452   6.136   1.288   6.153
  851SOL    HW2 3453   6.150   1.176   6.035
  852SOL     OW 3454   3.709   5.160   4.688
  852SOL    HW1 3455   3.777   5.098   4.728
  852SOL    HW2 3456   3.753   5.248   4.668
  853SOL     OW 3457   1.306   3.771   0.989
  853SOL    HW1 3458   1.359   3.753   1.072
  853SOL    HW2 3459   1.360   3.827   0.927
  854SOL     OW 3460   6.680   4.707   1.363
  854SOL    HW1 3461   6.734   4.658   1.432
  854SOL    HW2 3462   6.616   4.769   1.408
  855SOL     OW 3463   4.804   0.237   0.130
  855SOL    HW1 3464   4.792   0.312   0.065
  855SOL    HW2 3465   4.841   0.157   0.081
  856SOL     OW 3466   2.195   1.508   5.455
  856SOL    HW1 3467   2.238   1.529   5.367
  856SOL    HW2 3468   2.264   1.475   5.519
  857SOL     OW 3469   6.955   4.651   2.261
  857SOL    HW1 3470   6.896   4.719   2.304
  857SOL    HW2 3471   0.017   4.695   2.229
  858SOL     OW 3472   3.785   3.441   2.208
  858SOL    HW1 3473   3.860   3.456   2.143
  858SOL    HW2 3474   3.722   3.373   2.170
  859SOL     OW 3475   6.532   3.874   1.479
  859SOL    HW1 3476   6.484   3.791   1.511
  859SOL    HW2 3477   6.630   3.860   1.487
  860SOL     OW 3478   1.351   4.126   6.368
  860SOL    HW1 3479   1.262   4.127   6.413
  860SOL    HW2 3480   1.415   4.183   6.418
  861SOL     OW 3481   4.321   4.473   7.004
  861SOL    HW1 3482   4.365   4.412   6.938
  861SOL    HW2 3483   4.222   4.457   7.004
  862SOL     OW 3484   4.280   4.681   3.820
  862SOL    HW1 3485   4.305   4.676   3.723
  862SOL    HW2 3486   4.331   4.611   3.871
  863SOL     OW 3487   6.601   3.088   1.148
  863SOL    HW1 3488   6.576   3.181   1.174
  863SOL    HW2 3489   6.524   3.046   1.099
  864SOL     OW 3490   1.603   6.671   1.595
  864SOL    HW1 3491   1.581   6.764   1.624
  864SOL    HW2 3492   1.520   6.615   1.599
  865SOL     OW 3493   0.697   1.232   3.856
  865SOL    HW1 3494   0.698   1.317   3.909
  865SOL    HW2 3495   0.789   1.215   3.819
  866SOL     OW 3496   3.546   0.929   1.914
  866SOL    HW1 3497   3.521   0.985   1.834
  866SOL    HW2 3498   3.552   0.833   1.886
  867SOL     OW 3499   3.418   1.775   6.153
  867SOL    HW1 3500   3.497   1.716   6.171
  867SOL    HW2 3501   3.383   1.811   6.239
  868SOL     OW 3502   4.505   2.047   3.541
  868SOL    HW1 3503   4.513   1.952   3.571
  868SOL    HW2 3504   4.520   2.052   3.442
  869SOL     OW 3505   6.161   3.026   0.918
  869SOL    HW1 3506   6.162   3.041   1.017
  869SOL    HW2 3507   6.145   3.112   0.870
  870SOL     OW 3508   6.097   1.769   0.480
  870SOL    HW1 3509   6.037   1.701   0.439
  870SOL    HW2 3510   6.173   1.722   0.526
  871SOL     OW 3511   6.934   4.070   0.975
  871SOL    HW1 3512   6.963   3.977   0.953
  871SOL    HW2 3513   6.905   4.117   0.891
  872SOL     OW 3514   6.148   1.748   1.742
  872SOL    HW1 3515   6.170   1.829   1.796
  872SOL    HW2 3516   6.192   1.668   1.784
  873SOL     OW 3517   4.033   0.125   3.588
  873SOL    HW1 3518   4.090   0.129   3.506
  873SOL    HW2 3519   4.072   0.060   3.653
  874SOL     OW 3520   1.172   3.448   6.561
  874SOL    HW1 3521   1.108   3.465   6.636
  874SOL    HW2 3522   1.206   3.355   6.567
  875SOL     OW 3523   6.536   5.952   6.717
  875SOL    HW1 3524   6.564   5.909   6.631
  875SOL    HW2 3525   6.437   5.967   6.717
  876SOL     OW 3526   2.619   2.369   1.870
  876SOL    HW1 3527   2.708   2.364   1.915
  876SOL    HW2 3528   2.554   2.415   1.931
  877SOL     OW 3529   5.887   5.627   6.125
  877SOL    HW1 3530   5.946   5.700   6.160
  877SOL    HW2 3531   5.922   5.538   6.155
  878SOL     OW 3532   4.016   3.147   1.549
  878SOL    HW1 3533   4.000   3.105   1.639
  878SOL    HW2 3534   4.107   3.120   1.516
  879SOL     OW 3535   5.196   3.231   2.847
  879SOL    HW1 3536   5.240   3.145   2.822
  879SOL    HW2 3537   5.263   3.294   2.884
  880SOL     OW 3538   4.021   6.847   0.805
  880SOL    HW1 3539   4.099   6.797   0.842
  880SOL    HW2 3540   3.945   6.783   0.789
  881SOL     OW 3541   4.489   5.816   3.022
  881SOL    HW1 3542   4.457   5.892   3.079
  881SOL    HW2 3543   4.511   5.738   3.080
  882SOL     OW 3544   1.151   2.290   4.969
  882SOL    HW1 3545   1.067   2.324   5.013
  882SOL    HW2 3546   1.204   2.237   5.035
  883SOL     OW 3547   2.226   5.465   0.378
  883SOL    HW1 3548   2.288   5.509   0.443
  883SOL    HW2 3549   2.190   5.534   0.314
  884SOL     OW 3550   4.767   4.159   1.440
  884SOL    HW1 3551   4.707   4.148   1.361
  884SOL    HW2 3552   4.734   4.235   1.497
  885SOL     OW 3553   4.067   5.326   6.704
  885SOL    HW1 3554   4.153   5.311   6.655
  885SOL    HW2 3555   4.000   5.259   6.674
  886SOL     OW 3556   3.807   2.769   6.461
  886SOL    HW1 3557   3.754   2.800   6.540
  886SOL    HW2 3558   3.901   2.750   6.489
  887SOL     OW 3559   6.691   6.267   5.096
  887SOL    HW1 3560   6.610   6.313   5.133
  887SOL    HW2 3561   6.716   6.191   5.155
  888SOL     OW 3562   6.182   1.452   3.982
  888SOL    HW1 3563   6.085   1.477   3.992
  888SOL    HW2 3564   6.232   1.482   4.063
  889SOL     OW 3565   0.825   0.256   4.768
  889SOL    HW1 3566   0.793   0.180   4.824
  889SOL    HW2 3567   0.923   0.245   4.750
  890SOL     OW 3568   2.810   3.321   0.882
  890SOL    HW1 3569   2.712   3.301   0.882
  890SOL    HW2 3570   2.857   3.259   0.945
  891SOL     OW 3571   6.936   3.303   5.665
  891SOL    HW1 3572   6.881   3.228   5.628
  891SOL    HW2 3573   6.884   3.349   5.737
  892SOL     OW 3574   2.292   4.184   1.860
  892SOL    HW1 3575   2.275   4.189   1.958
  892SOL    HW2 3576   2.390   4.175   1.844
  893SOL     OW 3577   1.975   0.697   1.933
  893SOL    HW1 3578   1.889   0.741   1.907
  893SOL    HW2 3579   2.052   0.750   1.897
  894SOL     OW 3580   1.212   5.306   3.909
  894SOL    HW1 3581   1.186   5.287   3.814
  894SOL    HW2 3582   1.305   5.273   3.925
  895SOL     OW 3583   3.051   1.447   4.574
  895SOL    HW1 3584   3.136   1.422   4.620
  895SOL    HW2 3585   3.068   1.525   4.514
  896SOL     OW 3586   4.573   6.633   2.631
  896SOL    HW1 3587   4.610   6.717   2.671
  896SOL    HW2 3588   4.497   6.656   2.569
  897SOL     OW 3589   6.645   0.695   6.697
  897SOL    HW1 3590   6.716   0.760   6.670
  897SOL    HW2 3591   6.631   0.629   6.623
  898SOL     OW 3592   5.723   5.909   3.653
  898SOL    HW1 3593   5.737   5.895   3.751
  898SOL    HW2 3594   5.625   5.911   3.633
  899SOL     OW 3595   1.643   4.500   0.460
  899SOL    HW1 3596   1.728   4.452   0.436
  899SOL    HW2 3597   1.607   4.547   0.380
  900SOL     OW 3598   0.347   5.548   3.376
  900SOL    HW1 3599   0.364   5.645   3.360
  900SOL    HW2 3600   0.318   5.535   3.471
  901SOL     OW 3601   6.408   2.585   3.326
  901SOL    HW1 3602   6.413   2.655   3.254
  901SOL    HW2 3603   6.322   2.595   3.375
  902SOL     OW 3604   1.584   6.063   6.749
  902SOL    HW1 3605   1.609   6.159   6.745
  902SOL    HW2 3606   1.538   6.037   6.664
  903SOL     OW 3607   1.057   5.030   0.359
  903SOL    HW1 3608   1.015   5.072   0.279
  903SOL    HW2 3609   1.153   5.057   0.364
  904SOL     OW 3610   0.851   2.724   3.729
  904SOL    HW1 3611   0.778   2.669   3.769
  904SOL    HW2 3612   0.811   2.796   3.672
  905SOL     OW 3613   6.300   4.337   3.132
  905SOL    HW1 3614   6.388   4.376   3.159
  905SOL    HW2 3615   6.274   4.264   3.195
  906SOL     OW 3616   0.155   3.754   5.854
  906SOL    HW1 3617   0.111   3.742   5.765
  906SOL    HW2 3618   0.240   3.702   5.856
  907SOL     OW 3619   6.991   4.628   2.899
  907SOL    HW1 3620   6.969   4.670   2.811
  907SOL    HW2 3621   0.067   4.607   2.902
  908SOL     OW 3622   2.354   1.040   2.854
  908SOL    HW1 3623   2.321   1.132   2.830
  908SOL    HW2 3624   2.453   1.041   2.860
  909SOL     OW 3625   2.988   6.696   2.410
  909SOL    HW1 3626   3.022   6.713   2.317
  909SOL    HW2 3627   2.890   6.678   2.406
  910SOL     OW 3628   1.473   0.700   2.435
  910SOL    HW1 3629   1.551   0.762   2.443
  910SOL    HW2 3630   1.399   0.746   2.385
  911SOL     OW 3631   0.937   2.328   1.096
  911SOL    HW1 3632   1.003   2.393   1.133
  911SOL    HW2 3633   0.977   2.285   1.014
  912SOL     OW 3634   2.448   0.370   1.088
  912SOL    HW1 3635   2.418   0.464   1.073
  912SOL    HW2 3636   2.512   0.367   1.165
  913SOL     OW 3637   2.155   1.333   1.670
  913SOL    HW1 3638   2.252   1.323   1.649
  913SOL    HW2 3639   2.128   1.266   1.738
  914SOL     OW 3640   3.126   4.832   2.588
  914SOL    HW1 3641   3.080   4.920   2.593
  914SOL    HW2 3642   3.196   4.827   2.660
  915SOL     OW 3643   3.360   2.265   1.744
  915SOL    HW1 3644   3.389   2.213   1.824
  915SOL    HW2 3645   3.431   2.260   1.674
  916SOL     OW 3646   6.826   4.001   2.828
  916SOL    HW1 3647   6.835   4.084   2.773
  916SOL    HW2 3648   6.812   3.923   2.768
  917SOL     OW 3649   4.411   0.203   4.945
  917SOL    HW1 3650   4.497   0.250   4.929
  917SOL    HW2 3651   4.342   0.268   4.978
  918SOL     OW 3652   0.509   2.649   5.210
  918SOL    HW1 3653   0.475   2.586   5.140
  918SOL    HW2 3654   0.565   2.599   5.275
  919SOL     OW 3655   0.954   0.454   1.454
  919SOL    HW1 3656   0.908   0.449   1.542
  919SOL    HW2 3657   1.025   0.384   1.450
  920SOL     OW 3658   1.000   1.527   2.680
  920SOL    HW1 3659   1.057   1.555   2.603
  920SOL    HW2 3660   0.904   1.536   2.655
  921SOL     OW 3661   4.374   4.356   0.217
  921SOL    HW1 3662   4.339   4.410   0.140
  921SOL    HW2 3663   4.337   4.264   0.213
  922SOL     OW 3664   2.769   5.663   6.505
  922SOL    HW1 3665   2.708   5.650   6.426
  922SOL    HW2 3666   2.790   5.761   6.515
  923SOL     OW 3667   3.639   1.586   0.330
  923SOL    HW1 3668   3.673   1.496   0.357
  923SOL    HW2 3669   3.714   1.640   0.291
  924SOL     OW 3670   4.798   5.119   0.742
  924SOL    HW1 3671   4.898   5.107   0.743
  924SOL    HW2 3672   4.761   5.092   0.831
  925SOL     OW 3673   6.070   2.014   1.057
  925SOL    HW1 3674   6.044   1.995   0.962
  925SOL    HW2 3675   6.020   2.095   1.089
  926SOL     OW 3676   4.404   5.944   1.430
  926SOL    HW1 3677   4.347   5.933   1.348
  926SOL    HW2 3678   4.443   5.856   1.455
  927SOL     OW 3679   5.335   5.563   5.789
  927SOL    HW1 3680   5.308   5.648   5.744
  927SOL    HW2 3681   5.282   5.487   5.751
  928SOL     OW 3682   5.879   0.978   1.908
  928SOL    HW1 3683   5.851   0.887   1.875
  928SOL    HW2 3684   5.904   0.972   2.004
  929SOL     OW 3685   6.504   2.077   2.991
  929SOL    HW1 3686   6.424   2.103   2.936
  929SOL    HW2 3687   6.530   2.153   3.050
  930SOL     OW 3688   5.826   4.168   2.089
  930SOL    HW1 3689   5.832   4.199   1.994
  930SOL    HW2 3690   5.918   4.153   2.125
  931SOL     OW 3691   6.997   2.994   7.018
  931SOL    HW1 3692   6.909   3.029   6.989
  931SOL    HW2 3693   0.040   2.996   6.942
  932SOL     OW 3694   4.089   6.766   0.427
  932SOL    HW1 3695   4.014   6.831   0.436
  932SOL    HW2 3696   4.126   6.745   0.517
  933SOL     OW 3697   0.673   0.044   3.122
  933SOL    HW1 3698   0.626   0.002   3.199
  933SOL    HW2 3699   0.761   0.080   3.153
  934SOL     OW 3700   4.219   1.718   4.701
  934SOL    HW1 3701   4.173   1.735   4.613
  934SOL    HW2 3702   4.153   1.682   4.767
  935SOL     OW 3703   1.089   3.598   4.027
  935SOL    HW1 3704   1.090   3.696   4.008
  935SOL    HW2 3705   1.164   3.576   4.091
  936SOL     OW 3706   0.793   1.494   0.787
  936SOL    HW1 3707   0.849   1.574   0.766
  936SOL    HW2 3708   0.697   1.513   0.765
  937SOL     OW 3709   4.854   2.051   3.057
  937SOL    HW1 3710   4.866   1.962   3.014
  937SOL    HW2 3711   4.806   2.113   2.994
  938SOL     OW 3712   0.779   0.701   5.899
  938SOL    HW1 3713   0.749   0.750   5.981
  938SOL    HW2 3714   0.868   0.736   5.870
  939SOL     OW 3715   0.264   0.983   5.049
  939SOL    HW1 3716   0.171   0.975   5.013
  939SOL    HW2 3717   0.263   0.978   5.148
  940SOL     OW 3718   6.197   0.073   3.552
  940SOL    HW1 3719   6.280   0.097   3.501
  940SOL    HW2 3720   6.163   0.154   3.599
  941SOL     OW 3721   6.034   2.331   5.117
  941SOL    HW1 3722   5.987   2.376   5.041
  941SOL    HW2 3723   6.109   2.388   5.150
  942SOL     OW 3724   4.183   6.650   6.185
  942SOL    HW1 3725   4.110   6.645   6.254
  942SOL    HW2 3726   4.187   6.742   6.147
  943SOL     OW 3727   5.211   2.351   6.732
  943SOL    HW1 3728   5.298   2.316   6.697
  943SOL    HW2 3729   5.138   2.286   6.710
  944SOL     OW 3730   5.596   4.817   3.751
  944SOL    HW1 3731   5.537   4.737   3.738
  944SOL    HW2 3732   5.544   4.891   3.791
  945SOL     OW 3733   6.795   3.232   6.424
  945SOL    HW1 3734   6.748   3.256   6.509
  945SOL    HW2 3735   6.869   3.296   6.407
  946SOL     OW 3736   5.687   3.344   6.311
  946SOL    HW1 3737   5.718   3.294   6.230
  946SOL    HW2 3738   5.751   3.418   6.331
  947SOL     OW 3739   1.324   2.078   6.322
  947SOL    HW1 3740   1.301   2.007   6.389
  947SOL    HW2 3741   1.422   2.075   6.302
  948SOL     OW 3742   3.859   1.484   0.931
  948SOL    HW1 3743   3.951   1.448   0.918
  948SOL    HW2 3744   3.837   1.546   0.855
  949SOL     OW 3745   4.806   4.892   5.973
  949SOL    HW1 3746   4.876   4.914   6.041
  949SOL    HW2 3747   4.735   4.835   6.015
  950SOL     OW 3748   3.226   5.394   0.351
  950SOL    HW1 3749   3.169   5.320   0.316
  950SOL    HW2 3750   3.268   5.442   0.274
  951SOL     OW 3751   0.509   4.152   2.781
  951SOL    HW1 3752   0.580   4.200   2.833
  951SOL    HW2 3753   0.552   4.077   2.729
  952SOL     OW 3754   4.258   0.850   0.874
  952SOL    HW1 3755   4.301   0.929   0.831
  952SOL    HW2 3756   4.229   0.785   0.803
  953SOL     OW 3757   4.823   6.580   6.078
  953SOL    HW1 3758   4.773   6.644   6.019
  953SOL    HW2 3759   4.850   6.500   6.024
  954SOL     OW 3760   0.008   6.324   1.348
  954SOL    HW1 3761   0.044   6.248   1.295
  954SOL    HW2 3762   0.005   6.298   1.445
  955SOL     OW 3763   1.215   6.697   3.586
  955SOL    HW1 3764   1.183   6.730   3.497
  955SOL    HW2 3765   1.178   6.756   3.658
  956SOL     OW 3766   1.761   2.704   1.270
  956SOL    HW1 3767   1.832   2.662   1.214
  956SOL    HW2 3768   1.773   2.804   1.270
  957SOL     OW 3769   3.133   6.434   4.349
  957SOL    HW1 3770   3.044   6.391   4.366
  957SOL    HW2 3771   3.124   6.533   4.359
  958SOL     OW 3772   4.615   2.110   6.731
  958SOL    HW1 3773   4.566   2.057   6.800
  958SOL    HW2 3774   4.670   2.181   6.776
  959SOL     OW 3775   1.438   3.911   0.577
  959SOL    HW1 3776   1.419   3.928   0.674
  959SOL    HW2 3777   1.534   3.933   0.558
  960SOL     OW 3778   1.686   3.415   5.625
  960SOL    HW1 3779   1.751   3.425   5.550
  960SOL    HW2 3780   1.605   3.470   5.607
  961SOL     OW 3781   3.828   6.970   6.183
  961SOL    HW1 3782   3.888   6.945   6.107
  961SOL    HW2 3783   3.790   0.039   6.166
  962SOL     OW 3784   0.480   0.343   4.142
  962SOL    HW1 3785   0.465   0.441   4.125
  962SOL    HW2 3786   0.567   0.330   4.188
  963SOL     OW 3787   5.622   0.070   3.459
  963SOL    HW1 3788   5.645   0.033   3.369
  963SOL    HW2 3789   5.615   0.169   3.453
  964SOL     OW 3790   5.914   4.479   1.669
  964SOL    HW1 3791   5.972   4.496   1.749
  964SOL    HW2 3792   5.879   4.566   1.635
  965SOL     OW 3793   1.321   2.425   0.535
  965SOL    HW1 3794   1.358   2.350   0.480
  965SOL    HW2 3795   1.361   2.512   0.505
  966SOL     OW 3796   4.964   2.598   1.762
  966SOL    HW1 3797   5.014   2.673   1.719
  966SOL    HW2 3798   4.904   2.635   1.833
  967SOL     OW 3799   0.725   5.699   3.020
  967SOL    HW1 3800   0.792   5.773   3.021
  967SOL    HW2 3801   0.753   5.630   2.953
  968SOL     OW 3802   0.150   4.214   1.045
  968SOL    HW1 3803   0.157   4.218   1.145
  968SOL    HW2 3804   0.079   4.148   1.020
  969SOL     OW 3805   3.373   6.965   6.377
  969SOL    HW1 3806   3.362   0.041   6.360
  969SOL    HW2 3807   3.318   6.939   6.456
  970SOL     OW 3808   5.736   3.913   6.189
  970SOL    HW1 3809   5.656   3.902   6.130
  970SOL    HW2 3810   5.806   3.847   6.164
  971SOL     OW 3811   0.760   1.331   6.667
  971SOL    HW1 3812   0.815   1.296   6.591
  971SOL    HW2 3813   0.744   1.429   6.654
  972SOL     OW 3814   3.758   6.705   6.124
  972SOL    HW1 3815   3.807   6.783   6.164
  972SOL    HW2 3816   3.823   6.648   6.074
  973SOL     OW 3817   6.303   3.805   5.998
  973SOL    HW1 3818   6.392   3.806   5.952
  973SOL    HW2 3819   6.232   3.778   5.933
  974SOL     OW 3820   2.788   0.819   3.502
  974SOL    HW1 3821   2.854   0.749   3.474
  974SOL    HW2 3822   2.705   0.811   3.447
  975SOL     OW 3823   3.086   6.688   4.241
  975SOL    HW1 3824   3.061   6.742   4.160
  975SOL    HW2 3825   3.155   6.739   4.293
  976SOL     OW 3826   0.746   5.198   4.856
  976SOL    HW1 3827   0.732   5.138   4.777
  976SOL    HW2 3828   0.658   5.225   4.893
  977SOL     OW 3829   0.287   1.255   1.906
  977SOL    HW1 3830   0.305   1.204   1.822
  977SOL    HW2 3831   0.289   1.353   1.886
  978SOL     OW 3832   6.272   2.711   3.900
  978SOL    HW1 3833   6.225   2.673   3.820
  978SOL    HW2 3834   6.367   2.731   3.876
  979SOL     OW 3835   5.725   1.764   2.128
  979SOL    HW1 3836   5.736   1.693   2.058
  979SOL    HW2 3837   5.792   1.837   2.113
  980SOL     OW 3838   6.072   5.833   5.634
  980SOL    HW1 3839   6.169   5.811   5.651
  980SOL    HW2 3840   6.015   5.787   5.702
  981SOL     OW 3841   6.126   3.290   6.851
  981SOL    HW1 3842   6.069   3.217   6.815
  981SOL    HW2 3843   6.084   3.379   6.829
  982SOL     OW 3844   1.295   4.731   0.209
  982SOL    HW1 3845   1.273   4.655   0.148
  982SOL    HW2 3846   1.237   4.810   0.187
  983SOL     OW 3847   5.150   2.087   4.005
  983SOL    HW1 3848   5.105   2.067   4.092
  983SOL    HW2 3849   5.105   2.164   3.960
  984SOL     OW 3850   4.933   3.279   4.995
  984SOL    HW1 3851   4.985   3.200   4.963
  984SOL    HW2 3852   4.995   3.347   5.033
  985SOL     OW 3853   1.995   3.795   0.903
  985SOL    HW1 3854   2.056   3.873   0.891
  985SOL    HW2 3855   1.985   3.746   0.816
  986SOL     OW 3856   6.061   4.380   4.353
  986SOL    HW1 3857   6.135   4.350   4.413
  986SOL    HW2 3858   5.993   4.430   4.407
  987SOL     OW 3859   2.388   0.848   3.044
  987SOL    HW1 3860   2.370   0.936   3.000
  987SOL    HW2 3861   2.462   0.802   2.994
  988SOL     OW 3862   3.781   3.863   2.015
  988SOL    HW1 3863   3.710   3.876   2.084
  988SOL    HW2 3864   3.746   3.808   1.940
  989SOL     OW 3865   0.788   1.261   5.191
  989SOL    HW1 3866   0.723   1.246   5.116
  989SOL    HW2 3867   0.802   1.359   5.203
  990SOL     OW 3868   3.596   6.375   1.687
  990SOL    HW1 3869   3.658   6.300   1.661
  990SOL    HW2 3870   3.634   6.424   1.765
  991SOL     OW 3871   5.929   1.652   6.465
  991SOL    HW1 3872   5.883   1.741   6.473
  991SOL    HW2 3873   5.871   1.589   6.414
  992SOL     OW 3874   0.292   2.467   0.125
  992SOL    HW1 3875   0.221   2.424   0.070
  992SOL    HW2 3876   0.268   2.562   0.143
  993SOL     OW 3877   3.975   6.605   4.203
  993SOL    HW1 3878   3.981   6.689   4.149
  993SOL    HW2 3879   3.910   6.543   4.160
  994SOL     OW 3880   3.245   3.804   3.899
  994SOL    HW1 3881   3.332   3.817   3.852
  994SOL    HW2 3882   3.260   3.811   3.998
  995SOL     OW 3883   1.580   1.608   5.336
  995SOL    HW1 3884   1.606   1.515   5.361
  995SOL    HW2 3885   1.515   1.605   5.260
  996SOL     OW 3886   2.591   2.879   0.948
  996SOL    HW1 3887   2.512   2.829   0.911
  996SOL    HW2 3888   2.663   2.883   0.878
  997SOL     OW 3889   6.707   1.665   0.514
  997SOL    HW1 3890   6.680   1.667   0.611
  997SOL    HW2 3891   6.787   1.607   0.503
  998SOL     OW 3892   4.530   6.863   3.499
  998SOL    HW1 3893   4.440   6.823   3.481
  998SOL    HW2 3894   4.585   6.799   3.552
  999SOL     OW 3895   0.289   4.957   6.550
  999SOL    HW1 3896   0.267   4.913   6.463
  999SOL    HW2 3897   0.205   4.992   6.592
 1000SOL     OW 3898   3.996   1.541   5.760
 1000SOL    HW1 3899   3.965   1.598   5.684
 1000SOL    HW2 3900   3.945   1.564   5.843
 1001SOL     OW 3901   5.430   0.681   4.855
 1001SOL    HW1 3902   5.412   0.742   4.931
 1001SOL    HW2 3903   5.406   0.726   4.769
 1002SOL     OW 3904   0.041   1.761   0.221
 1002SOL    HW1 3905   0.047   1.684   0.158
 1002SOL    HW2 3906   0.090   1.840   0.182
 1003SOL     OW 3907   4.940   5.092   2.050
 1003SOL    HW1 3908   4.860   5.146   2.079
 1003SOL    HW2 3909   5.003   5.082   2.127
 1004SOL     OW 3910   6.190   5.981   6.816
 1004SOL    HW1 3911   6.234   6.031   6.742
 1004SOL    HW2 3912   6.092   5.970   6.795
 1005SOL     OW 3913   5.088   6.796   2.646
 1005SOL    HW1 3914   5.002   6.815   2.599
 1005SOL    HW2 3915   5.123   6.706   2.617
 1006SOL     OW 3916   1.795   5.927   0.090
 1006SOL    HW1 3917   1.783   5.833   0.124
 1006SOL    HW2 3918   1.765   5.992   0.160
 1007SOL     OW 3919   5.890   2.711   2.467
 1007SOL    HW1 3920   5.796   2.684   2.487
 1007SOL    HW2 3921   5.892   2.806   2.437
 1008SOL     OW 3922   3.291   1.077   5.333
 1008SOL    HW1 3923   3.280   1.134   5.415
 1008SOL    HW2 3924   3.362   1.008   5.350
 1009SOL     OW 3925   3.177   6.453   5.619
 1009SOL    HW1 3926   3.134   6.455   5.528
 1009SOL    HW2 3927   3.155   6.536   5.669
 1010SOL     OW 3928   5.058   6.019   6.190
 1010SOL    HW1 3929   5.046   5.943   6.126
 1010SOL    HW2 3930   5.124   6.084   6.152
 1011SOL     OW 3931   2.642   4.924   4.540
 1011SOL    HW1 3932   2.644   5.007   4.597
 1011SOL    HW2 3933   2.735   4.892   4.525
 1012SOL     OW 3934   2.924   6.037   0.725
 1012SOL    HW1 3935   2.830   6.019   0.756
 1012SOL    HW2 3936   2.988   5.981   0.778
 1013SOL     OW 3937   1.099   0.253   1.342
 1013SOL    HW1 3938   1.026   0.192   1.313
 1013SOL    HW2 3939   1.185   0.203   1.346
 1014SOL     OW 3940   6.023   6.226   6.656
 1014SOL    HW1 3941   5.957   6.293   6.625
 1014SOL    HW2 3942   6.094   6.213   6.586
 1015SOL     OW 3943   2.472   0.224   4.797
 1015SOL    HW1 3944   2.571   0.239   4.800
 1015SOL    HW2 3945   2.431   0.254   4.884
 1016SOL     OW 3946   4.119   3.144   1.830
 1016SOL    HW1 3947   4.111   3.233   1.873
 1016SOL    HW2 3948   4.185   3.150   1.754
 1017SOL     OW 3949   4.962   6.842   5.582
 1017SOL    HW1 3950   5.047   6.892   5.562
 1017SOL    HW2 3951   4.946   6.841   5.681
 1018SOL     OW 3952   1.154   1.885   1.773
 1018SOL    HW1 3953   1.161   1.897   1.872
 1018SOL    HW2 3954   1.078   1.940   1.738
 1019SOL     OW 3955   6.397   0.794   6.543
 1019SOL    HW1 3956   6.312   0.749   6.573
 1019SOL    HW2 3957   6.457   0.806   6.622
 1020SOL     OW 3958   3.468   1.759   1.041
 1020SOL    HW1 3959   3.539   1.805   0.987
 1020SOL    HW2 3960   3.408   1.828   1.082
 1021SOL     OW 3961   4.841   1.330   1.472
 1021SOL    HW1 3962   4.762   1.329   1.411
 1021SOL    HW2 3963   4.812   1.312   1.566
 1022SOL     OW 3964   2.637   3.815   6.771
 1022SOL    HW1 3965   2.715   3.826   6.710
 1022SOL    HW2 3966   2.584   3.734   6.743
 1023SOL     OW 3967   6.933   1.273   4.225
 1023SOL    HW1 3968   6.922   1.347   4.159
 1023SOL    HW2 3969   6.856   1.273   4.288
 1024SOL     OW 3970   6.684   2.847   4.218
 1024SOL    HW1 3971   6.644   2.931   4.182
 1024SOL    HW2 3972   6.780   2.842   4.191
 1025SOL     OW 3973   2.563   4.173   1.236
 1025SOL    HW1 3974   2.650   4.209   1.269
 1025SOL    HW2 3975   2.513   4.131   1.312
 1026SOL     OW 3976   0.802   3.255   6.731
 1026SOL    HW1 3977   0.743   3.176   6.716
 1026SOL    HW2 3978   0.751   3.339   6.711
 1027SOL     OW 3979   1.909   4.561   1.332
 1027SOL    HW1 3980   1.844   4.564   1.257
 1027SOL    HW2 3981   1.991   4.614   1.307
 1028SOL     OW 3982   0.686   4.834   0.466
 1028SOL    HW1 3983   0.597   4.793   0.444
 1028SOL    HW2 3984   0.757   4.764   0.463
 1029SOL     OW 3985   3.852   0.498   4.586
 1029SOL    HW1 3986   3.834   0.596   4.599
 1029SOL    HW2 3987   3.853   0.452   4.675
 1030SOL     OW 3988   4.237   4.759   4.748
 1030SOL    HW1 3989   4.144   4.783   4.776
 1030SOL    HW2 3990   4.277   4.696   4.815
 1031SOL     OW 3991   2.643   5.749   0.971
 1031SOL    HW1 3992   2.702   5.790   1.042
 1031SOL    HW2 3993   2.636   5.812   0.894
 1032SOL     OW 3994   1.245   2.915   4.712
 1032SOL    HW1 3995   1.300   2.954   4.787
 1032SOL    HW2 3996   1.254   2.816   4.712
 1033SOL     OW 3997   3.292   6.587   2.060
 1033SOL    HW1 3998   3.373   6.639   2.034
 1033SOL    HW2 3999   3.317   6.491   2.073
 1034SOL     OW 4000   0.274   5.089   2.943
 1034SOL    HW1 4001   0.349   5.134   2.895
 1034SOL    HW2 4002   0.210   5.050   2.876
 1035SOL     OW 4003   2.918   1.735   3.458
 1035SOL    HW1 4004   3.008   1.738   3.500
 1035SOL    HW2 4005   2.849   1.718   3.529
 1036SOL     OW 4006   4.525   6.425   6.649
 1036SOL    HW1 4007   4.437   6.462   6.679
 1036SOL    HW2 4008   4.561   6.364   6.720
 1037SOL     OW 4009   4.270   1.046   6.059
 1037SOL    HW1 4010   4.170   1.043   6.053
 1037SOL    HW2 4011   4.301   1.140   6.048
 1038SOL     OW 4012   3.043   1.795   4.800
 1038SOL    HW1 4013   2.986   1.832   4.726
 1038SOL    HW2 4014   3.015   1.835   4.887
 1039SOL     OW 4015   5.505   2.004   2.249
 1039SOL    HW1 4016   5.490   1.945   2.329
 1039SOL    HW2 4017   5.526   2.097   2.280
 1040SOL     OW 4018   6.141   5.046   4.869
 1040SOL    HW1 4019   6.213   5.096   4.916
 1040SOL    HW2 4020   6.167   5.032   4.773
 1041SOL     OW 4021   1.666   0.219   4.506
 1041SOL    HW1 4022   1.670   0.226   4.406
 1041SOL    HW2 4023   1.725   0.289   4.547
 1042SOL     OW 4024   4.060   5.226   0.609
 1042SOL    HW1 4025   4.027   5.151   0.552
 1042SOL    HW2 4026   4.156   5.213   0.630
 1043SOL     OW 4027   4.573   0.454   6.102
 1043SOL    HW1 4028   4.532   0.476   6.013
 1043SOL    HW2 4029   4.565   0.356   6.119
 1044SOL     OW 4030   4.128   3.387   4.221
 1044SOL    HW1 4031   4.150   3.475   4.178
 1044SOL    HW2 4032   4.155   3.388   4.317
 1045SOL     OW 4033   2.030   1.136   2.646
 1045SOL    HW1 4034   2.068   1.069   2.710
 1045SOL    HW2 4035   2.092   1.213   2.637
 1046SOL     OW 4036   2.609   0.894   2.210
 1046SOL    HW1 4037   2.531   0.932   2.259
 1046SOL    HW2 4038   2.589   0.893   2.112
 1047SOL     OW 4039   0.666   6.505   2.351
 1047SOL    HW1 4040   0.626   6.494   2.442
 1047SOL    HW2 4041   0.681   6.415   2.310
 1048SOL     OW 4042   6.924   3.777   5.047
 1048SOL    HW1 4043   6.835   3.818   5.026
 1048SOL    HW2 4044   6.981   3.778   4.965
 1049SOL     OW 4045   0.768   3.592   5.512
 1049SOL    HW1 4046   0.713   3.577   5.594
 1049SOL    HW2 4047   0.793   3.503   5.473
 1050SOL     OW 4048   2.927   0.556   1.495
 1050SOL    HW1 4049   2.995   0.534   1.564
 1050SOL    HW2 4050   2.973   0.574   1.407
 1051SOL     OW 4051   4.977   3.310   1.980
 1051SOL    HW1 4052   4.922   3.381   1.937
 1051SOL    HW2 4053   5.072   3.339   1.985
 1052SOL     OW 4054   2.068   6.142   3.601
 1052SOL    HW1 4055   2.041   6.238   3.609
 1052SOL    HW2 4056   2.049   6.110   3.508
 1053SOL     OW 4057   3.542   5.935   3.117
 1053SOL    HW1 4058   3.500   5.956   3.205
 1053SOL    HW2 4059   3.596   6.013   3.087
 1054SOL     OW 4060   3.203   5.660   5.537
 1054SOL    HW1 4061   3.139   5.652   5.614
 1054SOL    HW2 4062   3.296   5.643   5.569
 1055SOL     OW 4063   3.470   5.039   4.734
 1055SOL    HW1 4064   3.440   5.049   4.829
 1055SOL    HW2 4065   3.535   5.111   4.711
 1056SOL     OW 4066   3.172   6.152   0.571
 1056SOL    HW1 4067   3.083   6.153   0.618
 1056SOL    HW2 4068   3.245   6.168   0.637
 1057SOL     OW 4069   3.693   3.657   1.803
 1057SOL    HW1 4070   3.691   3.744   1.754
 1057SOL    HW2 4071   3.635   3.590   1.756
 1058SOL     OW 4072   2.430   0.625   1.961
 1058SOL    HW1 4073   2.469   0.611   1.870
 1058SOL    HW2 4074   2.474   0.704   2.005
 1059SOL     OW 4075   4.046   0.630   0.460
 1059SOL    HW1 4076   4.145   0.616   0.449
 1059SOL    HW2 4077   4.023   0.629   0.557
 1060SOL     OW 4078   4.017   1.485   4.135
 1060SOL    HW1 4079   4.055   1.577   4.126
 1060SOL    HW2 4080   4.085   1.424   4.175
 1061SOL     OW 4081   2.989   5.681   1.766
 1061SOL    HW1 4082   3.011   5.606   1.704
 1061SOL    HW2 4083   2.897   5.668   1.802
 1062SOL     OW 4084   6.242   4.215   5.388
 1062SOL    HW1 4085   6.211   4.310   5.383
 1062SOL    HW2 4086   6.198   4.170   5.465
 1063SOL     OW 4087   4.546   2.135   5.987
 1063SOL    HW1 4088   4.533   2.045   6.027
 1063SOL    HW2 4089   4.497   2.204   6.041
 1064SOL     OW 4090   0.176   2.738   2.316
 1064SOL    HW1 4091   0.213   2.829   2.300
 1064SOL    HW2 4092   0.084   2.732   2.279
 1065SOL     OW 4093   4.268   5.987   0.113
 1065SOL    HW1 4094   4.249   5.972   0.210
 1065SOL    HW2 4095   4.360   6.025   0.103
 1066SOL     OW 4096   5.176   6.069   3.628
 1066SOL    HW1 4097   5.095   6.123   3.602
 1066SOL    HW2 4098   5.256   6.129   3.630
 1067SOL     OW 4099   3.801   4.830   0.478
 1067SOL    HW1 4100   3.796   4.736   0.443
 1067SOL    HW2 4101   3.735   4.887   0.429
 1068SOL     OW 4102   1.207   5.282   2.364
 1068SOL    HW1 4103   1.256   5.211   2.414
 1068SOL    HW2 4104   1.238   5.372   2.396
 1069SOL     OW 4105   3.931   3.532   3.065
 1069SOL    HW1 4106   3.944   3.611   3.125
 1069SOL    HW2 4107   3.859   3.552   2.999
 1070SOL     OW 4108   1.251   6.498   0.408
 1070SOL    HW1 4109   1.242   6.437   0.329
 1070SOL    HW2 4110   1.249   6.445   0.492
 1071SOL     OW 4111   4.592   4.926   4.065
 1071SOL    HW1 4112   4.530   4.927   4.143
 1071SOL    HW2 4113   4.686   4.939   4.097
 1072SOL     OW 4114   4.735   5.256   3.520
 1072SOL    HW1 4115   4.689   5.230   3.605
 1072SOL    HW2 4116   4.796   5.333   3.537
 1073SOL     OW 4117   2.989   5.423   3.902
 1073SOL    HW1 4118   3.051   5.435   3.980
 1073SOL    HW2 4119   2.900   5.393   3.934
 1074SOL     OW 4120   2.804   4.801   3.987
 1074SOL    HW1 4121   2.869   4.785   4.061
 1074SOL    HW2 4122   2.718   4.754   4.008
 1075SOL     OW 4123   1.150   4.540   2.742
 1075SOL    HW1 4124   1.153   4.579   2.834
 1075SOL    HW2 4125   1.241   4.506   2.718
 1076SOL     OW 4126   5.174   3.830   3.714
 1076SOL    HW1 4127   5.085   3.810   3.673
 1076SOL    HW2 4128   5.164   3.903   3.782
 1077SOL     OW 4129   4.144   0.051   2.245
 1077SOL    HW1 4130   4.103   0.001   2.169
 1077SOL    HW2 4131   4.072   0.085   2.305
 1078SOL     OW 4132   5.820   2.386   1.508
 1078SOL    HW1 4133   5.774   2.455   1.452
 1078SOL    HW2 4134   5.761   2.360   1.584
 1079SOL     OW 4135   1.664   4.620   3.663
 1079SOL    HW1 4136   1.610   4.693   3.621
 1079SOL    HW2 4137   1.640   4.612   3.760
 1080SOL     OW 4138   2.722   5.387   4.028
 1080SOL    HW1 4139   2.685   5.354   3.941
 1080SOL    HW2 4140   2.732   5.311   4.092
 1081SOL     OW 4141   0.963   0.946   0.701
 1081SOL    HW1 4142   1.013   1.028   0.731
 1081SOL    HW2 4143   1.026   0.886   0.652
 1082SOL     OW 4144   2.241   0.797   1.325
 1082SOL    HW1 4145   2.221   0.894   1.308
 1082SOL    HW2 4146   2.248   0.782   1.424
 1083SOL     OW 4147   3.609   4.185   1.995
 1083SOL    HW1 4148   3.704   4.174   2.025
 1083SOL    HW2 4149   3.608   4.222   1.902
 1084SOL     OW 4150   5.598   3.874   1.149
 1084SOL    HW1 4151   5.515   3.819   1.157
 1084SOL    HW2 4152   5.650   3.843   1.069
 1085SOL     OW 4153   1.478   6.757   3.620
 1085SOL    HW1 4154   1.547   6.700   3.575
 1085SOL    HW2 4155   1.389   6.742   3.576
 1086SOL     OW 4156   3.175   6.658   2.798
 1086SOL    HW1 4157   3.078   6.640   2.782
 1086SOL    HW2 4158   3.201   6.744   2.754
 1087SOL     OW 4159   3.925   3.071   5.910
 1087SOL    HW1 4160   3.842   3.109   5.949
 1087SOL    HW2 4161   4.005   3.119   5.947
 1088SOL     OW 4162   6.819   5.442   2.285
 1088SOL    HW1 4163   6.799   5.530   2.242
 1088SOL    HW2 4164   6.742   5.380   2.268
 1089SOL     OW 4165   6.763   0.630   3.222
 1089SOL    HW1 4166   6.758   0.710   3.282
 1089SOL    HW2 4167   6.721   0.552   3.268
 1090SOL     OW 4168   3.029   1.906   6.974
 1090SOL    HW1 4169   3.066   1.998   6.962
 1090SOL    HW2 4170   2.930   1.911   6.991
 1091SOL     OW 4171   1.426   1.664   5.911
 1091SOL    HW1 4172   1.521   1.691   5.923
 1091SOL    HW2 4173   1.387   1.710   5.831
 1092SOL     OW 4174   2.717   5.482   0.958
 1092SOL    HW1 4175   2.670   5.565   0.988
 1092SOL    HW2 4176   2.797   5.507   0.904
 1093SOL     OW 4177   6.494   1.587   1.468
 1093SOL    HW1 4178   6.482   1.490   1.447
 1093SOL    HW2 4179   6.569   1.624   1.414
 1094SOL     OW 4180   0.601   6.335   2.920
 1094SOL    HW1 4181   0.527   6.289   2.870
 1094SOL    HW2 4182   0.573   6.428   2.943
 1095SOL     OW 4183   1.709   3.209   5.381
 1095SOL    HW1 4184   1.755   3.296   5.364
 1095SOL    HW2 4185   1.741   3.171   5.468
 1096SOL     OW 4186   3.492   2.722   1.821
 1096SOL    HW1 4187   3.572   2.674   1.784
 1096SOL    HW2 4188   3.421   2.727   1.751
 1097SOL     OW 4189   2.752   4.784   6.025
 1097SOL    HW1 4190   2.760   4.877   6.060
 1097SOL    HW2 4191   2.761   4.784   5.926
 1098SOL     OW 4192   3.019   7.008   2.421
 1098SOL    HW1 4193   3.024   6.911   2.444
 1098SOL    HW2 4194   3.017   0.040   2.505
 1099SOL     OW 4195   3.266   0.442   2.177
 1099SOL    HW1 4196   3.288   0.436   2.079
 1099SOL    HW2 4197   3.336   0.394   2.230
 1100SOL     OW 4198   0.351   0.816   0.442
 1100SOL    HW1 4199   0.266   0.764   0.427
 1100SOL    HW2 4200   0.329   0.911   0.462
 1101SOL     OW 4201   5.880   5.032   0.930
 1101SOL    HW1 4202   5.866   5.129   0.947
 1101SOL    HW2 4203   5.862   5.011   0.834
 1102SOL     OW 4204   0.177   4.682   4.192
 1102SOL    HW1 4205   0.217   4.604   4.239
 1102SOL    HW2 4206   0.123   4.649   4.114
 1103SOL     OW 4207   0.458   2.424   6.166
 1103SOL    HW1 4208   0.473   2.466   6.256
 1103SOL    HW2 4209   0.537   2.439   6.108
 1104SOL     OW 4210   2.698   5.202   5.559
 1104SOL    HW1 4211   2.599   5.201   5.547
 1104SOL    HW2 4212   2.741   5.149   5.485
 1105SOL     OW 4213   3.731   5.638   0.526
 1105SOL    HW1 4214   3.687   5.659   0.613
 1105SOL    HW2 4215   3.700   5.702   0.456
 1106SOL     OW 4216   1.002   2.245   6.425
 1106SOL    HW1 4217   1.095   2.266   6.395
 1106SOL    HW2 4218   0.957   2.187   6.357
 1107SOL     OW 4219   6.693   6.490   1.494
 1107SOL    HW1 4220   6.763   6.505   1.423
 1107SOL    HW2 4221   6.626   6.564   1.490
 1108SOL     OW 4222   1.229   1.167   6.408
 1108SOL    HW1 4223   1.292   1.165   6.331
 1108SOL    HW2 4224   1.276   1.137   6.491
 1109SOL     OW 4225   3.969   1.195   3.068
 1109SOL    HW1 4226   4.048   1.151   3.026
 1109SOL    HW2 4227   3.891   1.189   3.007
 1110SOL     OW 4228   4.060   3.529   3.381
 1110SOL    HW1 4229   4.087   3.560   3.471
 1110SOL    HW2 4230   4.019   3.605   3.330
 1111SOL     OW 4231   3.882   0.441   6.719
 1111SOL    HW1 4232   3.931   0.518   6.678
 1111SOL    HW2 4233   3.785   0.448   6.698
 1112SOL     OW 4234   0.325   1.454   2.986
 1112SOL    HW1 4235   0.389   1.401   2.930
 1112SOL    HW2 4236   0.323   1.418   3.079
 1113SOL     OW 4237   0.600   5.596   1.694
 1113SOL    HW1 4238   0.698   5.616   1.700
 1113SOL    HW2 4239   0.584   5.535   1.617
 1114SOL     OW 4240   5.731   0.747   5.366
 1114SOL    HW1 4241   5.737   0.662   5.418
 1114SOL    HW2 4242   5.810   0.753   5.305
 1115SOL     OW 4243   2.043   4.715   0.479
 1115SOL    HW1 4244   1.990   4.763   0.548
 1115SOL    HW2 4245   1.999   4.725   0.390
 1116SOL     OW 4246   3.137   6.496   6.093
 1116SOL    HW1 4247   3.104   6.409   6.129
 1116SOL    HW2 4248   3.187   6.480   6.007
 1117SOL     OW 4249   2.612   2.183   0.755
 1117SOL    HW1 4250   2.680   2.160   0.824
 1117SOL    HW2 4251   2.557   2.261   0.786
 1118SOL     OW 4252   1.653   2.021   1.224
 1118SOL    HW1 4253   1.574   2.021   1.162
 1118SOL    HW2 4254   1.642   1.949   1.291
 1119SOL     OW 4255   3.803   4.107   3.998
 1119SOL    HW1 4256   3.705   4.121   4.015
 1119SOL    HW2 4257   3.853   4.117   4.084
 1120SOL     OW 4258   3.185   0.865   2.975
 1120SOL    HW1 4259   3.104   0.832   2.926
 1120SOL    HW2 4260   3.160   0.944   3.031
 1121SOL     OW 4261   4.857   3.759   2.598
 1121SOL    HW1 4262   4.857   3.771   2.697
 1121SOL    HW2 4263   4.904   3.837   2.556
 1122SOL     OW 4264   4.789   4.752   0.269
 1122SOL    HW1 4265   4.838   4.734   0.184
 1122SOL    HW2 4266   4.855   4.764   0.343
 1123SOL     OW 4267   4.584   0.181   2.279
 1123SOL    HW1 4268   4.606   0.209   2.186
 1123SOL    HW2 4269   4.536   0.256   2.325
 1124SOL     OW 4270   2.427   5.163   3.591
 1124SOL    HW1 4271   2.386   5.128   3.507
 1124SOL    HW2 4272   2.464   5.086   3.644
 1125SOL     OW 4273   3.646   4.475   5.822
 1125SOL    HW1 4274   3.591   4.479   5.906
 1125SOL    HW2 4275   3.682   4.566   5.801
 1126SOL     OW 4276   5.940   0.630   2.357
 1126SOL    HW1 4277   5.909   0.722   2.331
 1126SOL    HW2 4278   5.873   0.562   2.326
 1127SOL     OW 4279   2.582   5.404   6.336
 1127SOL    HW1 4280   2.511   5.335   6.318
 1127SOL    HW2 4281   2.539   5.486   6.373
 1128SOL     OW 4282   3.257   1.262   5.522
 1128SOL    HW1 4283   3.266   1.285   5.619
 1128SOL    HW2 4284   3.332   1.304   5.471
 1129SOL     OW 4285   4.175   5.635   6.791
 1129SOL    HW1 4286   4.249   5.571   6.770
 1129SOL    HW2 4287   4.208   5.728   6.780
 1130SOL     OW 4288   1.058   5.368   5.603
 1130SOL    HW1 4289   1.069   5.393   5.699
 1130SOL    HW2 4290   1.118   5.424   5.546
 1131SOL     OW 4291   1.051   4.147   5.597
 1131SOL    HW1 4292   1.005   4.117   5.513
 1131SOL    HW2 4293   1.119   4.217   5.574
 1132SOL     OW 4294   5.231   0.042   4.131
 1132SOL    HW1 4295   5.182   0.045   4.218
 1132SOL    HW2 4296   5.211   0.125   4.079
 1133SOL     OW 4297   6.542   1.957   0.261
 1133SOL    HW1 4298   6.574   1.863   0.251
 1133SOL    HW2 4299   6.471   1.961   0.332
 1134SOL     OW 4300   0.320   4.196   6.055
 1134SOL    HW1 4301   0.405   4.184   6.003
 1134SOL    HW2 4302   0.323   4.137   6.136
 1135SOL     OW 4303   6.926   1.911   4.421
 1135SOL    HW1 4304   6.837   1.884   4.459
 1135SOL    HW2 4305   6.998   1.893   4.488
 1136SOL     OW 4306   4.475   5.511   3.734
 1136SOL    HW1 4307   4.426   5.503   3.647
 1136SOL    HW2 4308   4.536   5.433   3.745
 1137SOL     OW 4309   0.491   0.703   6.602
 1137SOL    HW1 4310   0.558   0.753   6.657
 1137SOL    HW2 4311   0.534   0.672   6.517
 1138SOL     OW 4312   0.729   2.042   5.637
 1138SOL    HW1 4313   0.715   1.967   5.702
 1138SOL    HW2 4314   0.811   2.024   5.583
 1139SOL     OW 4315   0.453   0.491   2.720
 1139SOL    HW1 4316   0.356   0.481   2.697
 1139SOL    HW2 4317   0.503   0.523   2.639
 1140SOL     OW 4318   4.178   2.289   2.888
 1140SOL    HW1 4319   4.222   2.367   2.932
 1140SOL    HW2 4320   4.245   2.216   2.874
 1141SOL     OW 4321   0.808   0.396   5.382
 1141SOL    HW1 4322   0.726   0.381   5.327
 1141SOL    HW2 4323   0.889   0.384   5.325
 1142SOL     OW 4324   5.626   6.462   5.661
 1142SOL    HW1 4325   5.574   6.521   5.600
 1142SOL    HW2 4326   5.707   6.427   5.612
 1143SOL     OW 4327   5.099   2.141   1.375
 1143SOL    HW1 4328   5.191   2.169   1.347
 1143SOL    HW2 4329   5.081   2.049   1.341
 1144SOL     OW 4330   1.212   6.737   4.872
 1144SOL    HW1 4331   1.242   6.662   4.814
 1144SOL    HW2 4332   1.130   6.779   4.833
 1145SOL     OW 4333   3.449   4.978   5.114
 1145SOL    HW1 4334   3.386   5.001   5.040
 1145SOL    HW2 4335   3.396   4.950   5.195
 1146SOL     OW 4336   6.084   2.456   1.877
 1146SOL    HW1 4337   6.130   2.509   1.949
 1146SOL    HW2 4338   6.133   2.370   1.862
 1147SOL     OW 4339   6.696   4.081   3.080
 1147SOL    HW1 4340   6.739   4.164   3.116
 1147SOL    HW2 4341   6.733   4.062   2.989
 1148SOL     OW 4342   6.678   6.264   5.844
 1148SOL    HW1 4343   6.743   6.193   5.872
 1148SOL    HW2 4344   6.678   6.337   5.912
 1149SOL     OW 4345   4.901   3.489   2.455
 1149SOL    HW1 4346   4.977   3.515   2.396
 1149SOL    HW2 4347   4.859   3.572   2.493
 1150SOL     OW 4348   3.200   5.438   5.056
 1150SOL    HW1 4349   3.125   5.437   4.990
 1150SOL    HW2 4350   3.192   5.520   5.113
 1151SOL     OW 4351   1.855   5.690   0.781
 1151SOL    HW1 4352   1.916   5.685   0.860
 1151SOL    HW2 4353   1.819   5.783   0.773
 1152SOL     OW 4354   0.005   0.641   3.529
 1152SOL    HW1 4355   6.994   0.715   3.471
 1152SOL    HW2 4356   0.033   0.564   3.471
 1153SOL     OW 4357   1.194   4.524   1.510
 1153SOL    HW1 4358   1.142   4.438   1.514
 1153SOL    HW2 4359   1.195   4.557   1.415
 1154SOL     OW 4360   1.778   4.050   2.110
 1154SOL    HW1 4361   1.842   4.119   2.077
 1154SOL    HW2 4362   1.781   4.047   2.210
 1155SOL     OW 4363   5.055   1.632   1.960
 1155SOL    HW1 4364   5.081   1.548   2.008
 1155SOL    HW2 4365   5.023   1.609   1.868
 1156SOL     OW 4366   2.880   1.394   3.702
 1156SOL    HW1 4367   2.869   1.362   3.796
 1156SOL    HW2 4368   2.977   1.404   3.681
 1157SOL     OW 4369   2.019   3.410   3.241
 1157SOL    HW1 4370   2.093   3.365   3.291
 1157SOL    HW2 4371   2.056   3.480   3.181
 1158SOL     OW 4372   4.480   5.239   5.195
 1158SOL    HW1 4373   4.506   5.266   5.287
 1158SOL    HW2 4374   4.508   5.144   5.178
 1159SOL     OW 4375   6.575   4.638   3.280
 1159SOL    HW1 4376   6.516   4.612   3.203
 1159SOL    HW2 4377   6.646   4.568   3.292
 1160SOL     OW 4378   3.174   2.054   1.817
 1160SOL    HW1 4379   3.186   2.048   1.718
 1160SOL    HW2 4380   3.217   2.138   1.851
 1161SOL     OW 4381   4.134   1.781   2.685
 1161SOL    HW1 4382   4.211   1.726   2.718
 1161SOL    HW2 4383   4.048   1.740   2.716
 1162SOL     OW 4384   3.627   4.413   1.316
 1162SOL    HW1 4385   3.631   4.508   1.286
 1162SOL    HW2 4386   3.717   4.371   1.305
 1163SOL     OW 4387   4.917   6.759   3.410
 1163SOL    HW1 4388   4.994   6.793   3.356
 1163SOL    HW2 4389   4.882   6.833   3.468
 1164SOL     OW 4390   6.928   4.287   4.854
 1164SOL    HW1 4391   6.903   4.372   4.808
 1164SOL    HW2 4392   6.847   4.248   4.898
 1165SOL     OW 4393   0.402   5.053   2.368
 1165SOL    HW1 4394   0.371   5.126   2.306
 1165SOL    HW2 4395   0.353   5.061   2.454
 1166SOL     OW 4396   3.415   0.974   5.660
 1166SOL    HW1 4397   3.471   1.056   5.665
 1166SOL    HW2 4398   3.347   0.975   5.734
 1167SOL     OW 4399   4.888   1.273   5.217
 1167SOL    HW1 4400   4.813   1.208   5.224
 1167SOL    HW2 4401   4.960   1.249   5.282
 1168SOL     OW 4402   5.715   1.720   4.419
 1168SOL    HW1 4403   5.653   1.709   4.497
 1168SOL    HW2 4404   5.801   1.760   4.449
 1169SOL     OW 4405   1.831   2.774   0.919
 1169SOL    HW1 4406   1.917   2.812   0.885
 1169SOL    HW2 4407   1.849   2.713   0.996
 1170SOL     OW 4408   2.257   1.257   1.420
 1170SOL    HW1 4409   2.298   1.333   1.371
 1170SOL    HW2 4410   2.169   1.286   1.459
 1171SOL     OW 4411   5.299   0.486   0.760
 1171SOL    HW1 4412   5.283   0.584   0.769
 1171SOL    HW2 4413   5.251   0.451   0.680
 1172SOL     OW 4414   3.207   3.418   5.810
 1172SOL    HW1 4415   3.279   3.454   5.750
 1172SOL    HW2 4416   3.125   3.473   5.800
 1173SOL     OW 4417   5.003   5.889   0.115
 1173SOL    HW1 4418   5.035   5.865   0.023
 1173SOL    HW2 4419   4.937   5.820   0.146
 1174SOL     OW 4420   4.538   6.469   5.768
 1174SOL    HW1 4421   4.581   6.541   5.714
 1174SOL    HW2 4422   4.506   6.508   5.855
 1175SOL     OW 4423   6.903   5.417   5.344
 1175SOL    HW1 4424   6.840   5.397   5.270
 1175SOL    HW2 4425   6.904   5.341   5.409
 1176SOL     OW 4426   5.935   3.077   1.302
 1176SOL    HW1 4427   6.018   3.051   1.253
 1176SOL    HW2 4428   5.874   3.126   1.239
 1177SOL     OW 4429   6.903   3.424   5.028
 1177SOL    HW1 4430   6.925   3.334   5.065
 1177SOL    HW2 4431   6.951   3.437   4.941
 1178SOL     OW 4432   4.960   4.542   2.209
 1178SOL    HW1 4433   4.992   4.463   2.158
 1178SOL    HW2 4434   4.987   4.626   2.161
 1179SOL     OW 4435   1.855   5.346   5.684
 1179SOL    HW1 4436   1.855   5.399   5.769
 1179SOL    HW2 4437   1.802   5.263   5.696
 1180SOL     OW 4438   2.346   1.484   4.634
 1180SOL    HW1 4439   2.336   1.579   4.661
 1180SOL    HW2 4440   2.392   1.479   4.545
 1181SOL     OW 4441   1.009   4.306   2.231
 1181SOL    HW1 4442   1.047   4.301   2.323
 1181SOL    HW2 4443   1.079   4.338   2.167
 1182SOL     OW 4444   6.889   3.967   3.862
 1182SOL    HW1 4445   6.875   3.871   3.888
 1182SOL    HW2 4446   6.912   3.972   3.764
 1183SOL     OW 4447   4.535   6.202   0.219
 1183SOL    HW1 4448   4.608   6.266   0.194
 1183SOL    HW2 4449   4.446   6.243   0.198
 1184SOL     OW 4450   4.405   3.511   6.624
 1184SOL    HW1 4451   4.407   3.558   6.713
 1184SOL    HW2 4452   4.439   3.418   6.634
 1185SOL     OW 4453   3.078   1.003   6.554
 1185SOL    HW1 4454   3.069   1.099   6.529
 1185SOL    HW2 4455   3.113   0.996   6.648
 1186SOL     OW 4456   4.275   6.473   5.069
 1186SOL    HW1 4457   4.252   6.503   5.162
 1186SOL    HW2 4458   4.232   6.534   5.003
 1187SOL     OW 4459   0.166   2.684   4.966
 1187SOL    HW1 4460   0.204   2.718   5.053
 1187SOL    HW2 4461   0.134   2.761   4.912
 1188SOL     OW 4462   2.170   0.908   4.843
 1188SOL    HW1 4463   2.075   0.880   4.853
 1188SOL    HW2 4464   2.228   0.826   4.841
 1189SOL     OW 4465   1.596   0.631   1.145
 1189SOL    HW1 4466   1.629   0.674   1.229
 1189SOL    HW2 4467   1.509   0.673   1.118
 1190SOL     OW 4468   2.879   6.333   1.325
 1190SOL    HW1 4469   2.891   6.253   1.385
 1190SOL    HW2 4470   2.786   6.367   1.335
 1191SOL     OW 4471   1.845   3.931   1.680
 1191SOL    HW1 4472   1.794   4.015   1.698
 1191SOL    HW2 4473   1.942   3.953   1.668
 1192SOL     OW 4474   3.722   6.040   2.327
 1192SOL    HW1 4475   3.761   6.100   2.396
 1192SOL    HW2 4476   3.668   5.968   2.371
 1193SOL     OW 4477   3.411   1.988   3.336
 1193SOL    HW1 4478   3.315   1.970   3.319
 1193SOL    HW2 4479   3.463   1.903   3.332
 1194SOL     OW 4480   0.063   3.097   2.078
 1194SOL    HW1 4481   7.013   3.150   2.032
 1194SOL    HW2 4482   0.021   3.022   2.129
 1195SOL     OW 4483   5.125   0.837   0.006
 1195SOL    HW1 4484   5.030   0.810   0.020
 1195SOL    HW2 4485   5.129   0.917   6.969
 1196SOL     OW 4486   1.577   5.535   3.918
 1196SOL    HW1 4487   1.519   5.579   3.987
 1196SOL    HW2 4488   1.525   5.464   3.871
 1197SOL     OW 4489   4.074   4.868   0.004
 1197SOL    HW1 4490   4.116   4.951   6.989
 1197SOL    HW2 4491   4.138   4.823   0.067
 1198SOL     OW 4492   3.050   1.607   3.021
 1198SOL    HW1 4493   3.031   1.580   3.115
 1198SOL    HW2 4494   2.987   1.680   2.994
 1199SOL     OW 4495   3.537   4.158   3.925
 1199SOL    HW1 4496   3.590   4.234   3.887
 1199SOL    HW2 4497   3.518   4.092   3.852
 1200SOL     OW 4498   4.427   3.908   1.347
 1200SOL    HW1 4499   4.482   3.893   1.429
 1200SOL    HW2 4500   4.330   3.903   1.371
 1201SOL     OW 4501   2.059   1.795   5.150
 1201SOL    HW1 4502   2.034   1.748   5.234
 1201SOL    HW2 4503   2.017   1.885   5.147
 1202SOL     OW 4504   5.385   5.935   4.384
 1202SOL    HW1 4505   5.422   5.863   4.442
 1202SOL    HW2 4506   5.448   6.013   4.381
 1203SOL     OW 4507   4.940   0.439   1.734
 1203SOL    HW1 4508   4.974   0.351   1.767
 1203SOL    HW2 4509   4.849   0.426   1.694
 1204SOL     OW 4510   2.444   6.970   0.533
 1204SOL    HW1 4511   2.454   6.891   0.594
 1204SOL    HW2 4512   2.394   6.943   0.451
 1205SOL     OW 4513   0.832   2.754   6.431
 1205SOL    HW1 4514   0.757   2.705   6.475
 1205SOL    HW2 4515   0.877   2.695   6.363
 1206SOL     OW 4516   6.398   2.182   5.184
 1206SOL    HW1 4517   6.407   2.103   5.244
 1206SOL    HW2 4518   6.487   2.225   5.171
 1207SOL     OW 4519   5.642   5.716   5.614
 1207SOL    HW1 4520   5.654   5.618   5.603
 1207SOL    HW2 4521   5.588   5.753   5.539
 1208SOL     OW 4522   4.045   3.329   3.604
 1208SOL    HW1 4523   4.052   3.266   3.682
 1208SOL    HW2 4524   4.083   3.417   3.628
 1209SOL     OW 4525   0.466   3.459   4.615
 1209SOL    HW1 4526   0.416   3.484   4.698
 1209SOL    HW2 4527   0.556   3.502   4.617
 1210SOL     OW 4528   2.668   0.431   4.512
 1210SOL    HW1 4529   2.717   0.363   4.458
 1210SOL    HW2 4530   2.575   0.399   4.529
 1211SOL     OW 4531   6.500   4.259   3.754
 1211SOL    HW1 4532   6.493   4.347   3.799
 1211SOL    HW2 4533   6.421   4.202   3.778
 1212SOL     OW 4534   1.336   3.190   2.325
 1212SOL    HW1 4535   1.305   3.254   2.395
 1212SOL    HW2 4536   1.400   3.125   2.366
 1213SOL     OW 4537   6.551   4.062   5.169
 1213SOL    HW1 4538   6.623   4.035   5.104
 1213SOL    HW2 4539   6.499   4.138   5.131
 1214SOL     OW 4540   0.557   2.220   0.804
 1214SOL    HW1 4541   0.461   2.234   0.783
 1214SOL    HW2 4542   0.612   2.239   0.723
 1215SOL     OW 4543   0.869   0.271   1.827
 1215SOL    HW1 4544   0.844   0.230   1.739
 1215SOL    HW2 4545   0.951   0.225   1.863
 1216SOL     OW 4546   1.799   0.384   0.480
 1216SOL    HW1 4547   1.730   0.414   0.545
 1216SOL    HW2 4548   1.890   0.388   0.523
 1217SOL     OW 4549   0.947   2.980   3.450
 1217SOL    HW1 4550   0.849   2.977   3.431
 1217SOL    HW2 4551   0.972   3.071   3.481
 1218SOL     OW 4552   0.062   4.479   4.020
 1218SOL    HW1 4553   0.091   4.408   3.956
 1218SOL    HW2 4554   6.986   4.469   4.039
 1219SOL     OW 4555   1.684   5.649   2.864
 1219SOL    HW1 4556   1.671   5.730   2.920
 1219SOL    HW2 4557   1.668   5.671   2.768
 1220SOL     OW 4558   5.938   4.928   2.803
 1220SOL    HW1 4559   5.891   4.959   2.721
 1220SOL    HW2 4560   5.982   5.005   2.848
 1221SOL     OW 4561   4.490   5.369   0.872
 1221SOL    HW1 4562   4.543   5.420   0.940
 1221SOL    HW2 4563   4.418   5.429   0.836
 1222SOL     OW 4564   0.022   4.804   1.392
 1222SOL    HW1 4565   6.982   4.755   1.453
 1222SOL    HW2 4566   0.031   4.899   1.422
 1223SOL     OW 4567   1.255   4.031   4.923
 1223SOL    HW1 4568   1.354   4.026   4.931
 1223SOL    HW2 4569   1.214   4.034   5.014
 1224SOL     OW 4570   3.970   5.357   1.721
 1224SOL    HW1 4571   4.020   5.292   1.663
 1224SOL    HW2 4572   3.900   5.403   1.666
 1225SOL     OW 4573   5.301   1.890   6.495
 1225SOL    HW1 4574   5.317   1.965   6.431
 1225SOL    HW2 4575   5.272   1.926   6.583
 1226SOL     OW 4576   5.826   5.707   1.298
 1226SOL    HW1 4577   5.735   5.675   1.270
 1226SOL    HW2 4578   5.891   5.693   1.223
 1227SOL     OW 4579   6.438   4.581   0.580
 1227SOL    HW1 4580   6.342   4.560   0.565
 1227SOL    HW2 4581   6.466   4.656   0.521
 1228SOL     OW 4582   4.039   3.773   5.054
 1228SOL    HW1 4583   3.958   3.721   5.079
 1228SOL    HW2 4584   4.051   3.770   4.954
 1229SOL     OW 4585   1.899   5.116   1.722
 1229SOL    HW1 4586   1.944   5.149   1.806
 1229SOL    HW2 4587   1.965   5.067   1.666
 1230SOL     OW 4588   5.716   4.610   0.363
 1230SOL    HW1 4589   5.721   4.640   0.458
 1230SOL    HW2 4590   5.764   4.523   0.352
 1231SOL     OW 4591   2.029   0.741   1.156
 1231SOL    HW1 4592   2.022   0.806   1.231
 1231SOL    HW2 4593   2.085   0.663   1.185
 1232SOL     OW 4594   1.884   1.996   5.852
 1232SOL    HW1 4595   1.945   1.920   5.830
 1232SOL    HW2 4596   1.937   2.079   5.869
 1233SOL     OW 4597   0.249   5.684   5.358
 1233SOL    HW1 4598   0.240   5.585   5.349
 1233SOL    HW2 4599   0.165   5.729   5.326
 1234SOL     OW 4600   6.863   4.654   5.045
 1234SOL    HW1 4601   6.781   4.703   5.016
 1234SOL    HW2 4602   6.910   4.617   4.964
 1235SOL     OW 4603   6.667   5.088   0.157
 1235SOL    HW1 4604   6.609   5.135   0.224
 1235SOL    HW2 4605   6.723   5.156   0.108
 1236SOL     OW 4606   0.209   1.035   3.230
 1236SOL    HW1 4607   0.211   1.066   3.135
 1236SOL    HW2 4608   0.145   1.090   3.282
 1237SOL     OW 4609   0.704   0.649   5.487
 1237SOL    HW1 4610   0.622   0.662   5.431
 1237SOL    HW2 4611   0.747   0.562   5.464
 1238SOL     OW 4612   0.039   0.765   4.465
 1238SOL    HW1 4613   0.109   0.798   4.402
 1238SOL    HW2 4614   0.057   0.801   4.557
 1239SOL     OW 4615   4.465   5.320   3.336
 1239SOL    HW1 4616   4.543   5.277   3.381
 1239SOL    HW2 4617   4.430   5.259   3.264
 1240SOL     OW 4618   1.034   3.724   2.092
 1240SOL    HW1 4619   1.045   3.805   2.150
 1240SOL    HW2 4620   1.056   3.747   1.997
 1241SOL     OW 4621   2.819   5.468   6.209
 1241SOL    HW1 4622   2.730   5.446   6.250
 1241SOL    HW2 4623   2.806   5.517   6.124
 1242SOL     OW 4624   2.250   6.048   0.427
 1242SOL    HW1 4625   2.332   6.079   0.474
 1242SOL    HW2 4626   2.193   5.996   0.491
 1243SOL     OW 4627   1.012   4.331   4.092
 1243SOL    HW1 4628   0.983   4.316   3.998
 1243SOL    HW2 4629   1.062   4.251   4.125
 1244SOL     OW 4630   6.414   6.122   5.082
 1244SOL    HW1 4631   6.376   6.171   5.160
 1244SOL    HW2 4632   6.424   6.025   5.105
 1245SOL     OW 4633   3.593   6.486   1.413
 1245SOL    HW1 4634   3.501   6.517   1.386
 1245SOL    HW2 4635   3.587   6.439   1.501
 1246SOL     OW 4636   5.106   2.511   3.328
 1246SOL    HW1 4637   5.016   2.481   3.297
 1246SOL    HW2 4638   5.141   2.580   3.264
 1247SOL     OW 4639   4.430   6.015   2.533
 1247SOL    HW1 4640   4.463   5.963   2.612
 1247SOL    HW2 4641   4.508   6.050   2.482
 1248SOL     OW 4642   0.138   0.322   5.265
 1248SOL    HW1 4643   0.184   0.410   5.264
 1248SOL    HW2 4644   0.203   0.250   5.240
 1249SOL     OW 4645   6.731   7.002   0.374
 1249SOL    HW1 4646   6.753   6.911   0.411
 1249SOL    HW2 4647   6.636   0.003   0.396
 1250SOL     OW 4648   1.087   4.039   5.119
 1250SOL    HW1 4649   1.156   4.004   5.182
 1250SOL    HW2 4650   1.076   4.138   5.133
 1251SOL     OW 4651   1.637   0.185   3.927
 1251SOL    HW1 4652   1.734   0.183   3.949
 1251SOL    HW2 4653   1.599   0.274   3.952
 1252SOL     OW 4654   3.611   4.335   6.714
 1252SOL    HW1 4655   3.600   4.238   6.738
 1252SOL    HW2 4656   3.526   4.369   6.674
 1253SOL     OW 4657   2.697   5.104   0.571
 1253SOL    HW1 4658   2.780   5.051   0.587
 1253SOL    HW2 4659   2.717   5.201   0.582
 1254SOL     OW 4660   6.386   1.451   4.625
 1254SOL    HW1 4661   6.443   1.382   4.581
 1254SOL    HW2 4662   6.324   1.406   4.690
 1255SOL     OW 4663   5.929   2.255   6.543
 1255SOL    HW1 4664   6.024   2.269   6.571
 1255SOL    HW2 4665   5.868   2.295   6.611
 1256SOL     OW 4666   6.985   6.327   6.273
 1256SOL    HW1 4667   6.966   6.328   6.371
 1256SOL    HW2 4668   0.032   6.257   6.253
 1257SOL     OW 4669   6.980   6.430   2.400
 1257SOL    HW1 4670   6.970   6.473   2.310
 1257SOL    HW2 4671   0.003   6.495   2.462
 1258SOL     OW 4672   5.008   4.770   6.426
 1258SOL    HW1 4673   4.910   4.766   6.444
 1258SOL    HW2 4674   5.055   4.806   6.507
 1259SOL     OW 4675   6.246   6.841   4.281
 1259SOL    HW1 4676   6.247   6.771   4.211
 1259SOL    HW2 4677   6.339   6.865   4.308
 1260SOL     OW 4678   3.088   0.322   0.838
 1260SOL    HW1 4679   3.125   0.232   0.862
 1260SOL    HW2 4680   2.989   0.322   0.853
 1261SOL     OW 4681   1.107   3.382   5.129
 1261SOL    HW1 4682   1.139   3.406   5.221
 1261SOL    HW2 4683   1.186   3.360   5.072
 1262SOL     OW 4684   5.108   6.647   0.141
 1262SOL    HW1 4685   5.101   6.549   0.122
 1262SOL    HW2 4686   5.085   6.665   0.236
 1263SOL     OW 4687   6.766   0.780   1.508
 1263SOL    HW1 4688   6.718   0.837   1.441
 1263SOL    HW2 4689   6.713   0.697   1.524
 1264SOL     OW 4690   6.213   1.877   4.279
 1264SOL    HW1 4691   6.298   1.868   4.228
 1264SOL    HW2 4692   6.144   1.921   4.221
 1265SOL     OW 4693   6.432   6.255   3.266
 1265SOL    HW1 4694   6.398   6.163   3.245
 1265SOL    HW2 4695   6.373   6.323   3.223
 1266SOL     OW 4696   2.908   1.497   5.214
 1266SOL    HW1 4697   2.824   1.535   5.254
 1266SOL    HW2 4698   2.966   1.462   5.288
 1267SOL     OW 4699   0.167   4.410   2.023
 1267SOL    HW1 4700   0.110   4.329   2.036
 1267SOL    HW2 4701   0.172   4.462   2.108
 1268SOL     OW 4702   6.241   4.847   6.241
 1268SOL    HW1 4703   6.312   4.851   6.170
 1268SOL    HW2 4704   6.163   4.796   6.207
 1269SOL     OW 4705   1.262   3.520   5.666
 1269SOL    HW1 4706   1.308   3.482   5.747
 1269SOL    HW2 4707   1.170   3.550   5.691
 1270SOL     OW 4708   0.981   2.855   4.104
 1270SOL    HW1 4709   1.037   2.817   4.178
 1270SOL    HW2 4710   0.924   2.782   4.065
 1271SOL     OW 4711   5.469   4.164   2.934
 1271SOL    HW1 4712   5.543   4.166   3.000
 1271SOL    HW2 4713   5.419   4.251   2.937
 1272SOL     OW 4714   6.046   0.536   0.888
 1272SOL    HW1 4715   5.979   0.521   0.961
 1272SOL    HW2 4716   6.108   0.458   0.882
 1273SOL     OW 4717   2.884   6.295   4.340
 1273SOL    HW1 4718   2.799   6.270   4.293
 1273SOL    HW2 4719   2.951   6.221   4.327
 1274SOL     OW 4720   5.695   2.167   1.374
 1274SOL    HW1 4721   5.738   2.092   1.323
 1274SOL    HW2 4722   5.758   2.244   1.379
 1275SOL     OW 4723   3.619   0.604   3.294
 1275SOL    HW1 4724   3.551   0.535   3.267
 1275SOL    HW2 4725   3.599   0.635   3.387
 1276SOL     OW 4726   4.956   6.234   2.795
 1276SOL    HW1 4727   4.858   6.243   2.813
 1276SOL    HW2 4728   4.970   6.217   2.697
 1277SOL     OW 4729   0.505   1.818   5.197
 1277SOL    HW1 4730   0.463   1.820   5.288
 1277SOL    HW2 4731   0.456   1.881   5.136
 1278SOL     OW 4732   2.860   1.446   4.752
 1278SOL    HW1 4733   2.787   1.416   4.691
 1278SOL    HW2 4734   2.941   1.470   4.697
 1279SOL     OW 4735   1.759   4.564   0.726
 1279SOL    HW1 4736   1.758   4.515   0.638
 1279SOL    HW2 4737   1.846   4.611   0.738
 1280SOL     OW 4738   0.706   6.095   2.980
 1280SOL    HW1 4739   0.674   6.188   2.962
 1280SOL    HW2 4740   0.640   6.029   2.946
 1281SOL     OW 4741   1.232   6.414   4.324
 1281SOL    HW1 4742   1.299   6.397   4.252
 1281SOL    HW2 4743   1.236   6.511   4.351
 1282SOL     OW 4744   1.536   6.755   2.830
 1282SOL    HW1 4745   1.559   6.666   2.871
 1282SOL    HW2 4746   1.440   6.776   2.848
 1283SOL     OW 4747   5.891   4.535   5.388
 1283SOL    HW1 4748   5.883   4.509   5.292
 1283SOL    HW2 4749   5.850   4.625   5.402
 1284SOL     OW 4750   2.949   2.235   2.990
 1284SOL    HW1 4751   2.951   2.224   3.089
 1284SOL    HW2 4752   2.908   2.153   2.948
 1285SOL     OW 4753   5.988   2.287   5.822
 1285SOL    HW1 4754   6.000   2.374   5.870
 1285SOL    HW2 4755   6.076   2.240   5.815
 1286SOL     OW 4756   5.087   5.312   0.927
 1286SOL    HW1 4757   5.054   5.291   1.019
 1286SOL    HW2 4758   5.124   5.229   0.885
 1287SOL     OW 4759   5.937   3.742   6.133
 1287SOL    HW1 4760   5.954   3.820   6.071
 1287SOL    HW2 4761   6.024   3.695   6.150
 1288SOL     OW 4762   0.379   3.023   3.214
 1288SOL    HW1 4763   0.372   3.114   3.174
 1288SOL    HW2 4764   0.312   2.962   3.172
 1289SOL     OW 4765   0.511   5.230   3.347
 1289SOL    HW1 4766   0.463   5.273   3.271
 1289SOL    HW2 4767   0.592   5.284   3.370
 1290SOL     OW 4768   0.529   0.058   1.527
 1290SOL    HW1 4769   0.613   0.026   1.570
 1290SOL    HW2 4770   0.541   0.061   1.428
 1291SOL     OW 4771   1.515   5.515   1.633
 1291SOL    HW1 4772   1.471   5.540   1.720
 1291SOL    HW2 4773   1.606   5.478   1.651
 1292SOL     OW 4774   1.386   6.857   0.163
 1292SOL    HW1 4775   1.316   6.817   0.104
 1292SOL    HW2 4776   1.386   6.810   0.251
 1293SOL     OW 4777   6.564   1.330   6.358
 1293SOL    HW1 4778   6.570   1.241   6.312
 1293SOL    HW2 4779   6.470   1.344   6.389
 1294SOL     OW 4780   1.086   1.641   4.503
 1294SOL    HW1 4781   1.110   1.549   4.535
 1294SOL    HW2 4782   1.136   1.709   4.556
 1295SOL     OW 4783   5.058   4.214   0.370
 1295SOL    HW1 4784   4.960   4.200   0.353
 1295SOL    HW2 4785   5.088   4.155   0.444
 1296SOL     OW 4786   3.680   1.086   0.091
 1296SOL    HW1 4787   3.624   1.160   0.128
 1296SOL    HW2 4788   3.626   1.034   0.025
 1297SOL     OW 4789   5.523   0.814   5.850
 1297SOL    HW1 4790   5.508   0.733   5.794
 1297SOL    HW2 4791   5.618   0.844   5.839
 1298SOL     OW 4792   6.162   2.987   3.274
 1298SOL    HW1 4793   6.084   3.045   3.248
 1298SOL    HW2 4794   6.153   2.959   3.369
 1299SOL     OW 4795   1.892   4.342   4.323
 1299SOL    HW1 4796   1.904   4.403   4.402
 1299SOL    HW2 4797   1.982   4.318   4.286
 1300SOL     OW 4798   3.704   3.421   3.265
 1300SOL    HW1 4799   3.625   3.425   3.205
 1300SOL    HW2 4800   3.683   3.469   3.350
 1301SOL     OW 4801   0.518   0.737   1.654
 1301SOL    HW1 4802   0.512   0.710   1.558
 1301SOL    HW2 4803   0.609   0.775   1.672
 1302SOL     OW 4804   2.821   5.135   5.817
 1302SOL    HW1 4805   2.769   5.195   5.878
 1302SOL    HW2 4806   2.800   5.157   5.722
 1303SOL     OW 4807   2.550   0.167   1.872
 1303SOL    HW1 4808   2.555   0.210   1.781
 1303SOL    HW2 4809   2.633   0.188   1.923
 1304SOL     OW 4810   3.574   1.069   6.233
 1304SOL    HW1 4811   3.483   1.080   6.192
 1304SOL    HW2 4812   3.629   1.007   6.177
 1305SOL     OW 4813   5.879   6.393   4.176
 1305SOL    HW1 4814   5.897   6.403   4.078
 1305SOL    HW2 4815   5.787   6.356   4.189
 1306SOL     OW 4816   1.246   5.464   3.476
 1306SOL    HW1 4817   1.301   5.506   3.548
 1306SOL    HW2 4818   1.267   5.506   3.388
 1307SOL     OW 4819   0.869   0.660   5.202
 1307SOL    HW1 4820   0.900   0.753   5.181
 1307SOL    HW2 4821   0.892   0.600   5.126
 1308SOL     OW 4822   4.325   6.559   3.658
 1308SOL    HW1 4823   4.333   6.482   3.721
 1308SOL    HW2 4824   4.411   6.570   3.608
 1309SOL     OW 4825   6.433   2.843   4.351
 1309SOL    HW1 4826   6.527   2.830   4.320
 1309SOL    HW2 4827   6.370   2.825   4.276
 1310SOL     OW 4828   5.659   3.777   6.461
 1310SOL    HW1 4829   5.586   3.809   6.521
 1310SOL    HW2 4830   5.644   3.811   6.368
 1311SOL     OW 4831   5.504   4.700   0.647
 1311SOL    HW1 4832   5.503   4.797   0.622
 1311SOL    HW2 4833   5.445   4.649   0.584
 1312SOL     OW 4834   5.877   1.677   1.378
 1312SOL    HW1 4835   5.971   1.688   1.411
 1312SOL    HW2 4836   5.832   1.606   1.432
 1313SOL     OW 4837   4.557   5.250   4.638
 1313SOL    HW1 4838   4.488   5.218   4.703
 1313SOL    HW2 4839   4.623   5.309   4.686
 1314SOL     OW 4840   6.830   1.709   6.050
 1314SOL    HW1 4841   6.839   1.610   6.055
 1314SOL    HW2 4842   6.826   1.748   6.142
 1315SOL     OW 4843   0.939   7.017   3.824
 1315SOL    HW1 4844   1.032   6.986   3.804
 1315SOL    HW2 4845   0.892   6.946   3.876
 1316SOL     OW 4846   3.609   5.556   4.176
 1316SOL    HW1 4847   3.541   5.579   4.106
 1316SOL    HW2 4848   3.700   5.555   4.135
 1317SOL     OW 4849   0.189   3.377   3.066
 1317SOL    HW1 4850   0.125   3.322   3.011
 1317SOL    HW2 4851   0.138   3.426   3.137
 1318SOL     OW 4852   0.315   6.371   2.412
 1318SOL    HW1 4853   0.257   6.448   2.385
 1318SOL    HW2 4854   0.376   6.401   2.486
 1319SOL     OW 4855   0.326   0.024   0.684
 1319SOL    HW1 4856   0.304   0.093   0.753
 1319SOL    HW2 4857   0.279   6.961   0.707
 1320SOL     OW 4858   6.439   5.096   5.371
 1320SOL    HW1 4859   6.475   5.137   5.287
 1320SOL    HW2 4860   6.378   5.020   5.346
 1321SOL     OW 4861   3.483   0.984   1.242
 1321SOL    HW1 4862   3.570   1.002   1.198
 1321SOL    HW2 4863   3.493   0.990   1.342
 1322SOL     OW 4864   5.321   1.071   6.289
 1322SOL    HW1 4865   5.256   1.070   6.213
 1322SOL    HW2 4866   5.391   1.001   6.273
 1323SOL     OW 4867   6.597   0.343   4.787
 1323SOL    HW1 4868   6.614   0.438   4.760
 1323SOL    HW2 4869   6.684   0.297   4.803
 1324SOL     OW 4870   1.238   2.454   0.794
 1324SOL    HW1 4871   1.238   2.554   0.785
 1324SOL    HW2 4872   1.275   2.413   0.710
 1325SOL     OW 4873   5.010   5.097   3.196
 1325SOL    HW1 4874   5.088   5.118   3.137
 1325SOL    HW2 4875   5.005   5.165   3.269
 1326SOL     OW 4876   4.897   4.063   4.231
 1326SOL    HW1 4877   4.995   4.083   4.236
 1326SOL    HW2 4878   4.867   4.020   4.316
 1327SOL     OW 4879   3.421   5.970   3.868
 1327SOL    HW1 4880   3.367   5.925   3.939
 1327SOL    HW2 4881   3.418   6.069   3.881
 1328SOL     OW 4882   2.274   1.702   1.718
 1328SOL    HW1 4883   2.317   1.711   1.808
 1328SOL    HW2 4884   2.175   1.713   1.727
 1329SOL     OW 4885   1.190   5.676   1.550
 1329SOL    HW1 4886   1.196   5.582   1.584
 1329SOL    HW2 4887   1.188   5.675   1.450
 1330SOL     OW 4888   6.698   6.269   1.322
 1330SOL    HW1 4889   6.652   6.328   1.388
 1330SOL    HW2 4890   6.744   6.326   1.254
 1331SOL     OW 4891   0.903   2.079   1.675
 1331SOL    HW1 4892   0.949   2.087   1.586
 1331SOL    HW2 4893   0.804   2.084   1.661
 1332SOL     OW 4894   4.024   2.206   0.311
 1332SOL    HW1 4895   4.029   2.220   0.410
 1332SOL    HW2 4896   4.096   2.260   0.267
 1333SOL     OW 4897   4.078   3.669   5.659
 1333SOL    HW1 4898   4.063   3.746   5.721
 1333SOL    HW2 4899   4.157   3.615   5.690
 1334SOL     OW 4900   1.801   3.495   3.691
 1334SOL    HW1 4901   1.808   3.519   3.788
 1334SOL    HW2 4902   1.746   3.413   3.681
 1335SOL     OW 4903   2.060   5.963   4.090
 1335SOL    HW1 4904   2.146   5.918   4.067
 1335SOL    HW2 4905   2.014   5.993   4.006
 1336SOL     OW 4906   0.061   6.601   4.690
 1336SOL    HW1 4907   0.152   6.599   4.731
 1336SOL    HW2 4908   0.023   6.508   4.687
 1337SOL     OW 4909   2.822   0.190   6.988
 1337SOL    HW1 4910   2.859   0.165   0.055
 1337SOL    HW2 4911   2.894   0.233   6.934
 1338SOL     OW 4912   4.199   4.208   0.630
 1338SOL    HW1 4913   4.199   4.237   0.535
 1338SOL    HW2 4914   4.257   4.128   0.641
 1339SOL     OW 4915   0.149   4.434   6.761
 1339SOL    HW1 4916   0.226   4.396   6.812
 1339SOL    HW2 4917   0.145   4.533   6.777
 1340SOL     OW 4918   2.278   1.858   5.877
 1340SOL    HW1 4919   2.349   1.858   5.807
 1340SOL    HW2 4920   2.319   1.869   5.967
 1341SOL     OW 4921   4.952   1.790   3.614
 1341SOL    HW1 4922   4.925   1.783   3.518
 1341SOL    HW2 4923   4.872   1.811   3.670
 1342SOL     OW 4924   0.916   5.626   0.531
 1342SOL    HW1 4925   1.013   5.620   0.505
 1342SOL    HW2 4926   0.880   5.535   0.546
 1343SOL     OW 4927   3.177   5.987   3.231
 1343SOL    HW1 4928   3.182   5.899   3.183
 1343SOL    HW2 4929   3.084   6.023   3.225
 1344SOL     OW 4930   4.507   1.519   1.971
 1344SOL    HW1 4931   4.507   1.619   1.965
 1344SOL    HW2 4932   4.590   1.488   2.016
 1345SOL     OW 4933   6.359   5.689   1.832
 1345SOL    HW1 4934   6.267   5.722   1.854
 1345SOL    HW2 4935   6.353   5.609   1.773
 1346SOL     OW 4936   6.493   1.918   3.307
 1346SOL    HW1 4937   6.451   1.847   3.250
 1346SOL    HW2 4938   6.592   1.910   3.303
 1347SOL     OW 4939   4.134   1.335   3.415
 1347SOL    HW1 4940   4.091   1.426   3.417
 1347SOL    HW2 4941   4.073   1.270   3.370
 1348SOL     OW 4942   5.934   6.654   4.702
 1348SOL    HW1 4943   5.967   6.657   4.796
 1348SOL    HW2 4944   5.884   6.738   4.681
 1349SOL     OW 4945   5.050   1.259   6.681
 1349SOL    HW1 4946   5.076   1.162   6.676
 1349SOL    HW2 4947   5.131   1.313   6.703
 1350SOL     OW 4948   4.031   1.733   5.014
 1350SOL    HW1 4949   4.031   1.654   4.953
 1350SOL    HW2 4950   3.949   1.788   4.997
 1351SOL     OW 4951   1.343   1.884   4.595
 1351SOL    HW1 4952   1.363   1.944   4.672
 1351SOL    HW2 4953   1.376   1.925   4.510
 1352SOL     OW 4954   1.587   6.639   4.737
 1352SOL    HW1 4955   1.558   6.707   4.669
 1352SOL    HW2 4956   1.661   6.583   4.698
 1353SOL     OW 4957   2.708   3.362   5.767
 1353SOL    HW1 4958   2.747   3.382   5.857
 1353SOL    HW2 4959   2.763   3.404   5.696
 1354SOL     OW 4960   0.732   6.324   6.781
 1354SOL    HW1 4961   0.718   6.226   6.790
 1354SOL    HW2 4962   0.715   6.353   6.687
 1355SOL     OW 4963   4.076   3.954   0.380
 1355SOL    HW1 4964   4.110   4.046   0.363
 1355SOL    HW2 4965   4.145   3.887   0.352
 1356SOL     OW 4966   3.827   3.028   2.762
 1356SOL    HW1 4967   3.732   2.997   2.761
 1356SOL    HW2 4968   3.870   3.005   2.675
 1357SOL     OW 4969   4.055   2.476   6.277
 1357SOL    HW1 4970   4.146   2.511   6.298
 1357SOL    HW2 4971   3.993   2.499   6.352
 1358SOL     OW 4972   2.349   2.835   4.524
 1358SOL    HW1 4973   2.363   2.835   4.425
 1358SOL    HW2 4974   2.376   2.925   4.561
 1359SOL     OW 4975   1.196   1.841   6.024
 1359SOL    HW1 4976   1.114   1.785   6.034
 1359SOL    HW2 4977   1.251   1.806   5.949
 1360SOL     OW 4978   3.099   3.834   5.224
 1360SOL    HW1 4979   3.136   3.918   5.184
 1360SOL    HW2 4980   3.088   3.765   5.152
 1361SOL     OW 4981   1.495   6.338   1.263
 1361SOL    HW1 4982   1.563   6.317   1.333
 1361SOL    HW2 4983   1.531   6.408   1.202
 1362SOL     OW 4984   3.924   1.156   6.465
 1362SOL    HW1 4985   3.852   1.105   6.512
 1362SOL    HW2 4986   3.934   1.120   6.372
 1363SOL     OW 4987   6.480   5.773   1.229
 1363SOL    HW1 4988   6.514   5.679   1.224
 1363SOL    HW2 4989   6.451   5.802   1.138
 1364SOL     OW 4990   1.415   3.019   1.009
 1364SOL    HW1 4991   1.448   2.942   0.955
 1364SOL    HW2 4992   1.387   2.988   1.100
 1365SOL     OW 4993   1.726   3.131   6.712
 1365SOL    HW1 4994   1.774   3.211   6.677
 1365SOL    HW2 4995   1.777   3.048   6.686
 1366SOL     OW 4996   4.074   1.048   1.982
 1366SOL    HW1 4997   4.155   0.990   1.984
 1366SOL    HW2 4998   4.000   1.001   1.933
 1367SOL     OW 4999   2.429   0.557   3.851
 1367SOL    HW1 5000   2.331   0.578   3.858
 1367SOL    HW2 5001   2.472   0.566   3.941
 1368SOL     OW 5002   1.988   5.727   5.124
 1368SOL    HW1 5003   2.052   5.781   5.071
 1368SOL    HW2 5004   1.943   5.785   5.192
 1369SOL     OW 5005   2.445   5.696   3.139
 1369SOL    HW1 5006   2.485   5.655   3.222
 1369SOL    HW2 5007   2.410   5.787   3.160
 1370SOL     OW 5008   6.425   2.984   2.945
 1370SOL    HW1 5009   6.355   3.031   2.890
 1370SOL    HW2 5010   6.451   2.898   2.899
 1371SOL     OW 5011   6.199   2.076   6.330
 1371SOL    HW1 5012   6.251   2.162   6.325
 1371SOL    HW2 5013   6.117   2.089   6.385
 1372SOL     OW 5014   5.067   2.133   1.648
 1372SOL    HW1 5015   5.068   2.220   1.696
 1372SOL    HW2 5016   5.079   2.148   1.550
 1373SOL     OW 5017   3.519   2.669   0.940
 1373SOL    HW1 5018   3.498   2.668   0.842
 1373SOL    HW2 5019   3.593   2.734   0.958
 1374SOL     OW 5020   3.438   3.417   3.992
 1374SOL    HW1 5021   3.352   3.466   3.974
 1374SOL    HW2 5022   3.455   3.415   4.091
 1375SOL     OW 5023   6.274   3.941   5.279
 1375SOL    HW1 5024   6.271   3.879   5.357
 1375SOL    HW2 5025   6.312   4.029   5.307
 1376SOL     OW 5026   2.886   4.813   6.447
 1376SOL    HW1 5027   2.817   4.882   6.427
 1376SOL    HW2 5028   2.845   4.739   6.501
 1377SOL     OW 5029   1.278   1.908   3.426
 1377SOL    HW1 5030   1.250   1.851   3.349
 1377SOL    HW2 5031   1.224   1.884   3.507
 1378SOL     OW 5032   5.456   2.643   3.306
 1378SOL    HW1 5033   5.444   2.726   3.252
 1378SOL    HW2 5034   5.521   2.582   3.260
 1379SOL     OW 5035   5.677   5.593   6.433
 1379SOL    HW1 5036   5.744   5.592   6.358
 1379SOL    HW2 5037   5.606   5.660   6.414
 1380SOL     OW 5038   6.524   6.691   3.742
 1380SOL    HW1 5039   6.594   6.653   3.681
 1380SOL    HW2 5040   6.491   6.777   3.703
 1381SOL     OW 5041   0.394   2.898   6.065
 1381SOL    HW1 5042   0.467   2.966   6.068
 1381SOL    HW2 5043   0.345   2.906   5.978
 1382SOL     OW 5044   4.332   1.764   5.239
 1382SOL    HW1 5045   4.283   1.700   5.180
 1382SOL    HW2 5046   4.295   1.856   5.226
 1383SOL     OW 5047   5.497   6.893   0.609
 1383SOL    HW1 5048   5.552   6.975   0.622
 1383SOL    HW2 5049   5.471   6.884   0.513
 1384SOL     OW 5050   5.724   1.946   2.537
 1384SOL    HW1 5051   5.799   1.934   2.472
 1384SOL    HW2 5052   5.745   2.021   2.599
 1385SOL     OW 5053   6.724   6.776   2.380
 1385SOL    HW1 5054   6.725   6.708   2.307
 1385SOL    HW2 5055   6.788   6.749   2.452
 1386SOL     OW 5056   1.880   0.718   3.856
 1386SOL    HW1 5057   1.930   0.677   3.932
 1386SOL    HW2 5058   1.930   0.701   3.771
 1387SOL     OW 5059   1.204   5.419   1.653
 1387SOL    HW1 5060   1.264   5.452   1.726
 1387SOL    HW2 5061   1.252   5.353   1.597
 1388SOL     OW 5062   6.244   0.482   1.529
 1388SOL    HW1 5063   6.270   0.386   1.517
 1388SOL    HW2 5064   6.194   0.514   1.449
 1389SOL     OW 5065   6.658   0.449   0.654
 1389SOL    HW1 5066   6.753   0.433   0.627
 1389SOL    HW2 5067   6.654   0.528   0.716
 1390SOL     OW 5068   1.435   1.319   4.558
 1390SOL    HW1 5069   1.483   1.254   4.499
 1390SOL    HW2 5070   1.422   1.405   4.508
 1391SOL     OW 5071   1.169   3.589   3.527
 1391SOL    HW1 5072   1.143   3.493   3.518
 1391SOL    HW2 5073   1.245   3.598   3.591
 1392SOL     OW 5074   5.365   5.792   3.851
 1392SOL    HW1 5075   5.266   5.778   3.848
 1392SOL    HW2 5076   5.396   5.830   3.764
 1393SOL     OW 5077   4.009   4.521   6.580
 1393SOL    HW1 5078   4.025   4.552   6.486
 1393SOL    HW2 5079   3.937   4.576   6.622
 1394SOL     OW 5080   0.749   6.792   6.661
 1394SOL    HW1 5081   0.774   6.887   6.679
 1394SOL    HW2 5082   0.814   6.752   6.596
 1395SOL     OW 5083   4.190   4.790   6.231
 1395SOL    HW1 5084   4.096   4.813   6.206
 1395SOL    HW2 5085   4.233   4.741   6.155
 1396SOL     OW 5086   4.633   5.317   2.508
 1396SOL    HW1 5087   4.549   5.365   2.482
 1396SOL    HW2 5088   4.631   5.299   2.606
 1397SOL     OW 5089   6.339   6.531   4.347
 1397SOL    HW1 5090   6.266   6.545   4.413
 1397SOL    HW2 5091   6.316   6.580   4.262
 1398SOL     OW 5092   2.017   0.385   5.595
 1398SOL    HW1 5093   2.020   0.445   5.515
 1398SOL    HW2 5094   2.109   0.376   5.634
 1399SOL     OW 5095   2.771   5.446   2.345
 1399SOL    HW1 5096   2.832   5.407   2.276
 1399SOL    HW2 5097   2.816   5.523   2.390
 1400SOL     OW 5098   1.412   0.872   3.301
 1400SOL    HW1 5099   1.464   0.950   3.267
 1400SOL    HW2 5100   1.327   0.863   3.248
 1401SOL     OW 5101   6.754   2.365   4.258
 1401SOL    HW1 5102   6.737   2.306   4.337
 1401SOL    HW2 5103   6.668   2.377   4.208
 1402SOL     OW 5104   5.720   2.150   6.785
 1402SOL    HW1 5105   5.772   2.199   6.855
 1402SOL    HW2 5106   5.641   2.105   6.827
 1403SOL     OW 5107   3.564   0.846   2.219
 1403SOL    HW1 5108   3.548   0.869   2.123
 1403SOL    HW2 5109   3.495   0.890   2.276
 1404SOL     OW 5110   4.543   0.934   6.353
 1404SOL    HW1 5111   4.606   0.921   6.429
 1404SOL    HW2 5112   4.489   0.851   6.339
 1405SOL     OW 5113   3.083   2.717   0.923
 1405SOL    HW1 5114   3.119   2.701   0.832
 1405SOL    HW2 5115   3.158   2.732   0.987
 1406SOL     OW 5116   0.279   3.332   1.580
 1406SOL    HW1 5117   0.376   3.342   1.602
 1406SOL    HW2 5118   0.255   3.396   1.507
 1407SOL     OW 5119   6.711   2.597   2.479
 1407SOL    HW1 5120   6.631   2.550   2.514
 1407SOL    HW2 5121   6.715   2.588   2.380
 1408SOL     OW 5122   6.795   4.542   0.118
 1408SOL    HW1 5123   6.884   4.498   0.123
 1408SOL    HW2 5124   6.776   4.571   0.024
 1409SOL     OW 5125   6.821   1.454   3.813
 1409SOL    HW1 5126   6.875   1.424   3.736
 1409SOL    HW2 5127   6.881   1.484   3.887
 1410SOL     OW 5128   0.387   1.826   6.302
 1410SOL    HW1 5129   0.455   1.896   6.323
 1410SOL    HW2 5130   0.327   1.858   6.229
 1411SOL     OW 5131   1.565   1.159   0.930
 1411SOL    HW1 5132   1.469   1.148   0.905
 1411SOL    HW2 5133   1.572   1.219   1.010
 1412SOL     OW 5134   1.785   1.926   0.515
 1412SOL    HW1 5135   1.780   1.830   0.489
 1412SOL    HW2 5136   1.692   1.963   0.524
 1413SOL     OW 5137   3.337   6.702   3.461
 1413SOL    HW1 5138   3.261   6.639   3.442
 1413SOL    HW2 5139   3.376   6.680   3.550
 1414SOL     OW 5140   1.223   0.462   2.838
 1414SOL    HW1 5141   1.172   0.545   2.859
 1414SOL    HW2 5142   1.267   0.471   2.749
 1415SOL     OW 5143   5.738   6.544   4.407
 1415SOL    HW1 5144   5.767   6.551   4.503
 1415SOL    HW2 5145   5.815   6.513   4.351
 1416SOL     OW 5146   5.056   5.815   3.757
 1416SOL    HW1 5147   5.080   5.911   3.740
 1416SOL    HW2 5148   4.957   5.804   3.752
 1417SOL     OW 5149   3.423   3.526   5.694
 1417SOL    HW1 5150   3.421   3.623   5.720
 1417SOL    HW2 5151   3.465   3.517   5.603
 1418SOL     OW 5152   3.200   4.101   4.197
 1418SOL    HW1 5153   3.159   4.189   4.173
 1418SOL    HW2 5154   3.298   4.113   4.209
 1419SOL     OW 5155   3.735   6.137   4.203
 1419SOL    HW1 5156   3.741   6.226   4.157
 1419SOL    HW2 5157   3.792   6.138   4.286
 1420SOL     OW 5158   0.081   6.976   2.776
 1420SOL    HW1 5159   0.086   6.989   2.875
 1420SOL    HW2 5160   0.068   6.879   2.756
 1421SOL     OW 5161   3.418   0.586   2.952
 1421SOL    HW1 5162   3.420   0.551   3.046
 1421SOL    HW2 5163   3.452   0.680   2.951
 1422SOL     OW 5164   2.672   5.484   0.315
 1422SOL    HW1 5165   2.670   5.410   0.247
 1422SOL    HW2 5166   2.588   5.480   0.370
 1423SOL     OW 5167   4.580   0.394   2.860
 1423SOL    HW1 5168   4.654   0.443   2.814
 1423SOL    HW2 5169   4.492   0.439   2.839
 1424SOL     OW 5170   6.305   5.267   2.097
 1424SOL    HW1 5171   6.306   5.264   1.997
 1424SOL    HW2 5172   6.325   5.359   2.129
 1425SOL     OW 5173   1.998   7.008   4.121
 1425SOL    HW1 5174   2.082   6.982   4.168
 1425SOL    HW2 5175   1.925   6.945   4.146
 1426SOL     OW 5176   1.593   0.726   6.110
 1426SOL    HW1 5177   1.632   0.703   6.022
 1426SOL    HW2 5178   1.608   0.823   6.130
 1427SOL     OW 5179   4.574   2.541   6.115
 1427SOL    HW1 5180   4.616   2.537   6.024
 1427SOL    HW2 5181   4.522   2.457   6.131
 1428SOL     OW 5182   5.860   0.309   1.146
 1428SOL    HW1 5183   5.868   0.395   1.195
 1428SOL    HW2 5184   5.811   0.323   1.060
 1429SOL     OW 5185   5.357   5.330   1.725
 1429SOL    HW1 5186   5.360   5.230   1.718
 1429SOL    HW2 5187   5.450   5.364   1.742
 1430SOL     OW 5188   2.848   5.002   2.631
 1430SOL    HW1 5189   2.842   4.950   2.547
 1430SOL    HW2 5190   2.899   5.087   2.614
 1431SOL     OW 5191   1.971   1.362   0.567
 1431SOL    HW1 5192   1.894   1.298   0.570
 1431SOL    HW2 5193   2.044   1.329   0.627
 1432SOL     OW 5194   3.112   6.797   1.603
 1432SOL    HW1 5195   3.047   6.805   1.679
 1432SOL    HW2 5196   3.185   6.734   1.629
 1433SOL     OW 5197   5.176   0.030   3.116
 1433SOL    HW1 5198   5.082   0.025   3.151
 1433SOL    HW2 5199   5.183   6.997   3.033
 1434SOL     OW 5200   0.427   0.800   4.947
 1434SOL    HW1 5201   0.351   0.861   4.972
 1434SOL    HW2 5202   0.453   0.746   5.027
 1435SOL     OW 5203   0.100   2.465   3.888
 1435SOL    HW1 5204   0.127   2.371   3.912
 1435SOL    HW2 5205   0.019   2.490   3.940
 1436SOL     OW 5206   5.320   3.600   1.407
 1436SOL    HW1 5207   5.287   3.520   1.358
 1436SOL    HW2 5208   5.351   3.574   1.498
 1437SOL     OW 5209   4.452   0.924   2.650
 1437SOL    HW1 5210   4.427   0.830   2.626
 1437SOL    HW2 5211   4.436   0.983   2.571
 1438SOL     OW 5212   2.923   6.408   2.259
 1438SOL    HW1 5213   3.017   6.374   2.268
 1438SOL    HW2 5214   2.923   6.492   2.206
 1439SOL     OW 5215   0.617   5.674   2.444
 1439SOL    HW1 5216   0.657   5.657   2.354
 1439SOL    HW2 5217   0.552   5.602   2.466
 1440SOL     OW 5218   2.406   2.686   0.959
 1440SOL    HW1 5219   2.308   2.692   0.975
 1440SOL    HW2 5220   2.443   2.605   1.004
 1441SOL     OW 5221   4.802   6.264   6.494
 1441SOL    HW1 5222   4.753   6.303   6.573
 1441SOL    HW2 5223   4.889   6.227   6.524
 1442SOL     OW 5224   4.512   5.727   1.544
 1442SOL    HW1 5225   4.608   5.749   1.526
 1442SOL    HW2 5226   4.503   5.629   1.561
 1443SOL     OW 5227   6.958   2.486   2.191
 1443SOL    HW1 5228   6.918   2.398   2.163
 1443SOL    HW2 5229   0.036   2.480   2.185
 1444SOL     OW 5230   0.322   6.633   4.774
 1444SOL    HW1 5231   0.292   6.673   4.861
 1444SOL    HW2 5232   0.419   6.610   4.780
 1445SOL     OW 5233   0.960   2.162   1.411
 1445SOL    HW1 5234   1.033   2.230   1.403
 1445SOL    HW2 5235   0.876   2.198   1.369
 1446SOL     OW 5236   6.093   5.797   1.852
 1446SOL    HW1 5237   6.048   5.821   1.766
 1446SOL    HW2 5238   6.028   5.753   1.913
 1447SOL     OW 5239   0.182   6.648   3.680
 1447SOL    HW1 5240   0.102   6.705   3.661
 1447SOL    HW2 5241   0.195   6.641   3.779
 1448SOL     OW 5242   1.714   0.973   5.294
 1448SOL    HW1 5243   1.620   1.005   5.286
 1448SOL    HW2 5244   1.763   1.029   5.361
 1449SOL     OW 5245   2.241   2.845   2.544
 1449SOL    HW1 5246   2.324   2.796   2.517
 1449SOL    HW2 5247   2.171   2.835   2.472
 1450SOL     OW 5248   3.032   2.051   2.468
 1450SOL    HW1 5249   3.129   2.031   2.456
 1450SOL    HW2 5250   3.003   2.113   2.395
 1451SOL     OW 5251   4.269   2.280   2.544
 1451SOL    HW1 5252   4.244   2.335   2.624
 1451SOL    HW2 5253   4.258   2.183   2.566
 1452SOL     OW 5254   4.234   2.959   5.306
 1452SOL    HW1 5255   4.170   2.886   5.280
 1452SOL    HW2 5256   4.281   2.934   5.390
 1453SOL     OW 5257   1.803   3.254   5.016
 1453SOL    HW1 5258   1.825   3.164   4.979
 1453SOL    HW2 5259   1.873   3.281   5.082
 1454SOL     OW 5260   3.310   2.002   2.422
 1454SOL    HW1 5261   3.289   2.016   2.325
 1454SOL    HW2 5262   3.393   2.052   2.446
 1455SOL     OW 5263   6.681   5.757   2.953
 1455SOL    HW1 5264   6.742   5.809   2.893
 1455SOL    HW2 5265   6.655   5.671   2.907
 1456SOL     OW 5266   6.274   5.896   4.152
 1456SOL    HW1 5267   6.268   5.865   4.057
 1456SOL    HW2 5268   6.261   5.995   4.155
 1457SOL     OW 5269   1.554   6.095   5.459
 1457SOL    HW1 5270   1.510   6.006   5.457
 1457SOL    HW2 5271   1.536   6.142   5.372
 1458SOL     OW 5272   6.793   5.251   5.088
 1458SOL    HW1 5273   6.776   5.180   5.021
 1458SOL    HW2 5274   6.886   5.286   5.077
 1459SOL     OW 5275   0.332   5.973   5.437
 1459SOL    HW1 5276   0.276   5.931   5.366
 1459SOL    HW2 5277   0.314   5.927   5.525
 1460SOL     OW 5278   1.551   6.598   5.400
 1460SOL    HW1 5279   1.491   6.562   5.471
 1460SOL    HW2 5280   1.600   6.678   5.435
 1461SOL     OW 5281   5.539   3.793   2.993
 1461SOL    HW1 5282   5.493   3.833   3.073
 1461SOL    HW2 5283   5.597   3.717   3.022
 1462SOL     OW 5284   1.132   1.635   2.246
 1462SOL    HW1 5285   1.109   1.595   2.157
 1462SOL    HW2 5286   1.049   1.644   2.301
 1463SOL     OW 5287   1.782   4.519   6.728
 1463SOL    HW1 5288   1.768   4.615   6.704
 1463SOL    HW2 5289   1.716   4.492   6.798
 1464SOL     OW 5290   0.936   4.011   5.372
 1464SOL    HW1 5291   0.985   4.000   5.286
 1464SOL    HW2 5292   0.952   3.932   5.430
 1465SOL     OW 5293   1.930   3.492   5.761
 1465SOL    HW1 5294   1.837   3.459   5.745
 1465SOL    HW2 5295   1.988   3.416   5.788
 1466SOL     OW 5296   5.461   1.157   2.460
 1466SOL    HW1 5297   5.393   1.180   2.530
 1466SOL    HW2 5298   5.428   1.185   2.370
 1467SOL     OW 5299   0.617   0.310   3.870
 1467SOL    HW1 5300   0.542   0.270   3.923
 1467SOL    HW2 5301   0.620   0.409   3.885
 1468SOL     OW 5302   3.687   6.826   3.880
 1468SOL    HW1 5303   3.635   6.876   3.810
 1468SOL    HW2 5304   3.747   6.759   3.836
 1469SOL     OW 5305   5.355   4.706   3.477
 1469SOL    HW1 5306   5.353   4.795   3.522
 1469SOL    HW2 5307   5.262   4.668   3.473
 1470SOL     OW 5308   5.804   1.461   1.552
 1470SOL    HW1 5309   5.883   1.400   1.549
 1470SOL    HW2 5310   5.819   1.531   1.622
 1471SOL     OW 5311   4.878   6.360   0.310
 1471SOL    HW1 5312   4.967   6.380   0.351
 1471SOL    HW2 5313   4.851   6.267   0.335
 1472SOL     OW 5314   1.860   0.034   0.199
 1472SOL    HW1 5315   1.789   7.015   0.257
 1472SOL    HW2 5316   1.829   0.123   0.167
 1473SOL     OW 5317   1.551   6.022   3.852
 1473SOL    HW1 5318   1.479   6.033   3.920
 1473SOL    HW2 5319   1.610   5.944   3.877
 1474SOL     OW 5320   1.742   4.170   1.788
 1474SOL    HW1 5321   1.700   4.258   1.765
 1474SOL    HW2 5322   1.829   4.186   1.834
 1475SOL     OW 5323   6.824   6.738   6.287
 1475SOL    HW1 5324   6.726   6.754   6.283
 1475SOL    HW2 5325   6.863   6.744   6.195
 1476SOL     OW 5326   6.139   6.886   6.746
 1476SOL    HW1 5327   6.131   6.829   6.664
 1476SOL    HW2 5328   6.159   6.827   6.825
 1477SOL     OW 5329   3.733   4.170   1.698
 1477SOL    HW1 5330   3.822   4.164   1.653
 1477SOL    HW2 5331   3.688   4.254   1.670
 1478SOL     OW 5332   4.267   3.532   6.134
 1478SOL    HW1 5333   4.197   3.469   6.168
 1478SOL    HW2 5334   4.324   3.562   6.210
 1479SOL     OW 5335   4.150   4.531   1.279
 1479SOL    HW1 5336   4.175   4.574   1.366
 1479SOL    HW2 5337   4.163   4.597   1.205
 1480SOL     OW 5338   2.628   1.299   3.551
 1480SOL    HW1 5339   2.705   1.350   3.588
 1480SOL    HW2 5340   2.643   1.282   3.453
 1481SOL     OW 5341   4.234   1.655   5.773
 1481SOL    HW1 5342   4.139   1.624   5.774
 1481SOL    HW2 5343   4.256   1.693   5.684
 1482SOL     OW 5344   6.462   1.076   1.217
 1482SOL    HW1 5345   6.363   1.084   1.227
 1482SOL    HW2 5346   6.486   1.085   1.120
 1483SOL     OW 5347   5.834   6.418   0.100
 1483SOL    HW1 5348   5.839   6.363   0.184
 1483SOL    HW2 5349   5.877   6.506   0.116
 1484SOL     OW 5350   3.090   6.670   5.739
 1484SOL    HW1 5351   3.109   6.761   5.776
 1484SOL    HW2 5352   3.001   6.639   5.772
 1485SOL     OW 5353   5.326   3.815   3.455
 1485SOL    HW1 5354   5.246   3.820   3.395
 1485SOL    HW2 5355   5.297   3.831   3.550
 1486SOL     OW 5356   6.421   6.033   4.628
 1486SOL    HW1 5357   6.334   5.988   4.611
 1486SOL    HW2 5358   6.466   6.054   4.541
 1487SOL     OW 5359   6.027   0.220   6.285
 1487SOL    HW1 5360   6.099   0.212   6.355
 1487SOL    HW2 5361   6.009   0.130   6.245
 1488SOL     OW 5362   6.896   2.893   2.792
 1488SOL    HW1 5363   6.991   2.891   2.760
 1488SOL    HW2 5364   6.858   2.984   2.774
 1489SOL     OW 5365   3.177   5.858   0.019
 1489SOL    HW1 5366   3.155   5.944   0.064
 1489SOL    HW2 5367   3.146   5.782   0.076
 1490SOL     OW 5368   5.942   2.832   2.130
 1490SOL    HW1 5369   6.032   2.789   2.126
 1490SOL    HW2 5370   5.898   2.825   2.041
 1491SOL     OW 5371   5.720   3.755   5.001
 1491SOL    HW1 5372   5.692   3.831   4.940
 1491SOL    HW2 5373   5.738   3.674   4.946
 1492SOL     OW 5374   1.667   2.705   2.234
 1492SOL    HW1 5375   1.581   2.743   2.199
 1492SOL    HW2 5376   1.744   2.748   2.187
 1493SOL     OW 5377   6.351   1.949   6.669
 1493SOL    HW1 5378   6.425   1.948   6.602
 1493SOL    HW2 5379   6.274   1.894   6.636
 1494SOL     OW 5380   1.779   3.049   0.040
 1494SOL    HW1 5381   1.794   3.015   6.969
 1494SOL    HW2 5382   1.867   3.058   0.086
 1495SOL     OW 5383   6.344   3.982   4.031
 1495SOL    HW1 5384   6.336   4.031   3.944
 1495SOL    HW2 5385   6.367   4.048   4.104
 1496SOL     OW 5386   6.817   5.451   6.082
 1496SOL    HW1 5387   6.838   5.353   6.076
 1496SOL    HW2 5388   6.733   5.464   6.134
 1497SOL     OW 5389   4.769   2.847   2.750
 1497SOL    HW1 5390   4.837   2.920   2.742
 1497SOL    HW2 5391   4.749   2.811   2.659
 1498SOL     OW 5392   3.751   4.290   0.779
 1498SOL    HW1 5393   3.669   4.243   0.810
 1498SOL    HW2 5394   3.821   4.223   0.755
 1499SOL     OW 5395   1.800   4.733   4.139
 1499SOL    HW1 5396   1.814   4.634   4.130
 1499SOL    HW2 5397   1.749   4.752   4.223
 1500SOL     OW 5398   2.398   5.772   1.428
 1500SOL    HW1 5399   2.487   5.776   1.472
 1500SOL    HW2 5400   2.404   5.813   1.336
 1501SOL     OW 5401   5.392   1.651   1.212
 1501SOL    HW1 5402   5.444   1.737   1.218
 1501SOL    HW2 5403   5.346   1.647   1.124
 1502SOL     OW 5404   1.010   6.617   6.005
 1502SOL    HW1 5405   0.969   6.679   6.072
 1502SOL    HW2 5406   1.033   6.668   5.922
 1503SOL     OW 5407   6.410   5.979   2.189
 1503SOL    HW1 5408   6.413   5.904   2.255
 1503SOL    HW2 5409   6.409   6.066   2.237
 1504SOL     OW 5410   1.491   0.550   3.662
 1504SOL    HW1 5411   1.571   0.505   3.700
 1504SOL    HW2 5412   1.519   0.617   3.593
 1505SOL     OW 5413   6.724   4.520   4.733
 1505SOL    HW1 5414   6.699   4.441   4.790
 1505SOL    HW2 5415   6.699   4.502   4.638
 1506SOL     OW 5416   0.721   1.124   0.682
 1506SOL    HW1 5417   0.810   1.082   0.665
 1506SOL    HW2 5418   0.652   1.053   0.692
 1507SOL     OW 5419   2.550   2.101   3.985
 1507SOL    HW1 5420   2.451   2.114   3.994
 1507SOL    HW2 5421   2.582   2.150   3.904
 1508SOL     OW 5422   1.523   0.257   1.655
 1508SOL    HW1 5423   1.503   0.210   1.569
 1508SOL    HW2 5424   1.442   0.308   1.684
 1509SOL     OW 5425   4.297   0.593   4.819
 1509SOL    HW1 5426   4.228   0.665   4.808
 1509SOL    HW2 5427   4.388   0.634   4.823
 1510SOL     OW 5428   2.915   6.842   5.280
 1510SOL    HW1 5429   2.910   6.883   5.371
 1510SOL    HW2 5430   2.827   6.850   5.235
 1511SOL     OW 5431   3.577   4.139   5.073
 1511SOL    HW1 5432   3.639   4.218   5.076
 1511SOL    HW2 5433   3.631   4.055   5.075
 1512SOL     OW 5434   5.421   6.626   0.983
 1512SOL    HW1 5435   5.475   6.603   1.064
 1512SOL    HW2 5436   5.482   6.644   0.906
 1513SOL     OW 5437   2.576   6.612   5.447
 1513SOL    HW1 5438   2.649   6.582   5.386
 1513SOL    HW2 5439   2.616   6.659   5.525
 1514SOL     OW 5440   3.142   1.028   0.511
 1514SOL    HW1 5441   3.123   0.993   0.603
 1514SOL    HW2 5442   3.068   1.002   0.450
 1515SOL     OW 5443   3.653   0.720   1.474
 1515SOL    HW1 5444   3.665   0.647   1.541
 1515SOL    HW2 5445   3.587   0.691   1.405
 1516SOL     OW 5446   0.635   6.425   0.012
 1516SOL    HW1 5447   0.574   6.359   0.057
 1516SOL    HW2 5448   0.682   6.380   6.958
 1517SOL     OW 5449   1.647   5.842   3.044
 1517SOL    HW1 5450   1.572   5.905   3.063
 1517SOL    HW2 5451   1.734   5.890   3.055
 1518SOL     OW 5452   2.814   2.328   6.800
 1518SOL    HW1 5453   2.715   2.317   6.810
 1518SOL    HW2 5454   2.848   2.260   6.735
 1519SOL     OW 5455   0.672   4.546   0.016
 1519SOL    HW1 5456   0.587   4.511   0.055
 1519SOL    HW2 5457   0.713   4.613   0.078
 1520SOL     OW 5458   0.097   0.272   3.072
 1520SOL    HW1 5459   0.108   0.357   3.125
 1520SOL    HW2 5460   0.003   0.239   3.080
 1521SOL     OW 5461   2.087   5.143   0.038
 1521SOL    HW1 5462   2.119   5.145   0.132
 1521SOL    HW2 5463   2.161   5.171   6.999
 1522SOL     OW 5464   6.374   6.289   4.067
 1522SOL    HW1 5465   6.300   6.338   4.113
 1522SOL    HW2 5466   6.391   6.329   3.977
 1523SOL     OW 5467   2.712   6.204   0.596
 1523SOL    HW1 5468   2.806   6.178   0.619
 1523SOL    HW2 5469   2.696   6.298   0.626
 1524SOL     OW 5470   1.785   1.724   4.788
 1524SOL    HW1 5471   1.871   1.675   4.796
 1524SOL    HW2 5472   1.727   1.679   4.720
 1525SOL     OW 5473   6.052   4.292   0.235
 1525SOL    HW1 5474   6.098   4.225   0.177
 1525SOL    HW2 5475   6.093   4.291   0.326
 1526SOL     OW 5476   0.355   1.078   2.230
 1526SOL    HW1 5477   0.278   1.021   2.260
 1526SOL    HW2 5478   0.321   1.165   2.194
 1527SOL     OW 5479   5.171   0.923   5.318
 1527SOL    HW1 5480   5.158   0.835   5.271
 1527SOL    HW2 5481   5.182   0.995   5.250
 1528SOL     OW 5482   3.006   3.125   2.416
 1528SOL    HW1 5483   3.012   3.081   2.505
 1528SOL    HW2 5484   2.954   3.209   2.423
 1529SOL     OW 5485   4.784   0.520   5.890
 1529SOL    HW1 5486   4.697   0.561   5.865
 1529SOL    HW2 5487   4.818   0.563   5.974
 1530SOL     OW 5488   2.718   6.739   2.246
 1530SOL    HW1 5489   2.778   6.726   2.168
 1530SOL    HW2 5490   2.640   6.676   2.241
 1531SOL     OW 5491   5.984   6.929   4.383
 1531SOL    HW1 5492   6.067   6.886   4.350
 1531SOL    HW2 5493   6.007   7.008   4.440
 1532SOL     OW 5494   3.185   5.345   2.387
 1532SOL    HW1 5495   3.139   5.335   2.298
 1532SOL    HW2 5496   3.212   5.441   2.399
 1533SOL     OW 5497   5.864   5.690   2.000
 1533SOL    HW1 5498   5.811   5.724   2.077
 1533SOL    HW2 5499   5.911   5.605   2.027
 1534SOL     OW 5500   2.765   4.889   6.902
 1534SOL    HW1 5501   2.780   4.793   6.876
 1534SOL    HW2 5502   2.762   4.945   6.819
 1535SOL     OW 5503   5.436   5.175   3.310
 1535SOL    HW1 5504   5.366   5.134   3.368
 1535SOL    HW2 5505   5.432   5.275   3.318
 1536SOL     OW 5506   3.949   4.572   6.296
 1536SOL    HW1 5507   3.893   4.645   6.256
 1536SOL    HW2 5508   3.892   4.493   6.317
 1537SOL     OW 5509   2.787   6.098   1.981
 1537SOL    HW1 5510   2.866   6.129   1.928
 1537SOL    HW2 5511   2.806   6.007   2.018
 1538SOL     OW 5512   2.524   1.270   0.596
 1538SOL    HW1 5513   2.572   1.293   0.681
 1538SOL    HW2 5514   2.571   1.193   0.552
 1539SOL     OW 5515   6.896   3.256   0.807
 1539SOL    HW1 5516   6.978   3.200   0.793
 1539SOL    HW2 5517   6.816   3.196   0.812
 1540SOL     OW 5518   4.403   6.022   3.705
 1540SOL    HW1 5519   4.484   6.039   3.649
 1540SOL    HW2 5520   4.385   5.924   3.709
 1541SOL     OW 5521   4.438   2.270   5.780
 1541SOL    HW1 5522   4.359   2.210   5.766
 1541SOL    HW2 5523   4.504   2.223   5.838
 1542SOL     OW 5524   1.008   4.291   2.699
 1542SOL    HW1 5525   0.981   4.282   2.795
 1542SOL    HW2 5526   1.042   4.383   2.682
 1543SOL     OW 5527   4.276   5.507   0.683
 1543SOL    HW1 5528   4.334   5.468   0.612
 1543SOL    HW2 5529   4.191   5.541   0.642
 1544SOL     OW 5530   3.760   3.087   3.657
 1544SOL    HW1 5531   3.680   3.143   3.677
 1544SOL    HW2 5532   3.734   2.990   3.653
 1545SOL     OW 5533   6.482   4.292   0.683
 1545SOL    HW1 5534   6.509   4.289   0.587
 1545SOL    HW2 5535   6.502   4.383   0.720
 1546SOL     OW 5536   0.056   6.496   5.927
 1546SOL    HW1 5537   0.132   6.488   5.862
 1546SOL    HW2 5538   0.091   6.506   6.020
 1547SOL     OW 5539   1.011   2.715   6.919
 1547SOL    HW1 5540   1.003   2.696   7.017
 1547SOL    HW2 5541   0.945   2.661   6.868
 1548SOL     OW 5542   6.489   2.151   0.489
 1548SOL    HW1 5543   6.581   2.189   0.488
 1548SOL    HW2 5544   6.435   2.191   0.415
 1549SOL     OW 5545   4.782   0.367   4.488
 1549SOL    HW1 5546   4.847   0.292   4.495
 1549SOL    HW2 5547   4.693   0.337   4.524
 1550SOL     OW 5548   2.977   3.864   4.853
 1550SOL    HW1 5549   2.900   3.858   4.916
 1550SOL    HW2 5550   3.042   3.933   4.887
 1551SOL     OW 5551   0.280   5.474   5.915
 1551SOL    HW1 5552   0.206   5.531   5.879
 1551SOL    HW2 5553   0.320   5.517   5.995
 1552SOL     OW 5554   2.376   4.049   1.093
 1552SOL    HW1 5555   2.376   3.956   1.129
 1552SOL    HW2 5556   2.449   4.102   1.136
 1553SOL     OW 5557   1.232   2.194   5.618
 1553SOL    HW1 5558   1.291   2.269   5.647
 1553SOL    HW2 5559   1.285   2.110   5.610
 1554SOL     OW 5560   4.320   2.419   3.534
 1554SOL    HW1 5561   4.295   2.516   3.531
 1554SOL    HW2 5562   4.411   2.407   3.495
 1555SOL     OW 5563   6.170   4.498   5.395
 1555SOL    HW1 5564   6.216   4.586   5.397
 1555SOL    HW2 5565   6.072   4.510   5.412
 1556SOL     OW 5566   2.478   1.108   5.271
 1556SOL    HW1 5567   2.540   1.136   5.344
 1556SOL    HW2 5568   2.472   1.180   5.202
 1557SOL     OW 5569   1.257   1.544   6.528
 1557SOL    HW1 5570   1.300   1.473   6.585
 1557SOL    HW2 5571   1.285   1.530   6.433
 1558SOL     OW 5572   6.636   0.017   4.053
 1558SOL    HW1 5573   6.719   0.070   4.073
 1558SOL    HW2 5574   6.661   6.943   4.038
 1559SOL     OW 5575   1.729   1.311   6.012
 1559SOL    HW1 5576   1.757   1.225   6.055
 1559SOL    HW2 5577   1.661   1.293   5.941
 1560SOL     OW 5578   0.378   0.071   1.142
 1560SOL    HW1 5579   0.429   7.007   1.147
 1560SOL    HW2 5580   0.408   0.123   1.062
 1561SOL     OW 5581   5.871   6.481   1.953
 1561SOL    HW1 5582   5.889   6.384   1.937
 1561SOL    HW2 5583   5.902   6.535   1.875
 1562SOL     OW 5584   5.866   0.345   3.978
 1562SOL    HW1 5585   5.876   0.341   4.077
 1562SOL    HW2 5586   5.769   0.343   3.954
 1563SOL     OW 5587   2.673   0.591   6.560
 1563SOL    HW1 5588   2.703   0.542   6.479
 1563SOL    HW2 5589   2.747   0.651   6.591
 1564SOL     OW 5590   1.503   1.822   2.871
 1564SOL    HW1 5591   1.472   1.875   2.792
 1564SOL    HW2 5592   1.539   1.734   2.841
 1565SOL     OW 5593   6.039   3.489   1.882
 1565SOL    HW1 5594   6.060   3.574   1.929
 1565SOL    HW2 5595   6.083   3.488   1.793
 1566SOL     OW 5596   5.791   4.285   1.818
 1566SOL    HW1 5597   5.825   4.357   1.758
 1566SOL    HW2 5598   5.703   4.313   1.856
 1567SOL     OW 5599   6.472   5.393   5.475
 1567SOL    HW1 5600   6.499   5.450   5.397
 1567SOL    HW2 5601   6.501   5.299   5.459
 1568SOL     OW 5602   0.721   6.055   1.162
 1568SOL    HW1 5603   0.762   6.042   1.253
 1568SOL    HW2 5604   0.718   6.153   1.141
 1569SOL     OW 5605   3.862   5.626   4.810
 1569SOL    HW1 5606   3.923   5.632   4.731
 1569SOL    HW2 5607   3.908   5.663   4.891
 1570SOL     OW 5608   2.427   2.615   1.393
 1570SOL    HW1 5609   2.484   2.536   1.369
 1570SOL    HW2 5610   2.484   2.695   1.409
 1571SOL     OW 5611   0.306   3.052   6.302
 1571SOL    HW1 5612   0.390   3.101   6.323
 1571SOL    HW2 5613   0.305   3.024   6.206
 1572SOL     OW 5614   0.429   5.980   4.649
 1572SOL    HW1 5615   0.402   6.039   4.725
 1572SOL    HW2 5616   0.392   6.017   4.563
 1573SOL     OW 5617   4.392   0.407   6.867
 1573SOL    HW1 5618   4.364   0.311   6.857
 1573SOL    HW2 5619   4.481   0.420   6.823
 1574SOL     OW 5620   4.981   3.209   2.410
 1574SOL    HW1 5621   4.948   3.179   2.321
 1574SOL    HW2 5622   4.953   3.304   2.426
 1575SOL     OW 5623   3.156   2.519   6.709
 1575SOL    HW1 5624   3.060   2.541   6.726
 1575SOL    HW2 5625   3.186   2.449   6.774
 1576SOL     OW 5626   5.544   5.456   3.238
 1576SOL    HW1 5627   5.511   5.475   3.331
 1576SOL    HW2 5628   5.642   5.476   3.233
 1577SOL     OW 5629   2.105   0.776   0.886
 1577SOL    HW1 5630   2.019   0.755   0.841
 1577SOL    HW2 5631   2.099   0.752   0.983
 1578SOL     OW 5632   6.113   6.406   5.346
 1578SOL    HW1 5633   6.190   6.382   5.405
 1578SOL    HW2 5634   6.148   6.443   5.260
 1579SOL     OW 5635   6.243   1.713   3.360
 1579SOL    HW1 5636   6.207   1.623   3.384
 1579SOL    HW2 5637   6.288   1.753   3.439
 1580SOL     OW 5638   2.947   3.809   5.589
 1580SOL    HW1 5639   2.894   3.889   5.618
 1580SOL    HW2 5640   3.017   3.790   5.657
 1581SOL     OW 5641   5.406   2.890   4.150
 1581SOL    HW1 5642   5.409   2.857   4.245
 1581SOL    HW2 5643   5.314   2.877   4.113
 1582SOL     OW 5644   6.663   5.953   3.572
 1582SOL    HW1 5645   6.704   5.897   3.644
 1582SOL    HW2 5646   6.639   6.042   3.609
 1583SOL     OW 5647   2.558   3.101   1.067
 1583SOL    HW1 5648   2.561   3.020   1.007
 1583SOL    HW2 5649   2.619   3.088   1.145
 1584SOL     OW 5650   1.630   6.829   6.634
 1584SOL    HW1 5651   1.702   6.876   6.685
 1584SOL    HW2 5652   1.671   6.779   6.557
 1585SOL     OW 5653   6.072   1.481   5.849
 1585SOL    HW1 5654   5.986   1.486   5.798
 1585SOL    HW2 5655   6.068   1.407   5.916
 1586SOL     OW 5656   3.828   3.181   3.084
 1586SOL    HW1 5657   3.822   3.081   3.079
 1586SOL    HW2 5658   3.757   3.222   3.027
 1587SOL     OW 5659   1.637   0.244   5.251
 1587SOL    HW1 5660   1.730   0.223   5.281
 1587SOL    HW2 5661   1.615   0.339   5.272
 1588SOL     OW 5662   0.152   3.738   0.356
 1588SOL    HW1 5663   0.105   3.745   0.445
 1588SOL    HW2 5664   0.127   3.817   0.299
 1589SOL     OW 5665   5.527   4.831   2.254
 1589SOL    HW1 5666   5.428   4.815   2.258
 1589SOL    HW2 5667   5.572   4.752   2.212
 1590SOL     OW 5668   2.556   6.272   4.865
 1590SOL    HW1 5669   2.506   6.336   4.923
 1590SOL    HW2 5670   2.555   6.181   4.907
 1591SOL     OW 5671   2.136   3.679   0.045
 1591SOL    HW1 5672   2.195   3.661   0.124
 1591SOL    HW2 5673   2.108   3.775   0.046
 1592SOL     OW 5674   3.350   3.860   4.599
 1592SOL    HW1 5675   3.327   3.890   4.692
 1592SOL    HW2 5676   3.291   3.907   4.533
 1593SOL     OW 5677   1.010   4.286   3.834
 1593SOL    HW1 5678   1.048   4.197   3.810
 1593SOL    HW2 5679   1.019   4.348   3.756
 1594SOL     OW 5680   0.529   5.565   2.763
 1594SOL    HW1 5681   0.481   5.601   2.844
 1594SOL    HW2 5682   0.614   5.616   2.750
 1595SOL     OW 5683   6.496   3.257   5.687
 1595SOL    HW1 5684   6.561   3.269   5.612
 1595SOL    HW2 5685   6.404   3.246   5.651
 1596SOL     OW 5686   3.757   5.002   6.408
 1596SOL    HW1 5687   3.700   5.073   6.450
 1596SOL    HW2 5688   3.718   4.912   6.428
 1597SOL     OW 5689   2.252   6.727   1.480
 1597SOL    HW1 5690   2.249   6.632   1.512
 1597SOL    HW2 5691   2.331   6.740   1.421
 1598SOL     OW 5692   0.032   5.319   2.211
 1598SOL    HW1 5693   0.045   5.257   2.288
 1598SOL    HW2 5694   6.981   5.384   2.232
 1599SOL     OW 5695   3.258   5.363   6.840
 1599SOL    HW1 5696   3.280   5.435   6.774
 1599SOL    HW2 5697   3.308   5.280   6.818
 1600SOL     OW 5698   3.670   1.031   5.220
 1600SOL    HW1 5699   3.608   1.105   5.193
 1600SOL    HW2 5700   3.675   1.026   5.320
 1601SOL     OW 5701   1.596   5.343   4.843
 1601SOL    HW1 5702   1.547   5.261   4.874
 1601SOL    HW2 5703   1.610   5.405   4.920
 1602SOL     OW 5704   0.281   3.039   1.637
 1602SOL    HW1 5705   0.259   3.123   1.588
 1602SOL    HW2 5706   0.215   3.025   1.711
 1603SOL     OW 5707   5.967   0.343   1.621
 1603SOL    HW1 5708   5.925   0.253   1.633
 1603SOL    HW2 5709   6.056   0.333   1.577
 1604SOL     OW 5710   1.149   5.273   3.646
 1604SOL    HW1 5711   1.182   5.346   3.587
 1604SOL    HW2 5712   1.134   5.190   3.592
 1605SOL     OW 5713   5.038   5.382   2.420
 1605SOL    HW1 5714   4.982   5.305   2.452
 1605SOL    HW2 5715   5.134   5.355   2.421
 1606SOL     OW 5716   6.562   4.831   4.660
 1606SOL    HW1 5717   6.656   4.854   4.637
 1606SOL    HW2 5718   6.554   4.817   4.759
 1607SOL     OW 5719   6.245   3.710   1.829
 1607SOL    HW1 5720   6.216   3.761   1.910
 1607SOL    HW2 5721   6.283   3.622   1.856
 1608SOL     OW 5722   2.028   6.514   1.398
 1608SOL    HW1 5723   2.012   6.602   1.442
 1608SOL    HW2 5724   2.003   6.519   1.302
 1609SOL     OW 5725   5.787   2.306   5.603
 1609SOL    HW1 5726   5.867   2.293   5.662
 1609SOL    HW2 5727   5.748   2.396   5.618
 1610SOL     OW 5728   4.282   0.422   3.277
 1610SOL    HW1 5729   4.204   0.460   3.327
 1610SOL    HW2 5730   4.318   0.491   3.215
 1611SOL     OW 5731   4.256   4.115   1.677
 1611SOL    HW1 5732   4.194   4.060   1.733
 1611SOL    HW2 5733   4.322   4.162   1.735
 1612SOL     OW 5734   3.523   0.183   4.486
 1612SOL    HW1 5735   3.538   0.089   4.517
 1612SOL    HW2 5736   3.597   0.210   4.423
 1613SOL     OW 5737   2.720   6.986   1.516
 1613SOL    HW1 5738   2.630   6.943   1.521
 1613SOL    HW2 5739   2.711   0.057   1.482
 1614SOL     OW 5740   6.267   2.409   6.049
 1614SOL    HW1 5741   6.322   2.430   5.968
 1614SOL    HW2 5742   6.174   2.441   6.035
 1615SOL     OW 5743   6.829   5.455   4.798
 1615SOL    HW1 5744   6.891   5.416   4.866
 1615SOL    HW2 5745   6.793   5.542   4.832
 1616SOL     OW 5746   2.020   2.513   4.877
 1616SOL    HW1 5747   1.988   2.593   4.928
 1616SOL    HW2 5748   2.120   2.519   4.867
 1617SOL     OW 5749   3.058   0.456   2.623
 1617SOL    HW1 5750   3.152   0.463   2.654
 1617SOL    HW2 5751   3.006   0.399   2.687
 1618SOL     OW 5752   5.179   2.853   1.348
 1618SOL    HW1 5753   5.107   2.787   1.370
 1618SOL    HW2 5754   5.260   2.805   1.316
 1619SOL     OW 5755   1.711   3.030   4.567
 1619SOL    HW1 5756   1.694   2.932   4.553
 1619SOL    HW2 5757   1.800   3.042   4.612
 1620SOL     OW 5758   3.398   5.594   0.962
 1620SOL    HW1 5759   3.347   5.680   0.957
 1620SOL    HW2 5760   3.408   5.568   1.058
 1621SOL     OW 5761   2.172   2.663   1.470
 1621SOL    HW1 5762   2.259   2.620   1.447
 1621SOL    HW2 5763   2.181   2.711   1.557
 1622SOL     OW 5764   2.465   2.803   5.537
 1622SOL    HW1 5765   2.399   2.845   5.475
 1622SOL    HW2 5766   2.532   2.750   5.485
 1623SOL     OW 5767   2.430   2.160   4.434
 1623SOL    HW1 5768   2.461   2.076   4.389
 1623SOL    HW2 5769   2.459   2.240   4.380
 1624SOL     OW 5770   2.018   0.746   0.184
 1624SOL    HW1 5771   2.093   0.696   0.228
 1624SOL    HW2 5772   1.937   0.743   0.243
 1625SOL     OW 5773   1.852   0.095   0.852
 1625SOL    HW1 5774   1.783   0.083   0.923
 1625SOL    HW2 5775   1.873   0.193   0.842
 1626SOL     OW 5776   2.698   3.834   5.763
 1626SOL    HW1 5777   2.753   3.913   5.735
 1626SOL    HW2 5778   2.720   3.756   5.704
 1627SOL     OW 5779   4.886   4.467   2.699
 1627SOL    HW1 5780   4.837   4.451   2.613
 1627SOL    HW2 5781   4.950   4.392   2.715
 1628SOL     OW 5782   3.876   3.274   0.320
 1628SOL    HW1 5783   3.940   3.212   0.366
 1628SOL    HW2 5784   3.841   3.341   0.385
 1629SOL     OW 5785   1.833   2.572   3.239
 1629SOL    HW1 5786   1.836   2.627   3.155
 1629SOL    HW2 5787   1.738   2.558   3.266
 1630SOL     OW 5788   5.659   4.381   3.603
 1630SOL    HW1 5789   5.696   4.372   3.695
 1630SOL    HW2 5790   5.683   4.299   3.550
 1631SOL     OW 5791   0.550   1.283   5.020
 1631SOL    HW1 5792   0.538   1.256   4.924
 1631SOL    HW2 5793   0.549   1.383   5.027
 1632SOL     OW 5794   3.950   6.627   6.403
 1632SOL    HW1 5795   4.007   6.594   6.478
 1632SOL    HW2 5796   3.874   6.681   6.441
 1633SOL     OW 5797   6.765   3.774   2.693
 1633SOL    HW1 5798   6.802   3.779   2.600
 1633SOL    HW2 5799   6.682   3.719   2.693
 1634SOL     OW 5800   3.775   0.565   0.658
 1634SOL    HW1 5801   3.771   0.657   0.619
 1634SOL    HW2 5802   3.694   0.549   0.715
 1635SOL     OW 5803   2.378   4.295   3.458
 1635SOL    HW1 5804   2.471   4.325   3.436
 1635SOL    HW2 5805   2.367   4.291   3.557
 1636SOL     OW 5806   2.043   6.896   0.873
 1636SOL    HW1 5807   1.963   6.954   0.888
 1636SOL    HW2 5808   2.109   6.945   0.816
 1637SOL     OW 5809   0.812   2.659   1.946
 1637SOL    HW1 5810   0.764   2.691   2.028
 1637SOL    HW2 5811   0.900   2.619   1.971
 1638SOL     OW 5812   0.444   2.653   5.673
 1638SOL    HW1 5813   0.544   2.659   5.674
 1638SOL    HW2 5814   0.411   2.632   5.764
 1639SOL     OW 5815   3.403   5.274   3.233
 1639SOL    HW1 5816   3.306   5.284   3.210
 1639SOL    HW2 5817   3.414   5.267   3.332
 1640SOL     OW 5818   5.940   0.114   1.294
 1640SOL    HW1 5819   5.957   0.049   1.219
 1640SOL    HW2 5820   5.902   0.199   1.257
 1641SOL     OW 5821   6.297   2.719   4.563
 1641SOL    HW1 5822   6.367   2.767   4.510
 1641SOL    HW2 5823   6.232   2.675   4.500
 1642SOL     OW 5824   0.092   2.279   1.427
 1642SOL    HW1 5825   0.075   2.181   1.439
 1642SOL    HW2 5826   0.030   2.316   1.358
 1643SOL     OW 5827   4.851   0.255   5.051
 1643SOL    HW1 5828   4.793   0.334   5.069
 1643SOL    HW2 5829   4.819   0.177   5.106
 1644SOL     OW 5830   3.842   1.613   1.200
 1644SOL    HW1 5831   3.827   1.543   1.131
 1644SOL    HW2 5832   3.909   1.680   1.166
 1645SOL     OW 5833   2.381   5.452   5.497
 1645SOL    HW1 5834   2.438   5.456   5.416
 1645SOL    HW2 5835   2.310   5.523   5.492
 1646SOL     OW 5836   3.226   3.296   0.477
 1646SOL    HW1 5837   3.133   3.329   0.484
 1646SOL    HW2 5838   3.238   3.216   0.535
 1647SOL     OW 5839   6.187   2.742   2.142
 1647SOL    HW1 5840   6.229   2.690   2.067
 1647SOL    HW2 5841   6.221   2.707   2.229
 1648SOL     OW 5842   2.607   0.561   3.380
 1648SOL    HW1 5843   2.623   0.566   3.479
 1648SOL    HW2 5844   2.569   0.648   3.347
 1649SOL     OW 5845   2.924   0.598   4.381
 1649SOL    HW1 5846   2.938   0.601   4.480
 1649SOL    HW2 5847   2.911   0.502   4.353
 1650SOL     OW 5848   2.418   6.387   4.282
 1650SOL    HW1 5849   2.402   6.481   4.314
 1650SOL    HW2 5850   2.510   6.380   4.246
 1651SOL     OW 5851   1.444   6.522   2.429
 1651SOL    HW1 5852   1.510   6.485   2.364
 1651SOL    HW2 5853   1.476   6.611   2.463
 1652SOL     OW 5854   3.916   3.612   1.121
 1652SOL    HW1 5855   3.821   3.582   1.114
 1652SOL    HW2 5856   3.961   3.561   1.195
 1653SOL     OW 5857   1.339   4.050   0.846
 1653SOL    HW1 5858   1.319   4.138   0.803
 1653SOL    HW2 5859   1.338   4.061   0.946
 1654SOL     OW 5860   0.513   2.292   4.168
 1654SOL    HW1 5861   0.440   2.245   4.217
 1654SOL    HW2 5862   0.567   2.226   4.116
 1655SOL     OW 5863   4.294   4.416   5.340
 1655SOL    HW1 5864   4.287   4.508   5.379
 1655SOL    HW2 5865   4.322   4.422   5.244
 1656SOL     OW 5866   6.832   3.190   2.714
 1656SOL    HW1 5867   6.750   3.133   2.716
 1656SOL    HW2 5868   6.815   3.276   2.762
 1657SOL     OW 5869   0.605   0.424   5.659
 1657SOL    HW1 5870   0.508   0.401   5.664
 1657SOL    HW2 5871   0.615   0.522   5.638
 1658SOL     OW 5872   5.901   6.683   3.514
 1658SOL    HW1 5873   5.988   6.715   3.477
 1658SOL    HW2 5874   5.826   6.715   3.456
 1659SOL     OW 5875   6.399   3.087   6.542
 1659SOL    HW1 5876   6.437   2.997   6.521
 1659SOL    HW2 5877   6.418   3.109   6.637
 1660SOL     OW 5878   2.457   5.842   3.886
 1660SOL    HW1 5879   2.378   5.844   3.825
 1660SOL    HW2 5880   2.528   5.785   3.846
 1661SOL     OW 5881   2.149   1.062   3.505
 1661SOL    HW1 5882   2.113   1.018   3.588
 1661SOL    HW2 5883   2.146   1.161   3.516
 1662SOL     OW 5884   0.668   1.497   3.962
 1662SOL    HW1 5885   0.645   1.519   3.867
 1662SOL    HW2 5886   0.589   1.454   4.006
 1663SOL     OW 5887   1.175   0.150   2.950
 1663SOL    HW1 5888   1.237   0.228   2.952
 1663SOL    HW2 5889   1.138   0.140   2.858
 1664SOL     OW 5890   1.974   5.860   4.341
 1664SOL    HW1 5891   2.010   5.905   4.259
 1664SOL    HW2 5892   1.901   5.796   4.314
 1665SOL     OW 5893   0.187   1.260   3.901
 1665SOL    HW1 5894   0.228   1.310   3.825
 1665SOL    HW2 5895   0.125   1.189   3.865
 1666SOL     OW 5896   5.906   2.305   6.916
 1666SOL    HW1 5897   5.913   2.369   6.840
 1666SOL    HW2 5898   5.997   2.269   6.937
 1667SOL     OW 5899   6.536   6.954   0.908
 1667SOL    HW1 5900   6.442   6.954   0.942
 1667SOL    HW2 5901   6.547   6.883   0.839
 1668SOL     OW 5902   2.250   0.122   5.018
 1668SOL    HW1 5903   2.270   0.111   5.115
 1668SOL    HW2 5904   2.199   0.042   4.985
 1669SOL     OW 5905   5.140   5.510   6.685
 1669SOL    HW1 5906   5.174   5.423   6.720
 1669SOL    HW2 5907   5.177   5.585   6.741
 1670SOL     OW 5908   6.647   3.917   6.939
 1670SOL    HW1 5909   6.562   3.948   6.982
 1670SOL    HW2 5910   6.722   3.977   6.966
 1671SOL     OW 5911   6.168   4.150   1.494
 1671SOL    HW1 5912   6.256   4.137   1.449
 1671SOL    HW2 5913   6.148   4.071   1.552
 1672SOL     OW 5914   2.129   4.291   3.283
 1672SOL    HW1 5915   2.215   4.267   3.329
 1672SOL    HW2 5916   2.060   4.222   3.306
 1673SOL     OW 5917   6.683   3.708   3.307
 1673SOL    HW1 5918   6.723   3.617   3.299
 1673SOL    HW2 5919   6.646   3.736   3.219
 1674SOL     OW 5920   2.165   6.253   0.279
 1674SOL    HW1 5921   2.181   6.164   0.323
 1674SOL    HW2 5922   2.247   6.282   0.230
 1675SOL     OW 5923   4.805   2.119   6.290
 1675SOL    HW1 5924   4.729   2.130   6.353
 1675SOL    HW2 5925   4.876   2.062   6.333
 1676SOL     OW 5926   2.754   1.149   3.119
 1676SOL    HW1 5927   2.805   1.225   3.079
 1676SOL    HW2 5928   2.685   1.185   3.183
 1677SOL     OW 5929   5.262   6.782   5.723
 1677SOL    HW1 5930   5.355   6.752   5.741
 1677SOL    HW2 5931   5.209   6.706   5.686
 1678SOL     OW 5932   4.322   6.620   1.934
 1678SOL    HW1 5933   4.337   6.571   2.020
 1678SOL    HW2 5934   4.326   6.555   1.858
 1679SOL     OW 5935   6.517   4.563   0.113
 1679SOL    HW1 5936   6.612   4.554   0.143
 1679SOL    HW2 5937   6.495   4.659   0.101
 1680SOL     OW 5938   6.806   1.836   5.543
 1680SOL    HW1 5939   6.859   1.772   5.488
 1680SOL    HW2 5940   6.787   1.795   5.633
 1681SOL     OW 5941   4.021   5.245   1.351
 1681SOL    HW1 5942   4.006   5.317   1.284
 1681SOL    HW2 5943   4.025   5.156   1.305
 1682SOL     OW 5944   0.707   3.898   6.071
 1682SOL    HW1 5945   0.745   3.860   6.155
 1682SOL    HW2 5946   0.729   3.995   6.065
 1683SOL     OW 5947   6.133   5.502   5.456
 1683SOL    HW1 5948   6.063   5.539   5.518
 1683SOL    HW2 5949   6.198   5.448   5.508
 1684SOL     OW 5950   0.627   0.014   4.474
 1684SOL    HW1 5951   0.580   0.102   4.467
 1684SOL    HW2 5952   0.721   0.029   4.505
 1685SOL     OW 5953   1.228   1.998   6.987
 1685SOL    HW1 5954   1.202   2.091   6.961
 1685SOL    HW2 5955   1.146   1.941   6.994
 1686SOL     OW 5956   1.425   0.382   6.413
 1686SOL    HW1 5957   1.351   0.331   6.457
 1686SOL    HW2 5958   1.457   0.331   6.333
 1687SOL     OW 5959   2.680   0.162   2.330
 1687SOL    HW1 5960   2.724   0.096   2.269
 1687SOL    HW2 5961   2.714   0.149   2.423
 1688SOL     OW 5962   6.791   1.691   3.112
 1688SOL    HW1 5963   6.873   1.637   3.092
 1688SOL    HW2 5964   6.770   1.750   3.034
 1689SOL     OW 5965   2.159   2.001   1.746
 1689SOL    HW1 5966   2.257   2.005   1.764
 1689SOL    HW2 5967   2.119   2.092   1.753
 1690SOL     OW 5968   1.388   1.777   7.005
 1690SOL    HW1 5969   1.319   1.707   7.018
 1690SOL    HW2 5970   1.347   1.857   6.961
 1691SOL     OW 5971   4.898   4.267   3.971
 1691SOL    HW1 5972   4.869   4.190   3.914
 1691SOL    HW2 5973   4.994   4.289   3.950
 1692SOL     OW 5974   0.886   6.040   4.029
 1692SOL    HW1 5975   0.814   6.047   4.098
 1692SOL    HW2 5976   0.845   6.030   3.938
 1693SOL     OW 5977   3.876   2.010   4.047
 1693SOL    HW1 5978   3.974   2.029   4.035
 1693SOL    HW2 5979   3.824   2.063   3.980
 1694SOL     OW 5980   6.468   6.362   5.271
 1694SOL    HW1 5981   6.414   6.330   5.348
 1694SOL    HW2 5982   6.512   6.449   5.296
 1695SOL     OW 5983   3.836   1.625   6.410
 1695SOL    HW1 5984   3.769   1.610   6.482
 1695SOL    HW2 5985   3.878   1.538   6.384
 1696SOL     OW 5986   3.878   6.079   2.114
 1696SOL    HW1 5987   3.940   6.005   2.083
 1696SOL    HW2 5988   3.831   6.050   2.197
 1697SOL     OW 5989   1.630   1.473   1.974
 1697SOL    HW1 5990   1.662   1.473   1.879
 1697SOL    HW2 5991   1.539   1.433   1.978
 1698SOL     OW 5992   5.316   1.657   0.025
 1698SOL    HW1 5993   5.399   1.659   0.081
 1698SOL    HW2 5994   5.301   1.565   7.012
 1699SOL     OW 5995   2.292   5.038   1.933
 1699SOL    HW1 5996   2.368   4.974   1.933
 1699SOL    HW2 5997   2.226   5.013   1.862
 1700SOL     OW 5998   6.039   3.349   4.965
 1700SOL    HW1 5999   6.123   3.371   4.916
 1700SOL    HW2 6000   6.032   3.407   5.047
 1701SOL     OW 6001   5.492   3.045   4.578
 1701SOL    HW1 6002   5.569   3.006   4.527
 1701SOL    HW2 6003   5.407   3.024   4.530
 1702SOL     OW 6004   5.387   2.153   1.701
 1702SOL    HW1 6005   5.367   2.234   1.756
 1702SOL    HW2 6006   5.306   2.094   1.696
 1703SOL     OW 6007   1.916   3.696   1.543
 1703SOL    HW1 6008   1.992   3.631   1.542
 1703SOL    HW2 6009   1.944   3.781   1.499
 1704SOL     OW 6010   6.291   2.254   2.077
 1704SOL    HW1 6011   6.284   2.212   1.987
 1704SOL    HW2 6012   6.381   2.299   2.086
 1705SOL     OW 6013   3.284   2.630   1.492
 1705SOL    HW1 6014   3.238   2.546   1.521
 1705SOL    HW2 6015   3.300   2.688   1.572
 1706SOL     OW 6016   3.029   0.489   6.277
 1706SOL    HW1 6017   3.001   0.564   6.337
 1706SOL    HW2 6018   3.007   0.512   6.182
 1707SOL     OW 6019   5.147   1.817   2.164
 1707SOL    HW1 6020   5.232   1.770   2.190
 1707SOL    HW2 6021   5.108   1.773   2.084
 1708SOL     OW 6022   0.007   3.561   0.980
 1708SOL    HW1 6023   0.039   3.533   0.890
 1708SOL    HW2 6024   0.081   3.605   1.030
 1709SOL     OW 6025   3.603   5.211   3.528
 1709SOL    HW1 6026   3.700   5.221   3.506
 1709SOL    HW2 6027   3.572   5.289   3.582
 1710SOL     OW 6028   6.411   3.869   4.581
 1710SOL    HW1 6029   6.403   3.969   4.581
 1710SOL    HW2 6030   6.329   3.830   4.539
 1711SOL     OW 6031   0.709   4.748   6.149
 1711SOL    HW1 6032   0.803   4.760   6.118
 1711SOL    HW2 6033   0.693   4.804   6.231
 1712SOL     OW 6034   1.784   4.507   1.989
 1712SOL    HW1 6035   1.754   4.415   2.014
 1712SOL    HW2 6036   1.858   4.501   1.921
 1713SOL     OW 6037   2.065   3.715   1.145
 1713SOL    HW1 6038   2.027   3.782   1.081
 1713SOL    HW2 6039   2.159   3.739   1.167
 1714SOL     OW 6040   4.796   0.826   0.736
 1714SOL    HW1 6041   4.851   0.799   0.657
 1714SOL    HW2 6042   4.739   0.904   0.711
 1715SOL     OW 6043   1.674   3.636   3.472
 1715SOL    HW1 6044   1.714   3.577   3.543
 1715SOL    HW2 6045   1.638   3.579   3.398
 1716SOL     OW 6046   0.147   0.350   0.457
 1716SOL    HW1 6047   0.147   0.385   0.363
 1716SOL    HW2 6048   0.233   0.374   0.501
 1717SOL     OW 6049   3.462   0.736   0.537
 1717SOL    HW1 6050   3.505   0.704   0.453
 1717SOL    HW2 6051   3.446   0.835   0.531
 1718SOL     OW 6052   1.851   3.749   5.505
 1718SOL    HW1 6053   1.844   3.716   5.599
 1718SOL    HW2 6054   1.861   3.849   5.505
 1719SOL     OW 6055   2.351   2.008   0.801
 1719SOL    HW1 6056   2.295   2.053   0.732
 1719SOL    HW2 6057   2.445   2.043   0.796
 1720SOL     OW 6058   6.724   1.960   2.228
 1720SOL    HW1 6059   6.722   1.877   2.283
 1720SOL    HW2 6060   6.639   1.968   2.176
 1721SOL     OW 6061   1.204   5.817   4.448
 1721SOL    HW1 6062   1.283   5.814   4.387
 1721SOL    HW2 6063   1.181   5.912   4.469
 1722SOL     OW 6064   4.396   0.521   1.713
 1722SOL    HW1 6065   4.495   0.534   1.699
 1722SOL    HW2 6066   4.368   0.435   1.670
 1723SOL     OW 6067   5.459   1.242   3.470
 1723SOL    HW1 6068   5.542   1.201   3.432
 1723SOL    HW2 6069   5.443   1.330   3.426
 1724SOL     OW 6070   5.864   6.719   7.022
 1724SOL    HW1 6071   5.902   6.798   0.047
 1724SOL    HW2 6072   5.789   6.747   6.963
 1725SOL     OW 6073   4.647   5.364   1.823
 1725SOL    HW1 6074   4.575   5.387   1.758
 1725SOL    HW2 6075   4.736   5.388   1.785
 1726SOL     OW 6076   6.336   4.861   5.239
 1726SOL    HW1 6077   6.395   4.794   5.193
 1726SOL    HW2 6078   6.260   4.886   5.180
 1727SOL     OW 6079   2.370   4.647   5.951
 1727SOL    HW1 6080   2.374   4.719   5.882
 1727SOL    HW2 6081   2.275   4.619   5.964
 1728SOL     OW 6082   5.051   6.451   3.217
 1728SOL    HW1 6083   4.984   6.377   3.228
 1728SOL    HW2 6084   5.020   6.513   3.145
 1729SOL     OW 6085   0.025   3.484   4.086
 1729SOL    HW1 6086   0.012   3.570   4.035
 1729SOL    HW2 6087   0.106   3.492   4.144
 1730SOL     OW 6088   4.943   2.447   4.899
 1730SOL    HW1 6089   5.037   2.451   4.865
 1730SOL    HW2 6090   4.887   2.390   4.839
 1731SOL     OW 6091   0.940   6.767   6.251
 1731SOL    HW1 6092   0.932   6.728   6.343
 1731SOL    HW2 6093   0.886   6.851   6.246
 1732SOL     OW 6094   1.401   4.546   6.861
 1732SOL    HW1 6095   1.430   4.577   6.771
 1732SOL    HW2 6096   1.363   4.623   6.913
 1733SOL     OW 6097   1.807   4.193   6.087
 1733SOL    HW1 6098   1.796   4.163   5.992
 1733SOL    HW2 6099   1.807   4.114   6.147
 1734SOL     OW 6100   5.180   4.170   0.647
 1734SOL    HW1 6101   5.243   4.196   0.719
 1734SOL    HW2 6102   5.132   4.086   0.673
 1735SOL     OW 6103   4.885   4.673   7.016
 1735SOL    HW1 6104   4.787   4.693   7.013
 1735SOL    HW2 6105   4.936   4.752   6.983
 1736SOL     OW 6106   3.860   3.382   0.568
 1736SOL    HW1 6107   3.854   3.475   0.604
 1736SOL    HW2 6108   3.856   3.317   0.645
 1737SOL     OW 6109   0.843   6.489   2.719
 1737SOL    HW1 6110   0.854   6.582   2.754
 1737SOL    HW2 6111   0.900   6.477   2.638
 1738SOL     OW 6112   6.983   1.256   2.802
 1738SOL    HW1 6113   6.975   1.343   2.850
 1738SOL    HW2 6114   6.936   1.262   2.714
 1739SOL     OW 6115   3.697   1.703   6.813
 1739SOL    HW1 6116   3.681   1.676   6.908
 1739SOL    HW2 6117   3.782   1.755   6.807
 1740SOL     OW 6118   0.703   1.605   6.665
 1740SOL    HW1 6119   0.765   1.680   6.687
 1740SOL    HW2 6120   0.609   1.631   6.689
 1741SOL     OW 6121   0.555   0.584   2.486
 1741SOL    HW1 6122   0.508   0.588   2.398
 1741SOL    HW2 6123   0.653   0.571   2.471
 1742SOL     OW 6124   5.975   5.916   3.505
 1742SOL    HW1 6125   6.056   5.970   3.529
 1742SOL    HW2 6126   5.897   5.946   3.560
 1743SOL     OW 6127   4.024   1.562   6.763
 1743SOL    HW1 6128   4.008   1.518   6.675
 1743SOL    HW2 6129   4.090   1.637   6.752
 1744SOL     OW 6130   4.579   6.638   1.297
 1744SOL    HW1 6131   4.656   6.597   1.247
 1744SOL    HW2 6132   4.494   6.594   1.269
 1745SOL     OW 6133   0.518   1.581   5.059
 1745SOL    HW1 6134   0.504   1.675   5.091
 1745SOL    HW2 6135   0.521   1.580   4.959
 1746SOL     OW 6136   2.882   1.221   0.587
 1746SOL    HW1 6137   2.915   1.309   0.623
 1746SOL    HW2 6138   2.817   1.237   0.513
 1747SOL     OW 6139   4.263   0.233   4.357
 1747SOL    HW1 6140   4.267   0.201   4.262
 1747SOL    HW2 6141   4.184   0.293   4.368
 1748SOL     OW 6142   5.275   0.873   1.193
 1748SOL    HW1 6143   5.246   0.802   1.256
 1748SOL    HW2 6144   5.198   0.900   1.135
 1749SOL     OW 6145   5.521   0.266   6.058
 1749SOL    HW1 6146   5.484   0.294   5.969
 1749SOL    HW2 6147   5.621   0.265   6.054
 1750SOL     OW 6148   3.748   1.111   2.896
 1750SOL    HW1 6149   3.741   1.036   2.830
 1750SOL    HW2 6150   3.727   1.198   2.851
 1751SOL     OW 6151   2.779   5.654   4.590
 1751SOL    HW1 6152   2.782   5.744   4.547
 1751SOL    HW2 6153   2.803   5.584   4.523
 1752SOL     OW 6154   6.762   2.566   5.996
 1752SOL    HW1 6155   6.793   2.480   5.957
 1752SOL    HW2 6156   6.836   2.633   5.993
 1753SOL     OW 6157   1.054   0.390   2.274
 1753SOL    HW1 6158   1.140   0.339   2.264
 1753SOL    HW2 6159   0.980   0.327   2.298
 1754SOL     OW 6160   3.002   3.825   3.268
 1754SOL    HW1 6161   2.974   3.849   3.175
 1754SOL    HW2 6162   2.941   3.754   3.304
 1755SOL     OW 6163   0.344   4.293   6.959
 1755SOL    HW1 6164   0.400   4.313   6.879
 1755SOL    HW2 6165   0.314   4.198   6.956
 1756SOL     OW 6166   5.159   5.661   6.112
 1756SOL    HW1 6167   5.252   5.626   6.106
 1756SOL    HW2 6168   5.099   5.589   6.148
 1757SOL     OW 6169   3.763   0.205   4.862
 1757SOL    HW1 6170   3.672   0.166   4.848
 1757SOL    HW2 6171   3.754   0.301   4.888
 1758SOL     OW 6172   1.787   0.326   2.890
 1758SOL    HW1 6173   1.827   0.409   2.850
 1758SOL    HW2 6174   1.705   0.300   2.839
 1759SOL     OW 6175   6.594   5.474   6.213
 1759SOL    HW1 6176   6.591   5.562   6.260
 1759SOL    HW2 6177   6.596   5.400   6.281
 1760SOL     OW 6178   4.753   6.501   3.288
 1760SOL    HW1 6179   4.666   6.534   3.324
 1760SOL    HW2 6180   4.821   6.574   3.290
 1761SOL     OW 6181   6.190   3.081   1.201
 1761SOL    HW1 6182   6.198   3.161   1.261
 1761SOL    HW2 6183   6.245   3.006   1.237
 1762SOL     OW 6184   5.694   2.353   0.119
 1762SOL    HW1 6185   5.627   2.299   0.171
 1762SOL    HW2 6186   5.783   2.307   0.120
 1763SOL     OW 6187   2.527   2.345   4.232
 1763SOL    HW1 6188   2.556   2.380   4.142
 1763SOL    HW2 6189   2.509   2.422   4.293
 1764SOL     OW 6190   6.827   4.578   3.382
 1764SOL    HW1 6191   6.864   4.671   3.384
 1764SOL    HW2 6192   6.836   4.535   3.472
 1765SOL     OW 6193   2.467   2.714   6.372
 1765SOL    HW1 6194   2.478   2.714   6.273
 1765SOL    HW2 6195   2.423   2.629   6.401
 1766SOL     OW 6196   6.010   4.537   6.005
 1766SOL    HW1 6197   5.941   4.466   6.018
 1766SOL    HW2 6198   6.028   4.548   5.907
 1767SOL     OW 6199   6.645   4.432   1.672
 1767SOL    HW1 6200   6.636   4.363   1.743
 1767SOL    HW2 6201   6.741   4.454   1.658
 1768SOL     OW 6202   5.894   0.012   3.211
 1768SOL    HW1 6203   5.917   0.004   3.308
 1768SOL    HW2 6204   5.971   0.052   3.162
 1769SOL     OW 6205   4.415   0.865   4.234
 1769SOL    HW1 6206   4.359   0.932   4.283
 1769SOL    HW2 6207   4.492   0.838   4.291
 1770SOL     OW 6208   3.706   5.414   5.770
 1770SOL    HW1 6209   3.672   5.341   5.711
 1770SOL    HW2 6210   3.806   5.407   5.777
 1771SOL     OW 6211   5.366   5.384   6.983
 1771SOL    HW1 6212   5.325   5.330   6.909
 1771SOL    HW2 6213   5.312   5.467   6.997
 1772SOL     OW 6214   2.601   5.825   2.107
 1772SOL    HW1 6215   2.613   5.881   2.190
 1772SOL    HW2 6216   2.521   5.856   2.057
 1773SOL     OW 6217   1.770   6.613   0.405
 1773SOL    HW1 6218   1.849   6.591   0.348
 1773SOL    HW2 6219   1.797   6.678   0.476
 1774SOL     OW 6220   2.624   5.558   1.239
 1774SOL    HW1 6221   2.690   5.607   1.295
 1774SOL    HW2 6222   2.671   5.497   1.175
 1775SOL     OW 6223   0.662   5.172   0.218
 1775SOL    HW1 6224   0.625   5.081   0.196
 1775SOL    HW2 6225   0.759   5.174   0.196
 1776SOL     OW 6226   3.377   6.311   5.328
 1776SOL    HW1 6227   3.353   6.327   5.232
 1776SOL    HW2 6228   3.315   6.242   5.367
 1777SOL     OW 6229   4.748   0.091   6.258
 1777SOL    HW1 6230   4.739   0.023   6.330
 1777SOL    HW2 6231   4.795   0.172   6.294
 1778SOL     OW 6232   0.824   3.288   6.133
 1778SOL    HW1 6233   0.824   3.306   6.232
 1778SOL    HW2 6234   0.744   3.333   6.092
 1779SOL     OW 6235   4.288   5.496   4.903
 1779SOL    HW1 6236   4.285   5.519   5.000
 1779SOL    HW2 6237   4.231   5.415   4.887
 1780SOL     OW 6238   3.887   2.120   6.612
 1780SOL    HW1 6239   3.941   2.035   6.611
 1780SOL    HW2 6240   3.803   2.106   6.559
 1781SOL     OW 6241   2.234   6.694   3.963
 1781SOL    HW1 6242   2.328   6.726   3.971
 1781SOL    HW2 6243   2.176   6.770   3.931
 1782SOL     OW 6244   3.466   1.217   5.160
 1782SOL    HW1 6245   3.385   1.187   5.210
 1782SOL    HW2 6246   3.458   1.189   5.064
 1783SOL     OW 6247   2.252   5.479   6.563
 1783SOL    HW1 6248   2.292   5.391   6.537
 1783SOL    HW2 6249   2.157   5.465   6.592
 1784SOL     OW 6250   1.353   6.662   6.321
 1784SOL    HW1 6251   1.358   6.723   6.400
 1784SOL    HW2 6252   1.317   6.712   6.242
 1785SOL     OW 6253   0.136   4.894   2.346
 1785SOL    HW1 6254   0.136   4.845   2.433
 1785SOL    HW2 6255   0.208   4.858   2.287
 1786SOL     OW 6256   4.468   2.453   1.681
 1786SOL    HW1 6257   4.510   2.381   1.626
 1786SOL    HW2 6258   4.525   2.470   1.762
 1787SOL     OW 6259   4.518   0.447   5.265
 1787SOL    HW1 6260   4.422   0.461   5.289
 1787SOL    HW2 6261   4.524   0.410   5.172
 1788SOL     OW 6262   1.772   4.954   5.270
 1788SOL    HW1 6263   1.723   4.879   5.227
 1788SOL    HW2 6264   1.794   5.023   5.202
 1789SOL     OW 6265   5.223   5.854   0.656
 1789SOL    HW1 6266   5.254   5.764   0.626
 1789SOL    HW2 6267   5.125   5.850   0.677
 1790SOL     OW 6268   2.362   6.947   3.032
 1790SOL    HW1 6269   2.343   6.933   3.129
 1790SOL    HW2 6270   2.284   6.915   2.978
 1791SOL     OW 6271   0.550   6.931   2.701
 1791SOL    HW1 6272   0.630   6.968   2.653
 1791SOL    HW2 6273   0.469   6.984   2.677
 1792SOL     OW 6274   0.694   4.336   3.802
 1792SOL    HW1 6275   0.756   4.264   3.832
 1792SOL    HW2 6276   0.660   4.314   3.711
 1793SOL     OW 6277   0.379   0.467   3.777
 1793SOL    HW1 6278   0.400   0.454   3.680
 1793SOL    HW2 6279   0.376   0.378   3.823
 1794SOL     OW 6280   4.524   6.668   6.501
 1794SOL    HW1 6281   4.433   6.699   6.473
 1794SOL    HW2 6282   4.518   6.577   6.543
 1795SOL     OW 6283   0.845   2.874   6.792
 1795SOL    HW1 6284   0.765   2.892   6.849
 1795SOL    HW2 6285   0.914   2.825   6.845
 1796SOL     OW 6286   4.596   0.710   5.299
 1796SOL    HW1 6287   4.515   0.765   5.321
 1796SOL    HW2 6288   4.573   0.613   5.306
 1797SOL     OW 6289   0.183   0.441   2.650
 1797SOL    HW1 6290   0.167   0.500   2.571
 1797SOL    HW2 6291   0.096   0.426   2.698
 1798SOL     OW 6292   6.206   2.315   3.503
 1798SOL    HW1 6293   6.269   2.361   3.565
 1798SOL    HW2 6294   6.226   2.217   3.499
 1799SOL     OW 6295   2.881   6.506   1.573
 1799SOL    HW1 6296   2.952   6.496   1.643
 1799SOL    HW2 6297   2.913   6.466   1.488
 1800SOL     OW 6298   3.010   4.797   1.954
 1800SOL    HW1 6299   2.985   4.864   1.885
 1800SOL    HW2 6300   2.955   4.715   1.943
 1801SOL     OW 6301   5.797   6.124   0.415
 1801SOL    HW1 6302   5.844   6.102   0.500
 1801SOL    HW2 6303   5.703   6.090   0.419
 1802SOL     OW 6304   5.465   5.157   4.628
 1802SOL    HW1 6305   5.505   5.193   4.544
 1802SOL    HW2 6306   5.376   5.116   4.609
 1803SOL     OW 6307   6.193   4.905   0.635
 1803SOL    HW1 6308   6.291   4.887   0.642
 1803SOL    HW2 6309   6.143   4.839   0.690
 1804SOL     OW 6310   3.070   4.022   6.180
 1804SOL    HW1 6311   3.086   4.078   6.099
 1804SOL    HW2 6312   2.988   3.967   6.167
 1805SOL     OW 6313   6.606   2.329   6.779
 1805SOL    HW1 6314   6.560   2.308   6.866
 1805SOL    HW2 6315   6.613   2.428   6.768
 1806SOL     OW 6316   6.841   6.749   0.517
 1806SOL    HW1 6317   6.922   6.708   0.560
 1806SOL    HW2 6318   6.832   6.715   0.423
 1807SOL     OW 6319   6.761   1.698   5.775
 1807SOL    HW1 6320   6.704   1.616   5.765
 1807SOL    HW2 6321   6.784   1.710   5.872
 1808SOL     OW 6322   2.086   4.934   4.876
 1808SOL    HW1 6323   2.012   4.935   4.808
 1808SOL    HW2 6324   2.174   4.932   4.829
 1809SOL     OW 6325   4.099   0.379   5.777
 1809SOL    HW1 6326   4.078   0.329   5.861
 1809SOL    HW2 6327   4.076   0.475   5.789
 1810SOL     OW 6328   4.083   6.438   3.669
 1810SOL    HW1 6329   4.172   6.473   3.643
 1810SOL    HW2 6330   4.033   6.507   3.721
 1811SOL     OW 6331   4.531   4.833   2.953
 1811SOL    HW1 6332   4.512   4.777   2.872
 1811SOL    HW2 6333   4.629   4.855   2.956
 1812SOL     OW 6334   4.703   4.718   4.935
 1812SOL    HW1 6335   4.794   4.759   4.941
 1812SOL    HW2 6336   4.660   4.746   4.850
 1813SOL     OW 6337   0.127   6.417   5.101
 1813SOL    HW1 6338   0.135   6.511   5.068
 1813SOL    HW2 6339   0.156   6.412   5.197
 1814SOL     OW 6340   4.176   6.625   2.757
 1814SOL    HW1 6341   4.244   6.553   2.757
 1814SOL    HW2 6342   4.090   6.590   2.718
 1815SOL     OW 6343   0.179   1.125   2.948
 1815SOL    HW1 6344   0.115   1.119   2.872
 1815SOL    HW2 6345   0.270   1.148   2.913
 1816SOL     OW 6346   1.471   5.360   0.861
 1816SOL    HW1 6347   1.545   5.413   0.819
 1816SOL    HW2 6348   1.454   5.277   0.807
 1817SOL     OW 6349   0.992   4.121   1.648
 1817SOL    HW1 6350   1.081   4.091   1.682
 1817SOL    HW2 6351   1.004   4.195   1.582
 1818SOL     OW 6352   0.525   2.093   3.047
 1818SOL    HW1 6353   0.506   2.000   3.016
 1818SOL    HW2 6354   0.624   2.109   3.046
 1819SOL     OW 6355   1.793   3.979   2.373
 1819SOL    HW1 6356   1.888   3.999   2.397
 1819SOL    HW2 6357   1.764   3.895   2.418
 1820SOL     OW 6358   5.666   6.683   2.550
 1820SOL    HW1 6359   5.711   6.594   2.557
 1820SOL    HW2 6360   5.675   6.718   2.456
 1821SOL     OW 6361   1.870   1.881   3.478
 1821SOL    HW1 6362   1.845   1.958   3.420
 1821SOL    HW2 6363   1.789   1.844   3.523
 1822SOL     OW 6364   3.555   3.689   2.680
 1822SOL    HW1 6365   3.638   3.651   2.720
 1822SOL    HW2 6366   3.573   3.782   2.647
 1823SOL     OW 6367   3.617   6.650   2.663
 1823SOL    HW1 6368   3.690   6.716   2.681
 1823SOL    HW2 6369   3.569   6.676   2.579
 1824SOL     OW 6370   4.703   1.367   2.116
 1824SOL    HW1 6371   4.767   1.299   2.082
 1824SOL    HW2 6372   4.731   1.398   2.207
 1825SOL     OW 6373   0.520   0.145   0.926
 1825SOL    HW1 6374   0.600   0.157   0.984
 1825SOL    HW2 6375   0.518   0.052   0.890
 1826SOL     OW 6376   2.553   5.153   6.117
 1826SOL    HW1 6377   2.495   5.097   6.058
 1826SOL    HW2 6378   2.608   5.214   6.060
 1827SOL     OW 6379   5.581   0.443   0.793
 1827SOL    HW1 6380   5.541   0.512   0.733
 1827SOL    HW2 6381   5.539   0.449   0.883
 1828SOL     OW 6382   3.402   2.859   6.934
 1828SOL    HW1 6383   3.403   2.831   6.838
 1828SOL    HW2 6384   3.405   2.959   6.939
 1829SOL     OW 6385   5.772   5.501   2.771
 1829SOL    HW1 6386   5.683   5.461   2.792
 1829SOL    HW2 6387   5.783   5.587   2.820
 1830SOL     OW 6388   4.665   0.684   4.596
 1830SOL    HW1 6389   4.652   0.710   4.500
 1830SOL    HW2 6390   4.653   0.586   4.605
 1831SOL     OW 6391   4.693   0.979   2.813
 1831SOL    HW1 6392   4.612   0.975   2.754
 1831SOL    HW2 6393   4.774   0.956   2.759
 1832SOL     OW 6394   6.197   2.618   6.260
 1832SOL    HW1 6395   6.153   2.694   6.213
 1832SOL    HW2 6396   6.249   2.563   6.195
 1833SOL     OW 6397   5.800   2.050   6.233
 1833SOL    HW1 6398   5.817   2.090   6.143
 1833SOL    HW2 6399   5.807   1.950   6.226
 1834SOL     OW 6400   2.181   4.680   0.022
 1834SOL    HW1 6401   2.231   4.758   0.059
 1834SOL    HW2 6402   2.239   4.598   0.027
 1835SOL     OW 6403   1.811   4.481   0.160
 1835SOL    HW1 6404   1.835   4.388   0.187
 1835SOL    HW2 6405   1.746   4.478   0.085
 1836SOL     OW 6406   0.662   6.482   0.671
 1836SOL    HW1 6407   0.650   6.392   0.714
 1836SOL    HW2 6408   0.627   6.478   0.577
 1837SOL     OW 6409   6.886   3.295   4.292
 1837SOL    HW1 6410   6.902   3.394   4.301
 1837SOL    HW2 6411   6.965   3.252   4.249
 1838SOL     OW 6412   1.032   3.488   4.554
 1838SOL    HW1 6413   0.989   3.457   4.638
 1838SOL    HW2 6414   1.104   3.423   4.527
 1839SOL     OW 6415   1.965   1.680   6.878
 1839SOL    HW1 6416   1.990   1.741   6.802
 1839SOL    HW2 6417   1.925   1.596   6.841
 1840SOL     OW 6418   1.716   5.796   1.414
 1840SOL    HW1 6419   1.718   5.792   1.514
 1840SOL    HW2 6420   1.680   5.885   1.385
 1841SOL     OW 6421   2.115   2.601   3.891
 1841SOL    HW1 6422   2.186   2.557   3.836
 1841SOL    HW2 6423   2.136   2.588   3.988
 1842SOL     OW 6424   2.026   5.736   6.486
 1842SOL    HW1 6425   2.008   5.643   6.519
 1842SOL    HW2 6426   1.952   5.796   6.516
 1843SOL     OW 6427   5.360   1.752   5.583
 1843SOL    HW1 6428   5.391   1.659   5.564
 1843SOL    HW2 6429   5.268   1.765   5.546
 1844SOL     OW 6430   5.761   5.180   3.986
 1844SOL    HW1 6431   5.825   5.249   3.953
 1844SOL    HW2 6432   5.763   5.101   3.925
 1845SOL     OW 6433   5.572   5.995   1.291
 1845SOL    HW1 6434   5.593   6.088   1.322
 1845SOL    HW2 6435   5.536   5.999   1.197
 1846SOL     OW 6436   3.770   0.924   5.790
 1846SOL    HW1 6437   3.782   1.022   5.775
 1846SOL    HW2 6438   3.696   0.890   5.732
 1847SOL     OW 6439   1.393   5.727   6.236
 1847SOL    HW1 6440   1.303   5.752   6.198
 1847SOL    HW2 6441   1.458   5.800   6.216
 1848SOL     OW 6442   1.989   1.323   3.992
 1848SOL    HW1 6443   2.047   1.321   4.074
 1848SOL    HW2 6444   2.010   1.406   3.939
 1849SOL     OW 6445   3.038   1.345   5.375
 1849SOL    HW1 6446   3.029   1.257   5.328
 1849SOL    HW2 6447   3.131   1.353   5.411
 1850SOL     OW 6448   4.647   2.506   1.195
 1850SOL    HW1 6449   4.703   2.561   1.257
 1850SOL    HW2 6450   4.550   2.523   1.214
 1851SOL     OW 6451   6.392   4.439   2.726
 1851SOL    HW1 6452   6.310   4.428   2.669
 1851SOL    HW2 6453   6.414   4.353   2.771
 1852SOL     OW 6454   5.313   2.110   6.351
 1852SOL    HW1 6455   5.261   2.186   6.390
 1852SOL    HW2 6456   5.410   2.131   6.354
 1853SOL     OW 6457   1.598   5.068   0.314
 1853SOL    HW1 6458   1.640   5.051   0.225
 1853SOL    HW2 6459   1.649   5.021   0.385
 1854SOL     OW 6460   2.891   5.256   4.408
 1854SOL    HW1 6461   2.867   5.250   4.505
 1854SOL    HW2 6462   2.872   5.348   4.374
 1855SOL     OW 6463   6.414   4.566   1.771
 1855SOL    HW1 6464   6.350   4.489   1.764
 1855SOL    HW2 6465   6.503   4.538   1.735
 1856SOL     OW 6466   5.091   3.025   0.249
 1856SOL    HW1 6467   5.065   2.972   0.167
 1856SOL    HW2 6468   5.096   3.122   0.225
 1857SOL     OW 6469   5.386   2.057   3.629
 1857SOL    HW1 6470   5.334   1.975   3.602
 1857SOL    HW2 6471   5.440   2.036   3.710
 1858SOL     OW 6472   5.916   3.680   2.237
 1858SOL    HW1 6473   5.865   3.616   2.294
 1858SOL    HW2 6474   5.884   3.773   2.255
 1859SOL     OW 6475   6.094   2.058   4.085
 1859SOL    HW1 6476   6.150   2.133   4.049
 1859SOL    HW2 6477   6.012   2.096   4.129
 1860SOL     OW 6478   3.868   2.128   4.758
 1860SOL    HW1 6479   3.771   2.148   4.766
 1860SOL    HW2 6480   3.883   2.030   4.770
 1861SOL     OW 6481   4.641   7.016   1.560
 1861SOL    HW1 6482   4.655   6.938   1.621
 1861SOL    HW2 6483   4.574   6.991   1.489
 1862SOL     OW 6484   2.885   2.849   1.395
 1862SOL    HW1 6485   2.868   2.894   1.483
 1862SOL    HW2 6486   2.983   2.843   1.379
 1863SOL     OW 6487   1.747   1.776   1.504
 1863SOL    HW1 6488   1.790   1.840   1.567
 1863SOL    HW2 6489   1.815   1.744   1.438
 1864SOL     OW 6490   6.976   6.473   3.072
 1864SOL    HW1 6491   0.051   6.485   3.091
 1864SOL    HW2 6492   6.925   6.474   3.158
 1865SOL     OW 6493   5.999   3.259   0.213
 1865SOL    HW1 6494   5.959   3.168   0.220
 1865SOL    HW2 6495   6.054   3.266   0.130
 1866SOL     OW 6496   6.451   5.927   1.664
 1866SOL    HW1 6497   6.375   5.991   1.656
 1866SOL    HW2 6498   6.422   5.848   1.719
 1867SOL     OW 6499   1.726   4.025   6.729
 1867SOL    HW1 6500   1.643   4.080   6.727
 1867SOL    HW2 6501   1.729   3.972   6.813
 1868SOL     OW 6502   6.919   4.189   5.510
 1868SOL    HW1 6503   6.920   4.279   5.554
 1868SOL    HW2 6504   6.927   4.117   5.580
 1869SOL     OW 6505   5.788   1.430   4.932
 1869SOL    HW1 6506   5.751   1.351   4.981
 1869SOL    HW2 6507   5.858   1.400   4.867
 1870SOL     OW 6508   1.475   3.561   5.497
 1870SOL    HW1 6509   1.491   3.652   5.458
 1870SOL    HW2 6510   1.381   3.554   5.528
 1871SOL     OW 6511   1.897   1.424   0.853
 1871SOL    HW1 6512   1.815   1.453   0.902
 1871SOL    HW2 6513   1.884   1.439   0.755
 1872SOL     OW 6514   1.532   5.220   6.463
 1872SOL    HW1 6515   1.519   5.173   6.375
 1872SOL    HW2 6516   1.574   5.157   6.529
 1873SOL     OW 6517   5.835   6.274   6.263
 1873SOL    HW1 6518   5.831   6.322   6.176
 1873SOL    HW2 6519   5.920   6.296   6.310
 1874SOL     OW 6520   1.242   4.150   2.798
 1874SOL    HW1 6521   1.239   4.058   2.761
 1874SOL    HW2 6522   1.150   4.189   2.801
 1875SOL     OW 6523   0.278   0.267   2.473
 1875SOL    HW1 6524   0.211   0.251   2.400
 1875SOL    HW2 6525   0.238   0.325   2.544
 1876SOL     OW 6526   2.165   6.297   4.344
 1876SOL    HW1 6527   2.252   6.341   4.322
 1876SOL    HW2 6528   2.180   6.214   4.396
 1877SOL     OW 6529   0.085   0.407   4.588
 1877SOL    HW1 6530   7.009   0.398   4.572
 1877SOL    HW2 6531   0.129   0.443   4.506
 1878SOL     OW 6532   6.236   3.172   5.241
 1878SOL    HW1 6533   6.236   3.073   5.249
 1878SOL    HW2 6534   6.255   3.198   5.146
 1879SOL     OW 6535   2.128   5.565   5.285
 1879SOL    HW1 6536   2.073   5.636   5.241
 1879SOL    HW2 6537   2.084   5.476   5.275
 1880SOL     OW 6538   0.116   0.585   3.765
 1880SOL    HW1 6539   0.079   0.595   3.673
 1880SOL    HW2 6540   0.213   0.562   3.759
 1881SOL     OW 6541   0.686   2.247   6.850
 1881SOL    HW1 6542   0.721   2.259   6.757
 1881SOL    HW2 6543   0.607   2.307   6.863
 1882SOL     OW 6544   0.508   5.946   0.173
 1882SOL    HW1 6545   0.469   5.854   0.176
 1882SOL    HW2 6546   0.578   5.954   0.243
 1883SOL     OW 6547   6.979   2.753   4.205
 1883SOL    HW1 6548   0.045   2.732   4.163
 1883SOL    HW2 6549   6.915   2.679   4.185
 1884SOL     OW 6550   6.143   1.374   0.490
 1884SOL    HW1 6551   6.145   1.357   0.391
 1884SOL    HW2 6552   6.229   1.344   0.531
 1885SOL     OW 6553   3.482   1.209   4.826
 1885SOL    HW1 6554   3.383   1.212   4.820
 1885SOL    HW2 6555   3.520   1.298   4.799
 1886SOL     OW 6556   0.840   6.879   3.526
 1886SOL    HW1 6557   0.853   6.952   3.459
 1886SOL    HW2 6558   0.847   6.917   3.618
 1887SOL     OW 6559   2.442   5.124   6.365
 1887SOL    HW1 6560   2.453   5.156   6.271
 1887SOL    HW2 6561   2.413   5.028   6.365
 1888SOL     OW 6562   2.163   6.953   3.526
 1888SOL    HW1 6563   2.166   6.993   3.435
 1888SOL    HW2 6564   2.252   6.912   3.547
 1889SOL     OW 6565   0.459   3.742   2.749
 1889SOL    HW1 6566   0.554   3.721   2.771
 1889SOL    HW2 6567   0.454   3.782   2.658
 1890SOL     OW 6568   2.331   5.451   4.614
 1890SOL    HW1 6569   2.325   5.387   4.691
 1890SOL    HW2 6570   2.399   5.418   4.548
 1891SOL     OW 6571   3.952   3.415   4.735
 1891SOL    HW1 6572   4.012   3.335   4.750
 1891SOL    HW2 6573   3.986   3.467   4.657
 1892SOL     OW 6574   6.563   0.881   2.742
 1892SOL    HW1 6575   6.661   0.899   2.747
 1892SOL    HW2 6576   6.544   0.821   2.664
 1893SOL     OW 6577   3.234   3.581   3.539
 1893SOL    HW1 6578   3.293   3.501   3.532
 1893SOL    HW2 6579   3.290   3.662   3.555
 1894SOL     OW 6580   2.431   2.798   5.801
 1894SOL    HW1 6581   2.427   2.796   5.701
 1894SOL    HW2 6582   2.485   2.877   5.830
 1895SOL     OW 6583   0.948   6.145   1.670
 1895SOL    HW1 6584   0.987   6.102   1.750
 1895SOL    HW2 6585   1.007   6.221   1.641
 1896SOL     OW 6586   6.511   2.678   0.911
 1896SOL    HW1 6587   6.491   2.586   0.945
 1896SOL    HW2 6588   6.588   2.674   0.848
 1897SOL     OW 6589   2.507   4.678   3.084
 1897SOL    HW1 6590   2.444   4.735   3.032
 1897SOL    HW2 6591   2.600   4.712   3.071
 1898SOL     OW 6592   1.596   5.977   1.897
 1898SOL    HW1 6593   1.571   6.070   1.868
 1898SOL    HW2 6594   1.645   5.931   1.822
 1899SOL     OW 6595   6.988   0.572   2.202
 1899SOL    HW1 6596   0.045   0.562   2.142
 1899SOL    HW2 6597   6.912   0.613   2.151
 1900SOL     OW 6598   3.099   5.857   6.048
 1900SOL    HW1 6599   3.065   5.773   6.091
 1900SOL    HW2 6600   3.187   5.838   6.005
 1901SOL     OW 6601   3.910   2.989   2.499
 1901SOL    HW1 6602   3.968   3.004   2.419
 1901SOL    HW2 6603   3.826   2.942   2.471
 1902SOL     OW 6604   1.351   6.930   5.303
 1902SOL    HW1 6605   1.383   6.853   5.247
 1902SOL    HW2 6606   1.402   6.933   5.388
 1903SOL     OW 6607   0.120   2.521   4.513
 1903SOL    HW1 6608   0.071   2.520   4.426
 1903SOL    HW2 6609   0.054   2.514   4.588
 1904SOL     OW 6610   5.823   6.051   2.285
 1904SOL    HW1 6611   5.830   6.008   2.196
 1904SOL    HW2 6612   5.747   6.011   2.336
 1905SOL     OW 6613   0.511   2.521   3.131
 1905SOL    HW1 6614   0.557   2.593   3.183
 1905SOL    HW2 6615   0.534   2.529   3.035
 1906SOL     OW 6616   0.617   6.164   3.513
 1906SOL    HW1 6617   0.636   6.257   3.480
 1906SOL    HW2 6618   0.624   6.162   3.612
 1907SOL     OW 6619   6.651   2.810   0.599
 1907SOL    HW1 6620   6.554   2.823   0.617
 1907SOL    HW2 6621   6.678   2.717   0.623
 1908SOL     OW 6622   4.673   0.524   1.622
 1908SOL    HW1 6623   4.729   0.606   1.615
 1908SOL    HW2 6624   4.665   0.481   1.532
 1909SOL     OW 6625   6.396   5.747   4.930
 1909SOL    HW1 6626   6.332   5.674   4.956
 1909SOL    HW2 6627   6.361   5.795   4.849
 1910SOL     OW 6628   0.372   6.637   4.441
 1910SOL    HW1 6629   0.345   6.722   4.395
 1910SOL    HW2 6630   0.314   6.623   4.521
 1911SOL     OW 6631   5.570   6.129   4.349
 1911SOL    HW1 6632   5.639   6.090   4.289
 1911SOL    HW2 6633   5.614   6.184   4.420
 1912SOL     OW 6634   3.630   4.838   2.354
 1912SOL    HW1 6635   3.534   4.832   2.328
 1912SOL    HW2 6636   3.638   4.862   2.450
 1913SOL     OW 6637   2.783   4.632   6.856
 1913SOL    HW1 6638   2.808   4.639   6.760
 1913SOL    HW2 6639   2.819   4.546   6.894
 1914SOL     OW 6640   4.255   4.739   0.380
 1914SOL    HW1 6641   4.337   4.689   0.350
 1914SOL    HW2 6642   4.246   4.823   0.327
 1915SOL     OW 6643   4.453   1.396   6.989
 1915SOL    HW1 6644   4.370   1.393   6.933
 1915SOL    HW2 6645   4.519   1.458   6.948
 1916SOL     OW 6646   3.615   1.333   3.102
 1916SOL    HW1 6647   3.649   1.251   3.054
 1916SOL    HW2 6648   3.515   1.335   3.095
 1917SOL     OW 6649   2.543   4.113   1.735
 1917SOL    HW1 6650   2.624   4.055   1.738
 1917SOL    HW2 6651   2.506   4.115   1.642
 1918SOL     OW 6652   4.888   3.574   4.154
 1918SOL    HW1 6653   4.915   3.656   4.104
 1918SOL    HW2 6654   4.883   3.497   4.091
 1919SOL     OW 6655   6.511   0.392   6.811
 1919SOL    HW1 6656   6.552   0.379   6.902
 1919SOL    HW2 6657   6.433   0.454   6.819
 1920SOL     OW 6658   4.589   3.273   0.614
 1920SOL    HW1 6659   4.670   3.329   0.628
 1920SOL    HW2 6660   4.592   3.194   0.676
 1921SOL     OW 6661   2.501   1.951   6.819
 1921SOL    HW1 6662   2.500   2.045   6.852
 1921SOL    HW2 6663   2.544   1.892   6.888
 1922SOL     OW 6664   3.623   3.757   4.421
 1922SOL    HW1 6665   3.670   3.669   4.433
 1922SOL    HW2 6666   3.580   3.783   4.508
 1923SOL     OW 6667   3.152   0.117   4.284
 1923SOL    HW1 6668   3.113   0.167   4.207
 1923SOL    HW2 6669   3.173   0.023   4.256
 1924SOL     OW 6670   4.758   1.619   1.209
 1924SOL    HW1 6671   4.853   1.651   1.202
 1924SOL    HW2 6672   4.756   1.532   1.258
 1925SOL     OW 6673   1.093   4.067   0.657
 1925SOL    HW1 6674   1.184   4.026   0.648
 1925SOL    HW2 6675   1.092   4.156   0.611
 1926SOL     OW 6676   2.653   6.642   1.632
 1926SOL    HW1 6677   2.654   6.580   1.710
 1926SOL    HW2 6678   2.738   6.632   1.580
 1927SOL     OW 6679   1.994   4.917   1.459
 1927SOL    HW1 6680   1.998   4.970   1.375
 1927SOL    HW2 6681   2.021   4.823   1.441
 1928SOL     OW 6682   1.411   4.269   2.509
 1928SOL    HW1 6683   1.482   4.285   2.441
 1928SOL    HW2 6684   1.431   4.323   2.591
 1929SOL     OW 6685   3.183   0.782   3.548
 1929SOL    HW1 6686   3.198   0.858   3.611
 1929SOL    HW2 6687   3.169   0.817   3.455
 1930SOL     OW 6688   3.299   3.892   0.074
 1930SOL    HW1 6689   3.207   3.907   0.109
 1930SOL    HW2 6690   3.327   3.798   0.093
 1931SOL     OW 6691   5.680   3.625   3.146
 1931SOL    HW1 6692   5.708   3.554   3.081
 1931SOL    HW2 6693   5.761   3.663   3.191
 1932SOL     OW 6694   4.520   1.152   1.980
 1932SOL    HW1 6695   4.431   1.144   1.936
 1932SOL    HW2 6696   4.569   1.231   1.943
 1933SOL     OW 6697   1.754   1.219   0.634
 1933SOL    HW1 6698   1.703   1.238   0.718
 1933SOL    HW2 6699   1.690   1.217   0.557
 1934SOL     OW 6700   6.280   0.713   0.257
 1934SOL    HW1 6701   6.333   0.687   0.176
 1934SOL    HW2 6702   6.342   0.733   0.333
 1935SOL     OW 6703   5.294   5.453   3.168
 1935SOL    HW1 6704   5.259   5.545   3.178
 1935SOL    HW2 6705   5.387   5.448   3.204
 1936SOL     OW 6706   5.947   2.801   6.314
 1936SOL    HW1 6707   5.868   2.762   6.362
 1936SOL    HW2 6708   6.025   2.803   6.376
 1937SOL     OW 6709   0.948   5.622   6.810
 1937SOL    HW1 6710   1.041   5.640   6.842
 1937SOL    HW2 6711   0.906   5.708   6.782
 1938SOL     OW 6712   6.775   0.928   6.632
 1938SOL    HW1 6713   6.725   0.997   6.684
 1938SOL    HW2 6714   6.748   0.932   6.536
 1939SOL     OW 6715   0.429   0.640   4.223
 1939SOL    HW1 6716   0.484   0.687   4.154
 1939SOL    HW2 6717   0.473   0.651   4.313
 1940SOL     OW 6718   1.024   5.488   2.543
 1940SOL    HW1 6719   0.939   5.435   2.547
 1940SOL    HW2 6720   1.032   5.543   2.626
 1941SOL     OW 6721   6.371   1.270   3.864
 1941SOL    HW1 6722   6.308   1.343   3.891
 1941SOL    HW2 6723   6.321   1.198   3.817
 1942SOL     OW 6724   1.022   6.573   1.364
 1942SOL    HW1 6725   1.075   6.515   1.426
 1942SOL    HW2 6726   1.077   6.593   1.283
 1943SOL     OW 6727   0.988   4.023   3.204
 1943SOL    HW1 6728   0.922   3.992   3.135
 1943SOL    HW2 6729   1.048   3.947   3.228
 1944SOL     OW 6730   6.959   3.780   4.060
 1944SOL    HW1 6731   6.997   3.806   4.148
 1944SOL    HW2 6732   6.872   3.732   4.073
 1945SOL     OW 6733   4.837   1.928   2.226
 1945SOL    HW1 6734   4.928   1.899   2.256
 1945SOL    HW2 6735   4.846   1.994   2.152
 1946SOL     OW 6736   6.376   4.828   6.545
 1946SOL    HW1 6737   6.353   4.906   6.604
 1946SOL    HW2 6738   6.334   4.841   6.455
 1947SOL     OW 6739   5.260   6.300   2.455
 1947SOL    HW1 6740   5.313   6.268   2.533
 1947SOL    HW2 6741   5.303   6.270   2.370
 1948SOL     OW 6742   5.051   2.769   2.756
 1948SOL    HW1 6743   5.036   2.827   2.677
 1948SOL    HW2 6744   5.082   2.678   2.726
 1949SOL     OW 6745   3.046   4.372   6.248
 1949SOL    HW1 6746   2.958   4.419   6.246
 1949SOL    HW2 6747   3.067   4.345   6.342
 1950SOL     OW 6748   3.879   3.239   4.367
 1950SOL    HW1 6749   3.904   3.231   4.271
 1950SOL    HW2 6750   3.838   3.153   4.398
 1951SOL     OW 6751   1.271   5.264   6.125
 1951SOL    HW1 6752   1.209   5.330   6.167
 1951SOL    HW2 6753   1.366   5.293   6.139
 1952SOL     OW 6754   5.762   3.898   0.062
 1952SOL    HW1 6755   5.862   3.903   0.065
 1952SOL    HW2 6756   5.730   3.935   6.997
 1953SOL     OW 6757   6.966   0.990   6.280
 1953SOL    HW1 6758   7.008   1.003   6.190
 1953SOL    HW2 6759   0.013   1.000   6.351
 1954SOL     OW 6760   4.078   6.414   2.987
 1954SOL    HW1 6761   4.151   6.400   3.053
 1954SOL    HW2 6762   4.087   6.504   2.946
 1955SOL     OW 6763   0.543   3.439   4.040
 1955SOL    HW1 6764   0.637   3.453   4.071
 1955SOL    HW2 6765   0.543   3.385   3.956
 1956SOL     OW 6766   4.620   1.366   1.309
 1956SOL    HW1 6767   4.547   1.431   1.288
 1956SOL    HW2 6768   4.636   1.308   1.229
 1957SOL     OW 6769   0.726   3.547   4.642
 1957SOL    HW1 6770   0.777   3.485   4.702
 1957SOL    HW2 6771   0.728   3.639   4.679
 1958SOL     OW 6772   5.483   1.400   0.677
 1958SOL    HW1 6773   5.497   1.408   0.578
 1958SOL    HW2 6774   5.432   1.317   0.697
 1959SOL     OW 6775   2.164   1.307   6.519
 1959SOL    HW1 6776   2.182   1.213   6.490
 1959SOL    HW2 6777   2.174   1.313   6.619
 1960SOL     OW 6778   4.768   4.198   2.150
 1960SOL    HW1 6779   4.683   4.220   2.101
 1960SOL    HW2 6780   4.779   4.099   2.154
 1961SOL     OW 6781   6.546   3.679   4.386
 1961SOL    HW1 6782   6.493   3.635   4.458
 1961SOL    HW2 6783   6.635   3.708   4.423
 1962SOL     OW 6784   0.552   0.234   2.490
 1962SOL    HW1 6785   0.457   0.262   2.498
 1962SOL    HW2 6786   0.558   0.146   2.443
 1963SOL     OW 6787   0.770   1.029   6.548
 1963SOL    HW1 6788   0.811   1.119   6.555
 1963SOL    HW2 6789   0.687   1.034   6.492
 1964SOL     OW 6790   5.547   2.964   1.117
 1964SOL    HW1 6791   5.530   2.898   1.043
 1964SOL    HW2 6792   5.630   3.016   1.096
 1965SOL     OW 6793   5.730   5.190   5.031
 1965SOL    HW1 6794   5.822   5.196   4.992
 1965SOL    HW2 6795   5.734   5.200   5.130
 1966SOL     OW 6796   1.334   5.099   0.025
 1966SOL    HW1 6797   1.406   5.145   6.995
 1966SOL    HW2 6798   1.253   5.090   6.990
 1967SOL     OW 6799   5.920   2.822   3.910
 1967SOL    HW1 6800   6.009   2.793   3.876
 1967SOL    HW2 6801   5.904   2.782   4.000
 1968SOL     OW 6802   2.839   1.733   5.459
 1968SOL    HW1 6803   2.835   1.830   5.436
 1968SOL    HW2 6804   2.884   1.721   5.548
 1969SOL     OW 6805   0.414   6.464   1.998
 1969SOL    HW1 6806   0.507   6.474   2.032
 1969SOL    HW2 6807   0.387   6.367   2.003
 1970SOL     OW 6808   5.335   4.116   2.404
 1970SOL    HW1 6809   5.309   4.182   2.334
 1970SOL    HW2 6810   5.434   4.117   2.416
 1971SOL     OW 6811   1.180   6.078   4.508
 1971SOL    HW1 6812   1.114   6.141   4.468
 1971SOL    HW2 6813   1.262   6.128   4.534
 1972SOL     OW 6814   5.014   2.179   3.587
 1972SOL    HW1 6815   5.078   2.101   3.584
 1972SOL    HW2 6816   5.060   2.261   3.556
 1973SOL     OW 6817   4.925   2.689   6.826
 1973SOL    HW1 6818   4.883   2.710   6.915
 1973SOL    HW2 6819   4.854   2.662   6.761
 1974SOL     OW 6820   2.277   6.095   4.641
 1974SOL    HW1 6821   2.182   6.120   4.662
 1974SOL    HW2 6822   2.279   6.036   4.561
 1975SOL     OW 6823   1.570   1.986   2.411
 1975SOL    HW1 6824   1.568   1.980   2.312
 1975SOL    HW2 6825   1.637   1.922   2.448
 1976SOL     OW 6826   2.412   0.386   4.591
 1976SOL    HW1 6827   2.393   0.474   4.635
 1976SOL    HW2 6828   2.434   0.318   4.661
 1977SOL     OW 6829   1.183   4.506   0.496
 1977SOL    HW1 6830   1.257   4.537   0.557
 1977SOL    HW2 6831   1.162   4.577   0.430
 1978SOL     OW 6832   2.797   0.733   1.891
 1978SOL    HW1 6833   2.757   0.646   1.861
 1978SOL    HW2 6834   2.879   0.752   1.838
 1979SOL     OW 6835   5.408   2.701   6.946
 1979SOL    HW1 6836   5.341   2.747   6.889
 1979SOL    HW2 6837   5.468   2.769   6.988
 1980SOL     OW 6838   4.472   6.845   1.012
 1980SOL    HW1 6839   4.563   6.835   1.053
 1980SOL    HW2 6840   4.471   6.924   0.951
 1981SOL     OW 6841   4.359   2.691   1.596
 1981SOL    HW1 6842   4.402   2.766   1.646
 1981SOL    HW2 6843   4.407   2.606   1.616
 1982SOL     OW 6844   3.101   1.735   6.247
 1982SOL    HW1 6845   3.147   1.707   6.331
 1982SOL    HW2 6846   3.140   1.821   6.213
 1983SOL     OW 6847   0.020   2.188   0.276
 1983SOL    HW1 6848   6.991   2.103   0.286
 1983SOL    HW2 6849   7.015   2.253   0.347
 1984SOL     OW 6850   4.679   3.367   5.988
 1984SOL    HW1 6851   4.665   3.466   5.990
 1984SOL    HW2 6852   4.679   3.331   6.081
 1985SOL     OW 6853   5.005   5.679   5.224
 1985SOL    HW1 6854   4.981   5.671   5.128
 1985SOL    HW2 6855   4.955   5.611   5.277
 1986SOL     OW 6856   3.378   3.220   3.422
 1986SOL    HW1 6857   3.298   3.236   3.364
 1986SOL    HW2 6858   3.458   3.202   3.365
 1987SOL     OW 6859   1.483   2.139   1.806
 1987SOL    HW1 6860   1.433   2.060   1.769
 1987SOL    HW2 6861   1.436   2.223   1.780
 1988SOL     OW 6862   0.938   1.011   1.954
 1988SOL    HW1 6863   0.990   1.086   1.913
 1988SOL    HW2 6864   0.840   1.025   1.937
 1989SOL     OW 6865   3.260   5.011   3.228
 1989SOL    HW1 6866   3.241   5.033   3.324
 1989SOL    HW2 6867   3.220   5.082   3.170
 1990SOL     OW 6868   4.924   0.357   0.387
 1990SOL    HW1 6869   4.836   0.358   0.435
 1990SOL    HW2 6870   4.922   0.287   0.315
 1991SOL     OW 6871   2.980   5.115   2.314
 1991SOL    HW1 6872   2.995   5.168   2.397
 1991SOL    HW2 6873   2.991   5.175   2.234
 1992SOL     OW 6874   0.570   0.944   2.938
 1992SOL    HW1 6875   0.530   0.909   3.023
 1992SOL    HW2 6876   0.498   0.981   2.880
 1993SOL     OW 6877   1.320   0.817   0.817
 1993SOL    HW1 6878   1.391   0.877   0.781
 1993SOL    HW2 6879   1.339   0.797   0.913
 1994SOL     OW 6880   2.863   3.397   2.068
 1994SOL    HW1 6881   2.774   3.355   2.047
 1994SOL    HW2 6882   2.898   3.359   2.153
 1995SOL     OW 6883   6.391   0.676   4.131
 1995SOL    HW1 6884   6.402   0.581   4.103
 1995SOL    HW2 6885   6.309   0.714   4.088
 1996SOL     OW 6886   4.659   0.293   0.921
 1996SOL    HW1 6887   4.653   0.385   0.961
 1996SOL    HW2 6888   4.649   0.225   0.993
 1997SOL     OW 6889   2.837   2.013   2.845
 1997SOL    HW1 6890   2.928   1.974   2.853
 1997SOL    HW2 6891   2.768   1.942   2.859
 1998SOL     OW 6892   2.238   3.592   0.884
 1998SOL    HW1 6893   2.190   3.651   0.948
 1998SOL    HW2 6894   2.296   3.647   0.824
 1999SOL     OW 6895   0.745   0.076   5.325
 1999SOL    HW1 6896   0.720   7.009   5.286
 1999SOL    HW2 6897   0.758   0.066   5.424
 2000SOL     OW 6898   3.974   3.912   6.293
 2000SOL    HW1 6899   4.031   3.992   6.314
 2000SOL    HW2 6900   3.879   3.940   6.288
 2001SOL     OW 6901   1.167   1.242   0.417
 2001SOL    HW1 6902   1.146   1.193   0.332
 2001SOL    HW2 6903   1.094   1.307   0.436
 2002SOL     OW 6904   5.245   5.241   6.776
 2002SOL    HW1 6905   5.327   5.191   6.747
 2002SOL    HW2 6906   5.165   5.182   6.765
 2003SOL     OW 6907   6.922   5.427   1.985
 2003SOL    HW1 6908   6.873   5.497   2.036
 2003SOL    HW2 6909   6.996   5.390   2.040
 2004SOL     OW 6910   3.256   0.872   2.720
 2004SOL    HW1 6911   3.235   0.801   2.786
 2004SOL    HW2 6912   3.240   0.962   2.760
 2005SOL     OW 6913   1.353   6.514   6.608
 2005SOL    HW1 6914   1.325   6.430   6.653
 2005SOL    HW2 6915   1.450   6.508   6.583
 2006SOL     OW 6916   6.441   0.528   2.274
 2006SOL    HW1 6917   6.473   0.436   2.297
 2006SOL    HW2 6918   6.462   0.549   2.179
 2007SOL     OW 6919   5.388   4.894   5.671
 2007SOL    HW1 6920   5.360   4.986   5.641
 2007SOL    HW2 6921   5.320   4.859   5.735
 2008SOL     OW 6922   1.613   2.443   2.997
 2008SOL    HW1 6923   1.555   2.499   2.938
 2008SOL    HW2 6924   1.706   2.442   2.961
 2009SOL     OW 6925   5.971   0.268   3.723
 2009SOL    HW1 6926   5.944   0.316   3.806
 2009SOL    HW2 6927   6.010   0.334   3.658
 2010SOL     OW 6928   6.418   1.043   1.595
 2010SOL    HW1 6929   6.334   1.063   1.645
 2010SOL    HW2 6930   6.492   1.102   1.630
 2011SOL     OW 6931   0.604   0.288   5.207
 2011SOL    HW1 6932   0.640   0.197   5.231
 2011SOL    HW2 6933   0.508   0.280   5.180
 2012SOL     OW 6934   0.395   2.634   0.495
 2012SOL    HW1 6935   0.491   2.631   0.470
 2012SOL    HW2 6936   0.381   2.590   0.584
 2013SOL     OW 6937   0.601   2.306   2.099
 2013SOL    HW1 6938   0.591   2.382   2.163
 2013SOL    HW2 6939   0.527   2.310   2.032
 2014SOL     OW 6940   4.486   2.213   2.966
 2014SOL    HW1 6941   4.487   2.290   3.031
 2014SOL    HW2 6942   4.464   2.129   3.015
 2015SOL     OW 6943   3.877   5.946   1.002
 2015SOL    HW1 6944   3.791   5.897   0.990
 2015SOL    HW2 6945   3.945   5.912   0.937
 2016SOL     OW 6946   2.460   0.567   4.135
 2016SOL    HW1 6947   2.410   0.651   4.112
 2016SOL    HW2 6948   2.485   0.568   4.231
 2017SOL     OW 6949   0.951   6.782   4.794
 2017SOL    HW1 6950   0.876   6.717   4.805
 2017SOL    HW2 6951   0.932   6.842   4.717
 2018SOL     OW 6952   0.528   1.567   4.787
 2018SOL    HW1 6953   0.553   1.472   4.770
 2018SOL    HW2 6954   0.607   1.626   4.770
 2019SOL     OW 6955   0.975   4.614   0.297
 2019SOL    HW1 6956   0.937   4.681   0.233
 2019SOL    HW2 6957   0.922   4.529   0.293
 2020SOL     OW 6958   2.114   6.975   1.530
 2020SOL    HW1 6959   2.054   7.018   1.462
 2020SOL    HW2 6960   2.157   6.894   1.490
 2021SOL     OW 6961   6.800   5.184   3.749
 2021SOL    HW1 6962   6.714   5.133   3.741
 2021SOL    HW2 6963   6.872   5.123   3.780
 2022SOL     OW 6964   2.079   3.176   4.076
 2022SOL    HW1 6965   2.060   3.079   4.090
 2022SOL    HW2 6966   2.077   3.196   3.978
 2023SOL     OW 6967   1.400   5.590   6.006
 2023SOL    HW1 6968   1.403   5.618   6.102
 2023SOL    HW2 6969   1.305   5.572   5.980
 2024SOL     OW 6970   6.124   5.156   3.293
 2024SOL    HW1 6971   6.109   5.103   3.210
 2024SOL    HW2 6972   6.188   5.107   3.353
 2025SOL     OW 6973   2.220   0.381   4.943
 2025SOL    HW1 6974   2.147   0.400   4.877
 2025SOL    HW2 6975   2.235   0.282   4.950
 2026SOL     OW 6976   1.750   6.535   5.752
 2026SOL    HW1 6977   1.825   6.506   5.694
 2026SOL    HW2 6978   1.787   6.576   5.836
 2027SOL     OW 6979   5.584   6.840   2.944
 2027SOL    HW1 6980   5.567   6.743   2.960
 2027SOL    HW2 6981   5.621   6.852   2.852
 2028SOL     OW 6982   2.601   5.757   4.921
 2028SOL    HW1 6983   2.541   5.771   4.999
 2028SOL    HW2 6984   2.554   5.784   4.837
 2029SOL     OW 6985   6.791   1.802   6.691
 2029SOL    HW1 6986   6.717   1.852   6.646
 2029SOL    HW2 6987   6.849   1.759   6.623
 2030SOL     OW 6988   1.196   6.191   2.661
 2030SOL    HW1 6989   1.206   6.155   2.753
 2030SOL    HW2 6990   1.113   6.154   2.620
 2031SOL     OW 6991   0.045   1.033   3.731
 2031SOL    HW1 6992   7.005   0.965   3.769
 2031SOL    HW2 6993   7.016   1.093   3.670
 2032SOL     OW 6994   2.782   2.762   6.090
 2032SOL    HW1 6995   2.735   2.686   6.135
 2032SOL    HW2 6996   2.871   2.777   6.134
 2033SOL     OW 6997   3.599   7.007   1.105
 2033SOL    HW1 6998   3.651   0.070   1.114
 2033SOL    HW2 6999   3.524   7.021   1.041
 2034SOL     OW 7000   0.649   3.823   5.365
 2034SOL    HW1 7001   0.722   3.891   5.365
 2034SOL    HW2 7002   0.665   3.755   5.436
 2035SOL     OW 7003   4.625   6.284   2.816
 2035SOL    HW1 7004   4.631   6.340   2.898
 2035SOL    HW2 7005   4.536   6.238   2.814
 2036SOL     OW 7006   6.956   3.982   5.686
 2036SOL    HW1 7007   7.016   3.966   5.764
 2036SOL    HW2 7008   6.880   3.917   5.688
 2037SOL     OW 7009   0.741   2.283   6.585
 2037SOL    HW1 7010   0.774   2.308   6.494
 2037SOL    HW2 7011   0.645   2.308   6.593
 2038SOL     OW 7012   2.467   0.935   6.025
 2038SOL    HW1 7013   2.566   0.933   6.010
 2038SOL    HW2 7014   2.443   1.013   6.082
 2039SOL     OW 7015   4.878   6.175   4.239
 2039SOL    HW1 7016   4.957   6.185   4.299
 2039SOL    HW2 7017   4.842   6.082   4.247
 2040SOL     OW 7018   3.015   1.595   0.915
 2040SOL    HW1 7019   3.095   1.540   0.938
 2040SOL    HW2 7020   2.955   1.601   0.995
 2041SOL     OW 7021   2.311   0.027   6.538
 2041SOL    HW1 7022   2.331   0.105   6.597
 2041SOL    HW2 7023   2.263   0.058   6.456
 2042SOL     OW 7024   0.063   0.347   5.609
 2042SOL    HW1 7025   0.019   0.375   5.524
 2042SOL    HW2 7026   0.027   0.400   5.685
 2043SOL     OW 7027   1.594   2.849   0.818
 2043SOL    HW1 7028   1.619   2.929   0.763
 2043SOL    HW2 7029   1.675   2.815   0.865
 2044SOL     OW 7030   2.845   1.383   1.767
 2044SOL    HW1 7031   2.895   1.315   1.820
 2044SOL    HW2 7032   2.797   1.339   1.691
 2045SOL     OW 7033   1.662   6.365   3.940
 2045SOL    HW1 7034   1.610   6.373   3.855
 2045SOL    HW2 7035   1.757   6.390   3.924
 2046SOL     OW 7036   6.728   2.081   5.446
 2046SOL    HW1 7037   6.780   1.996   5.457
 2046SOL    HW2 7038   6.716   2.124   5.535
 2047SOL     OW 7039   6.722   0.070   1.853
 2047SOL    HW1 7040   6.745   0.012   1.932
 2047SOL    HW2 7041   6.666   0.146   1.883
 2048SOL     OW 7042   2.118   0.888   3.726
 2048SOL    HW1 7043   2.096   0.886   3.824
 2048SOL    HW2 7044   2.066   0.817   3.679
 2049SOL     OW 7045   4.485   2.579   5.079
 2049SOL    HW1 7046   4.466   2.676   5.069
 2049SOL    HW2 7047   4.579   2.565   5.107
 2050SOL     OW 7048   6.632   1.236   2.959
 2050SOL    HW1 7049   6.642   1.281   2.870
 2050SOL    HW2 7050   6.717   1.189   2.983
 2051SOL     OW 7051   3.646   6.916   6.400
 2051SOL    HW1 7052   3.552   6.944   6.381
 2051SOL    HW2 7053   3.706   6.947   6.326
 2052SOL     OW 7054   0.479   4.177   1.073
 2052SOL    HW1 7055   0.445   4.247   1.134
 2052SOL    HW2 7056   0.492   4.215   0.981
 2053SOL     OW 7057   4.652   4.763   1.563
 2053SOL    HW1 7058   4.724   4.710   1.609
 2053SOL    HW2 7059   4.693   4.818   1.491
 2054SOL     OW 7060   3.196   3.558   4.015
 2054SOL    HW1 7061   3.209   3.634   3.953
 2054SOL    HW2 7062   3.112   3.571   4.067
 2055SOL     OW 7063   2.699   3.105   5.613
 2055SOL    HW1 7064   2.684   3.177   5.681
 2055SOL    HW2 7065   2.725   3.020   5.660
 2056SOL     OW 7066   3.063   5.363   1.088
 2056SOL    HW1 7067   3.052   5.462   1.098
 2056SOL    HW2 7068   3.146   5.344   1.036
 2057SOL     OW 7069   6.196   3.265   4.596
 2057SOL    HW1 7070   6.278   3.244   4.542
 2057SOL    HW2 7071   6.142   3.182   4.609
 2058SOL     OW 7072   5.037   1.403   2.743
 2058SOL    HW1 7073   5.045   1.490   2.791
 2058SOL    HW2 7074   5.108   1.396   2.673
 2059SOL     OW 7075   2.472   1.926   5.685
 2059SOL    HW1 7076   2.457   2.019   5.719
 2059SOL    HW2 7077   2.556   1.889   5.725
 2060SOL     OW 7078   1.447   2.343   5.766
 2060SOL    HW1 7079   1.406   2.293   5.842
 2060SOL    HW2 7080   1.509   2.413   5.802
 2061SOL     OW 7081   2.755   2.348   3.354
 2061SOL    HW1 7082   2.735   2.291   3.433
 2061SOL    HW2 7083   2.845   2.324   3.318
 2062SOL     OW 7084   4.411   4.967   4.278
 2062SOL    HW1 7085   4.414   4.894   4.346
 2062SOL    HW2 7086   4.357   4.936   4.199
 2063SOL     OW 7087   1.252   1.372   4.087
 2063SOL    HW1 7088   1.212   1.442   4.146
 2063SOL    HW2 7089   1.316   1.415   4.024
 2064SOL     OW 7090   0.646   4.121   4.672
 2064SOL    HW1 7091   0.701   4.109   4.755
 2064SOL    HW2 7092   0.557   4.160   4.697
 2065SOL     OW 7093   2.972   3.085   5.519
 2065SOL    HW1 7094   3.029   3.021   5.467
 2065SOL    HW2 7095   2.876   3.066   5.498
 2066SOL     OW 7096   2.759   2.341   4.798
 2066SOL    HW1 7097   2.776   2.388   4.712
 2066SOL    HW2 7098   2.682   2.278   4.788
 2067SOL     OW 7099   5.770   4.772   2.942
 2067SOL    HW1 7100   5.836   4.835   2.901
 2067SOL    HW2 7101   5.680   4.787   2.902
 2068SOL     OW 7102   2.493   6.785   3.905
 2068SOL    HW1 7103   2.485   6.873   3.859
 2068SOL    HW2 7104   2.590   6.763   3.917
 2069SOL     OW 7105   5.284   1.387   2.628
 2069SOL    HW1 7106   5.346   1.444   2.681
 2069SOL    HW2 7107   5.263   1.431   2.541
 2070SOL     OW 7108   0.653   5.978   2.009
 2070SOL    HW1 7109   0.591   6.035   1.956
 2070SOL    HW2 7110   0.621   5.972   2.103
 2071SOL     OW 7111   6.838   2.584   3.656
 2071SOL    HW1 7112   6.898   2.663   3.669
 2071SOL    HW2 7113   6.812   2.547   3.744
 2072SOL     OW 7114   5.070   2.862   6.231
 2072SOL    HW1 7115   5.006   2.859   6.155
 2072SOL    HW2 7116   5.075   2.772   6.275
 2073SOL     OW 7117   3.201   5.808   6.361
 2073SOL    HW1 7118   3.155   5.740   6.304
 2073SOL    HW2 7119   3.293   5.777   6.383
 2074SOL     OW 7120   3.419   4.360   5.621
 2074SOL    HW1 7121   3.463   4.380   5.709
 2074SOL    HW2 7122   3.321   4.346   5.635
 2075SOL     OW 7123   4.803   0.757   1.155
 2075SOL    HW1 7124   4.829   0.791   1.245
 2075SOL    HW2 7125   4.703   0.750   1.149
 2076SOL     OW 7126   6.285   0.391   3.224
 2076SOL    HW1 7127   6.372   0.360   3.185
 2076SOL    HW2 7128   6.230   0.435   3.154
 2077SOL     OW 7129   0.977   4.354   1.478
 2077SOL    HW1 7130   0.890   4.366   1.525
 2077SOL    HW2 7131   0.965   4.294   1.399
 2078SOL     OW 7132   0.350   2.899   0.606
 2078SOL    HW1 7133   0.412   2.921   0.681
 2078SOL    HW2 7134   0.372   2.808   0.570
 2079SOL     OW 7135   4.694   1.603   3.942
 2079SOL    HW1 7136   4.716   1.517   3.896
 2079SOL    HW2 7137   4.742   1.678   3.895
 2080SOL     OW 7138   2.372   2.824   4.251
 2080SOL    HW1 7139   2.274   2.809   4.262
 2080SOL    HW2 7140   2.396   2.822   4.154
 2081SOL     OW 7141   0.335   6.308   2.795
 2081SOL    HW1 7142   0.270   6.291   2.869
 2081SOL    HW2 7143   0.358   6.221   2.750
 2082SOL     OW 7144   6.378   6.468   3.775
 2082SOL    HW1 7145   6.435   6.550   3.782
 2082SOL    HW2 7146   6.366   6.445   3.678
 2083SOL     OW 7147   1.132   5.931   2.868
 2083SOL    HW1 7148   1.134   5.863   2.794
 2083SOL    HW2 7149   1.060   5.907   2.933
 2084SOL     OW 7150   6.381   2.044   1.124
 2084SOL    HW1 7151   6.417   2.129   1.087
 2084SOL    HW2 7152   6.334   1.993   1.052
 2085SOL     OW 7153   6.986   5.272   6.631
 2085SOL    HW1 7154   7.014   5.176   6.635
 2085SOL    HW2 7155   6.895   5.282   6.672
 2086SOL     OW 7156   5.334   1.416   5.211
 2086SOL    HW1 7157   5.266   1.489   5.216
 2086SOL    HW2 7158   5.425   1.455   5.207
 2087SOL     OW 7159   4.686   1.185   5.931
 2087SOL    HW1 7160   4.730   1.112   5.879
 2087SOL    HW2 7161   4.623   1.146   5.997
 2088SOL     OW 7162   1.003   3.950   5.816
 2088SOL    HW1 7163   1.005   3.965   5.717
 2088SOL    HW2 7164   1.038   4.031   5.863
 2089SOL     OW 7165   3.020   5.150   3.733
 2089SOL    HW1 7166   2.943   5.174   3.793
 2089SOL    HW2 7167   3.106   5.163   3.782
 2090SOL     OW 7168   5.652   2.731   6.139
 2090SOL    HW1 7169   5.677   2.824   6.168
 2090SOL    HW2 7170   5.579   2.696   6.198
 2091SOL     OW 7171   5.649   0.097   0.603
 2091SOL    HW1 7172   5.737   0.124   0.644
 2091SOL    HW2 7173   5.617   0.169   0.543
 2092SOL     OW 7174   3.375   3.226   2.671
 2092SOL    HW1 7175   3.472   3.246   2.683
 2092SOL    HW2 7176   3.364   3.131   2.643
 2093SOL     OW 7177   5.903   6.903   6.329
 2093SOL    HW1 7178   5.997   6.871   6.334
 2093SOL    HW2 7179   5.841   6.825   6.333
 2094SOL     OW 7180   4.579   2.690   0.854
 2094SOL    HW1 7181   4.507   2.711   0.920
 2094SOL    HW2 7182   4.639   2.619   0.892
 2095SOL     OW 7183   3.933   5.911   4.560
 2095SOL    HW1 7184   3.880   5.833   4.530
 2095SOL    HW2 7185   3.933   5.915   4.660
 2096SOL     OW 7186   3.361   0.574   3.214
 2096SOL    HW1 7187   3.291   0.514   3.253
 2096SOL    HW2 7188   3.357   0.663   3.260
 2097SOL     OW 7189   2.832   5.587   5.967
 2097SOL    HW1 7190   2.834   5.683   5.996
 2097SOL    HW2 7191   2.876   5.578   5.877
 2098SOL     OW 7192   1.415   0.108   4.174
 2098SOL    HW1 7193   1.370   0.090   4.261
 2098SOL    HW2 7194   1.379   0.192   4.135
 2099SOL     OW 7195   4.591   1.574   6.829
 2099SOL    HW1 7196   4.653   1.648   6.854
 2099SOL    HW2 7197   4.595   1.558   6.731
 2100SOL     OW 7198   4.908   6.965   0.693
 2100SOL    HW1 7199   4.965   7.020   0.632
 2100SOL    HW2 7200   4.814   6.963   0.659
 2101SOL     OW 7201   0.415   0.257   3.289
 2101SOL    HW1 7202   0.382   0.172   3.248
 2101SOL    HW2 7203   0.436   0.324   3.218
 2102SOL     OW 7204   3.566   2.929   2.709
 2102SOL    HW1 7205   3.626   2.883   2.644
 2102SOL    HW2 7206   3.472   2.930   2.674
 2103SOL     OW 7207   1.353   0.383   1.034
 2103SOL    HW1 7208   1.300   0.444   1.093
 2103SOL    HW2 7209   1.451   0.402   1.046
 2104SOL     OW 7210   0.885   4.642   2.680
 2104SOL    HW1 7211   0.956   4.626   2.750
 2104SOL    HW2 7212   0.925   4.630   2.589
 2105SOL     OW 7213   5.506   6.277   5.831
 2105SOL    HW1 7214   5.496   6.200   5.767
 2105SOL    HW2 7215   5.557   6.350   5.787
 2106SOL     OW 7216   3.287   4.020   1.096
 2106SOL    HW1 7217   3.350   4.096   1.107
 2106SOL    HW2 7218   3.335   3.934   1.115
 2107SOL     OW 7219   5.833   3.859   4.248
 2107SOL    HW1 7220   5.822   3.939   4.189
 2107SOL    HW2 7221   5.923   3.818   4.232
 2108SOL     OW 7222   3.860   6.680   5.049
 2108SOL    HW1 7223   3.865   6.642   5.141
 2108SOL    HW2 7224   3.770   6.720   5.034
 2109SOL     OW 7225   2.530   6.467   2.588
 2109SOL    HW1 7226   2.454   6.492   2.648
 2109SOL    HW2 7227   2.493   6.423   2.506
 2110SOL     OW 7228   4.018   6.165   0.527
 2110SOL    HW1 7229   4.041   6.198   0.619
 2110SOL    HW2 7230   3.939   6.105   0.532
 2111SOL     OW 7231   0.653   2.671   0.341
 2111SOL    HW1 7232   0.722   2.619   0.391
 2111SOL    HW2 7233   0.681   2.767   0.335
 2112SOL     OW 7234   0.368   0.295   6.101
 2112SOL    HW1 7235   0.440   0.226   6.109
 2112SOL    HW2 7236   0.285   0.262   6.146
 2113SOL     OW 7237   0.081   1.581   4.307
 2113SOL    HW1 7238   0.119   1.562   4.217
 2113SOL    HW2 7239   7.009   1.614   4.298
 2114SOL     OW 7240   2.438   0.619   5.335
 2114SOL    HW1 7241   2.465   0.664   5.420
 2114SOL    HW2 7242   2.470   0.673   5.257
 2115SOL     OW 7243   0.151   0.520   4.340
 2115SOL    HW1 7244   0.249   0.530   4.323
 2115SOL    HW2 7245   0.114   0.606   4.375
 2116SOL     OW 7246   2.933   6.470   6.737
 2116SOL    HW1 7247   3.000   6.416   6.686
 2116SOL    HW2 7248   2.891   6.412   6.807
 2117SOL     OW 7249   0.063   2.881   1.242
 2117SOL    HW1 7250   0.126   2.876   1.319
 2117SOL    HW2 7251   6.993   2.905   1.275
 2118SOL     OW 7252   0.184   3.804   2.733
 2118SOL    HW1 7253   0.151   3.730   2.675
 2118SOL    HW2 7254   0.281   3.790   2.753
 2119SOL     OW 7255   1.514   2.257   6.857
 2119SOL    HW1 7256   1.594   2.243   6.799
 2119SOL    HW2 7257   1.436   2.209   6.818
 2120SOL     OW 7258   5.976   1.459   0.679
 2120SOL    HW1 7259   6.047   1.422   0.618
 2120SOL    HW2 7260   5.901   1.394   0.685
 2121SOL     OW 7261   2.433   6.177   2.572
 2121SOL    HW1 7262   2.417   6.181   2.473
 2121SOL    HW2 7263   2.347   6.161   2.619
 2122SOL     OW 7264   0.277   2.377   5.283
 2122SOL    HW1 7265   0.367   2.354   5.320
 2122SOL    HW2 7266   0.288   2.436   5.203
 2123SOL     OW 7267   1.080   4.366   3.033
 2123SOL    HW1 7268   1.018   4.289   3.019
 2123SOL    HW2 7269   1.174   4.333   3.039
 2124SOL     OW 7270   6.115   3.696   6.644
 2124SOL    HW1 7271   6.175   3.727   6.570
 2124SOL    HW2 7272   6.033   3.754   6.647
 2125SOL     OW 7273   2.667   5.347   5.927
 2125SOL    HW1 7274   2.607   5.354   5.847
 2125SOL    HW2 7275   2.733   5.422   5.925
 2126SOL     OW 7276   2.265   6.059   2.215
 2126SOL    HW1 7277   2.355   6.089   2.184
 2126SOL    HW2 7278   2.200   6.135   2.207
 2127SOL     OW 7279   1.751   3.319   4.104
 2127SOL    HW1 7280   1.721   3.295   4.196
 2127SOL    HW2 7281   1.809   3.246   4.068
 2128SOL     OW 7282   5.592   2.854   1.347
 2128SOL    HW1 7283   5.664   2.904   1.395
 2128SOL    HW2 7284   5.565   2.905   1.265
 2129SOL     OW 7285   5.427   4.961   4.323
 2129SOL    HW1 7286   5.460   4.903   4.397
 2129SOL    HW2 7287   5.470   5.051   4.329
 2130SOL     OW 7288   2.497   0.399   2.726
 2130SOL    HW1 7289   2.586   0.357   2.705
 2130SOL    HW2 7290   2.483   0.478   2.666
 2131SOL     OW 7291   5.771   6.847   5.902
 2131SOL    HW1 7292   5.779   6.915   5.974
 2131SOL    HW2 7293   5.855   6.846   5.847
 2132SOL     OW 7294   3.021   1.901   0.746
 2132SOL    HW1 7295   2.921   1.901   0.745
 2132SOL    HW2 7296   3.054   1.852   0.827
 2133SOL     OW 7297   3.761   2.977   2.213
 2133SOL    HW1 7298   3.853   2.986   2.175
 2133SOL    HW2 7299   3.724   3.068   2.233
 2134SOL     OW 7300   2.399   6.976   4.668
 2134SOL    HW1 7301   2.303   6.998   4.688
 2134SOL    HW2 7302   2.458   0.026   4.703
 2135SOL     OW 7303   6.983   5.559   4.064
 2135SOL    HW1 7304   6.923   5.486   4.030
 2135SOL    HW2 7305   6.961   5.578   4.160
 2136SOL     OW 7306   0.147   4.548   3.622
 2136SOL    HW1 7307   0.119   4.615   3.553
 2136SOL    HW2 7308   0.219   4.588   3.679
 2137SOL     OW 7309   6.815   0.353   4.594
 2137SOL    HW1 7310   6.814   0.334   4.692
 2137SOL    HW2 7311   6.748   0.424   4.573
 2138SOL     OW 7312   0.684   1.866   0.181
 2138SOL    HW1 7313   0.643   1.912   0.259
 2138SOL    HW2 7314   0.711   1.933   0.112
 2139SOL     OW 7315   4.069   6.260   4.621
 2139SOL    HW1 7316   4.096   6.182   4.565
 2139SOL    HW2 7317   4.125   6.339   4.597
 2140SOL     OW 7318   1.317   5.970   3.695
 2140SOL    HW1 7319   1.411   5.993   3.719
 2140SOL    HW2 7320   1.271   5.930   3.774
 2141SOL     OW 7321   0.098   0.526   6.904
 2141SOL    HW1 7322   0.003   0.519   6.871
 2141SOL    HW2 7323   0.153   0.576   6.837
 2142SOL     OW 7324   4.179   1.357   2.786
 2142SOL    HW1 7325   4.273   1.333   2.807
 2142SOL    HW2 7326   4.146   1.303   2.709
 2143SOL     OW 7327   3.368   5.074   6.781
 2143SOL    HW1 7328   3.405   5.062   6.689
 2143SOL    HW2 7329   3.440   5.054   6.848
 2144SOL     OW 7330   0.989   1.423   2.011
 2144SOL    HW1 7331   0.953   1.515   2.022
 2144SOL    HW2 7332   0.928   1.358   2.057
 2145SOL     OW 7333   2.492   6.135   3.212
 2145SOL    HW1 7334   2.455   6.170   3.298
 2145SOL    HW2 7335   2.557   6.061   3.232
 2146SOL     OW 7336   2.356   1.838   1.504
 2146SOL    HW1 7337   2.307   1.780   1.568
 2146SOL    HW2 7338   2.296   1.914   1.476
 2147SOL     OW 7339   6.799   0.513   3.994
 2147SOL    HW1 7340   6.724   0.541   4.054
 2147SOL    HW2 7341   6.878   0.572   4.010
 2148SOL     OW 7342   6.739   4.780   3.857
 2148SOL    HW1 7343   6.742   4.681   3.846
 2148SOL    HW2 7344   6.832   4.817   3.853
 2149SOL     OW 7345   1.863   1.590   2.011
 2149SOL    HW1 7346   1.773   1.551   1.989
 2149SOL    HW2 7347   1.857   1.641   2.097
 2150SOL     OW 7348   5.672   1.107   3.271
 2150SOL    HW1 7349   5.641   1.120   3.177
 2150SOL    HW2 7350   5.668   1.010   3.294
 2151SOL     OW 7351   5.183   4.678   5.331
 2151SOL    HW1 7352   5.184   4.599   5.270
 2151SOL    HW2 7353   5.117   4.663   5.405
 2152SOL     OW 7354   6.974   6.306   2.796
 2152SOL    HW1 7355   7.016   6.335   2.882
 2152SOL    HW2 7356   6.969   6.206   2.793
 2153SOL     OW 7357   4.193   2.238   3.385
 2153SOL    HW1 7358   4.202   2.144   3.418
 2153SOL    HW2 7359   4.242   2.300   3.445
 2154SOL     OW 7360   4.411   0.523   3.650
 2154SOL    HW1 7361   4.453   0.591   3.710
 2154SOL    HW2 7362   4.467   0.512   3.568
 2155SOL     OW 7363   5.750   3.435   1.094
 2155SOL    HW1 7364   5.815   3.510   1.093
 2155SOL    HW2 7365   5.721   3.415   1.000
 2156SOL     OW 7366   6.108   5.629   2.807
 2156SOL    HW1 7367   6.156   5.644   2.893
 2156SOL    HW2 7368   6.086   5.717   2.764
 2157SOL     OW 7369   4.889   1.542   4.462
 2157SOL    HW1 7370   4.904   1.605   4.385
 2157SOL    HW2 7371   4.794   1.547   4.491
 2158SOL     OW 7372   4.710   1.157   3.291
 2158SOL    HW1 7373   4.805   1.145   3.263
 2158SOL    HW2 7374   4.657   1.077   3.264
 2159SOL     OW 7375   2.418   1.846   4.458
 2159SOL    HW1 7376   2.362   1.890   4.527
 2159SOL    HW2 7377   2.496   1.802   4.502
 2160SOL     OW 7378   2.210   4.188   1.257
 2160SOL    HW1 7379   2.128   4.190   1.200
 2160SOL    HW2 7380   2.287   4.154   1.204
 2161SOL     OW 7381   4.621   2.493   1.918
 2161SOL    HW1 7382   4.550   2.480   1.988
 2161SOL    HW2 7383   4.699   2.434   1.938
 2162SOL     OW 7384   1.653   1.329   2.596
 2162SOL    HW1 7385   1.685   1.416   2.634
 2162SOL    HW2 7386   1.687   1.253   2.651
 2163SOL     OW 7387   4.703   1.543   0.943
 2163SOL    HW1 7388   4.684   1.635   0.910
 2163SOL    HW2 7389   4.723   1.547   1.042
 2164SOL     OW 7390   6.287   0.199   2.277
 2164SOL    HW1 7391   6.309   0.136   2.351
 2164SOL    HW2 7392   6.188   0.211   2.271
 2165SOL     OW 7393   1.751   6.838   2.201
 2165SOL    HW1 7394   1.661   6.871   2.227
 2165SOL    HW2 7395   1.759   6.740   2.222
 2166SOL     OW 7396   6.118   2.419   5.519
 2166SOL    HW1 7397   6.123   2.324   5.487
 2166SOL    HW2 7398   6.024   2.454   5.507
 2167SOL     OW 7399   3.456   1.324   1.637
 2167SOL    HW1 7400   3.512   1.346   1.556
 2167SOL    HW2 7401   3.456   1.403   1.698
 2168SOL     OW 7402   5.177   6.230   4.385
 2168SOL    HW1 7403   5.205   6.222   4.481
 2168SOL    HW2 7404   5.160   6.139   4.348
 2169SOL     OW 7405   5.278   2.954   5.563
 2169SOL    HW1 7406   5.241   3.029   5.508
 2169SOL    HW2 7407   5.227   2.870   5.543
 2170SOL     OW 7408   4.914   5.448   4.554
 2170SOL    HW1 7409   4.840   5.458   4.620
 2170SOL    HW2 7410   4.890   5.497   4.470
 2171SOL     OW 7411   0.276   2.983   0.244
 2171SOL    HW1 7412   0.282   3.044   0.323
 2171SOL    HW2 7413   0.195   3.005   0.190
 2172SOL     OW 7414   2.225   0.598   3.470
 2172SOL    HW1 7415   2.266   0.508   3.482
 2172SOL    HW2 7416   2.232   0.626   3.374
 2173SOL     OW 7417   4.367   1.958   4.698
 2173SOL    HW1 7418   4.305   1.974   4.621
 2173SOL    HW2 7419   4.337   1.878   4.749
 2174SOL     OW 7420   1.203   5.577   5.477
 2174SOL    HW1 7421   1.157   5.638   5.541
 2174SOL    HW2 7422   1.177   5.601   5.384
 2175SOL     OW 7423   0.562   0.658   6.953
 2175SOL    HW1 7424   0.650   0.662   7.000
 2175SOL    HW2 7425   0.557   0.730   6.884
 2176SOL     OW 7426   1.995   1.824   3.003
 2176SOL    HW1 7427   1.923   1.870   3.055
 2176SOL    HW2 7428   1.974   1.828   2.905
 2177SOL     OW 7429   0.907   1.678   2.007
 2177SOL    HW1 7430   0.961   1.758   2.035
 2177SOL    HW2 7431   0.854   1.701   1.926
 2178SOL     OW 7432   6.585   5.572   0.177
 2178SOL    HW1 7433   6.619   5.547   0.086
 2178SOL    HW2 7434   6.635   5.521   0.247
 2179SOL     OW 7435   2.015   3.691   3.927
 2179SOL    HW1 7436   2.058   3.610   3.968
 2179SOL    HW2 7437   2.055   3.706   3.836
 2180SOL     OW 7438   3.038   3.079   2.694
 2180SOL    HW1 7439   3.070   3.023   2.770
 2180SOL    HW2 7440   3.072   3.173   2.706
 2181SOL     OW 7441   3.893   6.186   1.380
 2181SOL    HW1 7442   3.909   6.233   1.467
 2181SOL    HW2 7443   3.844   6.247   1.318
 2182SOL     OW 7444   4.648   3.809   6.893
 2182SOL    HW1 7445   4.627   3.888   6.951
 2182SOL    HW2 7446   4.610   3.824   6.802
 2183SOL     OW 7447   4.428   2.078   1.908
 2183SOL    HW1 7448   4.352   2.128   1.950
 2183SOL    HW2 7449   4.451   2.119   1.820
 2184SOL     OW 7450   4.042   2.524   6.007
 2184SOL    HW1 7451   4.134   2.558   5.987
 2184SOL    HW2 7452   4.027   2.525   6.106
 2185SOL     OW 7453   6.804   6.937   2.076
 2185SOL    HW1 7454   6.794   6.846   2.037
 2185SOL    HW2 7455   6.898   6.950   2.109
 2186SOL     OW 7456   6.481   4.544   3.004
 2186SOL    HW1 7457   6.572   4.505   3.014
 2186SOL    HW2 7458   6.435   4.503   2.925
 2187SOL     OW 7459   6.745   0.070   0.109
 2187SOL    HW1 7460   6.824   0.053   0.050
 2187SOL    HW2 7461   6.761   0.028   0.199
 2188SOL     OW 7462   4.456   2.239   3.942
 2188SOL    HW1 7463   4.419   2.228   3.849
 2188SOL    HW2 7464   4.552   2.213   3.943
 2189SOL     OW 7465   3.261   0.447   6.071
 2189SOL    HW1 7466   3.257   0.538   6.030
 2189SOL    HW2 7467   3.174   0.427   6.116
 2190SOL     OW 7468   6.128   3.294   1.378
 2190SOL    HW1 7469   6.038   3.255   1.358
 2190SOL    HW2 7470   6.176   3.236   1.443
 2191SOL     OW 7471   3.381   0.357   0.117
 2191SOL    HW1 7472   3.285   0.362   0.088
 2191SOL    HW2 7473   3.385   0.330   0.213
 2192SOL     OW 7474   4.404   6.457   2.455
 2192SOL    HW1 7475   4.340   6.389   2.417
 2192SOL    HW2 7476   4.354   6.540   2.479
 2193SOL     OW 7477   0.125   6.549   4.334
 2193SOL    HW1 7478   0.067   6.610   4.281
 2193SOL    HW2 7479   0.219   6.582   4.333
 2194SOL     OW 7480   2.395   0.213   2.999
 2194SOL    HW1 7481   2.302   0.178   3.013
 2194SOL    HW2 7482   2.450   0.145   2.952
 2195SOL     OW 7483   0.454   4.747   2.655
 2195SOL    HW1 7484   0.536   4.781   2.609
 2195SOL    HW2 7485   0.471   4.740   2.753
 2196SOL     OW 7486   4.411   3.878   6.288
 2196SOL    HW1 7487   4.414   3.792   6.339
 2196SOL    HW2 7488   4.320   3.890   6.249
 2197SOL     OW 7489   4.841   3.405   0.651
 2197SOL    HW1 7490   4.901   3.456   0.590
 2197SOL    HW2 7491   4.868   3.421   0.746
 2198SOL     OW 7492   1.143   4.773   6.796
 2198SOL    HW1 7493   1.088   4.853   6.820
 2198SOL    HW2 7494   1.115   4.696   6.852
 2199SOL     OW 7495   3.426   1.928   4.121
 2199SOL    HW1 7496   3.496   1.932   4.192
 2199SOL    HW2 7497   3.469   1.903   4.034
 2200SOL     OW 7498   4.641   0.861   4.026
 2200SOL    HW1 7499   4.595   0.813   4.101
 2200SOL    HW2 7500   4.711   0.922   4.063
 2201SOL     OW 7501   4.981   5.404   4.124
 2201SOL    HW1 7502   4.991   5.471   4.197
 2201SOL    HW2 7503   4.986   5.312   4.163
 2202SOL     OW 7504   4.874   6.118   3.929
 2202SOL    HW1 7505   4.807   6.044   3.922
 2202SOL    HW2 7506   4.871   6.157   4.021
 2203SOL     OW 7507   2.425   2.166   3.135
 2203SOL    HW1 7508   2.490   2.130   3.202
 2203SOL    HW2 7509   2.383   2.089   3.086
 2204SOL     OW 7510   4.386   1.968   0.458
 2204SOL    HW1 7511   4.319   1.925   0.519
 2204SOL    HW2 7512   4.350   1.968   0.365
 2205SOL     OW 7513   3.581   0.076   2.585
 2205SOL    HW1 7514   3.578   0.156   2.525
 2205SOL    HW2 7515   3.510   0.011   2.558
 2206SOL     OW 7516   1.699   4.865   0.476
 2206SOL    HW1 7517   1.769   4.872   0.547
 2206SOL    HW2 7518   1.691   4.770   0.447
 2207SOL     OW 7519   6.576   3.378   5.358
 2207SOL    HW1 7520   6.581   3.419   5.267
 2207SOL    HW2 7521   6.667   3.379   5.400
 2208SOL     OW 7522   0.216   5.495   2.394
 2208SOL    HW1 7523   0.306   5.480   2.435
 2208SOL    HW2 7524   0.172   5.406   2.377
 2209SOL     OW 7525   6.488   6.937   2.233
 2209SOL    HW1 7526   6.502   0.005   2.192
 2209SOL    HW2 7527   6.574   6.904   2.270
 2210SOL     OW 7528   2.587   4.596   3.355
 2210SOL    HW1 7529   2.561   4.613   3.260
 2210SOL    HW2 7530   2.679   4.630   3.371
 2211SOL     OW 7531   5.646   0.993   5.314
 2211SOL    HW1 7532   5.586   1.034   5.382
 2211SOL    HW2 7533   5.679   0.904   5.347
 2212SOL     OW 7534   2.576   5.989   5.985
 2212SOL    HW1 7535   2.485   5.974   6.024
 2212SOL    HW2 7536   2.617   6.071   6.026
 2213SOL     OW 7537   4.214   1.070   3.007
 2213SOL    HW1 7538   4.256   1.098   3.094
 2213SOL    HW2 7539   4.268   1.107   2.931
 2214SOL     OW 7540   4.171   6.947   3.731
 2214SOL    HW1 7541   4.131   6.892   3.804
 2214SOL    HW2 7542   4.199   6.888   3.656
 2215SOL     OW 7543   5.789   2.852   6.719
 2215SOL    HW1 7544   5.696   2.854   6.756
 2215SOL    HW2 7545   5.788   2.810   6.628
 2216SOL     OW 7546   3.036   1.080   2.306
 2216SOL    HW1 7547   2.959   1.071   2.242
 2216SOL    HW2 7548   3.029   1.009   2.376
 2217SOL     OW 7549   3.264   6.831   1.319
 2217SOL    HW1 7550   3.242   6.824   1.416
 2217SOL    HW2 7551   3.289   6.925   1.297
 2218SOL     OW 7552   5.875   1.250   1.940
 2218SOL    HW1 7553   5.780   1.277   1.921
 2218SOL    HW2 7554   5.886   1.152   1.920
 2219SOL     OW 7555   1.831   2.481   3.618
 2219SOL    HW1 7556   1.835   2.534   3.534
 2219SOL    HW2 7557   1.749   2.424   3.619
 2220SOL     OW 7558   1.946   6.366   3.877
 2220SOL    HW1 7559   1.989   6.388   3.790
 2220SOL    HW2 7560   1.997   6.411   3.951
 2221SOL     OW 7561   6.854   0.289   4.851
 2221SOL    HW1 7562   6.944   0.331   4.865
 2221SOL    HW2 7563   6.850   0.202   4.901
 2222SOL     OW 7564   4.902   6.168   3.265
 2222SOL    HW1 7565   4.803   6.176   3.256
 2222SOL    HW2 7566   4.940   6.121   3.185
 2223SOL     OW 7567   5.944   6.791   2.011
 2223SOL    HW1 7568   5.872   6.724   1.993
 2223SOL    HW2 7569   5.992   6.766   2.096
 2224SOL     OW 7570   0.496   5.936   1.539
 2224SOL    HW1 7571   0.508   5.850   1.490
 2224SOL    HW2 7572   0.426   5.924   1.610
 2225SOL     OW 7573   0.616   5.050   1.790
 2225SOL    HW1 7574   0.559   4.981   1.835
 2225SOL    HW2 7575   0.557   5.123   1.755
 2226SOL     OW 7576   3.454   3.815   3.508
 2226SOL    HW1 7577   3.441   3.906   3.467
 2226SOL    HW2 7578   3.511   3.760   3.448
 2227SOL     OW 7579   1.793   1.777   5.390
 2227SOL    HW1 7580   1.742   1.692   5.383
 2227SOL    HW2 7581   1.752   1.846   5.330
 2228SOL     OW 7582   1.423   4.189   3.977
 2228SOL    HW1 7583   1.424   4.092   3.953
 2228SOL    HW2 7584   1.339   4.231   3.944
 2229SOL     OW 7585   5.828   5.434   2.204
 2229SOL    HW1 7586   5.784   5.345   2.192
 2229SOL    HW2 7587   5.927   5.421   2.211
 2230SOL     OW 7588   1.875   5.439   2.934
 2230SOL    HW1 7589   1.957   5.492   2.917
 2230SOL    HW2 7590   1.795   5.499   2.939
 2231SOL     OW 7591   1.999   6.353   0.791
 2231SOL    HW1 7592   2.078   6.306   0.831
 2231SOL    HW2 7593   1.950   6.402   0.863
 2232SOL     OW 7594   6.343   3.168   3.571
 2232SOL    HW1 7595   6.367   3.188   3.477
 2232SOL    HW2 7596   6.260   3.112   3.574
 2233SOL     OW 7597   4.024   1.932   0.389
 2233SOL    HW1 7598   3.957   1.896   0.324
 2233SOL    HW2 7599   4.041   2.029   0.369
 2234SOL     OW 7600   4.211   2.756   1.320
 2234SOL    HW1 7601   4.268   2.748   1.402
 2234SOL    HW2 7602   4.169   2.668   1.299
 2235SOL     OW 7603   1.937   3.720   1.848
 2235SOL    HW1 7604   1.983   3.788   1.905
 2235SOL    HW2 7605   1.908   3.762   1.762
 2236SOL     OW 7606   1.549   3.832   5.144
 2236SOL    HW1 7607   1.532   3.833   5.243
 2236SOL    HW2 7608   1.471   3.791   5.098
 2237SOL     OW 7609   5.882   2.315   3.502
 2237SOL    HW1 7610   5.964   2.266   3.532
 2237SOL    HW2 7611   5.860   2.287   3.408
 2238SOL     OW 7612   4.792   5.798   6.438
 2238SOL    HW1 7613   4.758   5.719   6.387
 2238SOL    HW2 7614   4.829   5.865   6.374
 2239SOL     OW 7615   6.837   5.463   1.332
 2239SOL    HW1 7616   6.796   5.506   1.412
 2239SOL    HW2 7617   6.923   5.509   1.309
 2240SOL     OW 7618   0.713   3.735   1.838
 2240SOL    HW1 7619   0.719   3.823   1.791
 2240SOL    HW2 7620   0.738   3.662   1.776
 2241SOL     OW 7621   0.115   0.365   3.546
 2241SOL    HW1 7622   0.112   0.273   3.508
 2241SOL    HW2 7623   0.208   0.401   3.540
 2242SOL     OW 7624   2.265   1.323   3.258
 2242SOL    HW1 7625   2.219   1.358   3.176
 2242SOL    HW2 7626   2.196   1.286   3.322
 2243SOL     OW 7627   1.511   0.445   4.248
 2243SOL    HW1 7628   1.515   0.350   4.280
 2243SOL    HW2 7629   1.489   0.446   4.150
 2244SOL     OW 7630   3.301   0.861   3.801
 2244SOL    HW1 7631   3.365   0.798   3.846
 2244SOL    HW2 7632   3.352   0.920   3.739
 2245SOL     OW 7633   6.898   1.435   0.970
 2245SOL    HW1 7634   6.995   1.456   0.971
 2245SOL    HW2 7635   6.856   1.466   1.056
 2246SOL     OW 7636   0.797   4.477   4.718
 2246SOL    HW1 7637   0.842   4.566   4.708
 2246SOL    HW2 7638   0.865   4.406   4.736
 2247SOL     OW 7639   2.071   2.272   3.980
 2247SOL    HW1 7640   1.988   2.306   4.026
 2247SOL    HW2 7641   2.065   2.292   3.882
 2248SOL     OW 7642   5.415   4.317   5.744
 2248SOL    HW1 7643   5.384   4.333   5.650
 2248SOL    HW2 7644   5.462   4.229   5.749
 2249SOL     OW 7645   5.619   6.182   5.402
 2249SOL    HW1 7646   5.654   6.184   5.495
 2249SOL    HW2 7647   5.535   6.236   5.397
 2250SOL     OW 7648   4.477   5.049   2.488
 2250SOL    HW1 7649   4.437   5.124   2.437
 2250SOL    HW2 7650   4.481   5.073   2.585
 2251SOL     OW 7651   0.386   1.805   5.456
 2251SOL    HW1 7652   0.405   1.895   5.496
 2251SOL    HW2 7653   0.290   1.800   5.430
 2252SOL     OW 7654   4.557   1.007   6.094
 2252SOL    HW1 7655   4.468   1.050   6.082
 2252SOL    HW2 7656   4.568   0.979   6.189
 2253SOL     OW 7657   0.283   3.950   1.320
 2253SOL    HW1 7658   0.319   4.024   1.263
 2253SOL    HW2 7659   0.270   3.868   1.265
 2254SOL     OW 7660   1.625   5.684   5.415
 2254SOL    HW1 7661   1.678   5.659   5.496
 2254SOL    HW2 7662   1.555   5.751   5.439
 2255SOL     OW 7663   6.883   4.144   6.775
 2255SOL    HW1 7664   6.952   4.124   6.705
 2255SOL    HW2 7665   6.828   4.222   6.746
 2256SOL     OW 7666   2.845   5.746   2.945
 2256SOL    HW1 7667   2.912   5.720   2.876
 2256SOL    HW2 7668   2.753   5.721   2.913
 2257SOL     OW 7669   0.716   5.232   6.235
 2257SOL    HW1 7670   0.711   5.272   6.327
 2257SOL    HW2 7671   0.623   5.218   6.200
 2258SOL     OW 7672   1.702   6.780   6.133
 2258SOL    HW1 7673   1.757   6.814   6.209
 2258SOL    HW2 7674   1.653   6.856   6.090
 2259SOL     OW 7675   5.740   1.855   6.483
 2259SOL    HW1 7676   5.674   1.834   6.411
 2259SOL    HW2 7677   5.806   1.921   6.449
 2260SOL     OW 7678   4.598   3.268   1.679
 2260SOL    HW1 7679   4.512   3.311   1.707
 2260SOL    HW2 7680   4.632   3.210   1.753
 2261SOL     OW 7681   1.977   6.336   5.462
 2261SOL    HW1 7682   1.984   6.336   5.362
 2261SOL    HW2 7683   1.913   6.265   5.491
 2262SOL     OW 7684   2.681   1.740   4.588
 2262SOL    HW1 7685   2.767   1.697   4.561
 2262SOL    HW2 7686   2.698   1.835   4.613
 2263SOL     OW 7687   0.895   4.928   6.612
 2263SOL    HW1 7688   0.971   4.916   6.548
 2263SOL    HW2 7689   0.899   4.855   6.681
 2264SOL     OW 7690   3.202   3.363   4.233
 2264SOL    HW1 7691   3.286   3.391   4.279
 2264SOL    HW2 7692   3.190   3.417   4.150
 2265SOL     OW 7693   0.013   6.366   4.081
 2265SOL    HW1 7694   0.083   6.310   4.036
 2265SOL    HW2 7695   0.034   6.374   4.179
 2266SOL     OW 7696   0.041   0.030   4.654
 2266SOL    HW1 7697   0.056   6.971   4.597
 2266SOL    HW2 7698   0.005   0.104   4.597
 2267SOL     OW 7699   6.392   1.861   4.960
 2267SOL    HW1 7700   6.345   1.830   4.877
 2267SOL    HW2 7701   6.435   1.950   4.943
 2268SOL     OW 7702   0.705   7.014   0.177
 2268SOL    HW1 7703   0.684   0.080   0.134
 2268SOL    HW2 7704   0.724   6.946   0.107
 2269SOL     OW 7705   6.810   5.886   2.760
 2269SOL    HW1 7706   6.900   5.927   2.772
 2269SOL    HW2 7707   6.751   5.950   2.711
 2270SOL     OW 7708   2.876   3.649   3.437
 2270SOL    HW1 7709   2.922   3.632   3.524
 2270SOL    HW2 7710   2.826   3.567   3.409
 2271SOL     OW 7711   1.421   3.669   2.269
 2271SOL    HW1 7712   1.480   3.708   2.339
 2271SOL    HW2 7713   1.455   3.696   2.179
 2272SOL     OW 7714   4.508   0.608   5.887
 2272SOL    HW1 7715   4.456   0.560   5.817
 2272SOL    HW2 7716   4.447   0.668   5.938
 2273SOL     OW 7717   6.646   1.323   1.864
 2273SOL    HW1 7718   6.630   1.268   1.782
 2273SOL    HW2 7719   6.666   1.262   1.941
 2274SOL     OW 7720   6.290   4.922   3.709
 2274SOL    HW1 7721   6.214   4.880   3.758
 2274SOL    HW2 7722   6.372   4.921   3.766
 2275SOL     OW 7723   4.089   6.753   3.908
 2275SOL    HW1 7724   4.181   6.727   3.934
 2275SOL    HW2 7725   4.049   6.814   3.977
 2276SOL     OW 7726   4.175   6.187   3.835
 2276SOL    HW1 7727   4.088   6.148   3.863
 2276SOL    HW2 7728   4.245   6.116   3.831
 2277SOL     OW 7729   3.333   2.970   2.573
 2277SOL    HW1 7730   3.256   2.933   2.624
 2277SOL    HW2 7731   3.335   2.928   2.482
 2278SOL     OW 7732   4.053   5.214   1.961
 2278SOL    HW1 7733   4.152   5.200   1.957
 2278SOL    HW2 7734   4.021   5.255   1.876
 2279SOL     OW 7735   6.340   4.712   5.494
 2279SOL    HW1 7736   6.260   4.767   5.519
 2279SOL    HW2 7737   6.377   4.744   5.407
 2280SOL     OW 7738   6.054   0.930   5.585
 2280SOL    HW1 7739   6.033   0.999   5.516
 2280SOL    HW2 7740   6.153   0.928   5.601
 2281SOL     OW 7741   2.208   0.160   0.493
 2281SOL    HW1 7742   2.299   0.122   0.478
 2281SOL    HW2 7743   2.149   0.140   0.415
 2282SOL     OW 7744   3.393   6.890   2.504
 2282SOL    HW1 7745   3.320   6.898   2.573
 2282SOL    HW2 7746   3.414   6.793   2.490
 2283SOL     OW 7747   0.969   2.871   0.820
 2283SOL    HW1 7748   0.873   2.844   0.828
 2283SOL    HW2 7749   1.012   2.817   0.747
 2284SOL     OW 7750   1.180   2.790   0.987
 2284SOL    HW1 7751   1.092   2.812   0.944
 2284SOL    HW2 7752   1.253   2.802   0.919
 2285SOL     OW 7753   2.760   2.871   0.347
 2285SOL    HW1 7754   2.676   2.869   0.292
 2285SOL    HW2 7755   2.820   2.795   0.319
 2286SOL     OW 7756   6.189   5.207   3.988
 2286SOL    HW1 7757   6.224   5.204   3.895
 2286SOL    HW2 7758   6.163   5.301   4.011
 2287SOL     OW 7759   2.645   2.165   1.148
 2287SOL    HW1 7760   2.644   2.249   1.202
 2287SOL    HW2 7761   2.551   2.139   1.124
 2288SOL     OW 7762   3.100   5.610   4.316
 2288SOL    HW1 7763   3.146   5.588   4.231
 2288SOL    HW2 7764   3.125   5.703   4.345
 2289SOL     OW 7765   3.903   0.012   5.096
 2289SOL    HW1 7766   3.823   0.067   5.072
 2289SOL    HW2 7767   3.986   0.066   5.078
 2290SOL     OW 7768   2.052   4.159   6.633
 2290SOL    HW1 7769   2.105   4.238   6.601
 2290SOL    HW2 7770   2.018   4.177   6.725
 2291SOL     OW 7771   3.727   2.102   0.337
 2291SOL    HW1 7772   3.823   2.087   0.358
 2291SOL    HW2 7773   3.673   2.100   0.422
 2292SOL     OW 7774   5.116   2.091   2.422
 2292SOL    HW1 7775   5.025   2.117   2.454
 2292SOL    HW2 7776   5.137   2.139   2.337
 2293SOL     OW 7777   6.693   1.024   6.396
 2293SOL    HW1 7778   6.615   1.048   6.338
 2293SOL    HW2 7779   6.777   1.059   6.354
 2294SOL     OW 7780   0.130   3.098   5.380
 2294SOL    HW1 7781   0.099   3.004   5.393
 2294SOL    HW2 7782   0.176   3.130   5.464
 2295SOL     OW 7783   5.856   5.621   0.312
 2295SOL    HW1 7784   5.777   5.669   0.276
 2295SOL    HW2 7785   5.827   5.534   0.352
 2296SOL     OW 7786   4.033   5.729   5.020
 2296SOL    HW1 7787   3.983   5.771   5.095
 2296SOL    HW2 7788   4.127   5.762   5.019
 2297SOL     OW 7789   6.444   2.711   0.290
 2297SOL    HW1 7790   6.538   2.739   0.272
 2297SOL    HW2 7791   6.388   2.792   0.307
 2298SOL     OW 7792   2.158   3.968   4.801
 2298SOL    HW1 7793   2.224   3.982   4.875
 2298SOL    HW2 7794   2.161   3.873   4.771
 2299SOL     OW 7795   6.331   3.860   4.290
 2299SOL    HW1 7796   6.416   3.820   4.325
 2299SOL    HW2 7797   6.346   3.893   4.197
 2300SOL     OW 7798   4.005   0.904   2.241
 2300SOL    HW1 7799   4.072   0.834   2.218
 2300SOL    HW2 7800   3.975   0.951   2.158
 2301SOL     OW 7801   4.773   3.157   5.824
 2301SOL    HW1 7802   4.710   3.084   5.852
 2301SOL    HW2 7803   4.761   3.237   5.882
 2302SOL     OW 7804   0.365   3.860   4.744
 2302SOL    HW1 7805   0.369   3.761   4.728
 2302SOL    HW2 7806   0.424   3.883   4.822
 2303SOL     OW 7807   1.911   2.422   6.761
 2303SOL    HW1 7808   1.899   2.339   6.815
 2303SOL    HW2 7809   2.009   2.443   6.754
 2304SOL     OW 7810   3.798   0.200   3.326
 2304SOL    HW1 7811   3.769   0.104   3.327
 2304SOL    HW2 7812   3.765   0.246   3.408
 2305SOL     OW 7813   3.437   5.685   4.815
 2305SOL    HW1 7814   3.364   5.616   4.811
 2305SOL    HW2 7815   3.435   5.730   4.904
 2306SOL     OW 7816   0.809   5.280   5.567
 2306SOL    HW1 7817   0.782   5.217   5.640
 2306SOL    HW2 7818   0.898   5.321   5.590
 2307SOL     OW 7819   6.478   3.997   5.520
 2307SOL    HW1 7820   6.548   4.056   5.479
 2307SOL    HW2 7821   6.430   4.048   5.592
 2308SOL     OW 7822   0.275   5.942   3.023
 2308SOL    HW1 7823   0.374   5.932   3.021
 2308SOL    HW2 7824   0.236   5.904   2.939
 2309SOL     OW 7825   1.563   0.811   4.845
 2309SOL    HW1 7826   1.494   0.821   4.917
 2309SOL    HW2 7827   1.563   0.893   4.787
 2310SOL     OW 7828   4.947   5.845   0.665
 2310SOL    HW1 7829   4.967   5.803   0.577
 2310SOL    HW2 7830   4.878   5.792   0.714
 2311SOL     OW 7831   2.563   5.920   7.020
 2311SOL    HW1 7832   2.509   5.906   0.081
 2311SOL    HW2 7833   2.598   5.833   6.987
 2312SOL     OW 7834   3.008   5.039   1.786
 2312SOL    HW1 7835   3.093   5.080   1.752
 2312SOL    HW2 7836   2.970   4.979   1.716
 2313SOL     OW 7837   4.710   4.979   0.976
 2313SOL    HW1 7838   4.688   4.885   0.952
 2313SOL    HW2 7839   4.699   4.991   1.075
 2314SOL     OW 7840   2.287   4.210   2.767
 2314SOL    HW1 7841   2.339   4.282   2.721
 2314SOL    HW2 7842   2.281   4.231   2.864
 2315SOL     OW 7843   3.308   2.106   6.628
 2315SOL    HW1 7844   3.369   2.134   6.554
 2315SOL    HW2 7845   3.327   2.011   6.653
 2316SOL     OW 7846   5.567   4.110   1.318
 2316SOL    HW1 7847   5.587   4.018   1.283
 2316SOL    HW2 7848   5.632   4.133   1.391
 2317SOL     OW 7849   0.335   0.197   3.829
 2317SOL    HW1 7850   0.326   0.145   3.744
 2317SOL    HW2 7851   0.315   0.137   3.907
 2318SOL     OW 7852   6.444   2.059   3.621
 2318SOL    HW1 7853   6.493   2.115   3.553
 2318SOL    HW2 7854   6.415   1.973   3.579
 2319SOL     OW 7855   0.790   5.851   3.695
 2319SOL    HW1 7856   0.855   5.787   3.738
 2319SOL    HW2 7857   0.841   5.922   3.646
 2320SOL     OW 7858   0.131   4.873   3.725
 2320SOL    HW1 7859   0.150   4.778   3.747
 2320SOL    HW2 7860   0.170   4.933   3.795
 2321SOL     OW 7861   2.870   4.902   3.738
 2321SOL    HW1 7862   2.954   4.956   3.735
 2321SOL    HW2 7863   2.852   4.873   3.832
 2322SOL     OW 7864   2.183   2.193   5.205
 2322SOL    HW1 7865   2.095   2.222   5.166
 2322SOL    HW2 7866   2.167   2.121   5.273
 2323SOL     OW 7867   5.551   3.867   1.679
 2323SOL    HW1 7868   5.546   3.848   1.777
 2323SOL    HW2 7869   5.461   3.897   1.646
 2324SOL     OW 7870   0.196   5.367   4.553
 2324SOL    HW1 7871   0.176   5.276   4.589
 2324SOL    HW2 7872   0.159   5.436   4.615
 2325SOL     OW 7873   6.914   1.885   0.572
 2325SOL    HW1 7874   6.833   1.835   0.541
 2325SOL    HW2 7875   6.921   1.878   0.672
 2326SOL     OW 7876   0.850   5.346   0.521
 2326SOL    HW1 7877   0.755   5.347   0.549
 2326SOL    HW2 7878   0.889   5.255   0.537
 2327SOL     OW 7879   4.711   1.172   2.463
 2327SOL    HW1 7880   4.737   1.258   2.421
 2327SOL    HW2 7881   4.615   1.176   2.491
 2328SOL     OW 7882   6.241   5.519   3.841
 2328SOL    HW1 7883   6.214   5.516   3.937
 2328SOL    HW2 7884   6.159   5.513   3.784
 2329SOL     OW 7885   1.407   6.703   3.217
 2329SOL    HW1 7886   1.321   6.748   3.193
 2329SOL    HW2 7887   1.390   6.606   3.232
 2330SOL     OW 7888   1.522   3.766   6.624
 2330SOL    HW1 7889   1.522   3.814   6.536
 2330SOL    HW2 7890   1.602   3.792   6.677
 2331SOL     OW 7891   1.942   4.230   5.209
 2331SOL    HW1 7892   2.010   4.209   5.138
 2331SOL    HW2 7893   1.910   4.144   5.249
 2332SOL     OW 7894   6.334   3.897   6.677
 2332SOL    HW1 7895   6.251   3.941   6.645
 2332SOL    HW2 7896   6.414   3.944   6.639
 2333SOL     OW 7897   2.514   5.092   3.958
 2333SOL    HW1 7898   2.433   5.146   3.980
 2333SOL    HW2 7899   2.543   5.040   4.038
 2334SOL     OW 7900   2.396   0.262   6.039
 2334SOL    HW1 7901   2.436   0.341   6.086
 2334SOL    HW2 7902   2.344   0.294   5.960
 2335SOL     OW 7903   5.304   4.375   4.913
 2335SOL    HW1 7904   5.260   4.436   4.847
 2335SOL    HW2 7905   5.292   4.412   5.005
 2336SOL     OW 7906   4.783   1.017   5.718
 2336SOL    HW1 7907   4.741   1.009   5.628
 2336SOL    HW2 7908   4.853   0.945   5.728
 2337SOL     OW 7909   6.076   0.655   4.934
 2337SOL    HW1 7910   6.126   0.658   5.021
 2337SOL    HW2 7911   6.017   0.736   4.927
 2338SOL     OW 7912   1.212   6.784   0.480
 2338SOL    HW1 7913   1.307   6.795   0.507
 2338SOL    HW2 7914   1.198   6.692   0.441
 2339SOL     OW 7915   3.027   4.384   5.794
 2339SOL    HW1 7916   3.042   4.482   5.804
 2339SOL    HW2 7917   3.074   4.351   5.712
 2340SOL     OW 7918   4.337   5.479   3.521
 2340SOL    HW1 7919   4.387   5.415   3.463
 2340SOL    HW2 7920   4.254   5.509   3.474
 2341SOL     OW 7921   1.062   3.896   6.153
 2341SOL    HW1 7922   1.044   3.994   6.141
 2341SOL    HW2 7923   1.136   3.868   6.092
 2342SOL     OW 7924   4.711   1.067   5.231
 2342SOL    HW1 7925   4.730   0.995   5.297
 2342SOL    HW2 7926   4.743   1.039   5.140
 2343SOL     OW 7927   0.505   6.187   1.873
 2343SOL    HW1 7928   0.416   6.155   1.840
 2343SOL    HW2 7929   0.557   6.224   1.797
 2344SOL     OW 7930   1.825   0.117   3.053
 2344SOL    HW1 7931   1.811   0.188   2.984
 2344SOL    HW2 7932   1.778   0.033   3.024
 2345SOL     OW 7933   0.982   2.637   1.581
 2345SOL    HW1 7934   1.053   2.649   1.650
 2345SOL    HW2 7935   0.892   2.648   1.622
 2346SOL     OW 7936   5.324   2.833   4.848
 2346SOL    HW1 7937   5.363   2.925   4.844
 2346SOL    HW2 7938   5.230   2.838   4.880
 2347SOL     OW 7939   1.362   4.263   1.365
 2347SOL    HW1 7940   1.364   4.274   1.464
 2347SOL    HW2 7941   1.275   4.223   1.338
 2348SOL     OW 7942   2.906   6.785   1.788
 2348SOL    HW1 7943   2.838   6.748   1.725
 2348SOL    HW2 7944   2.883   6.879   1.811
 2349SOL     OW 7945   5.315   2.777   0.199
 2349SOL    HW1 7946   5.234   2.835   0.196
 2349SOL    HW2 7947   5.332   2.739   0.108
 2350SOL     OW 7948   2.500   5.436   5.253
 2350SOL    HW1 7949   2.470   5.520   5.207
 2350SOL    HW2 7950   2.597   5.445   5.277
 2351SOL     OW 7951   1.637   5.658   3.427
 2351SOL    HW1 7952   1.637   5.616   3.336
 2351SOL    HW2 7953   1.575   5.606   3.487
 2352SOL     OW 7954   5.762   5.966   6.193
 2352SOL    HW1 7955   5.694   5.950   6.123
 2352SOL    HW2 7956   5.755   6.060   6.226
 2353SOL     OW 7957   2.978   3.032   6.578
 2353SOL    HW1 7958   3.017   3.030   6.486
 2353SOL    HW2 7959   2.899   3.093   6.579
 2354SOL     OW 7960   3.459   1.472   2.523
 2354SOL    HW1 7961   3.409   1.488   2.437
 2354SOL    HW2 7962   3.531   1.404   2.507
 2355SOL     OW 7963   6.383   1.297   2.025
 2355SOL    HW1 7964   6.351   1.204   2.013
 2355SOL    HW2 7965   6.478   1.304   1.994
 2356SOL     OW 7966   4.145   5.047   3.599
 2356SOL    HW1 7967   4.086   5.127   3.594
 2356SOL    HW2 7968   4.236   5.075   3.630
 2357SOL     OW 7969   0.442   5.528   1.048
 2357SOL    HW1 7970   0.456   5.534   0.949
 2357SOL    HW2 7971   0.446   5.432   1.075
 2358SOL     OW 7972   2.118   0.862   4.504
 2358SOL    HW1 7973   2.148   0.865   4.600
 2358SOL    HW2 7974   2.145   0.775   4.463
 2359SOL     OW 7975   3.637   2.545   5.602
 2359SOL    HW1 7976   3.581   2.605   5.546
 2359SOL    HW2 7977   3.678   2.596   5.677
 2360SOL     OW 7978   3.576   4.856   1.640
 2360SOL    HW1 7979   3.609   4.812   1.556
 2360SOL    HW2 7980   3.559   4.787   1.710
 2361SOL     OW 7981   3.529   4.725   0.696
 2361SOL    HW1 7982   3.476   4.677   0.765
 2361SOL    HW2 7983   3.504   4.822   0.696
 2362SOL     OW 7984   3.648   4.919   4.526
 2362SOL    HW1 7985   3.605   4.924   4.616
 2362SOL    HW2 7986   3.746   4.903   4.537
 2363SOL     OW 7987   2.392   4.050   1.483
 2363SOL    HW1 7988   2.408   3.952   1.490
 2363SOL    HW2 7989   2.309   4.067   1.430
 2364SOL     OW 7990   4.383   0.980   2.312
 2364SOL    HW1 7991   4.428   1.064   2.285
 2364SOL    HW2 7992   4.443   0.902   2.295
 2365SOL     OW 7993   5.478   3.793   2.571
 2365SOL    HW1 7994   5.418   3.853   2.625
 2365SOL    HW2 7995   5.495   3.709   2.621
 2366SOL     OW 7996   4.844   5.144   4.860
 2366SOL    HW1 7997   4.745   5.154   4.850
 2366SOL    HW2 7998   4.868   5.151   4.957
 2367SOL     OW 7999   6.143   4.863   5.623
 2367SOL    HW1 8000   6.194   4.855   5.709
 2367SOL    HW2 8001   6.061   4.805   5.628
 2368SOL     OW 8002   5.178   1.623   5.134
 2368SOL    HW1 8003   5.172   1.627   5.034
 2368SOL    HW2 8004   5.100   1.674   5.173
 2369SOL     OW 8005   4.370   1.944   4.251
 2369SOL    HW1 8006   4.361   2.041   4.228
 2369SOL    HW2 8007   4.417   1.935   4.339
 2370SOL     OW 8008   3.930   2.250   0.566
 2370SOL    HW1 8009   3.858   2.205   0.618
 2370SOL    HW2 8010   3.941   2.344   0.597
 2371SOL     OW 8011   2.137   6.402   3.389
 2371SOL    HW1 8012   2.118   6.425   3.485
 2371SOL    HW2 8013   2.122   6.304   3.375
 2372SOL     OW 8014   5.584   6.563   6.798
 2372SOL    HW1 8015   5.522   6.511   6.740
 2372SOL    HW2 8016   5.644   6.618   6.741
 2373SOL     OW 8017   6.470   4.656   6.190
 2373SOL    HW1 8018   6.415   4.654   6.274
 2373SOL    HW2 8019   6.562   4.622   6.210
 2374SOL     OW 8020   0.519   5.277   2.963
 2374SOL    HW1 8021   0.442   5.320   3.012
 2374SOL    HW2 8022   0.604   5.323   2.987
 2375SOL     OW 8023   2.385   0.330   4.003
 2375SOL    HW1 8024   2.427   0.411   4.045
 2375SOL    HW2 8025   2.440   0.300   3.926
 2376SOL     OW 8026   6.012   3.001   4.534
 2376SOL    HW1 8027   6.041   2.937   4.606
 2376SOL    HW2 8028   5.919   3.032   4.554
 2377SOL     OW 8029   3.336   5.050   5.634
 2377SOL    HW1 8030   3.292   4.960   5.626
 2377SOL    HW2 8031   3.275   5.112   5.683
 2378SOL     OW 8032   0.966   0.275   0.953
 2378SOL    HW1 8033   0.959   0.234   0.862
 2378SOL    HW2 8034   0.955   0.375   0.946
 2379SOL     OW 8035   0.776   4.365   3.266
 2379SOL    HW1 8036   0.820   4.281   3.299
 2379SOL    HW2 8037   0.679   4.347   3.249
 2380SOL     OW 8038   4.483   5.497   5.752
 2380SOL    HW1 8039   4.567   5.542   5.783
 2380SOL    HW2 8040   4.448   5.543   5.670
 2381SOL     OW 8041   2.479   4.932   3.716
 2381SOL    HW1 8042   2.525   4.843   3.713
 2381SOL    HW2 8043   2.501   4.978   3.803
 2382SOL     OW 8044   6.153   5.776   2.210
 2382SOL    HW1 8045   6.187   5.833   2.135
 2382SOL    HW2 8046   6.103   5.833   2.275
 2383SOL     OW 8047   4.416   3.288   5.975
 2383SOL    HW1 8048   4.420   3.296   6.075
 2383SOL    HW2 8049   4.508   3.302   5.938
 2384SOL     OW 8050   1.080   2.402   3.191
 2384SOL    HW1 8051   1.104   2.473   3.257
 2384SOL    HW2 8052   1.079   2.313   3.237
 2385SOL     OW 8053   0.723   0.440   1.293
 2385SOL    HW1 8054   0.815   0.444   1.331
 2385SOL    HW2 8055   0.688   0.533   1.282
 2386SOL     OW 8056   0.366   5.162   6.978
 2386SOL    HW1 8057   0.413   5.226   6.917
 2386SOL    HW2 8058   0.355   5.074   6.931
 2387SOL     OW 8059   6.173   0.249   2.846
 2387SOL    HW1 8060   6.237   0.240   2.769
 2387SOL    HW2 8061   6.079   0.249   2.812
 2388SOL     OW 8062   2.049   4.981   3.839
 2388SOL    HW1 8063   2.103   4.929   3.773
 2388SOL    HW2 8064   2.054   5.079   3.816
 2389SOL     OW 8065   3.510   6.345   3.231
 2389SOL    HW1 8066   3.417   6.381   3.219
 2389SOL    HW2 8067   3.560   6.404   3.295
 2390SOL     OW 8068   4.930   3.650   4.695
 2390SOL    HW1 8069   4.944   3.656   4.596
 2390SOL    HW2 8070   4.973   3.729   4.739
 2391SOL     OW 8071   2.295   4.431   0.014
 2391SOL    HW1 8072   2.292   4.367   0.091
 2391SOL    HW2 8073   2.286   4.380   6.951
 2392SOL     OW 8074   3.914   4.977   5.357
 2392SOL    HW1 8075   3.959   5.058   5.320
 2392SOL    HW2 8076   3.915   4.981   5.457
 2393SOL     OW 8077   5.285   4.695   0.973
 2393SOL    HW1 8078   5.320   4.703   1.066
 2393SOL    HW2 8079   5.318   4.610   0.932
 2394SOL     OW 8080   6.788   2.275   2.878
 2394SOL    HW1 8081   6.868   2.235   2.922
 2394SOL    HW2 8082   6.738   2.331   2.944
 2395SOL     OW 8083   0.841   2.991   3.008
 2395SOL    HW1 8084   0.752   2.948   2.993
 2395SOL    HW2 8085   0.900   2.975   2.929
 2396SOL     OW 8086   0.503   6.841   4.967
 2396SOL    HW1 8087   0.483   6.746   4.992
 2396SOL    HW2 8088   0.418   6.891   4.953
 2397SOL     OW 8089   2.814   4.806   5.764
 2397SOL    HW1 8090   2.795   4.782   5.669
 2397SOL    HW2 8091   2.825   4.906   5.771
 2398SOL     OW 8092   3.811   6.284   5.099
 2398SOL    HW1 8093   3.833   6.285   5.001
 2398SOL    HW2 8094   3.834   6.373   5.139
 2399SOL     OW 8095   2.810   1.641   1.632
 2399SOL    HW1 8096   2.811   1.551   1.676
 2399SOL    HW2 8097   2.846   1.710   1.695
 2400SOL     OW 8098   0.720   2.112   6.264
 2400SOL    HW1 8099   0.632   2.088   6.304
 2400SOL    HW2 8100   0.768   2.028   6.237
 2401SOL     OW 8101   1.774   6.505   0.886
 2401SOL    HW1 8102   1.765   6.587   0.829
 2401SOL    HW2 8103   1.687   6.456   0.888
 2402SOL     OW 8104   0.680   3.121   1.608
 2402SOL    HW1 8105   0.768   3.076   1.602
 2402SOL    HW2 8106   0.658   3.164   1.520
 2403SOL     OW 8107   3.167   4.131   5.226
 2403SOL    HW1 8108   3.260   4.163   5.209
 2403SOL    HW2 8109   3.123   4.189   5.294
 2404SOL     OW 8110   6.767   2.261   1.464
 2404SOL    HW1 8111   6.837   2.268   1.392
 2404SOL    HW2 8112   6.773   2.172   1.507
 2405SOL     OW 8113   2.734   3.541   0.461
 2405SOL    HW1 8114   2.715   3.469   0.527
 2405SOL    HW2 8115   2.798   3.508   0.393
 2406SOL     OW 8116   4.712   5.620   5.785
 2406SOL    HW1 8117   4.773   5.590   5.859
 2406SOL    HW2 8118   4.707   5.720   5.785
 2407SOL     OW 8119   2.647   2.231   3.769
 2407SOL    HW1 8120   2.578   2.230   3.696
 2407SOL    HW2 8121   2.738   2.238   3.728
 2408SOL     OW 8122   4.681   6.683   5.675
 2408SOL    HW1 8123   4.614   6.758   5.679
 2408SOL    HW2 8124   4.708   6.669   5.580
 2409SOL     OW 8125   2.132   2.237   0.195
 2409SOL    HW1 8126   2.153   2.318   0.141
 2409SOL    HW2 8127   2.142   2.155   0.138
 2410SOL     OW 8128   0.031   3.483   4.607
 2410SOL    HW1 8129   6.964   3.440   4.624
 2410SOL    HW2 8130   0.034   3.515   4.512
 2411SOL     OW 8131   3.178   0.790   0.925
 2411SOL    HW1 8132   3.098   0.792   0.984
 2411SOL    HW2 8133   3.234   0.710   0.947
 2412SOL     OW 8134   2.879   2.419   0.354
 2412SOL    HW1 8135   2.797   2.410   0.411
 2412SOL    HW2 8136   2.958   2.379   0.401
 2413SOL     OW 8137   0.579   4.172   6.705
 2413SOL    HW1 8138   0.559   4.264   6.740
 2413SOL    HW2 8139   0.570   4.106   6.779
 2414SOL     OW 8140   6.114   2.170   5.401
 2414SOL    HW1 8141   6.014   2.161   5.403
 2414SOL    HW2 8142   6.152   2.097   5.345
 2415SOL     OW 8143   3.207   3.987   5.568
 2415SOL    HW1 8144   3.164   3.923   5.632
 2415SOL    HW2 8145   3.291   3.946   5.532
 2416SOL     OW 8146   6.589   3.316   3.599
 2416SOL    HW1 8147   6.496   3.290   3.625
 2416SOL    HW2 8148   6.654   3.271   3.659
 2417SOL     OW 8149   2.725   2.604   1.711
 2417SOL    HW1 8150   2.812   2.588   1.758
 2417SOL    HW2 8151   2.666   2.523   1.722
 2418SOL     OW 8152   6.499   3.772   6.347
 2418SOL    HW1 8153   6.405   3.801   6.363
 2418SOL    HW2 8154   6.536   3.821   6.267
 2419SOL     OW 8155   2.811   1.516   2.807
 2419SOL    HW1 8156   2.759   1.432   2.792
 2419SOL    HW2 8157   2.859   1.540   2.722
 2420SOL     OW 8158   0.522   2.838   1.211
 2420SOL    HW1 8159   0.568   2.761   1.254
 2420SOL    HW2 8160   0.445   2.805   1.156
 2421SOL     OW 8161   2.540   0.811   3.310
 2421SOL    HW1 8162   2.510   0.879   3.377
 2421SOL    HW2 8163   2.477   0.810   3.232
 2422SOL     OW 8164   4.005   0.058   0.188
 2422SOL    HW1 8165   4.090   0.010   0.166
 2422SOL    HW2 8166   4.000   0.074   0.286
 2423SOL     OW 8167   3.841   5.134   4.952
 2423SOL    HW1 8168   3.798   5.222   4.930
 2423SOL    HW2 8169   3.927   5.150   4.999
 2424SOL     OW 8170   5.420   0.206   6.505
 2424SOL    HW1 8171   5.420   0.290   6.559
 2424SOL    HW2 8172   5.327   0.169   6.503
 2425SOL     OW 8173   5.157   5.514   4.756
 2425SOL    HW1 8174   5.104   5.557   4.829
 2425SOL    HW2 8175   5.099   5.451   4.704
 2426SOL     OW 8176   2.975   2.215   5.259
 2426SOL    HW1 8177   3.022   2.260   5.184
 2426SOL    HW2 8178   3.032   2.217   5.341
 2427SOL     OW 8179   3.982   2.990   6.693
 2427SOL    HW1 8180   4.018   3.067   6.746
 2427SOL    HW2 8181   3.992   3.009   6.596
 2428SOL     OW 8182   1.661   1.434   2.340
 2428SOL    HW1 8183   1.584   1.418   2.278
 2428SOL    HW2 8184   1.663   1.362   2.410
 2429SOL     OW 8185   4.823   5.266   1.534
 2429SOL    HW1 8186   4.829   5.225   1.625
 2429SOL    HW2 8187   4.762   5.211   1.477
 2430SOL     OW 8188   0.020   6.266   6.539
 2430SOL    HW1 8189   6.949   6.275   6.574
 2430SOL    HW2 8190   0.066   6.355   6.546
 2431SOL     OW 8191   1.978   3.309   1.490
 2431SOL    HW1 8192   1.995   3.325   1.587
 2431SOL    HW2 8193   1.970   3.211   1.473
 2432SOL     OW 8194   3.022   5.299   2.816
 2432SOL    HW1 8195   3.120   5.291   2.833
 2432SOL    HW2 8196   2.972   5.260   2.894
 2433SOL     OW 8197   0.356   4.392   3.815
 2433SOL    HW1 8198   0.367   4.490   3.800
 2433SOL    HW2 8199   0.438   4.355   3.858
 2434SOL     OW 8200   3.532   1.948   2.988
 2434SOL    HW1 8201   3.628   1.952   2.961
 2434SOL    HW2 8202   3.482   2.024   2.945
 2435SOL     OW 8203   5.424   6.549   5.882
 2435SOL    HW1 8204   5.450   6.456   5.855
 2435SOL    HW2 8205   5.506   6.607   5.884
 2436SOL     OW 8206   6.992   3.505   0.004
 2436SOL    HW1 8207   0.021   3.488   0.088
 2436SOL    HW2 8208   6.945   3.593   0.010
 2437SOL     OW 8209   1.303   4.686   0.952
 2437SOL    HW1 8210   1.330   4.634   1.034
 2437SOL    HW2 8211   1.385   4.724   0.909
 2438SOL     OW 8212   3.776   1.386   4.922
 2438SOL    HW1 8213   3.734   1.388   4.831
 2438SOL    HW2 8214   3.826   1.300   4.933
 2439SOL     OW 8215   0.972   5.951   6.346
 2439SOL    HW1 8216   1.035   5.907   6.410
 2439SOL    HW2 8217   0.878   5.926   6.369
 2440SOL     OW 8218   0.142   2.523   5.519
 2440SOL    HW1 8219   0.206   2.598   5.532
 2440SOL    HW2 8220   0.168   2.470   5.439
 2441SOL     OW 8221   6.567   0.009   6.896
 2441SOL    HW1 8222   6.566   0.061   6.810
 2441SOL    HW2 8223   6.645   0.039   6.952
 2442SOL     OW 8224   5.932   3.156   3.408
 2442SOL    HW1 8225   5.923   3.255   3.398
 2442SOL    HW2 8226   6.002   3.135   3.476
 2443SOL     OW 8227   0.882   3.328   1.297
 2443SOL    HW1 8228   0.790   3.287   1.299
 2443SOL    HW2 8229   0.934   3.288   1.221
 2444SOL     OW 8230   3.642   5.170   2.394
 2444SOL    HW1 8231   3.582   5.240   2.356
 2444SOL    HW2 8232   3.702   5.135   2.323
 2445SOL     OW 8233   0.399   1.195   1.225
 2445SOL    HW1 8234   0.391   1.294   1.228
 2445SOL    HW2 8235   0.311   1.154   1.248
 2446SOL     OW 8236   6.687   5.473   0.405
 2446SOL    HW1 8237   6.684   5.511   0.497
 2446SOL    HW2 8238   6.711   5.376   0.409
 2447SOL     OW 8239   1.754   0.425   6.755
 2447SOL    HW1 8240   1.769   0.436   6.854
 2447SOL    HW2 8241   1.840   0.436   6.707
 2448SOL     OW 8242   5.292   0.799   4.660
 2448SOL    HW1 8243   5.205   0.848   4.649
 2448SOL    HW2 8244   5.299   0.728   4.589
 2449SOL     OW 8245   1.702   3.873   1.316
 2449SOL    HW1 8246   1.792   3.909   1.341
 2449SOL    HW2 8247   1.635   3.901   1.385
 2450SOL     OW 8248   6.776   6.446   6.106
 2450SOL    HW1 8249   6.826   6.533   6.105
 2450SOL    HW2 8250   6.839   6.372   6.131
 2451SOL     OW 8251   1.061   0.440   0.217
 2451SOL    HW1 8252   0.990   0.492   0.264
 2451SOL    HW2 8253   1.132   0.414   0.282
 2452SOL     OW 8254   1.247   2.584   3.850
 2452SOL    HW1 8255   1.158   2.587   3.802
 2452SOL    HW2 8256   1.238   2.530   3.933
 2453SOL     OW 8257   0.170   1.981   0.133
 2453SOL    HW1 8258   0.085   2.001   0.085
 2453SOL    HW2 8259   0.185   2.050   0.204
 2454SOL     OW 8260   2.286   6.034   1.780
 2454SOL    HW1 8261   2.280   5.995   1.688
 2454SOL    HW2 8262   2.268   5.963   1.848
 2455SOL     OW 8263   4.993   1.979   6.433
 2455SOL    HW1 8264   4.940   1.942   6.509
 2455SOL    HW2 8265   5.051   1.908   6.394
 2456SOL     OW 8266   1.414   2.709   6.004
 2456SOL    HW1 8267   1.316   2.690   5.994
 2456SOL    HW2 8268   1.426   2.804   6.034
 2457SOL     OW 8269   5.819   1.574   6.176
 2457SOL    HW1 8270   5.731   1.617   6.198
 2457SOL    HW2 8271   5.894   1.634   6.205
 2458SOL     OW 8272   1.360   0.112   1.102
 2458SOL    HW1 8273   1.328   0.200   1.067
 2458SOL    HW2 8274   1.390   0.123   1.197
 2459SOL     OW 8275   1.925   0.496   1.437
 2459SOL    HW1 8276   1.862   0.566   1.404
 2459SOL    HW2 8277   1.987   0.469   1.363
 2460SOL     OW 8278   0.529   1.315   4.368
 2460SOL    HW1 8279   0.573   1.259   4.297
 2460SOL    HW2 8280   0.598   1.372   4.413
 2461SOL     OW 8281   2.297   1.968   2.998
 2461SOL    HW1 8282   2.209   1.933   2.965
 2461SOL    HW2 8283   2.371   1.918   2.954
 2462SOL     OW 8284   0.422   5.472   0.776
 2462SOL    HW1 8285   0.333   5.429   0.759
 2462SOL    HW2 8286   0.434   5.549   0.714
 2463SOL     OW 8287   6.394   6.074   0.031
 2463SOL    HW1 8288   6.353   6.155   0.073
 2463SOL    HW2 8289   6.339   5.994   0.052
 2464SOL     OW 8290   0.952   2.887   4.721
 2464SOL    HW1 8291   1.044   2.926   4.713
 2464SOL    HW2 8292   0.959   2.794   4.757
 2465SOL     OW 8293   6.971   1.330   6.515
 2465SOL    HW1 8294   6.906   1.377   6.455
 2465SOL    HW2 8295   6.934   1.326   6.608
 2466SOL     OW 8296   1.013   1.708   1.203
 2466SOL    HW1 8297   1.008   1.609   1.186
 2466SOL    HW2 8298   1.042   1.724   1.297
 2467SOL     OW 8299   4.844   3.325   4.657
 2467SOL    HW1 8300   4.847   3.372   4.568
 2467SOL    HW2 8301   4.819   3.229   4.643
 2468SOL     OW 8302   3.527   6.237   4.443
 2468SOL    HW1 8303   3.588   6.288   4.504
 2468SOL    HW2 8304   3.550   6.140   4.447
 2469SOL     OW 8305   2.623   2.188   6.116
 2469SOL    HW1 8306   2.643   2.190   6.214
 2469SOL    HW2 8307   2.615   2.093   6.086
 2470SOL     OW 8308   1.873   5.212   6.499
 2470SOL    HW1 8309   1.929   5.248   6.424
 2470SOL    HW2 8310   1.795   5.162   6.461
 2471SOL     OW 8311   2.396   5.634   2.662
 2471SOL    HW1 8312   2.375   5.666   2.569
 2471SOL    HW2 8313   2.345   5.550   2.680
 2472SOL     OW 8314   4.959   0.631   2.118
 2472SOL    HW1 8315   4.916   0.542   2.112
 2472SOL    HW2 8316   4.913   0.695   2.055
 2473SOL     OW 8317   0.725   4.113   4.975
 2473SOL    HW1 8318   0.688   4.157   5.057
 2473SOL    HW2 8319   0.806   4.163   4.944
 2474SOL     OW 8320   1.887   0.391   0.827
 2474SOL    HW1 8321   1.919   0.466   0.886
 2474SOL    HW2 8322   1.956   0.373   0.757
 2475SOL     OW 8323   5.596   1.941   0.295
 2475SOL    HW1 8324   5.514   1.930   0.240
 2475SOL    HW2 8325   5.575   1.994   0.377
 2476SOL     OW 8326   3.881   7.013   6.966
 2476SOL    HW1 8327   3.817   0.064   6.940
 2476SOL    HW2 8328   3.908   0.002   0.040
 2477SOL     OW 8329   4.228   1.404   4.285
 2477SOL    HW1 8330   4.297   1.342   4.324
 2477SOL    HW2 8331   4.222   1.487   4.340
 2478SOL     OW 8332   3.156   0.383   3.850
 2478SOL    HW1 8333   3.179   0.447   3.924
 2478SOL    HW2 8334   3.099   0.430   3.782
 2479SOL     OW 8335   6.033   4.021   2.422
 2479SOL    HW1 8336   6.001   4.106   2.464
 2479SOL    HW2 8337   6.066   4.040   2.330
 2480SOL     OW 8338   2.654   2.044   1.715
 2480SOL    HW1 8339   2.719   2.077   1.783
 2480SOL    HW2 8340   2.608   2.121   1.672
 2481SOL     OW 8341   3.413   0.011   2.290
 2481SOL    HW1 8342   3.487   6.996   2.233
 2481SOL    HW2 8343   3.389   6.966   2.360
 2482SOL     OW 8344   6.790   3.296   6.970
 2482SOL    HW1 8345   6.791   3.281   6.871
 2482SOL    HW2 8346   6.865   3.357   6.996
 2483SOL     OW 8347   2.792   1.967   1.282
 2483SOL    HW1 8348   2.758   2.043   1.227
 2483SOL    HW2 8349   2.728   1.947   1.356
 2484SOL     OW 8350   4.407   1.275   5.842
 2484SOL    HW1 8351   4.402   1.202   5.773
 2484SOL    HW2 8352   4.500   1.311   5.844
 2485SOL     OW 8353   0.320   1.405   6.671
 2485SOL    HW1 8354   0.295   1.485   6.616
 2485SOL    HW2 8355   0.261   1.401   6.752
 2486SOL     OW 8356   6.535   5.358   2.670
 2486SOL    HW1 8357   6.627   5.357   2.632
 2486SOL    HW2 8358   6.469   5.369   2.596
 2487SOL     OW 8359   3.777   6.037   6.432
 2487SOL    HW1 8360   3.686   6.006   6.458
 2487SOL    HW2 8361   3.804   6.114   6.489
 2488SOL     OW 8362   0.556   3.391   0.899
 2488SOL    HW1 8363   0.620   3.337   0.954
 2488SOL    HW2 8364   0.510   3.330   0.834
 2489SOL     OW 8365   5.978   5.906   4.661
 2489SOL    HW1 8366   6.016   5.997   4.681
 2489SOL    HW2 8367   6.050   5.837   4.670
 2490SOL     OW 8368   3.146   6.006   2.911
 2490SOL    HW1 8369   3.163   6.098   2.946
 2490SOL    HW2 8370   3.217   5.944   2.945
 2491SOL     OW 8371   3.924   4.062   1.316
 2491SOL    HW1 8372   3.863   3.998   1.363
 2491SOL    HW2 8373   3.878   4.149   1.302
 2492SOL     OW 8374   0.162   4.427   2.336
 2492SOL    HW1 8375   0.209   4.475   2.411
 2492SOL    HW2 8376   0.064   4.446   2.341
 2493SOL     OW 8377   6.139   6.089   0.793
 2493SOL    HW1 8378   6.182   6.174   0.763
 2493SOL    HW2 8379   6.208   6.017   0.799
 2494SOL     OW 8380   6.942   3.041   1.521
 2494SOL    HW1 8381   6.976   2.961   1.569
 2494SOL    HW2 8382   6.906   3.107   1.587
 2495SOL     OW 8383   6.939   2.927   2.254
 2495SOL    HW1 8384   6.894   2.881   2.177
 2495SOL    HW2 8385   6.889   2.908   2.338
 2496SOL     OW 8386   5.497   3.897   6.052
 2496SOL    HW1 8387   5.462   3.804   6.053
 2496SOL    HW2 8388   5.434   3.957   6.102
 2497SOL     OW 8389   0.989   0.346   3.929
 2497SOL    HW1 8390   0.934   0.290   3.867
 2497SOL    HW2 8391   0.931   0.387   3.999
 2498SOL     OW 8392   2.116   2.863   4.317
 2498SOL    HW1 8393   2.052   2.939   4.310
 2498SOL    HW2 8394   2.145   2.851   4.412
 2499SOL     OW 8395   6.146   2.432   0.579
 2499SOL    HW1 8396   6.177   2.354   0.634
 2499SOL    HW2 8397   6.208   2.510   0.595
 2500SOL     OW 8398   3.806   3.637   2.793
 2500SOL    HW1 8399   3.826   3.732   2.818
 2500SOL    HW2 8400   3.830   3.622   2.697
 2501SOL     OW 8401   6.126   5.003   4.145
 2501SOL    HW1 8402   6.147   5.074   4.078
 2501SOL    HW2 8403   6.155   5.033   4.236
 2502SOL     OW 8404   2.225   5.892   3.476
 2502SOL    HW1 8405   2.207   5.890   3.574
 2502SOL    HW2 8406   2.141   5.915   3.426
 2503SOL     OW 8407   2.196   0.036   5.650
 2503SOL    HW1 8408   2.291   0.020   5.678
 2503SOL    HW2 8409   2.170   6.992   5.580
 2504SOL     OW 8410   4.378   1.313   2.320
 2504SOL    HW1 8411   4.309   1.290   2.251
 2504SOL    HW2 8412   4.409   1.407   2.305
 2505SOL     OW 8413   5.562   4.273   4.166
 2505SOL    HW1 8414   5.541   4.359   4.212
 2505SOL    HW2 8415   5.509   4.199   4.206
 2506SOL     OW 8416   5.882   4.998   6.374
 2506SOL    HW1 8417   5.849   4.906   6.350
 2506SOL    HW2 8418   5.855   5.062   6.302
 2507SOL     OW 8419   5.971   3.518   3.684
 2507SOL    HW1 8420   6.021   3.601   3.709
 2507SOL    HW2 8421   6.011   3.439   3.732
 2508SOL     OW 8422   5.535   0.952   4.003
 2508SOL    HW1 8423   5.621   0.958   3.951
 2508SOL    HW2 8424   5.470   0.895   3.953
 2509SOL     OW 8425   0.235   3.829   6.176
 2509SOL    HW1 8426   0.301   3.856   6.106
 2509SOL    HW2 8427   0.144   3.823   6.135
 2510SOL     OW 8428   3.431   3.811   2.043
 2510SOL    HW1 8429   3.455   3.743   2.112
 2510SOL    HW2 8430   3.381   3.886   2.086
 2511SOL     OW 8431   1.837   1.246   5.032
 2511SOL    HW1 8432   1.777   1.304   5.088
 2511SOL    HW2 8433   1.925   1.235   5.078
 2512SOL     OW 8434   2.757   4.979   3.499
 2512SOL    HW1 8435   2.758   5.078   3.510
 2512SOL    HW2 8436   2.805   4.936   3.575
 2513SOL     OW 8437   2.031   5.314   6.310
 2513SOL    HW1 8438   2.099   5.248   6.275
 2513SOL    HW2 8439   2.076   5.402   6.327
 2514SOL     OW 8440   1.315   2.429   2.430
 2514SOL    HW1 8441   1.218   2.450   2.420
 2514SOL    HW2 8442   1.329   2.330   2.420
 2515SOL     OW 8443   0.068   1.612   1.119
 2515SOL    HW1 8444   0.158   1.654   1.105
 2515SOL    HW2 8445   7.018   1.678   1.101
 2516SOL     OW 8446   6.837   2.597   5.062
 2516SOL    HW1 8447   6.742   2.575   5.044
 2516SOL    HW2 8448   6.844   2.690   5.098
 2517SOL     OW 8449   0.521   1.768   4.085
 2517SOL    HW1 8450   0.515   1.855   4.133
 2517SOL    HW2 8451   0.460   1.702   4.129
 2518SOL     OW 8452   3.193   3.287   1.028
 2518SOL    HW1 8453   3.096   3.267   1.041
 2518SOL    HW2 8454   3.205   3.341   0.944
 2519SOL     OW 8455   1.495   0.651   0.290
 2519SOL    HW1 8456   1.406   0.630   0.331
 2519SOL    HW2 8457   1.483   0.723   0.221
 2520SOL     OW 8458   2.614   2.814   1.249
 2520SOL    HW1 8459   2.596   2.844   1.155
 2520SOL    HW2 8460   2.653   2.890   1.301
 2521SOL     OW 8461   5.941   1.596   5.162
 2521SOL    HW1 8462   5.869   1.534   5.193
 2521SOL    HW2 8463   5.909   1.691   5.171
 2522SOL     OW 8464   1.323   2.125   0.447
 2522SOL    HW1 8465   1.344   2.089   0.356
 2522SOL    HW2 8466   1.403   2.116   0.506
 2523SOL     OW 8467   1.056   5.187   4.683
 2523SOL    HW1 8468   1.069   5.263   4.619
 2523SOL    HW2 8469   1.062   5.221   4.777
 2524SOL     OW 8470   1.014   2.218   4.722
 2524SOL    HW1 8471   1.049   2.260   4.638
 2524SOL    HW2 8472   1.083   2.224   4.794
 2525SOL     OW 8473   6.785   3.649   6.539
 2525SOL    HW1 8474   6.833   3.732   6.509
 2525SOL    HW2 8475   6.748   3.602   6.459
 2526SOL     OW 8476   2.520   1.179   1.299
 2526SOL    HW1 8477   2.565   1.266   1.282
 2526SOL    HW2 8478   2.429   1.196   1.338
 2527SOL     OW 8479   3.788   5.108   0.101
 2527SOL    HW1 8480   3.845   5.030   0.077
 2527SOL    HW2 8481   3.804   5.132   0.197
 2528SOL     OW 8482   4.544   5.607   6.576
 2528SOL    HW1 8483   4.638   5.576   6.591
 2528SOL    HW2 8484   4.480   5.534   6.601
 2529SOL     OW 8485   0.115   6.219   5.842
 2529SOL    HW1 8486   0.174   6.293   5.811
 2529SOL    HW2 8487   0.036   6.257   5.889
 2530SOL     OW 8488   2.197   6.180   6.023
 2530SOL    HW1 8489   2.249   6.230   6.093
 2530SOL    HW2 8490   2.224   6.214   5.932
 2531SOL     OW 8491   0.191   4.091   6.347
 2531SOL    HW1 8492   0.270   4.138   6.387
 2531SOL    HW2 8493   0.224   4.021   6.283
 2532SOL     OW 8494   5.139   6.897   2.892
 2532SOL    HW1 8495   5.134   6.817   2.953
 2532SOL    HW2 8496   5.139   6.866   2.797
 2533SOL     OW 8497   4.726   0.310   3.821
 2533SOL    HW1 8498   4.777   0.224   3.809
 2533SOL    HW2 8499   4.778   0.372   3.879
 2534SOL     OW 8500   4.666   1.993   2.453
 2534SOL    HW1 8501   4.686   1.968   2.358
 2534SOL    HW2 8502   4.582   2.046   2.456
 2535SOL     OW 8503   4.260   3.101   5.876
 2535SOL    HW1 8504   4.317   3.177   5.907
 2535SOL    HW2 8505   4.237   3.113   5.779
 2536SOL     OW 8506   0.860   0.707   1.300
 2536SOL    HW1 8507   0.906   0.625   1.333
 2536SOL    HW2 8508   0.928   0.777   1.280
 2537SOL     OW 8509   4.318   6.944   5.144
 2537SOL    HW1 8510   4.330   6.941   5.045
 2537SOL    HW2 8511   4.286   0.013   5.171
 2538SOL     OW 8512   6.271   4.142   3.781
 2538SOL    HW1 8513   6.204   4.216   3.789
 2538SOL    HW2 8514   6.237   4.074   3.716
 2539SOL     OW 8515   4.827   1.927   4.796
 2539SOL    HW1 8516   4.919   1.951   4.826
 2539SOL    HW2 8517   4.802   1.837   4.831
 2540SOL     OW 8518   2.398   2.335   1.671
 2540SOL    HW1 8519   2.467   2.355   1.741
 2540SOL    HW2 8520   2.307   2.336   1.712
 2541SOL     OW 8521   3.123   6.899   4.603
 2541SOL    HW1 8522   3.108   6.842   4.683
 2541SOL    HW2 8523   3.076   6.986   4.615
 2542SOL     OW 8524   1.699   5.337   5.429
 2542SOL    HW1 8525   1.792   5.372   5.417
 2542SOL    HW2 8526   1.686   5.309   5.524
 2543SOL     OW 8527   0.940   1.231   3.488
 2543SOL    HW1 8528   1.017   1.295   3.490
 2543SOL    HW2 8529   0.869   1.266   3.426
 2544SOL     OW 8530   1.149   5.785   6.130
 2544SOL    HW1 8531   1.198   5.853   6.077
 2544SOL    HW2 8532   1.059   5.821   6.156
 2545SOL     OW 8533   3.242   6.398   2.708
 2545SOL    HW1 8534   3.293   6.341   2.773
 2545SOL    HW2 8535   3.227   6.488   2.748
 2546SOL     OW 8536   6.866   1.084   2.984
 2546SOL    HW1 8537   6.924   1.136   2.921
 2546SOL    HW2 8538   6.918   1.062   3.067
 2547SOL     OW 8539   0.205   4.039   4.882
 2547SOL    HW1 8540   0.209   4.022   4.783
 2547SOL    HW2 8541   0.224   3.954   4.931
 2548SOL     OW 8542   6.822   0.767   5.411
 2548SOL    HW1 8543   6.885   0.694   5.383
 2548SOL    HW2 8544   6.765   0.793   5.333
 2549SOL     OW 8545   5.711   2.439   3.660
 2549SOL    HW1 8546   5.714   2.527   3.613
 2549SOL    HW2 8547   5.761   2.371   3.607
 2550SOL     OW 8548   5.937   5.187   0.208
 2550SOL    HW1 8549   5.989   5.209   0.126
 2550SOL    HW2 8550   5.874   5.111   0.187
 2551SOL     OW 8551   0.984   4.793   6.185
 2551SOL    HW1 8552   0.996   4.891   6.203
 2551SOL    HW2 8553   1.043   4.766   6.109
 2552SOL     OW 8554   1.639   6.257   3.317
 2552SOL    HW1 8555   1.650   6.226   3.412
 2552SOL    HW2 8556   1.722   6.239   3.266
 2553SOL     OW 8557   4.608   2.858   0.521
 2553SOL    HW1 8558   4.681   2.921   0.495
 2553SOL    HW2 8559   4.522   2.908   0.528
 2554SOL     OW 8560   0.567   1.690   0.466
 2554SOL    HW1 8561   0.469   1.677   0.451
 2554SOL    HW2 8562   0.608   1.729   0.383
 2555SOL     OW 8563   0.479   0.098   5.538
 2555SOL    HW1 8564   0.564   0.133   5.578
 2555SOL    HW2 8565   0.411   0.171   5.537
 2556SOL     OW 8566   4.317   4.742   0.049
 2556SOL    HW1 8567   4.400   4.767   7.020
 2556SOL    HW2 8568   4.304   4.643   0.044
 2557SOL     OW 8569   2.333   4.866   6.432
 2557SOL    HW1 8570   2.295   4.839   6.343
 2557SOL    HW2 8571   2.259   4.892   6.493
 2558SOL     OW 8572   4.288   0.886   5.245
 2558SOL    HW1 8573   4.229   0.875   5.165
 2558SOL    HW2 8574   4.325   0.979   5.247
 2559SOL     OW 8575   6.751   4.996   4.942
 2559SOL    HW1 8576   6.666   4.947   4.928
 2559SOL    HW2 8577   6.818   4.967   4.873
 2560SOL     OW 8578   6.496   0.091   0.385
 2560SOL    HW1 8579   6.569   0.159   0.395
 2560SOL    HW2 8580   6.466   0.088   0.290
 2561SOL     OW 8581   3.345   6.234   3.826
 2561SOL    HW1 8582   3.288   6.220   3.907
 2561SOL    HW2 8583   3.367   6.332   3.817
 2562SOL     OW 8584   1.986   3.912   0.054
 2562SOL    HW1 8585   1.960   3.923   0.150
 2562SOL    HW2 8586   1.919   3.853   0.008
 2563SOL     OW 8587   1.666   0.254   1.895
 2563SOL    HW1 8588   1.616   0.281   1.812
 2563SOL    HW2 8589   1.611   0.189   1.947
 2564SOL     OW 8590   0.832   6.210   2.744
 2564SOL    HW1 8591   0.841   6.164   2.833
 2564SOL    HW2 8592   0.834   6.309   2.757
 2565SOL     OW 8593   1.060   1.208   0.733
 2565SOL    HW1 8594   1.007   1.254   0.805
 2565SOL    HW2 8595   1.040   1.251   0.645
 2566SOL     OW 8596   2.706   6.522   5.206
 2566SOL    HW1 8597   2.765   6.442   5.219
 2566SOL    HW2 8598   2.614   6.492   5.182
 2567SOL     OW 8599   1.075   0.599   0.533
 2567SOL    HW1 8600   1.137   0.530   0.496
 2567SOL    HW2 8601   1.124   0.685   0.546
 2568SOL     OW 8602   5.711   3.215   0.547
 2568SOL    HW1 8603   5.761   3.286   0.597
 2568SOL    HW2 8604   5.686   3.250   0.456
 2569SOL     OW 8605   2.129   1.039   2.367
 2569SOL    HW1 8606   2.227   1.060   2.365
 2569SOL    HW2 8607   2.100   1.025   2.462
 2570SOL     OW 8608   6.547   2.909   6.198
 2570SOL    HW1 8609   6.524   2.823   6.244
 2570SOL    HW2 8610   6.614   2.960   6.252
 2571SOL     OW 8611   1.545   4.415   3.956
 2571SOL    HW1 8612   1.513   4.321   3.970
 2571SOL    HW2 8613   1.637   4.425   3.994
 2572SOL     OW 8614   1.625   4.902   3.108
 2572SOL    HW1 8615   1.596   4.994   3.081
 2572SOL    HW2 8616   1.690   4.909   3.184
 2573SOL     OW 8617   1.100   0.029   0.568
 2573SOL    HW1 8618   1.121   6.955   0.587
 2573SOL    HW2 8619   1.105   0.046   0.470
 2574SOL     OW 8620   6.501   3.200   1.656
 2574SOL    HW1 8621   6.506   3.300   1.654
 2574SOL    HW2 8622   6.489   3.169   1.751
 2575SOL     OW 8623   1.017   0.384   4.951
 2575SOL    HW1 8624   1.050   0.446   4.880
 2575SOL    HW2 8625   1.070   0.300   4.950
 2576SOL     OW 8626   4.771   6.673   5.175
 2576SOL    HW1 8627   4.854   6.726   5.160
 2576SOL    HW2 8628   4.727   6.654   5.087
 2577SOL     OW 8629   2.036   3.929   2.141
 2577SOL    HW1 8630   2.093   3.959   2.218
 2577SOL    HW2 8631   1.942   3.960   2.156
 2578SOL     OW 8632   3.979   1.860   1.872
 2578SOL    HW1 8633   3.957   1.765   1.891
 2578SOL    HW2 8634   3.894   1.912   1.863
 2579SOL     OW 8635   0.211   6.599   3.220
 2579SOL    HW1 8636   0.276   6.524   3.211
 2579SOL    HW2 8637   0.257   6.686   3.204
 2580SOL     OW 8638   3.023   2.079   5.599
 2580SOL    HW1 8639   2.989   2.150   5.538
 2580SOL    HW2 8640   2.976   2.086   5.687
 2581SOL     OW 8641   3.706   0.908   6.064
 2581SOL    HW1 8642   3.663   0.820   6.084
 2581SOL    HW2 8643   3.730   0.912   5.967
 2582SOL     OW 8644   0.116   3.474   0.226
 2582SOL    HW1 8645   0.147   3.557   0.272
 2582SOL    HW2 8646   0.102   3.402   0.294
 2583SOL     OW 8647   4.903   1.121   0.940
 2583SOL    HW1 8648   4.881   1.147   0.846
 2583SOL    HW2 8649   4.916   1.022   0.944
 2584SOL     OW 8650   2.892   4.107   0.059
 2584SOL    HW1 8651   2.969   4.082   0.001
 2584SOL    HW2 8652   2.806   4.084   0.011
 2585SOL     OW 8653   1.872   4.971   0.013
 2585SOL    HW1 8654   1.935   5.043   0.040
 2585SOL    HW2 8655   1.911   4.882   0.038
 2586SOL     OW 8656   1.986   1.575   2.548
 2586SOL    HW1 8657   1.890   1.594   2.531
 2586SOL    HW2 8658   2.039   1.588   2.464
 2587SOL     OW 8659   5.899   1.248   3.974
 2587SOL    HW1 8660   5.922   1.157   3.942
 2587SOL    HW2 8661   5.800   1.263   3.962
 2588SOL     OW 8662   5.038   1.597   6.344
 2588SOL    HW1 8663   5.014   1.644   6.429
 2588SOL    HW2 8664   5.041   1.498   6.361
 2589SOL     OW 8665   1.400   6.233   0.325
 2589SOL    HW1 8666   1.391   6.207   0.421
 2589SOL    HW2 8667   1.496   6.254   0.305
 2590SOL     OW 8668   3.146   4.014   0.661
 2590SOL    HW1 8669   3.078   3.941   0.654
 2590SOL    HW2 8670   3.101   4.103   0.648
 2591SOL     OW 8671   4.699   6.390   2.589
 2591SOL    HW1 8672   4.673   6.337   2.670
 2591SOL    HW2 8673   4.664   6.483   2.597
 2592SOL     OW 8674   3.265   3.506   1.175
 2592SOL    HW1 8675   3.240   3.428   1.118
 2592SOL    HW2 8676   3.304   3.578   1.118
 2593SOL     OW 8677   2.523   4.646   6.753
 2593SOL    HW1 8678   2.513   4.729   6.698
 2593SOL    HW2 8679   2.591   4.662   6.825
 2594SOL     OW 8680   2.208   2.548   3.189
 2594SOL    HW1 8681   2.152   2.582   3.264
 2594SOL    HW2 8682   2.194   2.449   3.179
 2595SOL     OW 8683   1.407   1.029   2.504
 2595SOL    HW1 8684   1.415   1.126   2.528
 2595SOL    HW2 8685   1.342   0.984   2.567
 2596SOL     OW 8686   6.707   0.757   0.267
 2596SOL    HW1 8687   6.700   0.657   0.271
 2596SOL    HW2 8688   6.783   0.788   0.323
 2597SOL     OW 8689   5.941   5.927   0.248
 2597SOL    HW1 8690   5.879   6.000   0.277
 2597SOL    HW2 8691   5.951   5.861   0.322
 2598SOL     OW 8692   5.047   2.826   1.948
 2598SOL    HW1 8693   5.085   2.852   1.859
 2598SOL    HW2 8694   4.948   2.812   1.939
 2599SOL     OW 8695   2.170   5.258   1.648
 2599SOL    HW1 8696   2.173   5.324   1.724
 2599SOL    HW2 8697   2.077   5.254   1.612
 2600SOL     OW 8698   5.838   5.654   4.775
 2600SOL    HW1 8699   5.770   5.673   4.846
 2600SOL    HW2 8700   5.867   5.740   4.733
 2601SOL     OW 8701   0.008   1.515   3.031
 2601SOL    HW1 8702   0.079   1.544   2.966
 2601SOL    HW2 8703   0.048   1.453   3.098
 2602SOL     OW 8704   2.077   4.527   3.168
 2602SOL    HW1 8705   2.110   4.446   3.215
 2602SOL    HW2 8706   2.011   4.575   3.226
 2603SOL     OW 8707   1.853   6.205   1.848
 2603SOL    HW1 8708   1.895   6.145   1.780
 2603SOL    HW2 8709   1.910   6.208   1.930
 2604SOL     OW 8710   5.262   2.898   2.867
 2604SOL    HW1 8711   5.272   2.876   2.964
 2604SOL    HW2 8712   5.171   2.872   2.836
 2605SOL     OW 8713   0.999   2.279   0.845
 2605SOL    HW1 8714   0.988   2.371   0.808
 2605SOL    HW2 8715   1.057   2.225   0.782
 2606SOL     OW 8716   5.142   3.682   1.049
 2606SOL    HW1 8717   5.098   3.634   1.124
 2606SOL    HW2 8718   5.072   3.727   0.993
 2607SOL     OW 8719   2.304   2.768   2.201
 2607SOL    HW1 8720   2.386   2.795   2.252
 2607SOL    HW2 8721   2.237   2.729   2.264
 2608SOL     OW 8722   3.310   4.921   5.351
 2608SOL    HW1 8723   3.367   4.936   5.432
 2608SOL    HW2 8724   3.250   4.843   5.368
 2609SOL     OW 8725   0.108   1.728   2.514
 2609SOL    HW1 8726   0.008   1.739   2.518
 2609SOL    HW2 8727   0.135   1.709   2.420
 2610SOL     OW 8728   1.277   4.775   5.174
 2610SOL    HW1 8729   1.338   4.836   5.123
 2610SOL    HW2 8730   1.297   4.781   5.271
 2611SOL     OW 8731   4.841   2.338   5.463
 2611SOL    HW1 8732   4.876   2.316   5.554
 2611SOL    HW2 8733   4.741   2.341   5.467
 2612SOL     OW 8734   6.202   5.877   0.075
 2612SOL    HW1 8735   6.181   5.915   7.006
 2612SOL    HW2 8736   6.138   5.803   0.095
 2613SOL     OW 8737   1.752   0.077   0.499
 2613SOL    HW1 8738   1.790   0.168   0.514
 2613SOL    HW2 8739   1.684   0.081   0.425
 2614SOL     OW 8740   6.456   1.622   0.698
 2614SOL    HW1 8741   6.361   1.618   0.726
 2614SOL    HW2 8742   6.487   1.717   0.693
 2615SOL     OW 8743   1.503   3.049   0.140
 2615SOL    HW1 8744   1.466   3.132   0.181
 2615SOL    HW2 8745   1.597   3.066   0.108
 2616SOL     OW 8746   1.011   1.425   5.045
 2616SOL    HW1 8747   0.935   1.467   5.093
 2616SOL    HW2 8748   1.097   1.449   5.090
 2617SOL     OW 8749   6.556   0.163   6.657
 2617SOL    HW1 8750   6.470   0.121   6.627
 2617SOL    HW2 8751   6.539   0.258   6.685
 2618SOL     OW 8752   1.833   6.853   0.517
 2618SOL    HW1 8753   1.796   6.945   0.526
 2618SOL    HW2 8754   1.919   6.856   0.466
 2619SOL     OW 8755   3.999   1.183   2.623
 2619SOL    HW1 8756   3.914   1.132   2.640
 2619SOL    HW2 8757   4.057   1.132   2.560
 2620SOL     OW 8758   5.628   2.456   2.001
 2620SOL    HW1 8759   5.618   2.542   2.051
 2620SOL    HW2 8760   5.585   2.464   1.911
 2621SOL     OW 8761   2.415   6.031   0.961
 2621SOL    HW1 8762   2.412   6.131   0.965
 2621SOL    HW2 8763   2.365   6.000   0.880
 2622SOL     OW 8764   2.353   3.394   6.952
 2622SOL    HW1 8765   2.259   3.418   6.928
 2622SOL    HW2 8766   2.383   3.449   0.008
 2623SOL     OW 8767   0.696   1.834   3.860
 2623SOL    HW1 8768   0.639   1.800   3.786
 2623SOL    HW2 8769   0.654   1.811   3.948
 2624SOL     OW 8770   1.289   1.036   5.515
 2624SOL    HW1 8771   1.249   1.087   5.591
 2624SOL    HW2 8772   1.220   0.976   5.476
 2625SOL     OW 8773   3.074   5.534   5.755
 2625SOL    HW1 8774   3.164   5.490   5.758
 2625SOL    HW2 8775   3.016   5.486   5.690
 2626SOL     OW 8776   0.184   0.094   0.380
 2626SOL    HW1 8777   0.158   0.086   0.283
 2626SOL    HW2 8778   0.159   0.184   0.414
 2627SOL     OW 8779   2.991   0.255   5.221
 2627SOL    HW1 8780   3.051   0.333   5.199
 2627SOL    HW2 8781   2.909   0.289   5.267
 2628SOL     OW 8782   6.850   5.636   2.112
 2628SOL    HW1 8783   6.939   5.639   2.157
 2628SOL    HW2 8784   6.834   5.722   2.063
 2629SOL     OW 8785   3.278   3.187   2.331
 2629SOL    HW1 8786   3.245   3.281   2.335
 2629SOL    HW2 8787   3.206   3.125   2.363
 2630SOL     OW 8788   3.391   1.556   4.590
 2630SOL    HW1 8789   3.397   1.592   4.683
 2630SOL    HW2 8790   3.312   1.596   4.544
 2631SOL     OW 8791   5.185   5.581   0.249
 2631SOL    HW1 8792   5.125   5.502   0.261
 2631SOL    HW2 8793   5.280   5.554   0.267
 2632SOL     OW 8794   3.967   5.789   2.015
 2632SOL    HW1 8795   4.043   5.796   2.080
 2632SOL    HW2 8796   3.986   5.716   1.950
 2633SOL     OW 8797   6.762   3.124   6.184
 2633SOL    HW1 8798   6.756   3.190   6.259
 2633SOL    HW2 8799   6.719   3.161   6.102
 2634SOL     OW 8800   2.083   1.892   6.171
 2634SOL    HW1 8801   2.046   1.873   6.080
 2634SOL    HW2 8802   2.011   1.928   6.230
 2635SOL     OW 8803   4.138   5.573   3.371
 2635SOL    HW1 8804   4.114   5.656   3.320
 2635SOL    HW2 8805   4.097   5.494   3.327
 2636SOL     OW 8806   3.340   6.849   6.144
 2636SOL    HW1 8807   3.338   6.897   6.232
 2636SOL    HW2 8808   3.397   6.768   6.151
 2637SOL     OW 8809   6.084   1.143   3.068
 2637SOL    HW1 8810   6.166   1.201   3.066
 2637SOL    HW2 8811   6.039   1.153   3.157
 2638SOL     OW 8812   0.207   6.204   4.470
 2638SOL    HW1 8813   0.254   6.249   4.545
 2638SOL    HW2 8814   0.244   6.112   4.457
 2639SOL     OW 8815   4.955   5.629   4.934
 2639SOL    HW1 8816   4.884   5.584   4.989
 2639SOL    HW2 8817   4.914   5.702   4.879
 2640SOL     OW 8818   1.676   0.992   3.049
 2640SOL    HW1 8819   1.609   1.043   2.996
 2640SOL    HW2 8820   1.680   1.028   3.142
 2641SOL     OW 8821   4.742   2.251   1.150
 2641SOL    HW1 8822   4.690   2.334   1.172
 2641SOL    HW2 8823   4.680   2.173   1.148
 2642SOL     OW 8824   0.441   0.399   3.025
 2642SOL    HW1 8825   0.470   0.318   2.974
 2642SOL    HW2 8826   0.440   0.478   2.964
 2643SOL     OW 8827   1.649   5.029   4.882
 2643SOL    HW1 8828   1.733   5.046   4.935
 2643SOL    HW2 8829   1.672   5.010   4.787
 2644SOL     OW 8830   5.740   5.881   3.915
 2644SOL    HW1 8831   5.680   5.942   3.966
 2644SOL    HW2 8832   5.835   5.895   3.945
 2645SOL     OW 8833   4.466   5.572   2.400
 2645SOL    HW1 8834   4.528   5.647   2.378
 2645SOL    HW2 8835   4.470   5.503   2.328
 2646SOL     OW 8836   1.439   1.343   6.626
 2646SOL    HW1 8837   1.385   1.351   6.710
 2646SOL    HW2 8838   1.425   1.252   6.586
 2647SOL     OW 8839   4.268   0.484   2.822
 2647SOL    HW1 8840   4.273   0.437   2.910
 2647SOL    HW2 8841   4.182   0.535   2.817
 2648SOL     OW 8842   1.722   0.295   6.269
 2648SOL    HW1 8843   1.773   0.380   6.254
 2648SOL    HW2 8844   1.746   0.257   6.359
 2649SOL     OW 8845   5.850   1.905   3.634
 2649SOL    HW1 8846   5.784   1.942   3.569
 2649SOL    HW2 8847   5.849   1.805   3.629
 2650SOL     OW 8848   1.519   6.688   4.287
 2650SOL    HW1 8849   1.600   6.629   4.287
 2650SOL    HW2 8850   1.535   6.765   4.226
 2651SOL     OW 8851   2.678   1.857   2.660
 2651SOL    HW1 8852   2.771   1.892   2.649
 2651SOL    HW2 8853   2.613   1.918   2.616
 2652SOL     OW 8854   4.012   3.680   6.418
 2652SOL    HW1 8855   3.957   3.612   6.370
 2652SOL    HW2 8856   3.994   3.770   6.380
 2653SOL     OW 8857   2.706   6.972   1.085
 2653SOL    HW1 8858   2.687   6.876   1.107
 2653SOL    HW2 8859   2.689   0.007   1.165
 2654SOL     OW 8860   6.517   0.295   1.820
 2654SOL    HW1 8861   6.441   0.233   1.806
 2654SOL    HW2 8862   6.485   0.389   1.814
 2655SOL     OW 8863   5.793   6.840   4.545
 2655SOL    HW1 8864   5.871   6.868   4.490
 2655SOL    HW2 8865   5.709   6.851   4.493
 2656SOL     OW 8866   5.613   0.158   4.613
 2656SOL    HW1 8867   5.705   0.156   4.654
 2656SOL    HW2 8868   5.621   0.140   4.515
 2657SOL     OW 8869   2.168   3.654   5.989
 2657SOL    HW1 8870   2.096   3.647   6.059
 2657SOL    HW2 8871   2.161   3.577   5.926
 2658SOL     OW 8872   3.465   4.247   0.837
 2658SOL    HW1 8873   3.442   4.151   0.817
 2658SOL    HW2 8874   3.465   4.262   0.936
 2659SOL     OW 8875   0.492   2.442   5.026
 2659SOL    HW1 8876   0.405   2.404   4.995
 2659SOL    HW2 8877   0.544   2.372   5.075
 2660SOL     OW 8878   0.652   1.098   0.157
 2660SOL    HW1 8879   0.589   1.021   0.152
 2660SOL    HW2 8880   0.615   1.175   0.106
 2661SOL     OW 8881   1.712   1.313   1.456
 2661SOL    HW1 8882   1.648   1.388   1.472
 2661SOL    HW2 8883   1.689   1.235   1.514
 2662SOL     OW 8884   2.972   1.744   1.423
 2662SOL    HW1 8885   2.948   1.832   1.382
 2662SOL    HW2 8886   2.903   1.720   1.491
 2663SOL     OW 8887   3.688   6.933   0.795
 2663SOL    HW1 8888   3.728   6.985   0.870
 2663SOL    HW2 8889   3.701   6.835   0.812
 2664SOL     OW 8890   4.774   3.304   5.215
 2664SOL    HW1 8891   4.819   3.266   5.134
 2664SOL    HW2 8892   4.729   3.390   5.190
 2665SOL     OW 8893   1.491   3.537   4.431
 2665SOL    HW1 8894   1.555   3.544   4.507
 2665SOL    HW2 8895   1.456   3.628   4.407
 2666SOL     OW 8896   1.931   3.300   2.032
 2666SOL    HW1 8897   1.986   3.292   2.115
 2666SOL    HW2 8898   1.835   3.278   2.053
 2667SOL     OW 8899   6.551   2.394   4.095
 2667SOL    HW1 8900   6.529   2.367   4.002
 2667SOL    HW2 8901   6.562   2.493   4.099
 2668SOL     OW 8902   5.793   0.796   3.049
 2668SOL    HW1 8903   5.792   0.825   2.954
 2668SOL    HW2 8904   5.883   0.812   3.089
 2669SOL     OW 8905   2.397   1.956   2.110
 2669SOL    HW1 8906   2.490   1.959   2.144
 2669SOL    HW2 8907   2.373   1.862   2.085
 2670SOL     OW 8908   0.771   6.536   1.318
 2670SOL    HW1 8909   0.731   6.579   1.399
 2670SOL    HW2 8910   0.871   6.547   1.321
 2671SOL     OW 8911   5.183   4.333   6.470
 2671SOL    HW1 8912   5.266   4.320   6.416
 2671SOL    HW2 8913   5.205   4.377   6.557
 2672SOL     OW 8914   1.361   0.490   2.599
 2672SOL    HW1 8915   1.363   0.581   2.556
 2672SOL    HW2 8916   1.383   0.421   2.530
 2673SOL     OW 8917   3.210   1.041   3.411
 2673SOL    HW1 8918   3.263   1.115   3.452
 2673SOL    HW2 8919   3.113   1.062   3.417
 2674SOL     OW 8920   5.492   5.726   2.664
 2674SOL    HW1 8921   5.548   5.752   2.741
 2674SOL    HW2 8922   5.446   5.807   2.626
 2675SOL     OW 8923   4.554   1.057   3.506
 2675SOL    HW1 8924   4.616   1.109   3.447
 2675SOL    HW2 8925   4.587   1.062   3.601
 2676SOL     OW 8926   3.851   3.564   5.932
 2676SOL    HW1 8927   3.948   3.546   5.913
 2676SOL    HW2 8928   3.795   3.493   5.889
 2677SOL     OW 8929   1.633   5.238   1.362
 2677SOL    HW1 8930   1.578   5.217   1.281
 2677SOL    HW2 8931   1.640   5.338   1.372
 2678SOL     OW 8932   3.641   1.816   1.573
 2678SOL    HW1 8933   3.668   1.729   1.614
 2678SOL    HW2 8934   3.551   1.842   1.606
 2679SOL     OW 8935   2.455   4.668   2.448
 2679SOL    HW1 8936   2.527   4.649   2.515
 2679SOL    HW2 8937   2.480   4.750   2.396
 2680SOL     OW 8938   6.171   1.774   6.541
 2680SOL    HW1 8939   6.094   1.747   6.484
 2680SOL    HW2 8940   6.239   1.700   6.542
 2681SOL     OW 8941   2.461   2.592   2.966
 2681SOL    HW1 8942   2.405   2.667   3.002
 2681SOL    HW2 8943   2.494   2.535   3.041
 2682SOL     OW 8944   4.097   3.657   2.841
 2682SOL    HW1 8945   4.123   3.571   2.884
 2682SOL    HW2 8946   4.071   3.723   2.911
 2683SOL     OW 8947   2.248   3.526   1.502
 2683SOL    HW1 8948   2.339   3.562   1.520
 2683SOL    HW2 8949   2.243   3.493   1.408
 2684SOL     OW 8950   5.592   0.806   3.593
 2684SOL    HW1 8951   5.599   0.804   3.493
 2684SOL    HW2 8952   5.615   0.716   3.630
 2685SOL     OW 8953   1.991   0.156   6.238
 2685SOL    HW1 8954   1.967   0.074   6.291
 2685SOL    HW2 8955   1.978   0.138   6.141
 2686SOL     OW 8956   1.994   2.226   5.950
 2686SOL    HW1 8957   2.091   2.213   5.928
 2686SOL    HW2 8958   1.960   2.307   5.903
 2687SOL     OW 8959   3.659   2.540   1.677
 2687SOL    HW1 8960   3.590   2.512   1.611
 2687SOL    HW2 8961   3.661   2.476   1.754
 2688SOL     OW 8962   4.457   2.421   0.385
 2688SOL    HW1 8963   4.494   2.379   0.302
 2688SOL    HW2 8964   4.454   2.352   0.458
 2689SOL     OW 8965   0.658   3.545   2.568
 2689SOL    HW1 8966   0.666   3.553   2.667
 2689SOL    HW2 8967   0.735   3.591   2.524
 2690SOL     OW 8968   5.236   1.039   3.917
 2690SOL    HW1 8969   5.262   0.956   3.867
 2690SOL    HW2 8970   5.299   1.113   3.896
 2691SOL     OW 8971   5.690   3.849   3.928
 2691SOL    HW1 8972   5.660   3.904   3.850
 2691SOL    HW2 8973   5.728   3.762   3.896
 2692SOL     OW 8974   1.653   6.071   1.427
 2692SOL    HW1 8975   1.679   6.133   1.353
 2692SOL    HW2 8976   1.657   6.119   1.514
 2693SOL     OW 8977   0.521   5.937   2.889
 2693SOL    HW1 8978   0.562   5.849   2.868
 2693SOL    HW2 8979   0.475   5.973   2.808
 2694SOL     OW 8980   2.863   0.874   2.143
 2694SOL    HW1 8981   2.789   0.902   2.204
 2694SOL    HW2 8982   2.825   0.823   2.066
 2695SOL     OW 8983   6.302   5.679   3.069
 2695SOL    HW1 8984   6.352   5.596   3.093
 2695SOL    HW2 8985   6.365   5.746   3.030
 2696SOL     OW 8986   4.087   4.483   6.093
 2696SOL    HW1 8987   4.033   4.525   6.166
 2696SOL    HW2 8988   4.140   4.407   6.130
 2697SOL     OW 8989   4.714   3.349   6.957
 2697SOL    HW1 8990   4.790   3.294   6.922
 2697SOL    HW2 8991   4.662   3.295   0.001
 2698SOL     OW 8992   2.055   5.276   0.602
 2698SOL    HW1 8993   2.053   5.363   0.554
 2698SOL    HW2 8994   1.962   5.240   0.610
 2699SOL     OW 8995   2.932   6.929   2.830
 2699SOL    HW1 8996   2.842   6.894   2.805
 2699SOL    HW2 8997   2.972   6.978   2.753
 2700SOL     OW 8998   4.648   2.341   0.705
 2700SOL    HW1 8999   4.569   2.314   0.651
 2700SOL    HW2 9000   4.729   2.347   0.646
 2701SOL     OW 9001   5.228   4.055   5.547
 2701SOL    HW1 9002   5.256   4.004   5.628
 2701SOL    HW2 9003   5.145   4.015   5.509
 2702SOL     OW 9004   1.812   2.185   4.879
 2702SOL    HW1 9005   1.829   2.248   4.802
 2702SOL    HW2 9006   1.857   2.098   4.862
 2703SOL     OW 9007   2.397   6.237   1.483
 2703SOL    HW1 9008   2.310   6.217   1.440
 2703SOL    HW2 9009   2.402   6.190   1.571
 2704SOL     OW 9010   4.567   0.976   3.136
 2704SOL    HW1 9011   4.491   1.040   3.126
 2704SOL    HW2 9012   4.560   0.904   3.067
 2705SOL     OW 9013   0.821   0.981   5.111
 2705SOL    HW1 9014   0.919   0.986   5.130
 2705SOL    HW2 9015   0.773   1.050   5.165
 2706SOL     OW 9016   0.954   4.253   4.911
 2706SOL    HW1 9017   1.026   4.204   4.863
 2706SOL    HW2 9018   0.995   4.310   4.983
 2707SOL     OW 9019   3.786   0.732   2.538
 2707SOL    HW1 9020   3.769   0.697   2.446
 2707SOL    HW2 9021   3.731   0.679   2.604
 2708SOL     OW 9022   5.262   2.785   5.210
 2708SOL    HW1 9023   5.193   2.791   5.138
 2708SOL    HW2 9024   5.217   2.760   5.296
 2709SOL     OW 9025   5.275   1.255   5.409
 2709SOL    HW1 9026   5.180   1.253   5.440
 2709SOL    HW2 9027   5.283   1.319   5.332
 2710SOL     OW 9028   0.864   3.025   4.307
 2710SOL    HW1 9029   0.817   2.981   4.383
 2710SOL    HW2 9030   0.896   2.956   4.243
 2711SOL     OW 9031   4.783   0.454   1.156
 2711SOL    HW1 9032   4.840   0.406   1.089
 2711SOL    HW2 9033   4.793   0.553   1.144
 2712SOL     OW 9034   4.543   6.292   1.658
 2712SOL    HW1 9035   4.465   6.344   1.692
 2712SOL    HW2 9036   4.528   6.195   1.675
 2713SOL     OW 9037   3.986   4.300   5.272
 2713SOL    HW1 9038   4.036   4.258   5.197
 2713SOL    HW2 9039   4.050   4.351   5.330
 2714SOL     OW 9040   3.134   4.214   5.999
 2714SOL    HW1 9041   3.122   4.256   6.089
 2714SOL    HW2 9042   3.077   4.262   5.932
 2715SOL     OW 9043   4.963   6.780   0.360
 2715SOL    HW1 9044   4.953   6.691   0.404
 2715SOL    HW2 9045   4.897   6.788   0.286
 2716SOL     OW 9046   4.216   0.721   2.261
 2716SOL    HW1 9047   4.276   0.737   2.340
 2716SOL    HW2 9048   4.262   0.663   2.195
 2717SOL     OW 9049   6.993   1.646   1.916
 2717SOL    HW1 9050   6.971   1.673   2.010
 2717SOL    HW2 9051   0.015   1.723   1.869
 2718SOL     OW 9052   6.041   1.081   6.539
 2718SOL    HW1 9053   6.140   1.097   6.545
 2718SOL    HW2 9054   6.022   0.983   6.540
 2719SOL     OW 9055   1.353   4.747   4.524
 2719SOL    HW1 9056   1.300   4.773   4.605
 2719SOL    HW2 9057   1.433   4.693   4.552
 2720SOL     OW 9058   1.837   4.658   6.000
 2720SOL    HW1 9059   1.781   4.683   5.921
 2720SOL    HW2 9060   1.847   4.738   6.060
 2721SOL     OW 9061   2.343   6.256   3.746
 2721SOL    HW1 9062   2.314   6.351   3.751
 2721SOL    HW2 9063   2.341   6.215   3.838
 2722SOL     OW 9064   3.592   4.614   6.662
 2722SOL    HW1 9065   3.506   4.632   6.710
 2722SOL    HW2 9066   3.613   4.517   6.669
 2723SOL     OW 9067   4.689   5.019   0.263
 2723SOL    HW1 9068   4.724   4.930   0.291
 2723SOL    HW2 9069   4.667   5.017   0.166
 2724SOL     OW 9070   0.274   6.319   1.024
 2724SOL    HW1 9071   0.366   6.357   1.034
 2724SOL    HW2 9072   0.211   6.390   0.993
 2725SOL     OW 9073   6.254   4.104   2.916
 2725SOL    HW1 9074   6.161   4.097   2.879
 2725SOL    HW2 9075   6.253   4.155   3.001
 2726SOL     OW 9076   6.278   2.093   2.801
 2726SOL    HW1 9077   6.234   2.105   2.712
 2726SOL    HW2 9078   6.219   2.131   2.873
 2727SOL     OW 9079   1.356   4.355   3.427
 2727SOL    HW1 9080   1.431   4.349   3.361
 2727SOL    HW2 9081   1.393   4.349   3.519
 2728SOL     OW 9082   4.255   4.299   6.773
 2728SOL    HW1 9083   4.166   4.268   6.807
 2728SOL    HW2 9084   4.282   4.244   6.694
 2729SOL     OW 9085   0.618   0.428   0.939
 2729SOL    HW1 9086   0.649   0.335   0.961
 2729SOL    HW2 9087   0.619   0.483   1.022
 2730SOL     OW 9088   1.326   5.446   2.992
 2730SOL    HW1 9089   1.413   5.414   2.953
 2730SOL    HW2 9090   1.259   5.373   2.988
 2731SOL     OW 9091   3.919   4.040   5.402
 2731SOL    HW1 9092   3.983   3.981   5.352
 2731SOL    HW2 9093   3.942   4.136   5.387
 2732SOL     OW 9094   4.284   0.880   2.000
 2732SOL    HW1 9095   4.278   0.780   2.001
 2732SOL    HW2 9096   4.329   0.911   2.084
 2733SOL     OW 9097   0.392   0.621   0.116
 2733SOL    HW1 9098   0.329   0.544   0.123
 2733SOL    HW2 9099   0.457   0.604   0.041
 2734SOL     OW 9100   3.599   0.052   1.751
 2734SOL    HW1 9101   3.586   0.035   1.654
 2734SOL    HW2 9102   3.583   0.148   1.771
 2735SOL     OW 9103   1.048   2.959   2.679
 2735SOL    HW1 9104   1.136   2.965   2.725
 2735SOL    HW2 9105   0.999   3.046   2.688
 2736SOL     OW 9106   5.278   4.397   1.856
 2736SOL    HW1 9107   5.240   4.307   1.874
 2736SOL    HW2 9108   5.242   4.431   1.769
 2737SOL     OW 9109   2.853   0.107   6.374
 2737SOL    HW1 9110   2.884   0.112   6.469
 2737SOL    HW2 9111   2.923   0.063   6.319
 2738SOL     OW 9112   4.897   5.392   1.207
 2738SOL    HW1 9113   4.934   5.369   1.297
 2738SOL    HW2 9114   4.932   5.481   1.179
 2739SOL     OW 9115   0.584   5.744   2.158
 2739SOL    HW1 9116   0.613   5.783   2.071
 2739SOL    HW2 9117   0.530   5.811   2.209
 2740SOL     OW 9118   6.287   5.744   5.397
 2740SOL    HW1 9119   6.237   5.660   5.377
 2740SOL    HW2 9120   6.270   5.772   5.492
 2741SOL     OW 9121   6.931   7.002   6.961
 2741SOL    HW1 9122   6.896   6.915   6.996
 2741SOL    HW2 9123   7.021   6.988   6.921
 2742SOL     OW 9124   2.885   4.865   1.592
 2742SOL    HW1 9125   2.823   4.930   1.547
 2742SOL    HW2 9126   2.834   4.812   1.660
 2743SOL     OW 9127   4.686   2.084   3.899
 2743SOL    HW1 9128   4.763   2.098   3.961
 2743SOL    HW2 9129   4.712   2.112   3.806
 2744SOL     OW 9130   3.259   3.608   3.224
 2744SOL    HW1 9131   3.319   3.678   3.185
 2744SOL    HW2 9132   3.209   3.646   3.302
 2745SOL     OW 9133   1.073   6.314   6.517
 2745SOL    HW1 9134   1.130   6.361   6.449
 2745SOL    HW2 9135   1.093   6.216   6.514
 2746SOL     OW 9136   2.130   1.400   4.239
 2746SOL    HW1 9137   2.201   1.449   4.290
 2746SOL    HW2 9138   2.119   1.309   4.276
 2747SOL     OW 9139   5.289   5.125   0.500
 2747SOL    HW1 9140   5.257   5.041   0.457
 2747SOL    HW2 9141   5.212   5.188   0.512
 2748SOL     OW 9142   4.893   0.657   0.052
 2748SOL    HW1 9143   4.976   0.602   0.064
 2748SOL    HW2 9144   4.819   0.598   0.019
 2749SOL     OW 9145   4.926   0.788   6.758
 2749SOL    HW1 9146   4.841   0.836   6.778
 2749SOL    HW2 9147   4.911   0.722   6.684
 2750SOL     OW 9148   2.213   6.480   1.982
 2750SOL    HW1 9149   2.194   6.408   1.916
 2750SOL    HW2 9150   2.163   6.462   2.067
 2751SOL     OW 9151   6.485   5.484   2.188
 2751SOL    HW1 9152   6.551   5.412   2.168
 2751SOL    HW2 9153   6.506   5.564   2.132
 2752SOL     OW 9154   3.834   5.360   6.305
 2752SOL    HW1 9155   3.831   5.262   6.321
 2752SOL    HW2 9156   3.783   5.382   6.222
 2753SOL     OW 9157   4.602   5.207   4.948
 2753SOL    HW1 9158   4.519   5.164   4.913
 2753SOL    HW2 9159   4.585   5.244   5.039
 2754SOL     OW 9160   1.025   1.079   4.002
 2754SOL    HW1 9161   0.993   1.170   4.028
 2754SOL    HW2 9162   1.007   1.064   3.904
 2755SOL     OW 9163   3.315   0.688   2.271
 2755SOL    HW1 9164   3.356   0.691   2.362
 2755SOL    HW2 9165   3.289   0.594   2.249
 2756SOL     OW 9166   4.187   5.668   6.298
 2756SOL    HW1 9167   4.106   5.666   6.239
 2756SOL    HW2 9168   4.173   5.732   6.373
 2757SOL     OW 9169   1.582   4.714   0.860
 2757SOL    HW1 9170   1.667   4.672   0.828
 2757SOL    HW2 9171   1.552   4.783   0.794
 2758SOL     OW 9172   5.620   0.246   5.326
 2758SOL    HW1 9173   5.525   0.270   5.347
 2758SOL    HW2 9174   5.625   0.150   5.299
 2759SOL     OW 9175   4.327   4.969   2.853
 2759SOL    HW1 9176   4.261   4.904   2.816
 2759SOL    HW2 9177   4.409   4.920   2.883
 2760SOL     OW 9178   0.110   0.125   3.403
 2760SOL    HW1 9179   0.080   0.141   3.309
 2760SOL    HW2 9180   0.031   0.119   3.463
 2761SOL     OW 9181   2.694   4.738   4.864
 2761SOL    HW1 9182   2.762   4.699   4.925
 2761SOL    HW2 9183   2.653   4.819   4.906
 2762SOL     OW 9184   1.526   2.572   5.456
 2762SOL    HW1 9185   1.499   2.589   5.551
 2762SOL    HW2 9186   1.576   2.651   5.421
 2763SOL     OW 9187   5.884   0.415   1.872
 2763SOL    HW1 9188   5.820   0.343   1.899
 2763SOL    HW2 9189   5.931   0.388   1.788
 2764SOL     OW 9190   6.399   0.245   1.230
 2764SOL    HW1 9191   6.462   0.246   1.308
 2764SOL    HW2 9192   6.450   0.227   1.146
 2765SOL     OW 9193   5.146   1.950   3.281
 2765SOL    HW1 9194   5.192   1.944   3.370
 2765SOL    HW2 9195   5.143   1.859   3.239
 2766SOL     OW 9196   5.119   6.708   1.845
 2766SOL    HW1 9197   5.138   6.672   1.754
 2766SOL    HW2 9198   5.023   6.689   1.868
 2767SOL     OW 9199   6.931   4.450   5.629
 2767SOL    HW1 9200   6.858   4.454   5.696
 2767SOL    HW2 9201   7.019   4.443   5.676
 2768SOL     OW 9202   5.750   0.310   5.815
 2768SOL    HW1 9203   5.674   0.260   5.772
 2768SOL    HW2 9204   5.836   0.281   5.774
 2769SOL     OW 9205   0.809   4.228   1.808
 2769SOL    HW1 9206   0.809   4.309   1.750
 2769SOL    HW2 9207   0.896   4.181   1.800
 2770SOL     OW 9208   4.616   6.678   2.098
 2770SOL    HW1 9209   4.538   6.735   2.123
 2770SOL    HW2 9210   4.648   6.628   2.178
 2771SOL     OW 9211   4.441   0.748   1.053
 2771SOL    HW1 9212   4.380   0.769   0.977
 2771SOL    HW2 9213   4.388   0.726   1.134
 2772SOL     OW 9214   4.051   0.661   0.751
 2772SOL    HW1 9215   4.116   0.619   0.815
 2772SOL    HW2 9216   3.959   0.629   0.772
 2773SOL     OW 9217   3.381   5.193   1.360
 2773SOL    HW1 9218   3.399   5.219   1.265
 2773SOL    HW2 9219   3.350   5.273   1.411
 2774SOL     OW 9220   4.915   3.080   1.832
 2774SOL    HW1 9221   4.954   3.098   1.922
 2774SOL    HW2 9222   4.816   3.070   1.839
 2775SOL     OW 9223   0.963   0.017   1.233
 2775SOL    HW1 9224   0.864   0.016   1.244
 2775SOL    HW2 9225   0.988   6.981   1.155
 2776SOL     OW 9226   2.636   5.620   0.039
 2776SOL    HW1 9227   2.613   5.583   6.971
 2776SOL    HW2 9228   2.603   5.558   0.110
 2777SOL     OW 9229   0.877   2.467   4.349
 2777SOL    HW1 9230   0.829   2.533   4.290
 2777SOL    HW2 9231   0.818   2.443   4.426
 2778SOL     OW 9232   3.466   2.419   5.333
 2778SOL    HW1 9233   3.380   2.418   5.280
 2778SOL    HW2 9234   3.531   2.357   5.290
 2779SOL     OW 9235   6.111   0.257   0.339
 2779SOL    HW1 9236   6.083   0.254   0.435
 2779SOL    HW2 9237   6.044   0.208   0.283
 2780SOL     OW 9238   2.895   6.068   6.086
 2780SOL    HW1 9239   2.934   6.157   6.107
 2780SOL    HW2 9240   2.968   5.999   6.087
 2781SOL     OW 9241   5.876   3.381   6.564
 2781SOL    HW1 9242   5.911   3.441   6.492
 2781SOL    HW2 9243   5.778   3.396   6.576
 2782SOL     OW 9244   3.656   0.646   6.127
 2782SOL    HW1 9245   3.577   0.664   6.185
 2782SOL    HW2 9246   3.715   0.578   6.172
 2783SOL     OW 9247   0.412   3.706   5.522
 2783SOL    HW1 9248   0.479   3.729   5.451
 2783SOL    HW2 9249   0.330   3.669   5.479
 2784SOL     OW 9250   2.719   1.849   1.882
 2784SOL    HW1 9251   2.686   1.889   1.796
 2784SOL    HW2 9252   2.819   1.849   1.883
 2785SOL     OW 9253   5.498   3.366   2.230
 2785SOL    HW1 9254   5.577   3.319   2.270
 2785SOL    HW2 9255   5.462   3.433   2.296
 2786SOL     OW 9256   4.242   0.447   0.888
 2786SOL    HW1 9257   4.243   0.455   0.987
 2786SOL    HW2 9258   4.177   0.375   0.861
 2787SOL     OW 9259   1.216   4.360   5.505
 2787SOL    HW1 9260   1.313   4.356   5.529
 2787SOL    HW2 9261   1.206   4.398   5.413
 2788SOL     OW 9262   1.474   1.996   1.018
 2788SOL    HW1 9263   1.513   2.084   0.989
 2788SOL    HW2 9264   1.374   2.005   1.023
 2789SOL     OW 9265   6.830   3.448   3.363
 2789SOL    HW1 9266   6.908   3.419   3.420
 2789SOL    HW2 9267   6.747   3.448   3.419
 2790SOL     OW 9268   3.300   6.366   5.047
 2790SOL    HW1 9269   3.395   6.342   5.026
 2790SOL    HW2 9270   3.284   6.462   5.023
 2791SOL     OW 9271   2.091   3.619   2.114
 2791SOL    HW1 9272   2.165   3.560   2.082
 2791SOL    HW2 9273   2.127   3.708   2.141
 2792SOL     OW 9274   0.156   1.883   5.698
 2792SOL    HW1 9275   0.125   1.788   5.709
 2792SOL    HW2 9276   0.246   1.893   5.740
 2793SOL     OW 9277   5.493   0.736   5.192
 2793SOL    HW1 9278   5.580   0.714   5.237
 2793SOL    HW2 9279   5.420   0.682   5.233
 2794SOL     OW 9280   0.281   1.389   2.635
 2794SOL    HW1 9281   0.358   1.450   2.651
 2794SOL    HW2 9282   0.199   1.425   2.679
 2795SOL     OW 9283   1.268   3.399   0.757
 2795SOL    HW1 9284   1.332   3.398   0.834
 2795SOL    HW2 9285   1.197   3.330   0.771
 2796SOL     OW 9286   4.069   5.388   2.202
 2796SOL    HW1 9287   4.027   5.460   2.258
 2796SOL    HW2 9288   4.012   5.371   2.121
 2797SOL     OW 9289   5.374   4.457   5.506
 2797SOL    HW1 9290   5.281   4.480   5.535
 2797SOL    HW2 9291   5.371   4.394   5.429
 2798SOL     OW 9292   1.845   3.972   3.087
 2798SOL    HW1 9293   1.876   4.064   3.065
 2798SOL    HW2 9294   1.890   3.907   3.026
 2799SOL     OW 9295   0.142   6.101   0.184
 2799SOL    HW1 9296   0.200   6.027   0.151
 2799SOL    HW2 9297   0.050   6.091   0.148
 2800SOL     OW 9298   2.690   0.931   6.272
 2800SOL    HW1 9299   2.605   0.932   6.324
 2800SOL    HW2 9300   2.764   0.896   6.329
 2801SOL     OW 9301   3.876   5.801   1.311
 2801SOL    HW1 9302   3.947   5.731   1.315
 2801SOL    HW2 9303   3.914   5.885   1.273
 2802SOL     OW 9304   6.292   0.084   6.652
 2802SOL    HW1 9305   6.241   0.166   6.625
 2802SOL    HW2 9306   6.232   0.023   6.703
 2803SOL     OW 9307   3.452   5.872   4.588
 2803SOL    HW1 9308   3.365   5.921   4.589
 2803SOL    HW2 9309   3.441   5.785   4.637
 2804SOL     OW 9310   0.686   5.085   2.420
 2804SOL    HW1 9311   0.693   5.153   2.348
 2804SOL    HW2 9312   0.591   5.057   2.431
 2805SOL     OW 9313   6.917   4.520   6.704
 2805SOL    HW1 9314   6.985   4.450   6.726
 2805SOL    HW2 9315   6.955   4.611   6.719
 2806SOL     OW 9316   5.471   3.962   2.047
 2806SOL    HW1 9317   5.412   4.042   2.041
 2806SOL    HW2 9318   5.439   3.903   2.121
 2807SOL     OW 9319   3.866   4.833   3.978
 2807SOL    HW1 9320   3.817   4.909   3.935
 2807SOL    HW2 9321   3.958   4.827   3.940
 2808SOL     OW 9322   4.614   0.565   4.122
 2808SOL    HW1 9323   4.669   0.553   4.039
 2808SOL    HW2 9324   4.583   0.475   4.154
 2809SOL     OW 9325   5.222   1.772   0.499
 2809SOL    HW1 9326   5.130   1.751   0.467
 2809SOL    HW2 9327   5.264   1.840   0.439
 2810SOL     OW 9328   2.713   0.809   6.000
 2810SOL    HW1 9329   2.805   0.828   5.966
 2810SOL    HW2 9330   2.716   0.792   6.098
 2811SOL     OW 9331   0.243   0.830   4.279
 2811SOL    HW1 9332   0.294   0.747   4.256
 2811SOL    HW2 9333   0.300   0.910   4.260
 2812SOL     OW 9334   4.526   4.526   2.507
 2812SOL    HW1 9335   4.517   4.476   2.422
 2812SOL    HW2 9336   4.603   4.489   2.560
 2813SOL     OW 9337   6.248   1.935   6.022
 2813SOL    HW1 9338   6.152   1.959   6.038
 2813SOL    HW2 9339   6.287   1.896   6.105
 2814SOL     OW 9340   5.739   4.755   5.428
 2814SOL    HW1 9341   5.779   4.746   5.520
 2814SOL    HW2 9342   5.639   4.758   5.435
 2815SOL     OW 9343   1.612   1.636   4.260
 2815SOL    HW1 9344   1.696   1.582   4.256
 2815SOL    HW2 9345   1.609   1.697   4.181
 2816SOL     OW 9346   4.055   6.530   3.381
 2816SOL    HW1 9347   4.097   6.461   3.441
 2816SOL    HW2 9348   3.957   6.512   3.372
 2817SOL     OW 9349   1.354   1.107   1.230
 2817SOL    HW1 9350   1.261   1.136   1.208
 2817SOL    HW2 9351   1.417   1.182   1.212
 2818SOL     OW 9352   1.241   2.313   6.302
 2818SOL    HW1 9353   1.281   2.355   6.221
 2818SOL    HW2 9354   1.274   2.219   6.310
 2819SOL     OW 9355   6.493   3.333   2.646
 2819SOL    HW1 9356   6.477   3.429   2.622
 2819SOL    HW2 9357   6.564   3.329   2.717
 2820SOL     OW 9358   5.539   3.257   3.923
 2820SOL    HW1 9359   5.515   3.322   3.852
 2820SOL    HW2 9360   5.517   3.295   4.013
 2821SOL     OW 9361   1.361   3.256   2.908
 2821SOL    HW1 9362   1.397   3.231   2.819
 2821SOL    HW2 9363   1.261   3.244   2.909
 2822SOL     OW 9364   3.050   2.203   0.525
 2822SOL    HW1 9365   3.012   2.196   0.617
 2822SOL    HW2 9366   3.050   2.113   0.482
 2823SOL     OW 9367   1.889   1.006   4.223
 2823SOL    HW1 9368   1.854   0.913   4.237
 2823SOL    HW2 9369   1.832   1.054   4.156
 2824SOL     OW 9370   3.069   2.757   6.218
 2824SOL    HW1 9371   3.129   2.715   6.286
 2824SOL    HW2 9372   3.123   2.801   6.147
 2825SOL     OW 9373   5.891   6.040   1.247
 2825SOL    HW1 9374   5.967   6.052   1.311
 2825SOL    HW2 9375   5.837   5.961   1.274
 2826SOL     OW 9376   5.882   4.042   4.693
 2826SOL    HW1 9377   5.870   4.141   4.680
 2826SOL    HW2 9378   5.919   4.003   4.609
 2827SOL     OW 9379   0.585   0.127   6.095
 2827SOL    HW1 9380   0.683   0.139   6.079
 2827SOL    HW2 9381   0.550   0.056   6.034
 2828SOL     OW 9382   3.581   2.531   6.340
 2828SOL    HW1 9383   3.644   2.576   6.277
 2828SOL    HW2 9384   3.594   2.432   6.334
 2829SOL     OW 9385   3.123   1.334   0.423
 2829SOL    HW1 9386   3.040   1.288   0.455
 2829SOL    HW2 9387   3.174   1.369   0.502
 2830SOL     OW 9388   2.899   4.082   0.318
 2830SOL    HW1 9389   2.912   4.173   0.358
 2830SOL    HW2 9390   2.873   4.092   0.222
 2831SOL     OW 9391   6.239   6.608   4.103
 2831SOL    HW1 9392   6.196   6.667   4.035
 2831SOL    HW2 9393   6.334   6.592   4.078
 2832SOL     OW 9394   0.592   0.725   2.197
 2832SOL    HW1 9395   0.560   0.815   2.168
 2832SOL    HW2 9396   0.514   0.664   2.212
 2833SOL     OW 9397   5.306   3.200   1.950
 2833SOL    HW1 9398   5.219   3.151   1.951
 2833SOL    HW2 9399   5.292   3.296   1.974
 2834SOL     OW 9400   4.930   0.864   5.022
 2834SOL    HW1 9401   5.006   0.868   4.957
 2834SOL    HW2 9402   4.865   0.937   5.002
 2835SOL     OW 9403   6.229   6.175   2.809
 2835SOL    HW1 9404   6.154   6.148   2.868
 2835SOL    HW2 9405   6.310   6.196   2.864
 2836SOL     OW 9406   6.626   6.664   1.061
 2836SOL    HW1 9407   6.581   6.750   1.088
 2836SOL    HW2 9408   6.564   6.588   1.081
 2837SOL     OW 9409   5.903   2.094   3.832
 2837SOL    HW1 9410   5.873   2.020   3.772
 2837SOL    HW2 9411   5.948   2.055   3.913
 2838SOL     OW 9412   2.275   4.629   4.017
 2838SOL    HW1 9413   2.201   4.622   4.084
 2838SOL    HW2 9414   2.237   4.626   3.924
 2839SOL     OW 9415   4.751   3.259   1.463
 2839SOL    HW1 9416   4.833   3.207   1.488
 2839SOL    HW2 9417   4.697   3.276   1.545
 2840SOL     OW 9418   1.015   2.654   4.837
 2840SOL    HW1 9419   1.084   2.603   4.785
 2840SOL    HW2 9420   0.930   2.601   4.839
 2841SOL     OW 9421   0.366   5.668   0.291
 2841SOL    HW1 9422   0.305   5.676   0.213
 2841SOL    HW2 9423   0.321   5.707   0.372
 2842SOL     OW 9424   5.134   3.554   2.308
 2842SOL    HW1 9425   5.224   3.561   2.352
 2842SOL    HW2 9426   5.147   3.543   2.209
 2843SOL     OW 9427   3.891   0.622   3.870
 2843SOL    HW1 9428   3.989   0.624   3.855
 2843SOL    HW2 9429   3.853   0.538   3.829
 2844SOL     OW 9430   1.288   4.033   4.516
 2844SOL    HW1 9431   1.288   3.969   4.593
 2844SOL    HW2 9432   1.256   4.122   4.547
 2845SOL     OW 9433   1.170   4.209   6.539
 2845SOL    HW1 9434   1.188   4.271   6.616
 2845SOL    HW2 9435   1.119   4.129   6.572
 2846SOL     OW 9436   5.739   0.959   5.688
 2846SOL    HW1 9437   5.766   1.053   5.668
 2846SOL    HW2 9438   5.804   0.896   5.645
 2847SOL     OW 9439   4.067   5.300   4.888
 2847SOL    HW1 9440   3.981   5.345   4.913
 2847SOL    HW2 9441   4.070   5.287   4.789
 2848SOL     OW 9442   2.675   6.840   6.190
 2848SOL    HW1 9443   2.746   6.807   6.129
 2848SOL    HW2 9444   2.714   6.861   6.279
 2849SOL     OW 9445   1.849   2.297   1.045
 2849SOL    HW1 9446   1.770   2.317   1.104
 2849SOL    HW2 9447   1.877   2.202   1.058
 2850SOL     OW 9448   4.605   0.965   0.464
 2850SOL    HW1 9449   4.581   0.871   0.437
 2850SOL    HW2 9450   4.630   1.017   0.382
 2851SOL     OW 9451   3.257   6.720   5.427
 2851SOL    HW1 9452   3.192   6.719   5.351
 2851SOL    HW2 9453   3.303   6.631   5.432
 2852SOL     OW 9454   0.258   2.246   6.219
 2852SOL    HW1 9455   0.183   2.297   6.261
 2852SOL    HW2 9456   0.331   2.309   6.193
 2853SOL     OW 9457   3.550   3.023   1.124
 2853SOL    HW1 9458   3.539   2.991   1.218
 2853SOL    HW2 9459   3.482   3.094   1.105
 2854SOL     OW 9460   0.871   1.304   4.104
 2854SOL    HW1 9461   0.827   1.390   4.080
 2854SOL    HW2 9462   0.802   1.237   4.130
 2855SOL     OW 9463   3.181   1.797   3.250
 2855SOL    HW1 9464   3.136   1.754   3.328
 2855SOL    HW2 9465   3.215   1.727   3.188
 2856SOL     OW 9466   3.784   1.629   5.232
 2856SOL    HW1 9467   3.830   1.717   5.220
 2856SOL    HW2 9468   3.719   1.614   5.159
 2857SOL     OW 9469   3.223   3.679   5.413
 2857SOL    HW1 9470   3.164   3.674   5.493
 2857SOL    HW2 9471   3.182   3.739   5.345
 2858SOL     OW 9472   5.748   2.926   3.094
 2858SOL    HW1 9473   5.675   2.983   3.057
 2858SOL    HW2 9474   5.817   2.910   3.023
 2859SOL     OW 9475   6.832   5.239   7.020
 2859SOL    HW1 9476   6.909   5.181   0.025
 2859SOL    HW2 9477   6.865   5.313   6.962
 2860SOL     OW 9478   4.082   2.605   0.607
 2860SOL    HW1 9479   4.140   2.610   0.526
 2860SOL    HW2 9480   4.133   2.560   0.681
 2861SOL     OW 9481   4.412   3.736   5.962
 2861SOL    HW1 9482   4.341   3.769   6.025
 2861SOL    HW2 9483   4.379   3.655   5.914
 2862SOL     OW 9484   6.426   6.330   3.530
 2862SOL    HW1 9485   6.422   6.268   3.452
 2862SOL    HW2 9486   6.474   6.285   3.605
 2863SOL     OW 9487   6.381   6.378   6.566
 2863SOL    HW1 9488   6.404   6.326   6.648
 2863SOL    HW2 9489   6.305   6.335   6.519
 2864SOL     OW 9490   4.604   2.291   0.179
 2864SOL    HW1 9491   4.627   2.197   0.205
 2864SOL    HW2 9492   4.576   2.294   0.083
 2865SOL     OW 9493   4.936   4.410   5.159
 2865SOL    HW1 9494   4.841   4.379   5.151
 2865SOL    HW2 9495   4.960   4.465   5.079
 2866SOL     OW 9496   0.532   6.791   6.185
 2866SOL    HW1 9497   0.579   6.752   6.106
 2866SOL    HW2 9498   0.577   6.876   6.212
 2867SOL     OW 9499   6.398   4.116   4.479
 2867SOL    HW1 9500   6.355   4.079   4.396
 2867SOL    HW2 9501   6.333   4.177   4.525
 2868SOL     OW 9502   1.816   4.802   4.694
 2868SOL    HW1 9503   1.824   4.900   4.675
 2868SOL    HW2 9504   1.724   4.782   4.728
 2869SOL     OW 9505   5.726   2.077   2.928
 2869SOL    HW1 9506   5.731   1.980   2.902
 2869SOL    HW2 9507   5.687   2.130   2.852
 2870SOL     OW 9508   3.722   1.823   1.323
 2870SOL    HW1 9509   3.708   1.816   1.422
 2870SOL    HW2 9510   3.804   1.774   1.296
 2871SOL     OW 9511   1.162   1.159   5.704
 2871SOL    HW1 9512   1.116   1.245   5.682
 2871SOL    HW2 9513   1.200   1.163   5.796
 2872SOL     OW 9514   1.714   0.205   4.234
 2872SOL    HW1 9515   1.778   0.219   4.159
 2872SOL    HW2 9516   1.698   0.107   4.246
 2873SOL     OW 9517   6.493   4.949   2.511
 2873SOL    HW1 9518   6.469   5.043   2.489
 2873SOL    HW2 9519   6.500   4.938   2.610
 2874SOL     OW 9520   5.214   1.903   1.727
 2874SOL    HW1 9521   5.224   1.835   1.655
 2874SOL    HW2 9522   5.144   1.969   1.701
 2875SOL     OW 9523   2.725   5.165   0.277
 2875SOL    HW1 9524   2.695   5.073   0.255
 2875SOL    HW2 9525   2.721   5.179   0.376
 2876SOL     OW 9526   5.874   1.947   1.280
 2876SOL    HW1 9527   5.879   1.851   1.308
 2876SOL    HW2 9528   5.892   1.954   1.182
 2877SOL     OW 9529   1.215   3.188   6.040
 2877SOL    HW1 9530   1.259   3.147   5.960
 2877SOL    HW2 9531   1.266   3.164   6.122
 2878SOL     OW 9532   4.937   4.667   0.728
 2878SOL    HW1 9533   4.961   4.658   0.825
 2878SOL    HW2 9534   4.946   4.578   0.683
 2879SOL     OW 9535   5.607   4.760   6.892
 2879SOL    HW1 9536   5.613   4.671   6.936
 2879SOL    HW2 9537   5.677   4.767   6.821
 2880SOL     OW 9538   1.698   0.895   3.756
 2880SOL    HW1 9539   1.781   0.857   3.797
 2880SOL    HW2 9540   1.618   0.845   3.790
 2881SOL     OW 9541   0.200   0.264   6.868
 2881SOL    HW1 9542   0.136   0.213   6.810
 2881SOL    HW2 9543   0.176   0.361   6.867
 2882SOL     OW 9544   6.477   4.716   3.522
 2882SOL    HW1 9545   6.392   4.664   3.534
 2882SOL    HW2 9546   6.527   4.681   3.443
 2883SOL     OW 9547   3.184   6.508   2.451
 2883SOL    HW1 9548   3.174   6.458   2.537
 2883SOL    HW2 9549   3.111   6.577   2.444
 2884SOL     OW 9550   2.134   5.079   2.839
 2884SOL    HW1 9551   2.078   5.001   2.866
 2884SOL    HW2 9552   2.079   5.142   2.784
 2885SOL     OW 9553   0.991   2.010   4.040
 2885SOL    HW1 9554   0.974   1.939   3.971
 2885SOL    HW2 9555   1.038   1.970   4.119
 2886SOL     OW 9556   2.148   2.187   6.312
 2886SOL    HW1 9557   2.078   2.123   6.280
 2886SOL    HW2 9558   2.147   2.270   6.256
 2887SOL     OW 9559   2.482   6.976   5.672
 2887SOL    HW1 9560   2.506   6.980   5.769
 2887SOL    HW2 9561   2.552   0.002   5.619
 2888SOL     OW 9562   0.343   5.490   7.008
 2888SOL    HW1 9563   0.323   5.521   6.915
 2888SOL    HW2 9564   0.434   5.449   7.011
 2889SOL     OW 9565   0.751   1.239   0.409
 2889SOL    HW1 9566   0.776   1.201   0.498
 2889SOL    HW2 9567   0.698   1.171   0.357
 2890SOL     OW 9568   2.180   0.568   0.308
 2890SOL    HW1 9569   2.125   0.491   0.275
 2890SOL    HW2 9570   2.143   0.599   0.396
 2891SOL     OW 9571   3.143   4.662   5.360
 2891SOL    HW1 9572   3.092   4.609   5.293
 2891SOL    HW2 9573   3.226   4.613   5.385
 2892SOL     OW 9574   3.741   3.939   5.034
 2892SOL    HW1 9575   3.810   3.959   4.964
 2892SOL    HW2 9576   3.779   3.875   5.101
 2893SOL     OW 9577   3.249   0.739   4.813
 2893SOL    HW1 9578   3.339   0.760   4.775
 2893SOL    HW2 9579   3.213   0.656   4.770
 2894SOL     OW 9580   3.342   2.853   2.333
 2894SOL    HW1 9581   3.434   2.813   2.338
 2894SOL    HW2 9582   3.309   2.847   2.239
 2895SOL     OW 9583   3.637   2.832   0.237
 2895SOL    HW1 9584   3.714   2.834   0.174
 2895SOL    HW2 9585   3.583   2.750   0.221
 2896SOL     OW 9586   1.446   4.879   0.636
 2896SOL    HW1 9587   1.357   4.862   0.596
 2896SOL    HW2 9588   1.513   4.895   0.564
 2897SOL     OW 9589   0.106   0.571   3.225
 2897SOL    HW1 9590   0.090   0.660   3.267
 2897SOL    HW2 9591   0.052   0.564   3.141
 2898SOL     OW 9592   1.629   4.755   2.861
 2898SOL    HW1 9593   1.649   4.785   2.955
 2898SOL    HW2 9594   1.676   4.669   2.843
 2899SOL     OW 9595   5.166   1.269   0.875
 2899SOL    HW1 9596   5.139   1.364   0.864
 2899SOL    HW2 9597   5.086   1.213   0.898
 2900SOL     OW 9598   2.118   5.590   6.287
 2900SOL    HW1 9599   2.160   5.624   6.203
 2900SOL    HW2 9600   2.076   5.665   6.337
 2901SOL     OW 9601   3.011   0.162   1.246
 2901SOL    HW1 9602   3.070   0.242   1.246
 2901SOL    HW2 9603   3.019   0.115   1.334
 2902SOL     OW 9604   4.304   4.996   1.607
 2902SOL    HW1 9605   4.351   5.077   1.642
 2902SOL    HW2 9606   4.222   5.024   1.557
 2903SOL     OW 9607   3.054   2.653   1.744
 2903SOL    HW1 9608   3.016   2.573   1.790
 2903SOL    HW2 9609   3.091   2.626   1.655
 2904SOL     OW 9610   3.075   2.163   4.422
 2904SOL    HW1 9611   2.981   2.144   4.448
 2904SOL    HW2 9612   3.128   2.190   4.503
 2905SOL     OW 9613   0.790   2.184   2.327
 2905SOL    HW1 9614   0.722   2.114   2.350
 2905SOL    HW2 9615   0.744   2.260   2.282
 2906SOL     OW 9616   5.497   4.997   2.741
 2906SOL    HW1 9617   5.545   5.057   2.805
 2906SOL    HW2 9618   5.470   4.913   2.788
 2907SOL     OW 9619   6.403   0.372   4.200
 2907SOL    HW1 9620   6.305   0.371   4.179
 2907SOL    HW2 9621   6.456   0.350   4.118
 2908SOL     OW 9622   4.644   5.702   4.615
 2908SOL    HW1 9623   4.547   5.696   4.637
 2908SOL    HW2 9624   4.657   5.688   4.517
 2909SOL     OW 9625   2.043   6.064   6.254
 2909SOL    HW1 9626   1.972   6.134   6.266
 2909SOL    HW2 9627   2.090   6.077   6.167
 2910SOL     OW 9628   4.136   5.499   5.406
 2910SOL    HW1 9629   4.102   5.559   5.478
 2910SOL    HW2 9630   4.068   5.494   5.333
 2911SOL     OW 9631   2.638   5.053   2.862
 2911SOL    HW1 9632   2.547   5.086   2.836
 2911SOL    HW2 9633   2.684   5.016   2.782
 2912SOL     OW 9634   2.928   5.545   0.812
 2912SOL    HW1 9635   2.971   5.567   0.725
 2912SOL    HW2 9636   2.981   5.475   0.859
 2913SOL     OW 9637   0.252   1.736   1.345
 2913SOL    HW1 9638   0.273   1.781   1.258
 2913SOL    HW2 9639   0.177   1.783   1.390
 2914SOL     OW 9640   5.076   4.548   6.267
 2914SOL    HW1 9641   5.077   4.626   6.329
 2914SOL    HW2 9642   5.125   4.472   6.309
 2915SOL     OW 9643   4.390   0.557   3.090
 2915SOL    HW1 9644   4.481   0.532   3.122
 2915SOL    HW2 9645   4.395   0.645   3.042
 2916SOL     OW 9646   5.178   0.905   4.165
 2916SOL    HW1 9647   5.274   0.933   4.159
 2916SOL    HW2 9648   5.145   0.880   4.074
 2917SOL     OW 9649   3.850   0.306   1.919
 2917SOL    HW1 9650   3.874   0.397   1.951
 2917SOL    HW2 9651   3.750   0.299   1.912
 2918SOL     OW 9652   1.305   3.077   4.498
 2918SOL    HW1 9653   1.259   3.035   4.419
 2918SOL    HW2 9654   1.288   3.021   4.579
 2919SOL     OW 9655   6.274   5.281   0.411
 2919SOL    HW1 9656   6.237   5.276   0.503
 2919SOL    HW2 9657   6.217   5.228   0.349
 2920SOL     OW 9658   4.723   1.475   2.956
 2920SOL    HW1 9659   4.758   1.470   2.863
 2920SOL    HW2 9660   4.694   1.384   2.986
 2921SOL     OW 9661   6.417   0.736   0.003
 2921SOL    HW1 9662   6.380   0.682   6.950
 2921SOL    HW2 9663   6.514   0.716   0.014
 2922SOL     OW 9664   4.519   0.712   3.809
 2922SOL    HW1 9665   4.572   0.771   3.871
 2922SOL    HW2 9666   4.458   0.768   3.753
 2923SOL     OW 9667   6.666   3.875   0.908
 2923SOL    HW1 9668   6.628   3.922   0.829
 2923SOL    HW2 9669   6.756   3.838   0.885
 2924SOL     OW 9670   6.484   6.888   6.578
 2924SOL    HW1 9671   6.442   6.965   6.626
 2924SOL    HW2 9672   6.459   6.802   6.624
 2925SOL     OW 9673   6.372   4.533   0.896
 2925SOL    HW1 9674   6.316   4.577   0.826
 2925SOL    HW2 9675   6.315   4.513   0.976
 2926SOL     OW 9676   6.572   1.448   3.127
 2926SOL    HW1 9677   6.625   1.531   3.110
 2926SOL    HW2 9678   6.576   1.389   3.047
 2927SOL     OW 9679   6.800   3.088   3.370
 2927SOL    HW1 9680   6.746   3.005   3.355
 2927SOL    HW2 9681   6.846   3.114   3.285
 2928SOL     OW 9682   5.725   5.950   0.809
 2928SOL    HW1 9683   5.758   5.996   0.727
 2928SOL    HW2 9684   5.801   5.939   0.874
 2929SOL     OW 9685   7.011   0.426   5.855
 2929SOL    HW1 9686   6.917   0.460   5.851
 2929SOL    HW2 9687   0.012   0.401   5.949
 2930SOL     OW 9688   2.324   0.387   4.334
 2930SOL    HW1 9689   2.367   0.397   4.424
 2930SOL    HW2 9690   2.367   0.312   4.285
 2931SOL     OW 9691   5.101   4.803   6.696
 2931SOL    HW1 9692   5.186   4.785   6.746
 2931SOL    HW2 9693   5.037   4.728   6.712
 2932SOL     OW 9694   0.868   5.481   1.423
 2932SOL    HW1 9695   0.882   5.446   1.515
 2932SOL    HW2 9696   0.898   5.577   1.419
 2933SOL     OW 9697   4.084   2.174   3.142
 2933SOL    HW1 9698   4.134   2.189   3.227
 2933SOL    HW2 9699   4.137   2.212   3.065
 2934SOL     OW 9700   1.747   0.971   1.113
 2934SOL    HW1 9701   1.786   1.047   1.060
 2934SOL    HW2 9702   1.647   0.975   1.107
 2935SOL     OW 9703   6.565   1.185   0.918
 2935SOL    HW1 9704   6.626   1.201   0.840
 2935SOL    HW2 9705   6.557   1.269   0.972
 2936SOL     OW 9706   4.167   4.256   1.270
 2936SOL    HW1 9707   4.237   4.234   1.339
 2936SOL    HW2 9708   4.175   4.352   1.245
 2937SOL     OW 9709   2.406   4.027   0.673
 2937SOL    HW1 9710   2.497   4.021   0.715
 2937SOL    HW2 9711   2.405   4.102   0.607
 2938SOL     OW 9712   4.651   5.739   6.872
 2938SOL    HW1 9713   4.577   5.698   6.926
 2938SOL    HW2 9714   4.614   5.807   6.810
 2939SOL     OW 9715   6.855   6.754   0.052
 2939SOL    HW1 9716   6.775   6.772   7.017
 2939SOL    HW2 9717   6.930   6.719   7.018
 2940SOL     OW 9718   3.713   6.834   5.838
 2940SOL    HW1 9719   3.728   6.735   5.841
 2940SOL    HW2 9720   3.707   6.864   5.743
 2941SOL     OW 9721   3.824   1.178   5.699
 2941SOL    HW1 9722   3.726   1.200   5.701
 2941SOL    HW2 9723   3.873   1.240   5.760
 2942SOL     OW 9724   3.022   6.415   3.771
 2942SOL    HW1 9725   3.037   6.414   3.869
 2942SOL    HW2 9726   3.006   6.322   3.739
 2943SOL     OW 9727   5.496   4.676   3.125
 2943SOL    HW1 9728   5.544   4.747   3.175
 2943SOL    HW2 9729   5.538   4.587   3.145
 2944SOL     OW 9730   5.396   5.392   0.458
 2944SOL    HW1 9731   5.463   5.398   0.384
 2944SOL    HW2 9732   5.361   5.298   0.464
 2945SOL     OW 9733   2.945   3.838   4.277
 2945SOL    HW1 9734   2.880   3.909   4.250
 2945SOL    HW2 9735   2.954   3.837   4.377
 2946SOL     OW 9736   1.404   6.465   5.560
 2946SOL    HW1 9737   1.404   6.365   5.568
 2946SOL    HW2 9738   1.321   6.494   5.513
 2947SOL     OW 9739   0.346   5.148   0.226
 2947SOL    HW1 9740   0.322   5.236   0.267
 2947SOL    HW2 9741   0.396   5.164   0.141
 2948SOL     OW 9742   6.858   2.986   4.928
 2948SOL    HW1 9743   6.797   2.999   4.849
 2948SOL    HW2 9744   6.808   3.005   5.012
 2949SOL     OW 9745   0.759   6.781   0.993
 2949SOL    HW1 9746   0.844   6.834   0.987
 2949SOL    HW2 9747   0.761   6.707   0.926
 2950SOL     OW 9748   5.386   4.073   5.135
 2950SOL    HW1 9749   5.436   3.986   5.127
 2950SOL    HW2 9750   5.289   4.057   5.120
 2951SOL     OW 9751   6.896   0.533   6.764
 2951SOL    HW1 9752   6.909   0.628   6.736
 2951SOL    HW2 9753   6.809   0.499   6.729
 2952SOL     OW 9754   0.704   3.501   1.662
 2952SOL    HW1 9755   0.675   3.422   1.716
 2952SOL    HW2 9756   0.624   3.542   1.618
 2953SOL     OW 9757   5.867   1.661   1.712
 2953SOL    HW1 9758   5.948   1.706   1.748
 2953SOL    HW2 9759   5.788   1.723   1.718
 2954SOL     OW 9760   5.177   6.220   2.057
 2954SOL    HW1 9761   5.263   6.198   2.104
 2954SOL    HW2 9762   5.186   6.310   2.014
 2955SOL     OW 9763   5.582   1.799   1.480
 2955SOL    HW1 9764   5.542   1.876   1.429
 2955SOL    HW2 9765   5.653   1.756   1.425
 2956SOL     OW 9766   4.596   5.790   2.785
 2956SOL    HW1 9767   4.576   5.698   2.750
 2956SOL    HW2 9768   4.544   5.805   2.869
 2957SOL     OW 9769   1.111   5.354   1.367
 2957SOL    HW1 9770   1.037   5.382   1.307
 2957SOL    HW2 9771   1.179   5.427   1.373
 2958SOL     OW 9772   1.807   4.721   6.383
 2958SOL    HW1 9773   1.726   4.686   6.338
 2958SOL    HW2 9774   1.867   4.645   6.410
 2959SOL     OW 9775   3.045   5.818   6.600
 2959SOL    HW1 9776   3.084   5.808   6.508
 2959SOL    HW2 9777   2.957   5.865   6.594
 2960SOL     OW 9778   3.330   1.109   0.038
 2960SOL    HW1 9779   3.260   1.086   0.105
 2960SOL    HW2 9780   3.313   1.201   0.002
 2961SOL     OW 9781   5.973   1.331   3.707
 2961SOL    HW1 9782   5.917   1.328   3.790
 2961SOL    HW2 9783   6.048   1.395   3.720
 2962SOL     OW 9784   4.395   0.016   2.160
 2962SOL    HW1 9785   4.301   0.041   2.183
 2962SOL    HW2 9786   4.458   0.061   2.223
 2963SOL     OW 9787   2.498   2.594   4.914
 2963SOL    HW1 9788   2.593   2.564   4.921
 2963SOL    HW2 9789   2.471   2.639   4.999
 2964SOL     OW 9790   2.149   5.816   7.002
 2964SOL    HW1 9791   2.194   5.794   6.916
 2964SOL    HW2 9792   2.111   5.908   6.998
 2965SOL     OW 9793   0.787   3.023   5.386
 2965SOL    HW1 9794   0.835   3.063   5.463
 2965SOL    HW2 9795   0.691   3.007   5.411
 2966SOL     OW 9796   4.581   5.349   2.095
 2966SOL    HW1 9797   4.621   5.289   2.164
 2966SOL    HW2 9798   4.627   5.334   2.007
 2967SOL     OW 9799   5.389   3.093   4.835
 2967SOL    HW1 9800   5.424   3.092   4.742
 2967SOL    HW2 9801   5.296   3.131   4.835
 2968SOL     OW 9802   6.681   4.202   4.441
 2968SOL    HW1 9803   6.674   4.299   4.464
 2968SOL    HW2 9804   6.594   4.157   4.460
 2969SOL     OW 9805   3.775   1.403   5.384
 2969SOL    HW1 9806   3.752   1.485   5.331
 2969SOL    HW2 9807   3.813   1.430   5.472
 2970SOL     OW 9808   1.176   4.387   6.331
 2970SOL    HW1 9809   1.153   4.480   6.360
 2970SOL    HW2 9810   1.171   4.326   6.411
 2971SOL     OW 9811   5.973   2.832   1.649
 2971SOL    HW1 9812   6.023   2.893   1.710
 2971SOL    HW2 9813   5.992   2.737   1.675
 2972SOL     OW 9814   0.895   4.440   4.305
 2972SOL    HW1 9815   0.953   4.377   4.253
 2972SOL    HW2 9816   0.803   4.403   4.312
 2973SOL     OW 9817   6.218   0.095   4.102
 2973SOL    HW1 9818   6.225   0.079   4.200
 2973SOL    HW2 9819   6.309   0.119   4.065
 2974SOL     OW 9820   6.090   4.361   0.969
 2974SOL    HW1 9821   6.172   4.372   1.026
 2974SOL    HW2 9822   6.008   4.366   1.026
 2975SOL     OW 9823   6.424   1.921   4.129
 2975SOL    HW1 9824   6.469   1.987   4.189
 2975SOL    HW2 9825   6.421   1.958   4.036
 2976SOL     OW 9826   2.278   5.504   1.291
 2976SOL    HW1 9827   2.342   5.527   1.217
 2976SOL    HW2 9828   2.324   5.448   1.359
 2977SOL     OW 9829   1.972   6.729   3.659
 2977SOL    HW1 9830   2.002   6.778   3.741
 2977SOL    HW2 9831   2.014   6.770   3.578
 2978SOL     OW 9832   2.397   0.338   6.450
 2978SOL    HW1 9833   2.318   0.372   6.400
 2978SOL    HW2 9834   2.425   0.250   6.414
 2979SOL     OW 9835   1.682   0.727   2.932
 2979SOL    HW1 9836   1.717   0.666   3.004
 2979SOL    HW2 9837   1.653   0.814   2.973
 2980SOL     OW 9838   5.662   0.325   3.403
 2980SOL    HW1 9839   5.588   0.389   3.420
 2980SOL    HW2 9840   5.745   0.356   3.450
 2981SOL     OW 9841   0.775   0.988   5.843
 2981SOL    HW1 9842   0.681   0.957   5.861
 2981SOL    HW2 9843   0.772   1.074   5.792
 2982SOL     OW 9844   4.988   6.077   2.280
 2982SOL    HW1 9845   5.048   6.097   2.203
 2982SOL    HW2 9846   4.893   6.076   2.250
 2983SOL     OW 9847   0.642   1.530   2.888
 2983SOL    HW1 9848   0.587   1.590   2.829
 2983SOL    HW2 9849   0.590   1.449   2.911
 2984SOL     OW 9850   6.057   4.298   1.890
 2984SOL    HW1 9851   5.960   4.279   1.873
 2984SOL    HW2 9852   6.072   4.396   1.893
 2985SOL     OW 9853   6.330   2.256   3.244
 2985SOL    HW1 9854   6.297   2.171   3.284
 2985SOL    HW2 9855   6.320   2.330   3.311
 2986SOL     OW 9856   1.561   3.373   4.882
 2986SOL    HW1 9857   1.648   3.338   4.915
 2986SOL    HW2 9858   1.526   3.313   4.810
 2987SOL     OW 9859   4.846   1.638   4.896
 2987SOL    HW1 9860   4.800   1.554   4.869
 2987SOL    HW2 9861   4.945   1.625   4.892
 2988SOL     OW 9862   6.989   1.145   3.337
 2988SOL    HW1 9863   6.967   1.242   3.344
 2988SOL    HW2 9864   6.906   1.090   3.351
 2989SOL     OW 9865   0.109   5.142   0.967
 2989SOL    HW1 9866   0.123   5.186   1.056
 2989SOL    HW2 9867   0.198   5.127   0.923
 2990SOL     OW 9868   2.722   1.196   0.812
 2990SOL    HW1 9869   2.763   1.192   0.721
 2990SOL    HW2 9870   2.702   1.104   0.844
 2991SOL     OW 9871   5.832   4.211   6.967
 2991SOL    HW1 9872   5.762   4.158   7.015
 2991SOL    HW2 9873   5.855   4.292   7.019
 2992SOL     OW 9874   3.915   4.859   6.185
 2992SOL    HW1 9875   3.893   4.941   6.238
 2992SOL    HW2 9876   3.837   4.834   6.128
 2993SOL     OW 9877   0.708   3.666   0.098
 2993SOL    HW1 9878   0.783   3.670   0.163
 2993SOL    HW2 9879   0.630   3.619   0.140
 2994SOL     OW 9880   4.156   0.055   6.328
 2994SOL    HW1 9881   4.084   0.124   6.326
 2994SOL    HW2 9882   4.236   0.092   6.375
 2995SOL     OW 9883   2.466   0.794   5.083
 2995SOL    HW1 9884   2.446   0.728   5.011
 2995SOL    HW2 9885   2.428   0.883   5.058
 2996SOL     OW 9886   4.392   6.570   5.990
 2996SOL    HW1 9887   4.306   6.569   6.042
 2996SOL    HW2 9888   4.458   6.628   6.037
 2997SOL     OW 9889   3.634   5.916   0.075
 2997SOL    HW1 9890   3.550   5.925   0.021
 2997SOL    HW2 9891   3.712   5.906   0.013
 2998SOL     OW 9892   6.607   3.921   6.140
 2998SOL    HW1 9893   6.615   4.019   6.158
 2998SOL    HW2 9894   6.604   3.905   6.042
 2999SOL     OW 9895   2.956   1.285   1.175
 2999SOL    HW1 9896   2.891   1.360   1.187
 2999SOL    HW2 9897   3.047   1.316   1.202
 3000SOL     OW 9898   1.610   2.328   5.524
 3000SOL    HW1 9899   1.573   2.325   5.617
 3000SOL    HW2 9900   1.583   2.413   5.480
 3001SOL     OW 9901   4.666   5.848   6.104
 3001SOL    HW1 9902   4.719   5.853   6.019
 3001SOL    HW2 9903   4.695   5.769   6.158
 3002SOL     OW 9904   3.859   0.418   5.336
 3002SOL    HW1 9905   3.861   0.319   5.353
 3002SOL    HW2 9906   3.802   0.463   5.404
 3003SOL     OW 9907   1.495   0.419   5.484
 3003SOL    HW1 9908   1.411   0.377   5.450
 3003SOL    HW2 9909   1.521   0.494   5.423
 3004SOL     OW 9910   0.261   3.784   6.460
 3004SOL    HW1 9911   0.305   3.868   6.495
 3004SOL    HW2 9912   0.240   3.796   6.363
 3005SOL     OW 9913   4.321   2.302   1.071
 3005SOL    HW1 9914   4.227   2.335   1.067
 3005SOL    HW2 9915   4.342   2.273   1.165
 3006SOL     OW 9916   4.269   6.181   2.367
 3006SOL    HW1 9917   4.324   6.148   2.443
 3006SOL    HW2 9918   4.310   6.153   2.280
 3007SOL     OW 9919   5.462   5.232   2.015
 3007SOL    HW1 9920   5.395   5.259   1.945
 3007SOL    HW2 9921   5.483   5.311   2.073
 3008SOL     OW 9922   4.897   4.790   5.500
 3008SOL    HW1 9923   4.909   4.701   5.456
 3008SOL    HW2 9924   4.882   4.778   5.598
 3009SOL     OW 9925   1.756   0.464   2.053
 3009SOL    HW1 9926   1.690   0.463   2.128
 3009SOL    HW2 9927   1.735   0.391   1.989
 3010SOL     OW 9928   3.661   1.040   4.126
 3010SOL    HW1 9929   3.706   0.951   4.134
 3010SOL    HW2 9930   3.700   1.103   4.193
 3011SOL     OW 9931   5.825   0.081   0.341
 3011SOL    HW1 9932   5.752   0.013   0.345
 3011SOL    HW2 9933   5.794   0.161   0.290
 3012SOL     OW 9934   0.180   5.192   1.705
 3012SOL    HW1 9935   0.279   5.204   1.698
 3012SOL    HW2 9936   0.155   5.169   1.799
 3013SOL     OW 9937   5.330   4.765   1.482
 3013SOL    HW1 9938   5.378   4.853   1.484
 3013SOL    HW2 9939   5.232   4.782   1.468
 3014SOL     OW 9940   5.271   5.651   5.278
 3014SOL    HW1 9941   5.278   5.553   5.299
 3014SOL    HW2 9942   5.176   5.674   5.257
 3015SOL     OW 9943   3.452   1.294   0.600
 3015SOL    HW1 9944   3.352   1.302   0.603
 3015SOL    HW2 9945   3.481   1.271   0.507
 3016SOL     OW 9946   4.363   6.376   4.507
 3016SOL    HW1 9947   4.304   6.408   4.432
 3016SOL    HW2 9948   4.425   6.306   4.472
 3017SOL     OW 9949   0.594   6.458   2.599
 3017SOL    HW1 9950   0.693   6.451   2.609
 3017SOL    HW2 9951   0.558   6.519   2.670
 3018SOL     OW 9952   4.444   6.992   5.934
 3018SOL    HW1 9953   4.349   6.963   5.948
 3018SOL    HW2 9954   4.477   6.960   5.845
 3019SOL     OW 9955   4.921   1.042   1.819
 3019SOL    HW1 9956   4.922   0.945   1.843
 3019SOL    HW2 9957   4.933   1.052   1.720
 3020SOL     OW 9958   2.084   0.121   1.956
 3020SOL    HW1 9959   2.138   0.045   1.920
 3020SOL    HW2 9960   1.993   0.088   1.982
 3021SOL     OW 9961   4.435   0.153   6.384
 3021SOL    HW1 9962   4.394   0.242   6.404
 3021SOL    HW2 9963   4.445   0.141   6.286
 3022SOL     OW 9964   6.640   0.345   3.298
 3022SOL    HW1 9965   6.594   0.319   3.214
 3022SOL    HW2 9966   6.588   0.311   3.377
 3023SOL     OW 9967   5.592   0.446   2.067
 3023SOL    HW1 9968   5.640   0.383   2.006
 3023SOL    HW2 9969   5.528   0.394   2.124
 3024SOL     OW 9970   1.970   6.853   0.063
 3024SOL    HW1 9971   1.932   6.929   0.116
 3024SOL    HW2 9972   1.896   6.801   0.022
 3025SOL     OW 9973   1.749   2.239   2.172
 3025SOL    HW1 9974   1.688   2.302   2.219
 3025SOL    HW2 9975   1.697   2.161   2.137
 3026SOL     OW 9976   2.792   5.362   0.605
 3026SOL    HW1 9977   2.810   5.420   0.525
 3026SOL    HW2 9978   2.862   5.377   0.674
 3027SOL     OW 9979   0.717   2.306   3.888
 3027SOL    HW1 9980   0.675   2.231   3.837
 3027SOL    HW2 9981   0.707   2.391   3.836
 3028SOL     OW 9982   1.702   0.835   4.084
 3028SOL    HW1 9983   1.782   0.789   4.045
 3028SOL    HW2 9984   1.696   0.928   4.048
 3029SOL     OW 9985   6.370   5.089   5.865
 3029SOL    HW1 9986   6.466   5.081   5.892
 3029SOL    HW2 9987   6.357   5.172   5.811
 3030SOL     OW 9988   0.391   1.514   5.701
 3030SOL    HW1 9989   0.346   1.525   5.612
 3030SOL    HW2 9990   0.323   1.516   5.774
 3031SOL     OW 9991   0.159   5.060   6.046
 3031SOL    HW1 9992   0.182   5.087   6.139
 3031SOL    HW2 9993   0.215   5.111   5.981
 3032SOL     OW 9994   3.977   0.178   5.397
 3032SOL    HW1 9995   4.009   0.162   5.491
 3032SOL    HW2 9996   3.904   0.113   5.376
 3033SOL     OW 9997   5.261   3.996   6.218
 3033SOL    HW1 9998   5.207   3.918   6.250
 3033SOL    HW2 9999   5.211   4.042   6.145
 3034SOL     OW10000   2.970   6.573   4.659
 3034SOL    HW110001   2.954   6.487   4.707
 3034SOL    HW210002   3.067   6.580   4.634
 3035SOL     OW10003   5.713   6.060   6.734
 3035SOL    HW110004   5.755   6.025   6.650
 3035SOL    HW210005   5.781   6.111   6.786
 3036SOL     OW10006   0.066   4.725   5.276
 3036SOL    HW110007   6.993   4.727   5.243
 3036SOL    HW210008   0.071   4.771   5.364
 3037SOL     OW10009   5.159   6.445   6.488
 3037SOL    HW110010   5.123   6.451   6.581
 3037SOL    HW210011   5.083   6.438   6.423
 3038SOL     OW10012   5.789   5.525   5.458
 3038SOL    HW110013   5.809   5.622   5.442
 3038SOL    HW210014   5.716   5.496   5.395
 3039SOL     OW10015   0.503   4.474   0.570
 3039SOL    HW110016   0.583   4.482   0.630
 3039SOL    HW210017   0.428   4.528   0.608
 3040SOL     OW10018   2.394   0.859   0.610
 3040SOL    HW110019   2.311   0.913   0.603
 3040SOL    HW210020   2.420   0.825   0.520
 3041SOL     OW10021   1.908   1.551   6.215
 3041SOL    HW110022   1.982   1.557   6.147
 3041SOL    HW210023   1.897   1.456   6.243
 3042SOL     OW10024   5.270   0.138   1.120
 3042SOL    HW110025   5.298   0.139   1.216
 3042SOL    HW210026   5.328   0.073   1.069
 3043SOL     OW10027   0.143   4.640   0.345
 3043SOL    HW110028   0.142   4.563   0.408
 3043SOL    HW210029   0.191   4.717   0.387
 3044SOL     OW10030   2.571   2.926   7.018
 3044SOL    HW110031   2.567   2.947   6.920
 3044SOL    HW210032   2.505   2.982   0.046
 3045SOL     OW10033   4.482   2.501   4.799
 3045SOL    HW110034   4.410   2.432   4.790
 3045SOL    HW210035   4.478   2.542   4.890
 3046SOL     OW10036   2.403   2.539   5.936
 3046SOL    HW110037   2.435   2.623   5.892
 3046SOL    HW210038   2.305   2.529   5.921
 3047SOL     OW10039   6.645   5.274   2.134
 3047SOL    HW110040   6.672   5.253   2.040
 3047SOL    HW210041   6.599   5.194   2.174
 3048SOL     OW10042   3.367   2.838   2.062
 3048SOL    HW110043   3.295   2.833   1.993
 3048SOL    HW210044   3.424   2.756   2.058
 3049SOL     OW10045   0.637   0.650   1.092
 3049SOL    HW110046   0.590   0.730   1.129
 3049SOL    HW210047   0.714   0.681   1.036
 3050SOL     OW10048   1.408   0.189   4.603
 3050SOL    HW110049   1.502   0.194   4.567
 3050SOL    HW210050   1.351   0.136   4.541
 3051SOL     OW10051   2.429   5.212   5.100
 3051SOL    HW110052   2.451   5.121   5.136
 3051SOL    HW210053   2.451   5.281   5.169
 3052SOL     OW10054   4.984   6.496   2.087
 3052SOL    HW110055   5.074   6.478   2.047
 3052SOL    HW210056   4.994   6.538   2.176
 3053SOL     OW10057   3.337   6.025   1.590
 3053SOL    HW110058   3.330   6.011   1.688
 3053SOL    HW210059   3.370   6.118   1.572
 3054SOL     OW10060   1.687   4.274   5.076
 3054SOL    HW110061   1.667   4.197   5.016
 3054SOL    HW210062   1.783   4.271   5.104
 3055SOL     OW10063   5.766   6.880   2.737
 3055SOL    HW110064   5.729   6.972   2.723
 3055SOL    HW210065   5.715   6.815   2.681
 3056SOL     OW10066   5.083   0.973   2.206
 3056SOL    HW110067   5.001   0.943   2.255
 3056SOL    HW210068   5.150   1.006   2.272
 3057SOL     OW10069   0.383   4.394   2.759
 3057SOL    HW110070   0.371   4.391   2.660
 3057SOL    HW210071   0.413   4.304   2.792
 3058SOL     OW10072   5.784   0.014   1.501
 3058SOL    HW110073   5.844   7.000   1.572
 3058SOL    HW210074   5.839   0.055   1.429
 3059SOL     OW10075   2.391   2.474   0.178
 3059SOL    HW110076   2.475   2.529   0.186
 3059SOL    HW210077   2.415   2.377   0.183
 3060SOL     OW10078   0.731   6.049   6.877
 3060SOL    HW110079   0.689   6.024   6.965
 3060SOL    HW210080   0.822   6.087   6.894
 3061SOL     OW10081   6.701   0.706   5.667
 3061SOL    HW110082   6.621   0.754   5.702
 3061SOL    HW210083   6.729   0.746   5.580
 3062SOL     OW10084   3.708   5.871   6.071
 3062SOL    HW110085   3.717   5.809   5.992
 3062SOL    HW210086   3.797   5.883   6.114
 3063SOL     OW10087   3.043   6.258   1.132
 3063SOL    HW110088   3.138   6.286   1.140
 3063SOL    HW210089   2.986   6.313   1.194
 3064SOL     OW10090   6.226   4.578   3.255
 3064SOL    HW110091   6.272   4.665   3.238
 3064SOL    HW210092   6.257   4.510   3.188
 3065SOL     OW10093   3.388   1.642   1.562
 3065SOL    HW110094   3.329   1.723   1.561
 3065SOL    HW210095   3.436   1.635   1.474
 3066SOL     OW10096   5.842   5.315   0.931
 3066SOL    HW110097   5.783   5.316   0.851
 3066SOL    HW210098   5.928   5.362   0.910
 3067SOL     OW10099   3.892   6.739   3.059
 3067SOL    HW110100   3.795   6.732   3.082
 3067SOL    HW210101   3.906   6.814   2.995
 3068SOL     OW10102   6.536   4.751   6.808
 3068SOL    HW110103   6.604   4.678   6.805
 3068SOL    HW210104   6.444   4.712   6.799
 3069SOL     OW10105   0.998   5.694   3.756
 3069SOL    HW110106   1.001   5.665   3.660
 3069SOL    HW210107   0.966   5.618   3.812
 3070SOL     OW10108   4.629   2.238   4.434
 3070SOL    HW110109   4.681   2.295   4.498
 3070SOL    HW210110   4.544   2.285   4.409
 3071SOL     OW10111   5.169   0.899   3.047
 3071SOL    HW110112   5.182   0.863   3.140
 3071SOL    HW210113   5.071   0.903   3.027
 3072SOL     OW10114   7.000   0.522   1.270
 3072SOL    HW110115   0.009   0.567   1.354
 3072SOL    HW210116   0.058   0.490   1.218
 3073SOL     OW10117   1.768   1.232   4.479
 3073SOL    HW110118   1.707   1.183   4.416
 3073SOL    HW210119   1.836   1.169   4.516
 3074SOL     OW10120   4.708   3.328   5.597
 3074SOL    HW110121   4.723   3.264   5.672
 3074SOL    HW210122   4.788   3.388   5.588
 3075SOL     OW10123   0.012   5.441   1.713
 3075SOL    HW110124   6.973   5.397   1.779
 3075SOL    HW210125   0.094   5.385   1.702
 3076SOL     OW10126   0.128   1.436   5.805
 3076SOL    HW110127   0.158   1.472   5.893
 3076SOL    HW210128   0.094   1.343   5.817
 3077SOL     OW10129   4.570   4.501   3.683
 3077SOL    HW110130   4.631   4.571   3.720
 3077SOL    HW210131   4.590   4.413   3.726
 3078SOL     OW10132   2.306   3.164   0.558
 3078SOL    HW110133   2.298   3.071   0.522
 3078SOL    HW210134   2.399   3.197   0.544
 3079SOL     OW10135   5.411   3.012   6.134
 3079SOL    HW110136   5.348   3.053   6.069
 3079SOL    HW210137   5.360   2.957   6.201
 3080SOL     OW10138   6.006   6.642   2.528
 3080SOL    HW110139   5.944   6.661   2.452
 3080SOL    HW210140   5.961   6.581   2.593
 3081SOL     OW10141   0.735   5.040   5.746
 3081SOL    HW110142   0.826   5.021   5.783
 3081SOL    HW210143   0.683   4.955   5.740
 3082SOL     OW10144   2.960   6.211   2.509
 3082SOL    HW110145   2.970   6.277   2.434
 3082SOL    HW210146   2.863   6.203   2.534
 3083SOL     OW10147   3.443   6.614   2.894
 3083SOL    HW110148   3.497   6.613   2.810
 3083SOL    HW210149   3.354   6.657   2.875
 3084SOL     OW10150   4.866   0.489   3.981
 3084SOL    HW110151   4.856   0.468   4.078
 3084SOL    HW210152   4.930   0.565   3.970
 3085SOL     OW10153   1.012   4.908   2.446
 3085SOL    HW110154   1.024   4.809   2.458
 3085SOL    HW210155   1.071   4.956   2.510
 3086SOL     OW10156   6.137   1.582   4.922
 3086SOL    HW110157   6.212   1.646   4.934
 3086SOL    HW210158   6.081   1.581   5.005
 3087SOL     OW10159   5.912   3.778   0.895
 3087SOL    HW110160   5.933   3.802   0.990
 3087SOL    HW210161   5.935   3.855   0.835
 3088SOL     OW10162   3.015   3.882   6.900
 3088SOL    HW110163   3.102   3.890   6.852
 3088SOL    HW210164   3.011   3.795   6.949
 3089SOL     OW10165   3.194   2.066   2.172
 3089SOL    HW110166   3.117   2.129   2.188
 3089SOL    HW210167   3.159   1.980   2.135
 3090SOL     OW10168   6.487   1.370   1.289
 3090SOL    HW110169   6.404   1.425   1.280
 3090SOL    HW210170   6.464   1.274   1.275
 3091SOL     OW10171   2.182   6.434   6.481
 3091SOL    HW110172   2.098   6.471   6.442
 3091SOL    HW210173   2.172   6.336   6.498
 3092SOL     OW10174   4.731   5.306   6.559
 3092SOL    HW110175   4.662   5.336   6.494
 3092SOL    HW210176   4.689   5.291   6.648
 3093SOL     OW10177   4.365   6.438   2.775
 3093SOL    HW110178   4.378   6.340   2.758
 3093SOL    HW210179   4.425   6.491   2.716
 3094SOL     OW10180   4.258   5.052   4.494
 3094SOL    HW110181   4.284   4.956   4.490
 3094SOL    HW210182   4.255   5.090   4.401
 3095SOL     OW10183   1.921   5.064   4.665
 3095SOL    HW110184   1.903   5.156   4.701
 3095SOL    HW210185   1.948   5.071   4.568
 3096SOL     OW10186   0.183   2.173   5.583
 3096SOL    HW110187   0.187   2.074   5.595
 3096SOL    HW210188   0.166   2.195   5.487
 3097SOL     OW10189   1.824   0.274   0.053
 3097SOL    HW110190   1.827   0.368   0.020
 3097SOL    HW210191   1.783   0.215   7.006
 3098SOL     OW10192   3.441   3.526   0.702
 3098SOL    HW110193   3.506   3.451   0.711
 3098SOL    HW210194   3.473   3.604   0.757
 3099SOL     OW10195   1.245   5.859   4.994
 3099SOL    HW110196   1.345   5.849   5.002
 3099SOL    HW210197   1.213   5.924   5.063
 3100SOL     OW10198   6.154   6.502   5.860
 3100SOL    HW110199   6.233   6.509   5.800
 3100SOL    HW210200   6.107   6.416   5.843
 3101SOL     OW10201   2.445   0.781   1.154
 3101SOL    HW110202   2.530   0.792   1.206
 3101SOL    HW210203   2.369   0.771   1.218
 3102SOL     OW10204   0.947   5.892   1.111
 3102SOL    HW110205   0.921   5.964   1.175
 3102SOL    HW210206   0.914   5.916   1.019
 3103SOL     OW10207   4.295   4.484   1.784
 3103SOL    HW110208   4.358   4.411   1.810
 3103SOL    HW210209   4.337   4.540   1.713
 3104SOL     OW10210   5.692   5.879   3.058
 3104SOL    HW110211   5.736   5.812   2.997
 3104SOL    HW210212   5.697   5.846   3.152
 3105SOL     OW10213   5.724   6.192   3.718
 3105SOL    HW110214   5.697   6.266   3.656
 3105SOL    HW210215   5.719   6.105   3.669
 3106SOL     OW10216   0.952   3.278   4.241
 3106SOL    HW110217   0.902   3.364   4.236
 3106SOL    HW210218   0.893   3.207   4.281
 3107SOL     OW10219   2.489   0.161   4.304
 3107SOL    HW110220   2.586   0.153   4.284
 3107SOL    HW210221   2.457   0.079   4.350
 3108SOL     OW10222   1.956   6.617   3.004
 3108SOL    HW110223   2.000   6.631   3.093
 3108SOL    HW210224   1.857   6.617   3.016
 3109SOL     OW10225   4.929   4.823   4.012
 3109SOL    HW110226   5.013   4.859   3.970
 3109SOL    HW210227   4.909   4.874   4.095
 3110SOL     OW10228   0.542   2.892   1.668
 3110SOL    HW110229   0.598   2.971   1.691
 3110SOL    HW210230   0.446   2.918   1.664
 3111SOL     OW10231   0.670   4.011   2.320
 3111SOL    HW110232   0.656   4.089   2.380
 3111SOL    HW210233   0.722   4.041   2.239
 3112SOL     OW10234   3.300   2.711   6.018
 3112SOL    HW110235   3.389   2.755   6.006
 3112SOL    HW210236   3.252   2.708   5.930
 3113SOL     OW10237   4.010   0.397   3.676
 3113SOL    HW110238   4.029   0.302   3.648
 3113SOL    HW210239   4.064   0.459   3.619
 3114SOL     OW10240   5.158   5.573   0.868
 3114SOL    HW110241   5.134   5.476   0.867
 3114SOL    HW210242   5.196   5.598   0.957
 3115SOL     OW10243   3.596   3.281   2.940
 3115SOL    HW110244   3.642   3.258   2.855
 3115SOL    HW210245   3.502   3.310   2.920
 3116SOL     OW10246   0.321   1.665   6.545
 3116SOL    HW110247   0.359   1.689   6.635
 3116SOL    HW210248   0.362   1.723   6.475
 3117SOL     OW10249   3.104   4.663   6.289
 3117SOL    HW110250   3.054   4.701   6.367
 3117SOL    HW210251   3.059   4.579   6.258
 3118SOL     OW10252   6.195   5.028   6.651
 3118SOL    HW110253   6.247   4.995   6.730
 3118SOL    HW210254   6.098   5.026   6.672
 3119SOL     OW10255   2.316   4.227   6.824
 3119SOL    HW110256   2.219   4.231   6.847
 3119SOL    HW210257   2.340   4.134   6.796
 3120SOL     OW10258   2.723   5.406   6.581
 3120SOL    HW110259   2.716   5.333   6.512
 3120SOL    HW210260   2.717   5.495   6.536
 3121SOL     OW10261   6.791   6.387   3.824
 3121SOL    HW110262   6.862   6.316   3.823
 3121SOL    HW210263   6.827   6.468   3.870
 3122SOL     OW10264   3.284   5.910   1.273
 3122SOL    HW110265   3.318   5.854   1.349
 3122SOL    HW210266   3.185   5.915   1.276
 3123SOL     OW10267   2.809   6.500   4.109
 3123SOL    HW110268   2.835   6.542   4.196
 3123SOL    HW210269   2.890   6.464   4.063
 3124SOL     OW10270   4.162   0.332   4.691
 3124SOL    HW110271   4.202   0.399   4.753
 3124SOL    HW210272   4.155   0.372   4.599
 3125SOL     OW10273   6.728   2.256   5.671
 3125SOL    HW110274   6.793   2.218   5.737
 3125SOL    HW210275   6.635   2.241   5.705
 3126SOL     OW10276   3.786   5.624   6.445
 3126SOL    HW110277   3.834   5.551   6.396
 3126SOL    HW210278   3.725   5.672   6.381
 3127SOL     OW10279   1.032   1.228   4.346
 3127SOL    HW110280   1.002   1.266   4.258
 3127SOL    HW210281   0.981   1.144   4.365
 3128SOL     OW10282   2.107   1.050   1.259
 3128SOL    HW110283   2.147   1.133   1.299
 3128SOL    HW210284   2.087   1.067   1.162
 3129SOL     OW10285   1.834   3.404   2.793
 3129SOL    HW110286   1.842   3.307   2.771
 3129SOL    HW210287   1.765   3.446   2.734
 3130SOL     OW10288   3.081   5.724   2.777
 3130SOL    HW110289   3.118   5.802   2.826
 3130SOL    HW210290   3.149   5.651   2.772
 3131SOL     OW10291   1.058   3.348   3.516
 3131SOL    HW110292   0.962   3.344   3.546
 3131SOL    HW210293   1.118   3.344   3.595
 3132SOL     OW10294   5.180   3.472   5.568
 3132SOL    HW110295   5.263   3.528   5.577
 3132SOL    HW210296   5.102   3.521   5.607
 3133SOL     OW10297   1.973   1.048   3.299
 3133SOL    HW110298   2.059   1.046   3.350
 3133SOL    HW210299   1.913   1.120   3.336
 3134SOL     OW10300   5.835   2.079   1.814
 3134SOL    HW110301   5.784   2.048   1.894
 3134SOL    HW210302   5.789   2.158   1.773
 3135SOL     OW10303   1.340   2.080   3.159
 3135SOL    HW110304   1.303   2.049   3.071
 3135SOL    HW210305   1.264   2.105   3.220
 3136SOL     OW10306   0.046   1.153   4.655
 3136SOL    HW110307   0.091   1.171   4.743
 3136SOL    HW210308   0.015   1.240   4.615
 3137SOL     OW10309   0.569   1.990   4.233
 3137SOL    HW110310   0.649   2.043   4.202
 3137SOL    HW210311   0.554   2.007   4.330
 3138SOL     OW10312   6.465   2.871   5.016
 3138SOL    HW110313   6.400   2.884   4.942
 3138SOL    HW210314   6.533   2.944   5.015
 3139SOL     OW10315   5.601   5.418   5.728
 3139SOL    HW110316   5.660   5.375   5.796
 3139SOL    HW210317   5.549   5.492   5.770
 3140SOL     OW10318   6.895   6.068   5.989
 3140SOL    HW110319   6.855   5.988   6.032
 3140SOL    HW210320   6.995   6.061   5.989
 3141SOL     OW10321   1.470   6.914   1.742
 3141SOL    HW110322   1.439   6.922   1.837
 3141SOL    HW210323   1.399   6.950   1.681
 3142SOL     OW10324   3.770   6.700   1.318
 3142SOL    HW110325   3.752   6.602   1.332
 3142SOL    HW210326   3.856   6.725   1.362
 3143SOL     OW10327   0.300   2.296   0.389
 3143SOL    HW110328   0.305   2.357   0.310
 3143SOL    HW210329   0.208   2.257   0.395
 3144SOL     OW10330   2.894   3.469   0.216
 3144SOL    HW110331   2.981   3.425   0.237
 3144SOL    HW210332   2.824   3.399   0.203
 3145SOL     OW10333   1.985   4.817   2.642
 3145SOL    HW110334   1.942   4.904   2.666
 3145SOL    HW210335   2.082   4.832   2.624
 3146SOL     OW10336   2.110   6.725   4.475
 3146SOL    HW110337   2.109   6.724   4.375
 3146SOL    HW210338   2.205   6.733   4.507
 3147SOL     OW10339   4.020   4.546   0.671
 3147SOL    HW110340   4.027   4.527   0.573
 3147SOL    HW210341   3.936   4.507   0.707
 3148SOL     OW10342   3.327   5.793   4.334
 3148SOL    HW110343   3.384   5.711   4.333
 3148SOL    HW210344   3.377   5.868   4.377
 3149SOL     OW10345   1.838   5.851   5.310
 3149SOL    HW110346   1.854   5.939   5.355
 3149SOL    HW210347   1.777   5.796   5.366
 3150SOL     OW10348   6.533   0.847   4.916
 3150SOL    HW110349   6.510   0.758   4.955
 3150SOL    HW210350   6.475   0.864   4.836
 3151SOL     OW10351   3.345   6.574   1.343
 3151SOL    HW110352   3.311   6.667   1.330
 3151SOL    HW210353   3.300   6.513   1.278
 3152SOL     OW10354   0.984   4.938   5.630
 3152SOL    HW110355   1.028   5.013   5.581
 3152SOL    HW210356   0.945   4.874   5.565
 3153SOL     OW10357   0.403   3.926   3.170
 3153SOL    HW110358   0.375   3.841   3.125
 3153SOL    HW210359   0.501   3.923   3.188
 3154SOL     OW10360   5.985   2.902   6.935
 3154SOL    HW110361   6.055   2.831   6.930
 3154SOL    HW210362   5.904   2.873   6.884
 3155SOL     OW10363   3.939   5.857   0.413
 3155SOL    HW110364   4.036   5.880   0.408
 3155SOL    HW210365   3.908   5.826   0.323
 3156SOL     OW10366   3.000   3.468   3.638
 3156SOL    HW110367   3.087   3.509   3.611
 3156SOL    HW210368   2.991   3.470   3.737
 3157SOL     OW10369   2.379   2.111   5.026
 3157SOL    HW110370   2.326   2.153   5.100
 3157SOL    HW210371   2.428   2.183   4.976
 3158SOL     OW10372   4.796   6.487   1.198
 3158SOL    HW110373   4.889   6.480   1.236
 3158SOL    HW210374   4.735   6.427   1.248
 3159SOL     OW10375   5.499   4.633   0.207
 3159SOL    HW110376   5.426   4.634   0.274
 3159SOL    HW210377   5.587   4.626   0.253
 3160SOL     OW10378   6.132   4.667   0.789
 3160SOL    HW110379   6.127   4.644   0.692
 3160SOL    HW210380   6.044   4.652   0.832
 3161SOL     OW10381   0.173   2.241   4.022
 3161SOL    HW110382   0.260   2.263   4.066
 3161SOL    HW210383   0.126   2.170   4.074
 3162SOL     OW10384   0.273   0.478   5.910
 3162SOL    HW110385   0.202   0.439   5.851
 3162SOL    HW210386   0.315   0.405   5.964
 3163SOL     OW10387   1.699   4.103   5.527
 3163SOL    HW110388   1.689   4.168   5.451
 3163SOL    HW210389   1.795   4.080   5.539
 3164SOL     OW10390   6.119   5.104   6.112
 3164SOL    HW110391   6.193   5.122   6.048
 3164SOL    HW210392   6.139   5.022   6.165
 3165SOL     OW10393   0.106   2.494   1.570
 3165SOL    HW110394   0.118   2.424   1.500
 3165SOL    HW210395   0.195   2.531   1.596
 3166SOL     OW10396   3.727   3.128   6.387
 3166SOL    HW110397   3.697   3.209   6.438
 3166SOL    HW210398   3.655   3.058   6.389
 3167SOL     OW10399   7.016   4.914   1.696
 3167SOL    HW110400   0.075   4.854   1.697
 3167SOL    HW210401   7.021   4.975   1.617
 3168SOL     OW10402   6.495   3.497   0.738
 3168SOL    HW110403   6.418   3.466   0.683
 3168SOL    HW210404   6.462   3.528   0.828
 3169SOL     OW10405   3.163   1.761   5.516
 3169SOL    HW110406   3.226   1.838   5.518
 3169SOL    HW210407   3.180   1.701   5.594
 3170SOL     OW10408   3.280   0.729   4.315
 3170SOL    HW110409   3.282   0.799   4.244
 3170SOL    HW210410   3.185   0.705   4.336
 3171SOL     OW10411   6.385   5.423   2.426
 3171SOL    HW110412   6.411   5.468   2.341
 3171SOL    HW210413   6.295   5.456   2.455
 3172SOL     OW10414   5.472   6.441   4.741
 3172SOL    HW110415   5.472   6.541   4.746
 3172SOL    HW210416   5.433   6.403   4.825
 3173SOL     OW10417   1.759   0.749   1.335
 3173SOL    HW110418   1.764   0.838   1.289
 3173SOL    HW210419   1.722   0.761   1.427
 3174SOL     OW10420   2.261   2.937   0.419
 3174SOL    HW110421   2.230   2.974   0.332
 3174SOL    HW210422   2.223   2.846   0.433
 3175SOL     OW10423   0.184   5.922   0.675
 3175SOL    HW110424   0.209   5.855   0.745
 3175SOL    HW210425   0.239   6.005   0.687
 3176SOL     OW10426   0.966   5.152   0.118
 3176SOL    HW110427   0.973   5.238   0.168
 3176SOL    HW210428   1.029   5.154   0.040
 3177SOL     OW10429   1.229   0.535   3.563
 3177SOL    HW110430   1.323   0.538   3.594
 3177SOL    HW210431   1.221   0.471   3.486
 3178SOL     OW10432   3.603   3.453   0.202
 3178SOL    HW110433   3.656   3.398   0.137
 3178SOL    HW210434   3.569   3.394   0.276
 3179SOL     OW10435   1.177   2.709   4.255
 3179SOL    HW110436   1.224   2.792   4.223
 3179SOL    HW210437   1.214   2.681   4.344
 3180SOL     OW10438   6.782   1.517   6.403
 3180SOL    HW110439   6.705   1.456   6.383
 3180SOL    HW210440   6.754   1.612   6.392
 3181SOL     OW10441   6.410   1.767   1.955
 3181SOL    HW110442   6.369   1.734   2.040
 3181SOL    HW210443   6.474   1.699   1.920
 3182SOL     OW10444   1.190   6.462   5.909
 3182SOL    HW110445   1.287   6.467   5.936
 3182SOL    HW210446   1.141   6.540   5.948
 3183SOL     OW10447   4.944   3.391   0.909
 3183SOL    HW110448   5.015   3.403   0.978
 3183SOL    HW210449   4.927   3.294   0.894
 3184SOL     OW10450   6.771   1.829   2.606
 3184SOL    HW110451   6.773   1.768   2.527
 3184SOL    HW210452   6.703   1.900   2.592
 3185SOL     OW10453   0.296   6.286   0.316
 3185SOL    HW110454   0.374   6.258   0.259
 3185SOL    HW210455   0.217   6.230   0.294
 3186SOL     OW10456   3.692   0.563   1.053
 3186SOL    HW110457   3.654   0.608   0.973
 3186SOL    HW210458   3.771   0.614   1.087
 3187SOL     OW10459   3.743   4.532   0.894
 3187SOL    HW110460   3.730   4.451   0.837
 3187SOL    HW210461   3.690   4.608   0.858
 3188SOL     OW10462   3.438   0.433   3.991
 3188SOL    HW110463   3.477   0.347   3.959
 3188SOL    HW210464   3.391   0.418   4.078
 3189SOL     OW10465   5.323   6.021   1.520
 3189SOL    HW110466   5.312   6.002   1.422
 3189SOL    HW210467   5.324   5.935   1.571
 3190SOL     OW10468   0.473   0.846   2.554
 3190SOL    HW110469   0.474   0.747   2.541
 3190SOL    HW210470   0.565   0.877   2.574
 3191SOL     OW10471   3.451   1.463   1.052
 3191SOL    HW110472   3.462   1.562   1.044
 3191SOL    HW210473   3.539   1.421   1.075
 3192SOL     OW10474   5.772   3.284   4.362
 3192SOL    HW110475   5.781   3.208   4.298
 3192SOL    HW210476   5.802   3.369   4.318
 3193SOL     OW10477   5.573   4.396   1.900
 3193SOL    HW110478   5.500   4.378   1.834
 3193SOL    HW210479   5.538   4.452   1.975
 3194SOL     OW10480   3.232   5.456   4.486
 3194SOL    HW110481   3.228   5.362   4.450
 3194SOL    HW210482   3.186   5.518   4.423
 3195SOL     OW10483   6.991   4.274   4.285
 3195SOL    HW110484   0.004   4.251   4.194
 3195SOL    HW210485   6.891   4.269   4.285
 3196SOL     OW10486   6.960   6.051   0.008
 3196SOL    HW110487   6.871   6.020   6.998
 3196SOL    HW210488   0.007   6.035   6.959
 3197SOL     OW10489   0.726   4.280   5.874
 3197SOL    HW110490   0.640   4.230   5.874
 3197SOL    HW210491   0.713   4.370   5.916
 3198SOL     OW10492   5.679   0.036   1.012
 3198SOL    HW110493   5.707   0.100   0.940
 3198SOL    HW210494   5.761   0.004   1.061
 3199SOL     OW10495   3.094   2.142   3.523
 3199SOL    HW110496   3.027   2.076   3.556
 3199SOL    HW210497   3.179   2.131   3.574
 3200SOL     OW10498   6.796   1.534   0.113
 3200SOL    HW110499   6.767   1.541   0.017
 3200SOL    HW210500   6.743   1.599   0.168
 3201SOL     OW10501   4.190   5.832   3.913
 3201SOL    HW110502   4.134   5.873   3.841
 3201SOL    HW210503   4.131   5.801   3.988
 3202SOL     OW10504   1.197   4.948   2.208
 3202SOL    HW110505   1.244   4.880   2.265
 3202SOL    HW210506   1.109   4.971   2.250
 3203SOL     OW10507   5.089   6.774   0.681
 3203SOL    HW110508   5.162   6.824   0.727
 3203SOL    HW210509   5.003   6.824   0.691
 3204SOL     OW10510   6.352   6.432   2.240
 3204SOL    HW110511   6.393   6.501   2.300
 3204SOL    HW210512   6.258   6.415   2.268
 3205SOL     OW10513   1.930   4.088   4.622
 3205SOL    HW110514   1.922   4.150   4.700
 3205SOL    HW210515   2.027   4.073   4.603
 3206SOL     OW10516   2.301   6.659   0.447
 3206SOL    HW110517   2.385   6.685   0.495
 3206SOL    HW210518   2.227   6.649   0.514
 3207SOL     OW10519   1.595   1.286   2.918
 3207SOL    HW110520   1.627   1.308   3.010
 3207SOL    HW210521   1.661   1.227   2.872
 3208SOL     OW10522   6.234   6.042   6.203
 3208SOL    HW110523   6.204   5.950   6.228
 3208SOL    HW210524   6.327   6.039   6.168
 3209SOL     OW10525   0.998   6.913   3.058
 3209SOL    HW110526   1.061   6.868   3.121
 3209SOL    HW210527   1.005   7.012   3.069
 3210SOL     OW10528   0.525   6.041   2.244
 3210SOL    HW110529   0.454   6.092   2.195
 3210SOL    HW210530   0.483   5.979   2.310
 3211SOL     OW10531   0.342   4.673   3.752
 3211SOL    HW110532   0.420   4.682   3.690
 3211SOL    HW210533   0.366   4.710   3.842
 3212SOL     OW10534   4.734   2.333   4.751
 3212SOL    HW110535   4.683   2.251   4.777
 3212SOL    HW210536   4.672   2.411   4.746
 3213SOL     OW10537   5.464   0.211   2.164
 3213SOL    HW110538   5.531   0.142   2.136
 3213SOL    HW210539   5.375   0.167   2.179
 3214SOL     OW10540   4.429   3.586   0.976
 3214SOL    HW110541   4.485   3.513   0.935
 3214SOL    HW210542   4.333   3.571   0.952
 3215SOL     OW10543   6.784   1.576   6.851
 3215SOL    HW110544   6.835   1.493   6.828
 3215SOL    HW210545   6.781   1.636   6.771
 3216SOL     OW10546   5.187   6.987   5.565
 3216SOL    HW110547   5.247   6.925   5.616
 3216SOL    HW210548   5.243   0.024   5.507
 3217SOL     OW10549   0.089   4.692   6.860
 3217SOL    HW110550   0.164   4.714   6.923
 3217SOL    HW210551   0.023   4.767   6.859
 3218SOL     OW10552   4.151   2.489   1.263
 3218SOL    HW110553   4.080   2.446   1.319
 3218SOL    HW210554   4.110   2.520   1.177
 3219SOL     OW10555   0.740   2.408   2.742
 3219SOL    HW110556   0.804   2.482   2.763
 3219SOL    HW210557   0.666   2.407   2.808
 3220SOL     OW10558   6.843   2.789   6.251
 3220SOL    HW110559   6.828   2.839   6.336
 3220SOL    HW210560   6.891   2.847   6.186
 3221SOL     OW10561   3.883   0.986   0.924
 3221SOL    HW110562   3.921   1.077   0.942
 3221SOL    HW210563   3.947   0.916   0.954
 3222SOL     OW10564   6.184   3.662   2.346
 3222SOL    HW110565   6.243   3.731   2.306
 3222SOL    HW210566   6.089   3.679   2.319
 3223SOL     OW10567   1.074   4.595   5.606
 3223SOL    HW110568   0.979   4.573   5.627
 3223SOL    HW210569   1.125   4.510   5.589
 3224SOL     OW10570   2.852   0.038   1.766
 3224SOL    HW110571   2.832   0.109   1.833
 3224SOL    HW210572   2.771   0.024   1.708
 3225SOL     OW10573   1.155   1.520   0.048
 3225SOL    HW110574   1.159   1.553   6.975
 3225SOL    HW210575   1.060   1.498   0.071
 3226SOL     OW10576   6.902   1.473   3.404
 3226SOL    HW110577   6.930   1.481   3.308
 3226SOL    HW210578   6.891   1.564   3.443
 3227SOL     OW10579   2.291   1.840   5.008
 3227SOL    HW110580   2.344   1.923   5.021
 3227SOL    HW210581   2.226   1.830   5.084
 3228SOL     OW10582   5.156   3.441   4.846
 3228SOL    HW110583   5.250   3.471   4.829
 3228SOL    HW210584   5.132   3.461   4.941
 3229SOL     OW10585   4.534   1.546   4.547
 3229SOL    HW110586   4.534   1.446   4.544
 3229SOL    HW210587   4.501   1.577   4.636
 3230SOL     OW10588   1.064   6.806   4.365
 3230SOL    HW110589   1.046   6.905   4.364
 3230SOL    HW210590   0.985   6.758   4.328
 3231SOL     OW10591   4.088   4.528   0.389
 3231SOL    HW110592   3.997   4.570   0.380
 3231SOL    HW210593   4.158   4.598   0.382
 3232SOL     OW10594   1.625   4.298   3.354
 3232SOL    HW110595   1.690   4.312   3.428
 3232SOL    HW210596   1.601   4.201   3.349
 3233SOL     OW10597   2.773   3.883   1.399
 3233SOL    HW110598   2.734   3.973   1.378
 3233SOL    HW210599   2.718   3.812   1.357
 3234SOL     OW10600   7.006   2.424   4.261
 3234SOL    HW110601   0.038   2.349   4.223
 3234SOL    HW210602   6.910   2.397   4.266
 3235SOL     OW10603   6.475   0.717   2.050
 3235SOL    HW110604   6.398   0.750   2.104
 3235SOL    HW210605   6.503   0.787   1.984
 3236SOL     OW10606   0.403   1.451   0.947
 3236SOL    HW110607   0.492   1.411   0.925
 3236SOL    HW210608   0.353   1.470   0.863
 3237SOL     OW10609   2.957   5.055   4.905
 3237SOL    HW110610   2.932   5.045   5.002
 3237SOL    HW210611   3.026   4.987   4.882
 3238SOL     OW10612   0.727   6.244   6.480
 3238SOL    HW110613   0.639   6.201   6.499
 3238SOL    HW210614   0.778   6.188   6.413
 3239SOL     OW10615   2.397   6.704   6.353
 3239SOL    HW110616   2.338   6.753   6.288
 3239SOL    HW210617   2.393   6.748   6.442
 3240SOL     OW10618   1.092   2.367   4.489
 3240SOL    HW110619   1.186   2.377   4.455
 3240SOL    HW210620   1.028   2.409   4.424
 3241SOL     OW10621   4.063   5.948   5.435
 3241SOL    HW110622   3.989   5.947   5.368
 3241SOL    HW210623   4.131   6.017   5.409
 3242SOL     OW10624   3.201   1.363   0.943
 3242SOL    HW110625   3.184   1.267   0.968
 3242SOL    HW210626   3.281   1.396   0.992
 3243SOL     OW10627   3.380   6.222   2.505
 3243SOL    HW110628   3.297   6.245   2.556
 3243SOL    HW210629   3.459   6.266   2.548
 3244SOL     OW10630   1.751   0.524   5.271
 3244SOL    HW110631   1.801   0.552   5.189
 3244SOL    HW210632   1.810   0.533   5.351
 3245SOL     OW10633   3.714   2.298   6.252
 3245SOL    HW110634   3.717   2.199   6.240
 3245SOL    HW210635   3.777   2.325   6.325
 3246SOL     OW10636   6.263   6.966   1.323
 3246SOL    HW110637   6.258   0.025   1.381
 3246SOL    HW210638   6.357   6.952   1.293
 3247SOL     OW10639   6.003   2.803   4.726
 3247SOL    HW110640   5.923   2.851   4.762
 3247SOL    HW210641   5.978   2.710   4.700
 3248SOL     OW10642   5.213   3.791   3.042
 3248SOL    HW110643   5.137   3.845   3.005
 3248SOL    HW210644   5.270   3.849   3.100
 3249SOL     OW10645   3.857   4.665   5.959
 3249SOL    HW110646   3.787   4.627   6.020
 3249SOL    HW210647   3.944   4.620   5.976
 3250SOL     OW10648   4.026   4.994   0.479
 3250SOL    HW110649   3.985   4.903   0.490
 3250SOL    HW210650   4.125   4.986   0.480
 3251SOL     OW10651   2.240   1.298   2.799
 3251SOL    HW110652   2.185   1.374   2.833
 3251SOL    HW210653   2.241   1.300   2.699
 3252SOL     OW10654   3.397   2.132   2.825
 3252SOL    HW110655   3.441   2.148   2.736
 3252SOL    HW210656   3.298   2.141   2.816
 3253SOL     OW10657   5.161   4.322   2.262
 3253SOL    HW110658   5.229   4.289   2.197
 3253SOL    HW210659   5.188   4.411   2.297
 3254SOL     OW10660   6.229   3.781   3.118
 3254SOL    HW110661   6.157   3.850   3.112
 3254SOL    HW210662   6.285   3.799   3.199
 3255SOL     OW10663   2.665   4.634   0.644
 3255SOL    HW110664   2.754   4.652   0.602
 3255SOL    HW210665   2.624   4.720   0.673
 3256SOL     OW10666   6.074   6.237   5.806
 3256SOL    HW110667   6.050   6.162   5.868
 3256SOL    HW210668   6.141   6.204   5.739
 3257SOL     OW10669   2.541   0.688   1.708
 3257SOL    HW110670   2.557   0.786   1.709
 3257SOL    HW210671   2.476   0.665   1.635
 3258SOL     OW10672   4.819   6.742   1.897
 3258SOL    HW110673   4.809   6.817   1.962
 3258SOL    HW210674   4.776   6.660   1.934
 3259SOL     OW10675   5.749   6.045   4.175
 3259SOL    HW110676   5.695   6.085   4.101
 3259SOL    HW210677   5.847   6.058   4.156
 3260SOL     OW10678   1.574   1.282   1.179
 3260SOL    HW110679   1.512   1.359   1.188
 3260SOL    HW210680   1.659   1.303   1.228
 3261SOL     OW10681   4.892   6.493   4.094
 3261SOL    HW110682   4.890   6.477   4.193
 3261SOL    HW210683   4.858   6.412   4.046
 3262SOL     OW10684   4.785   2.740   3.691
 3262SOL    HW110685   4.851   2.781   3.629
 3262SOL    HW210686   4.793   2.641   3.687
 3263SOL     OW10687   3.076   4.895   2.912
 3263SOL    HW110688   3.157   4.919   2.859
 3263SOL    HW210689   2.996   4.891   2.851
 3264SOL     OW10690   4.947   3.759   6.013
 3264SOL    HW110691   5.005   3.790   6.088
 3264SOL    HW210692   4.979   3.670   5.980
 3265SOL     OW10693   5.649   0.002   5.548
 3265SOL    HW110694   5.738   0.035   5.581
 3265SOL    HW210695   5.604   6.974   5.622
 3266SOL     OW10696   1.675   2.450   5.905
 3266SOL    HW110697   1.753   2.452   5.844
 3266SOL    HW210698   1.699   2.401   5.989
 3267SOL     OW10699   5.338   4.146   0.357
 3267SOL    HW110700   5.417   4.186   0.404
 3267SOL    HW210701   5.255   4.195   0.382
 3268SOL     OW10702   2.505   5.496   0.736
 3268SOL    HW110703   2.558   5.482   0.819
 3268SOL    HW210704   2.476   5.408   0.699
 3269SOL     OW10705   4.443   3.738   1.705
 3269SOL    HW110706   4.390   3.702   1.628
 3269SOL    HW210707   4.512   3.802   1.670
 3270SOL     OW10708   5.983   6.374   3.094
 3270SOL    HW110709   5.902   6.408   3.143
 3270SOL    HW210710   6.013   6.288   3.136
 3271SOL     OW10711   4.709   6.884   0.185
 3271SOL    HW110712   4.774   6.915   0.116
 3271SOL    HW210713   4.663   6.963   0.226
 3272SOL     OW10714   4.340   6.627   6.788
 3272SOL    HW110715   4.287   6.576   6.721
 3272SOL    HW210716   4.351   6.722   6.757
 3273SOL     OW10717   6.329   0.874   2.880
 3273SOL    HW110718   6.423   0.880   2.847
 3273SOL    HW210719   6.300   0.964   2.913
 3274SOL     OW10720   3.262   0.223   1.519
 3274SOL    HW110721   3.233   0.304   1.468
 3274SOL    HW210722   3.189   0.194   1.580
 3275SOL     OW10723   4.820   0.591   6.141
 3275SOL    HW110724   4.736   0.538   6.152
 3275SOL    HW210725   4.801   0.688   6.159
 3276SOL     OW10726   1.806   5.396   1.705
 3276SOL    HW110727   1.861   5.410   1.623
 3276SOL    HW210728   1.822   5.304   1.741
 3277SOL     OW10729   1.120   6.084   6.695
 3277SOL    HW110730   1.186   6.157   6.713
 3277SOL    HW210731   1.046   6.089   6.762
 3278SOL     OW10732   0.982   6.534   7.022
 3278SOL    HW110733   1.008   6.477   6.944
 3278SOL    HW210734   0.885   6.558   7.015
 3279SOL     OW10735   1.937   6.434   2.175
 3279SOL    HW110736   1.903   6.502   2.240
 3279SOL    HW210737   2.005   6.377   2.220
 3280SOL     OW10738   3.085   5.578   3.701
 3280SOL    HW110739   3.046   5.515   3.768
 3280SOL    HW210740   3.121   5.525   3.624
 3281SOL     OW10741   1.680   7.010   1.386
 3281SOL    HW110742   1.773   0.015   1.409
 3281SOL    HW210743   1.682   6.926   1.332
 3282SOL     OW10744   1.268   4.533   2.355
 3282SOL    HW110745   1.251   4.453   2.413
 3282SOL    HW210746   1.347   4.515   2.297
 3283SOL     OW10747   1.738   0.481   3.764
 3283SOL    HW110748   1.755   0.572   3.726
 3283SOL    HW210749   1.793   0.413   3.716
 3284SOL     OW10750   2.509   6.668   6.039
 3284SOL    HW110751   2.507   6.573   6.070
 3284SOL    HW210752   2.562   6.722   6.104
 3285SOL     OW10753   1.148   3.672   4.398
 3285SOL    HW110754   1.102   3.760   4.389
 3285SOL    HW210755   1.097   3.614   4.461
 3286SOL     OW10756   4.884   4.849   0.525
 3286SOL    HW110757   4.872   4.943   0.559
 3286SOL    HW210758   4.902   4.788   0.602
 3287SOL     OW10759   0.281   1.765   1.059
 3287SOL    HW110760   0.277   1.861   1.033
 3287SOL    HW210761   0.359   1.721   1.015
 3288SOL     OW10762   1.377   6.365   0.918
 3288SOL    HW110763   1.323   6.321   0.990
 3288SOL    HW210764   1.323   6.438   0.876
 3289SOL     OW10765   1.485   0.814   3.907
 3289SOL    HW110766   1.545   0.811   3.987
 3289SOL    HW210767   1.431   0.899   3.908
 3290SOL     OW10768   0.151   4.297   4.700
 3290SOL    HW110769   0.118   4.331   4.788
 3290SOL    HW210770   0.121   4.203   4.688
 3291SOL     OW10771   1.902   1.205   1.894
 3291SOL    HW110772   1.834   1.216   1.966
 3291SOL    HW210773   1.856   1.190   1.806
 3292SOL     OW10774   1.335   6.644   3.934
 3292SOL    HW110775   1.421   6.690   3.957
 3292SOL    HW210776   1.260   6.689   3.982
 3293SOL     OW10777   5.450   1.521   3.314
 3293SOL    HW110778   5.484   1.582   3.243
 3293SOL    HW210779   5.443   1.571   3.400
 3294SOL     OW10780   0.152   6.718   1.487
 3294SOL    HW110781   0.207   6.661   1.425
 3294SOL    HW210782   0.115   6.661   1.561
 3295SOL     OW10783   2.638   2.890   6.527
 3295SOL    HW110784   2.715   2.828   6.512
 3295SOL    HW210785   2.562   2.865   6.466
 3296SOL     OW10786   1.180   6.388   1.798
 3296SOL    HW110787   1.248   6.327   1.757
 3296SOL    HW210788   1.173   6.369   1.896
 3297SOL     OW10789   3.719   0.381   5.104
 3297SOL    HW110790   3.754   0.395   5.197
 3297SOL    HW210791   3.657   0.456   5.080
 3298SOL     OW10792   6.738   5.189   3.293
 3298SOL    HW110793   6.758   5.287   3.300
 3298SOL    HW210794   6.662   5.165   3.354
 3299SOL     OW10795   2.637   1.458   4.970
 3299SOL    HW110796   2.714   1.415   4.923
 3299SOL    HW210797   2.654   1.556   4.978
 3300SOL     OW10798   0.531   6.987   4.213
 3300SOL    HW110799   0.465   0.041   4.207
 3300SOL    HW210800   0.547   6.964   4.308
 3301SOL     OW10801   6.198   4.424   2.338
 3301SOL    HW110802   6.139   4.501   2.313
 3301SOL    HW210803   6.285   4.432   2.290
 3302SOL     OW10804   1.831   6.104   5.513
 3302SOL    HW110805   1.735   6.104   5.486
 3302SOL    HW210806   1.839   6.081   5.610
 3303SOL     OW10807   3.467   3.609   5.408
 3303SOL    HW110808   3.511   3.654   5.330
 3303SOL    HW210809   3.373   3.644   5.418
 3304SOL     OW10810   2.279   1.128   3.853
 3304SOL    HW110811   2.191   1.149   3.810
 3304SOL    HW210812   2.313   1.040   3.818
 3305SOL     OW10813   1.564   2.245   0.912
 3305SOL    HW110814   1.598   2.306   0.840
 3305SOL    HW210815   1.576   2.288   1.001
 3306SOL     OW10816   0.959   1.685   0.708
 3306SOL    HW110817   0.896   1.753   0.670
 3306SOL    HW210818   1.007   1.723   0.786
 3307SOL     OW10819   0.480   6.465   0.441
 3307SOL    HW110820   0.400   6.407   0.435
 3307SOL    HW210821   0.454   6.560   0.425
 3308SOL     OW10822   5.736   5.079   0.545
 3308SOL    HW110823   5.737   5.177   0.526
 3308SOL    HW210824   5.785   5.031   0.472
 3309SOL     OW10825   0.467   3.932   2.178
 3309SOL    HW110826   0.407   4.010   2.159
 3309SOL    HW210827   0.556   3.965   2.208
 3310SOL     OW10828   2.194   0.455   2.448
 3310SOL    HW110829   2.251   0.536   2.430
 3310SOL    HW210830   2.249   0.386   2.495
 3311SOL     OW10831   3.858   5.428   0.696
 3311SOL    HW110832   3.922   5.368   0.648
 3311SOL    HW210833   3.821   5.495   0.631
 3312SOL     OW10834   1.923   2.441   5.732
 3312SOL    HW110835   1.949   2.351   5.697
 3312SOL    HW210836   1.938   2.510   5.662
 3313SOL     OW10837   5.167   6.126   5.397
 3313SOL    HW110838   5.076   6.096   5.367
 3313SOL    HW210839   5.236   6.065   5.358
 3314SOL     OW10840   0.570   4.406   6.818
 3314SOL    HW110841   0.603   4.461   6.741
 3314SOL    HW210842   0.603   4.446   6.904
 3315SOL     OW10843   0.073   3.561   3.798
 3315SOL    HW110844   0.099   3.485   3.740
 3315SOL    HW210845   0.128   3.642   3.774
 3316SOL     OW10846   3.728   0.075   6.630
 3316SOL    HW110847   3.662   0.032   6.568
 3316SOL    HW210848   3.819   0.075   6.587
 3317SOL     OW10849   6.519   2.441   1.089
 3317SOL    HW110850   6.455   2.380   1.043
 3317SOL    HW210851   6.490   2.453   1.184
 3318SOL     OW10852   2.176   5.110   6.158
 3318SOL    HW110853   2.251   5.097   6.094
 3318SOL    HW210854   2.108   5.038   6.146
 3319SOL     OW10855   1.793   6.345   6.274
 3319SOL    HW110856   1.838   6.356   6.185
 3319SOL    HW210857   1.695   6.362   6.265
 3320SOL     OW10858   1.702   0.870   0.806
 3320SOL    HW110859   1.664   0.960   0.826
 3320SOL    HW210860   1.736   0.829   0.891
 3321SOL     OW10861   4.103   3.771   4.733
 3321SOL    HW110862   4.094   3.726   4.644
 3321SOL    HW210863   4.163   3.850   4.725
 3322SOL     OW10864   5.640   3.150   2.666
 3322SOL    HW110865   5.574   3.112   2.600
 3322SOL    HW210866   5.635   3.249   2.664
 3323SOL     OW10867   1.973   3.721   0.638
 3323SOL    HW110868   2.045   3.766   0.585
 3323SOL    HW210869   1.890   3.716   0.583
 3324SOL     OW10870   6.207   3.103   1.552
 3324SOL    HW110871   6.297   3.103   1.595
 3324SOL    HW210872   6.138   3.127   1.620
 3325SOL     OW10873   1.363   5.030   5.509
 3325SOL    HW110874   1.358   4.931   5.501
 3325SOL    HW210875   1.274   5.070   5.491
 3326SOL     OW10876   4.050   6.927   2.018
 3326SOL    HW110877   4.045   6.827   2.012
 3326SOL    HW210878   3.964   6.966   1.985
 3327SOL     OW10879   4.966   6.702   2.274
 3327SOL    HW110880   4.894   6.729   2.338
 3327SOL    HW210881   4.958   6.754   2.189
 3328SOL     OW10882   6.316   6.015   3.210
 3328SOL    HW110883   6.286   5.951   3.281
 3328SOL    HW210884   6.390   5.974   3.157
 3329SOL     OW10885   5.944   0.046   5.590
 3329SOL    HW110886   6.019   0.053   5.524
 3329SOL    HW210887   5.972   7.010   5.666
 3330SOL     OW10888   5.195   1.152   3.402
 3330SOL    HW110889   5.260   1.183   3.471
 3330SOL    HW210890   5.236   1.159   3.311
 3331SOL     OW10891   0.414   3.249   2.804
 3331SOL    HW110892   0.363   3.169   2.772
 3331SOL    HW210893   0.399   3.262   2.902
 3332SOL     OW10894   4.052   4.977   1.230
 3332SOL    HW110895   4.044   4.906   1.300
 3332SOL    HW210896   4.144   4.976   1.191
 3333SOL     OW10897   1.947   3.977   1.388
 3333SOL    HW110898   1.993   4.043   1.330
 3333SOL    HW210899   1.984   3.982   1.481
 3334SOL     OW10900   2.103   2.530   2.262
 3334SOL    HW110901   2.104   2.439   2.221
 3334SOL    HW210902   2.196   2.560   2.281
 3335SOL     OW10903   4.233   3.917   6.676
 3335SOL    HW110904   4.261   3.900   6.770
 3335SOL    HW210905   4.143   3.875   6.660
 3336SOL     OW10906   3.600   6.284   6.332
 3336SOL    HW110907   3.531   6.355   6.324
 3336SOL    HW210908   3.665   6.308   6.404
 3337SOL     OW10909   2.998   3.866   4.579
 3337SOL    HW110910   2.957   3.884   4.668
 3337SOL    HW210911   3.018   3.768   4.571
 3338SOL     OW10912   3.362   2.892   1.632
 3338SOL    HW110913   3.293   2.899   1.704
 3338SOL    HW210914   3.410   2.979   1.623
 3339SOL     OW10915   0.802   6.767   5.663
 3339SOL    HW110916   0.839   6.794   5.574
 3339SOL    HW210917   0.825   6.837   5.731
 3340SOL     OW10918   4.379   2.304   6.399
 3340SOL    HW110919   4.296   2.251   6.415
 3340SOL    HW210920   4.361   2.401   6.415
 3341SOL     OW10921   1.198   3.870   1.434
 3341SOL    HW110922   1.147   3.817   1.502
 3341SOL    HW210923   1.234   3.808   1.364
 3342SOL     OW10924   5.675   0.563   3.701
 3342SOL    HW110925   5.631   0.477   3.728
 3342SOL    HW210926   5.763   0.571   3.749
 3343SOL     OW10927   3.035   5.216   6.892
 3343SOL    HW110928   3.050   5.161   6.974
 3343SOL    HW210929   3.115   5.273   6.874
 3344SOL     OW10930   2.627   3.706   0.025
 3344SOL    HW110931   2.569   3.772   0.074
 3344SOL    HW210932   2.624   3.727   6.949
 3345SOL     OW10933   4.101   5.359   0.270
 3345SOL    HW110934   4.109   5.446   0.220
 3345SOL    HW210935   4.035   5.370   0.344
 3346SOL     OW10936   0.836   0.521   0.361
 3346SOL    HW110937   0.909   0.551   0.423
 3346SOL    HW210938   0.753   0.574   0.380
 3347SOL     OW10939   1.392   3.122   6.240
 3347SOL    HW110940   1.436   3.202   6.282
 3347SOL    HW210941   1.317   3.091   6.298
 3348SOL     OW10942   2.755   4.299   5.795
 3348SOL    HW110943   2.671   4.348   5.814
 3348SOL    HW210944   2.834   4.358   5.813
 3349SOL     OW10945   2.537   5.278   1.650
 3349SOL    HW110946   2.584   5.197   1.685
 3349SOL    HW210947   2.530   5.347   1.722
 3350SOL     OW10948   3.433   5.266   4.192
 3350SOL    HW110949   3.492   5.330   4.240
 3350SOL    HW210950   3.426   5.180   4.244
 3351SOL     OW10951   4.099   6.744   1.752
 3351SOL    HW110952   4.150   6.677   1.806
 3351SOL    HW210953   4.095   6.713   1.657
 3352SOL     OW10954   5.797   0.581   0.504
 3352SOL    HW110955   5.749   0.668   0.503
 3352SOL    HW210956   5.893   0.595   0.479
 3353SOL     OW10957   5.035   0.096   6.131
 3353SOL    HW110958   4.990   0.173   6.176
 3353SOL    HW210959   5.134   0.103   6.145
 3354SOL     OW10960   3.886   1.678   0.526
 3354SOL    HW110961   3.813   1.686   0.594
 3354SOL    HW210962   3.896   1.765   0.478
 3355SOL     OW10963   1.003   2.018   5.514
 3355SOL    HW110964   1.053   2.094   5.555
 3355SOL    HW210965   1.059   1.935   5.519
 3356SOL     OW10966   3.042   0.546   5.395
 3356SOL    HW110967   3.076   0.617   5.457
 3356SOL    HW210968   3.117   0.511   5.340
 3357SOL     OW10969   2.978   3.320   4.382
 3357SOL    HW110970   2.989   3.253   4.456
 3357SOL    HW210971   3.067   3.334   4.338
 3358SOL     OW10972   0.594   1.684   1.747
 3358SOL    HW110973   0.568   1.681   1.650
 3358SOL    HW210974   0.568   1.772   1.786
 3359SOL     OW10975   0.309   0.050   3.093
 3359SOL    HW110976   0.268   0.122   3.037
 3359SOL    HW210977   0.355   7.006   3.034
 3360SOL     OW10978   1.408   5.834   4.679
 3360SOL    HW110979   1.380   5.843   4.584
 3360SOL    HW210980   1.327   5.841   4.738
 3361SOL     OW10981   0.872   0.070   4.552
 3361SOL    HW110982   0.949   0.086   4.490
 3361SOL    HW210983   0.874   0.138   4.626
 3362SOL     OW10984   4.286   0.602   5.283
 3362SOL    HW110985   4.263   0.571   5.191
 3362SOL    HW210986   4.291   0.702   5.285
 3363SOL     OW10987   4.722   3.377   0.350
 3363SOL    HW110988   4.680   3.293   0.385
 3363SOL    HW210989   4.652   3.434   0.308
 3364SOL     OW10990   2.501   3.651   1.024
 3364SOL    HW110991   2.580   3.708   1.001
 3364SOL    HW210992   2.532   3.559   1.047
 3365SOL     OW10993   0.337   3.488   2.691
 3365SOL    HW110994   0.390   3.408   2.716
 3365SOL    HW210995   0.385   3.571   2.721
 3366SOL     OW10996   5.337   2.689   3.546
 3366SOL    HW110997   5.391   2.702   3.629
 3366SOL    HW210998   5.395   2.651   3.474
 3367SOL     OW10999   3.353   4.088   3.114
 3367SOL    HW111000   3.267   4.089   3.167
 3367SOL    HW211001   3.333   4.109   3.018
 3368SOL     OW11002   1.163   0.942   3.749
 3368SOL    HW111003   1.072   0.942   3.790
 3368SOL    HW211004   1.156   0.949   3.650
 3369SOL     OW11005   6.384   2.909   0.618
 3369SOL    HW111006   6.364   2.929   0.522
 3369SOL    HW211007   6.313   2.949   0.675
 3370SOL     OW11008   0.271   5.874   3.671
 3370SOL    HW111009   0.307   5.800   3.727
 3370SOL    HW211010   0.172   5.865   3.663
 3371SOL     OW11011   2.613   2.430   1.305
 3371SOL    HW111012   2.586   2.465   1.215
 3371SOL    HW211013   2.701   2.469   1.331
 3372SOL     OW11014   5.669   2.803   3.792
 3372SOL    HW111015   5.647   2.884   3.846
 3372SOL    HW211016   5.765   2.780   3.804
 3373SOL     OW11017   0.743   4.561   1.248
 3373SOL    HW111018   0.694   4.562   1.335
 3373SOL    HW211019   0.791   4.474   1.237
 3374SOL     OW11020   1.016   5.255   4.398
 3374SOL    HW111021   1.005   5.302   4.310
 3374SOL    HW211022   1.029   5.157   4.382
 3375SOL     OW11023   0.144   6.651   5.587
 3375SOL    HW111024   0.182   6.683   5.500
 3375SOL    HW211025   0.173   6.713   5.660
 3376SOL     OW11026   3.511   3.446   4.864
 3376SOL    HW111027   3.557   3.535   4.869
 3376SOL    HW211028   3.577   3.377   4.834
 3377SOL     OW11029   5.691   5.619   5.002
 3377SOL    HW111030   5.752   5.540   5.007
 3377SOL    HW211031   5.596   5.588   5.013
 3378SOL     OW11032   0.665   5.558   6.823
 3378SOL    HW111033   0.663   5.508   6.910
 3378SOL    HW211034   0.757   5.594   6.807
 3379SOL     OW11035   5.956   4.310   3.435
 3379SOL    HW111036   5.908   4.252   3.370
 3379SOL    HW211037   5.969   4.401   3.395
 3380SOL     OW11038   1.158   4.457   2.061
 3380SOL    HW111039   1.145   4.556   2.066
 3380SOL    HW211040   1.156   4.428   1.965
 3381SOL     OW11041   2.776   4.696   0.139
 3381SOL    HW111042   2.804   4.727   0.049
 3381SOL    HW211043   2.837   4.734   0.209
 3382SOL     OW11044   0.231   3.312   6.971
 3382SOL    HW111045   0.146   3.344   7.014
 3382SOL    HW211046   0.309   3.353   7.018
 3383SOL     OW11047   3.464   5.764   6.489
 3383SOL    HW111048   3.521   5.736   6.412
 3383SOL    HW211049   3.509   5.837   6.539
 3384SOL     OW11050   2.838   2.710   6.462
 3384SOL    HW111051   2.830   2.666   6.551
 3384SOL    HW211052   2.933   2.734   6.445
 3385SOL     OW11053   6.791   1.661   4.211
 3385SOL    HW111054   6.818   1.753   4.181
 3385SOL    HW211055   6.698   1.665   4.249
 3386SOL     OW11056   6.687   4.636   5.584
 3386SOL    HW111057   6.784   4.643   5.606
 3386SOL    HW211058   6.633   4.650   5.668
 3387SOL     OW11059   5.473   1.541   2.802
 3387SOL    HW111060   5.495   1.518   2.897
 3387SOL    HW211061   5.527   1.482   2.741
 3388SOL     OW11062   1.148   4.119   1.310
 3388SOL    HW111063   1.155   4.033   1.362
 3388SOL    HW211064   1.052   4.143   1.300
 3389SOL     OW11065   6.003   5.336   6.686
 3389SOL    HW111066   6.008   5.270   6.611
 3389SOL    HW211067   5.937   5.304   6.754
 3390SOL     OW11068   3.186   4.323   0.709
 3390SOL    HW111069   3.285   4.319   0.722
 3390SOL    HW211070   3.141   4.318   0.798
 3391SOL     OW11071   6.171   4.292   5.674
 3391SOL    HW111072   6.075   4.301   5.651
 3391SOL    HW211073   6.220   4.374   5.644
 3392SOL     OW11074   4.943   5.498   5.905
 3392SOL    HW111075   4.935   5.399   5.890
 3392SOL    HW211076   5.020   5.516   5.966
 3393SOL     OW11077   3.203   1.067   0.917
 3393SOL    HW111078   3.209   0.970   0.939
 3393SOL    HW211079   3.134   1.081   0.846
 3394SOL     OW11080   3.567   5.751   2.217
 3394SOL    HW111081   3.658   5.741   2.177
 3394SOL    HW211082   3.575   5.776   2.313
 3395SOL     OW11083   1.431   5.950   2.869
 3395SOL    HW111084   1.363   5.892   2.825
 3395SOL    HW211085   1.415   5.951   2.968
 3396SOL     OW11086   3.789   0.173   3.686
 3396SOL    HW111087   3.863   0.160   3.620
 3396SOL    HW211088   3.815   0.134   3.774
 3397SOL     OW11089   3.164   6.299   2.284
 3397SOL    HW111090   3.186   6.373   2.346
 3397SOL    HW211091   3.200   6.319   2.193
 3398SOL     OW11092   6.509   0.223   0.977
 3398SOL    HW111093   6.591   0.273   0.952
 3398SOL    HW211094   6.527   0.124   0.972
 3399SOL     OW11095   5.707   6.554   2.942
 3399SOL    HW111096   5.787   6.558   2.883
 3399SOL    HW211097   5.644   6.485   2.908
 3400SOL     OW11098   3.213   3.184   5.637
 3400SOL    HW111099   3.216   3.256   5.707
 3400SOL    HW211100   3.122   3.182   5.596
 3401SOL     OW11101   6.362   4.283   3.475
 3401SOL    HW111102   6.325   4.202   3.430
 3401SOL    HW211103   6.363   4.268   3.574
 3402SOL     OW11104   6.587   3.978   0.681
 3402SOL    HW111105   6.532   3.936   0.610
 3402SOL    HW211106   6.606   4.073   0.657
 3403SOL     OW11107   5.577   6.977   3.844
 3403SOL    HW111108   5.669   7.014   3.830
 3403SOL    HW211109   5.582   6.887   3.886
 3404SOL     OW11110   5.090   4.594   3.012
 3404SOL    HW111111   5.143   4.671   3.046
 3404SOL    HW211112   5.005   4.627   2.970
 3405SOL     OW11113   5.069   0.530   0.229
 3405SOL    HW111114   4.991   0.490   0.278
 3405SOL    HW211115   5.154   0.497   0.270
 3406SOL     OW11116   4.805   4.202   0.686
 3406SOL    HW111117   4.810   4.302   0.689
 3406SOL    HW211118   4.710   4.173   0.686
 3407SOL     OW11119   2.321   1.735   0.887
 3407SOL    HW111120   2.266   1.661   0.848
 3407SOL    HW211121   2.288   1.823   0.852
 3408SOL     OW11122   3.319   6.791   4.408
 3408SOL    HW111123   3.307   6.823   4.502
 3408SOL    HW211124   3.342   6.868   4.349
 3409SOL     OW11125   5.186   2.031   0.366
 3409SOL    HW111126   5.217   2.094   0.437
 3409SOL    HW211127   5.087   2.042   0.353
 3410SOL     OW11128   6.168   2.190   2.581
 3410SOL    HW111129   6.085   2.163   2.630
 3410SOL    HW211130   6.146   2.203   2.484
 3411SOL     OW11131   5.193   2.800   6.815
 3411SOL    HW111132   5.104   2.785   6.858
 3411SOL    HW211133   5.179   2.834   6.722
 3412SOL     OW11134   4.957   3.053   2.826
 3412SOL    HW111135   4.935   3.150   2.826
 3412SOL    HW211136   4.991   3.026   2.917
 3413SOL     OW11137   1.390   2.007   0.178
 3413SOL    HW111138   1.463   2.068   0.147
 3413SOL    HW211139   1.323   1.995   0.105
 3414SOL     OW11140   3.254   3.402   2.008
 3414SOL    HW111141   3.179   3.445   1.958
 3414SOL    HW211142   3.252   3.303   1.991
 3415SOL     OW11143   2.633   1.297   0.189
 3415SOL    HW111144   2.551   1.354   0.188
 3415SOL    HW211145   2.714   1.355   0.180
 3416SOL     OW11146   5.128   5.842   6.869
 3416SOL    HW111147   5.139   5.941   6.859
 3416SOL    HW211148   5.076   5.807   6.791
 3417SOL     OW11149   5.262   0.217   2.563
 3417SOL    HW111150   5.236   0.220   2.660
 3417SOL    HW211151   5.308   0.302   2.538
 3418SOL     OW11152   4.227   6.319   1.475
 3418SOL    HW111153   4.264   6.309   1.382
 3418SOL    HW211154   4.223   6.229   1.519
 3419SOL     OW11155   2.398   4.623   5.024
 3419SOL    HW111156   2.480   4.612   4.967
 3419SOL    HW211157   2.424   4.619   5.120
 3420SOL     OW11158   4.887   6.930   2.114
 3420SOL    HW111159   4.945   6.985   2.054
 3420SOL    HW211160   4.846   6.988   2.184
 3421SOL     OW11161   0.898   1.009   4.690
 3421SOL    HW111162   0.994   1.010   4.662
 3421SOL    HW211163   0.893   1.000   4.789
 3422SOL     OW11164   3.259   4.878   1.477
 3422SOL    HW111165   3.350   4.838   1.466
 3422SOL    HW211166   3.225   4.860   1.569
 3423SOL     OW11167   1.821   5.846   5.933
 3423SOL    HW111168   1.817   5.749   5.908
 3423SOL    HW211169   1.824   5.855   6.032
 3424SOL     OW11170   6.525   4.926   2.811
 3424SOL    HW111171   6.462   4.861   2.770
 3424SOL    HW211172   6.573   4.883   2.887
 3425SOL     OW11173   6.182   3.621   6.245
 3425SOL    HW111174   6.181   3.692   6.315
 3425SOL    HW211175   6.255   3.640   6.179
 3426SOL     OW11176   6.880   4.883   6.453
 3426SOL    HW111177   6.792   4.838   6.442
 3426SOL    HW211178   6.950   4.831   6.404
 3427SOL     OW11179   2.071   0.992   6.480
 3427SOL    HW111180   2.109   0.903   6.455
 3427SOL    HW211181   2.058   0.997   6.579
 3428SOL     OW11182   3.944   0.954   4.199
 3428SOL    HW111183   3.975   1.044   4.231
 3428SOL    HW211184   3.971   0.942   4.103
 3429SOL     OW11185   6.307   5.561   0.322
 3429SOL    HW111186   6.384   5.570   0.260
 3429SOL    HW211187   6.307   5.470   0.363
 3430SOL     OW11188   2.315   4.740   0.408
 3430SOL    HW111189   2.327   4.791   0.322
 3430SOL    HW211190   2.218   4.729   0.427
 3431SOL     OW11191   1.599   3.486   1.640
 3431SOL    HW111192   1.623   3.573   1.683
 3431SOL    HW211193   1.646   3.477   1.553
 3432SOL     OW11194   0.219   5.717   0.066
 3432SOL    HW111195   0.256   5.632   0.029
 3432SOL    HW211196   0.235   5.791   7.022
 3433SOL     OW11197   0.234   1.205   0.040
 3433SOL    HW111198   0.330   1.232   0.050
 3433SOL    HW211199   0.181   1.247   0.113
 3434SOL     OW11200   3.889   2.757   1.416
 3434SOL    HW111201   3.838   2.775   1.500
 3434SOL    HW211202   3.978   2.717   1.438
 3435SOL     OW11203   3.138   2.798   1.341
 3435SOL    HW111204   3.200   2.735   1.387
 3435SOL    HW211205   3.155   2.795   1.242
 3436SOL     OW11206   4.727   5.456   4.766
 3436SOL    HW111207   4.705   5.553   4.764
 3436SOL    HW211208   4.707   5.419   4.857
 3437SOL     OW11209   3.089   5.858   0.499
 3437SOL    HW111210   3.036   5.879   0.416
 3437SOL    HW211211   3.108   5.943   0.548
 3438SOL     OW11212   2.171   4.009   0.893
 3438SOL    HW111213   2.221   4.025   0.807
 3438SOL    HW211214   2.232   4.026   0.970
 3439SOL     OW11215   3.075   5.638   1.145
 3439SOL    HW111216   3.060   5.689   1.230
 3439SOL    HW211217   3.172   5.643   1.121
 3440SOL     OW11218   4.100   4.681   5.646
 3440SOL    HW111219   4.174   4.668   5.581
 3440SOL    HW211220   4.092   4.598   5.703
 3441SOL     OW11221   0.646   5.771   5.288
 3441SOL    HW111222   0.732   5.774   5.238
 3441SOL    HW211223   0.587   5.846   5.258
 3442SOL     OW11224   1.764   2.085   6.522
 3442SOL    HW111225   1.682   2.028   6.530
 3442SOL    HW211226   1.741   2.179   6.546
 3443SOL     OW11227   6.916   6.508   1.846
 3443SOL    HW111228   7.011   6.519   1.819
 3443SOL    HW211229   6.863   6.469   1.771
 3444SOL     OW11230   1.520   3.730   5.767
 3444SOL    HW111231   1.618   3.721   5.787
 3444SOL    HW211232   1.504   3.710   5.671
 3445SOL     OW11233   5.922   4.084   3.618
 3445SOL    HW111234   5.957   4.153   3.555
 3445SOL    HW211235   5.927   3.994   3.574
 3446SOL     OW11236   5.890   1.149   6.779
 3446SOL    HW111237   5.792   1.166   6.772
 3446SOL    HW211238   5.927   1.127   6.688
 3447SOL     OW11239   5.486   1.542   6.606
 3447SOL    HW111240   5.450   1.601   6.535
 3447SOL    HW211241   5.414   1.480   6.638
 3448SOL     OW11242   1.024   5.659   4.755
 3448SOL    HW111243   0.943   5.618   4.796
 3448SOL    HW211244   1.017   5.759   4.759
 3449SOL     OW11245   1.155   4.157   4.225
 3449SOL    HW111246   1.106   4.158   4.312
 3449SOL    HW211247   1.253   4.159   4.242
 3450SOL     OW11248   2.501   6.813   3.313
 3450SOL    HW111249   2.493   6.736   3.249
 3450SOL    HW211250   2.452   6.792   3.398
 3451SOL     OW11251   2.424   1.749   1.156
 3451SOL    HW111252   2.399   1.839   1.191
 3451SOL    HW211253   2.391   1.739   1.062
 3452SOL     OW11254   4.749   1.103   4.952
 3452SOL    HW111255   4.667   1.161   4.955
 3452SOL    HW211256   4.798   1.120   4.867
 3453SOL     OW11257   4.692   6.265   6.053
 3453SOL    HW111258   4.631   6.331   6.010
 3453SOL    HW211259   4.785   6.279   6.020
 3454SOL     OW11260   1.933   3.186   3.636
 3454SOL    HW111261   1.907   3.194   3.732
 3454SOL    HW211262   1.981   3.269   3.608
 3455SOL     OW11263   2.221   3.927   6.021
 3455SOL    HW111264   2.223   3.990   5.944
 3455SOL    HW211265   2.216   3.833   5.987
 3456SOL     OW11266   5.048   4.861   2.908
 3456SOL    HW111267   5.099   4.854   2.994
 3456SOL    HW211268   5.077   4.944   2.860
 3457SOL     OW11269   4.631   4.441   0.202
 3457SOL    HW111270   4.548   4.386   0.208
 3457SOL    HW211271   4.711   4.383   0.217
 3458SOL     OW11272   4.432   1.727   1.029
 3458SOL    HW111273   4.345   1.720   0.980
 3458SOL    HW211274   4.505   1.750   0.964
 3459SOL     OW11275   6.180   1.398   2.354
 3459SOL    HW111276   6.118   1.343   2.410
 3459SOL    HW211277   6.152   1.392   2.258
 3460SOL     OW11278   4.921   1.792   5.176
 3460SOL    HW111279   4.912   1.868   5.240
 3460SOL    HW211280   4.873   1.712   5.212
 3461SOL     OW11281   5.207   4.401   5.191
 3461SOL    HW111282   5.236   4.321   5.244
 3461SOL    HW211283   5.111   4.392   5.167
 3462SOL     OW11284   0.985   3.506   6.724
 3462SOL    HW111285   0.917   3.492   6.653
 3462SOL    HW211286   0.962   3.588   6.777
 3463SOL     OW11287   6.018   3.594   0.026
 3463SOL    HW111288   6.117   3.586   0.031
 3463SOL    HW211289   5.984   3.550   6.966
 3464SOL     OW11290   0.886   4.785   4.752
 3464SOL    HW111291   0.932   4.821   4.671
 3464SOL    HW211292   0.941   4.805   4.833
 3465SOL     OW11293   0.976   2.506   0.718
 3465SOL    HW111294   0.908   2.541   0.783
 3465SOL    HW211295   1.033   2.582   0.687
 3466SOL     OW11296   4.902   3.612   3.272
 3466SOL    HW111297   4.810   3.653   3.273
 3466SOL    HW211298   4.898   3.521   3.312
 3467SOL     OW11299   1.881   1.267   6.300
 3467SOL    HW111300   1.835   1.258   6.388
 3467SOL    HW211301   1.934   1.185   6.281
 3468SOL     OW11302   5.640   5.061   1.890
 3468SOL    HW111303   5.705   5.108   1.829
 3468SOL    HW211304   5.571   5.126   1.921
 3469SOL     OW11305   5.757   3.157   1.110
 3469SOL    HW111306   5.772   3.130   1.014
 3469SOL    HW211307   5.790   3.250   1.123
 3470SOL     OW11308   5.991   5.842   6.265
 3470SOL    HW111309   6.018   5.871   6.357
 3470SOL    HW211310   5.903   5.885   6.241
 3471SOL     OW11311   4.095   6.570   4.578
 3471SOL    HW111312   4.045   6.589   4.663
 3471SOL    HW211313   4.033   6.581   4.500
 3472SOL     OW11314   3.493   0.710   3.938
 3472SOL    HW111315   3.581   0.736   3.979
 3472SOL    HW211316   3.474   0.614   3.957
 3473SOL     OW11317   4.198   0.177   3.358
 3473SOL    HW111318   4.231   0.269   3.340
 3473SOL    HW211319   4.269   0.125   3.407
 3474SOL     OW11320   6.604   5.270   1.387
 3474SOL    HW111321   6.601   5.214   1.470
 3474SOL    HW211322   6.692   5.317   1.383
 3475SOL     OW11323   2.324   5.795   5.072
 3475SOL    HW111324   2.339   5.842   5.159
 3475SOL    HW211325   2.241   5.829   5.029
 3476SOL     OW11326   1.981   2.174   3.028
 3476SOL    HW111327   1.981   2.096   3.091
 3476SOL    HW211328   1.887   2.199   3.007
 3477SOL     OW11329   5.153   5.521   2.209
 3477SOL    HW111330   5.128   5.613   2.178
 3477SOL    HW211331   5.084   5.488   2.273
 3478SOL     OW11332   3.813   4.731   0.022
 3478SOL    HW111333   3.815   4.709   6.947
 3478SOL    HW211334   3.905   4.756   0.053
 3479SOL     OW11335   1.793   1.466   0.348
 3479SOL    HW111336   1.865   1.444   0.414
 3479SOL    HW211337   1.826   1.537   0.285
 3480SOL     OW11338   2.373   6.926   5.321
 3480SOL    HW111339   2.404   7.021   5.320
 3480SOL    HW211340   2.275   6.923   5.337
 3481SOL     OW11341   1.691   4.149   0.071
 3481SOL    HW111342   1.666   4.077   0.006
 3481SOL    HW211343   1.681   4.114   0.164
 3482SOL     OW11344   0.271   2.029   0.959
 3482SOL    HW111345   0.176   2.057   0.957
 3482SOL    HW211346   0.329   2.104   0.929
 3483SOL     OW11347   4.038   1.483   1.651
 3483SOL    HW111348   3.984   1.424   1.711
 3483SOL    HW211349   4.063   1.433   1.568
 3484SOL     OW11350   3.570   4.134   4.771
 3484SOL    HW111351   3.573   4.148   4.870
 3484SOL    HW211352   3.475   4.121   4.742
 3485SOL     OW11353   6.113   3.328   3.845
 3485SOL    HW111354   6.017   3.338   3.872
 3485SOL    HW211355   6.144   3.235   3.866
 3486SOL     OW11356   5.954   2.089   2.701
 3486SOL    HW111357   5.977   2.098   2.798
 3486SOL    HW211358   5.957   1.993   2.674
 3487SOL     OW11359   1.890   6.086   2.139
 3487SOL    HW111360   1.853   5.995   2.124
 3487SOL    HW211361   1.901   6.102   2.238
 3488SOL     OW11362   0.098   2.978   4.975
 3488SOL    HW111363   0.002   2.971   4.946
 3488SOL    HW211364   0.151   3.026   4.905
 3489SOL     OW11365   1.839   5.906   6.591
 3489SOL    HW111366   1.832   5.999   6.553
 3489SOL    HW211367   1.829   5.910   6.690
 3490SOL     OW11368   4.924   2.918   0.023
 3490SOL    HW111369   4.865   2.844   0.052
 3490SOL    HW211370   4.929   2.920   6.945
 3491SOL     OW11371   6.261   2.505   5.740
 3491SOL    HW111372   6.203   2.536   5.815
 3491SOL    HW211373   6.203   2.478   5.663
 3492SOL     OW11374   1.478   4.157   6.713
 3492SOL    HW111375   1.390   4.110   6.710
 3492SOL    HW211376   1.491   4.209   6.628
 3493SOL     OW11377   0.361   5.077   1.247
 3493SOL    HW111378   0.276   5.128   1.235
 3493SOL    HW211379   0.374   5.016   1.169
 3494SOL     OW11380   3.151   6.737   1.088
 3494SOL    HW111381   3.191   6.761   1.176
 3494SOL    HW211382   3.105   6.817   1.049
 3495SOL     OW11383   5.551   4.498   5.871
 3495SOL    HW111384   5.502   4.434   5.811
 3495SOL    HW211385   5.537   4.592   5.839
 3496SOL     OW11386   0.670   6.289   1.631
 3496SOL    HW111387   0.650   6.265   1.536
 3496SOL    HW211388   0.756   6.246   1.659
 3497SOL     OW11389   2.917   0.458   4.628
 3497SOL    HW111390   2.914   0.491   4.722
 3497SOL    HW211391   2.826   0.426   4.600
 3498SOL     OW11392   1.535   1.759   0.609
 3498SOL    HW111393   1.448   1.756   0.659
 3498SOL    HW211394   1.517   1.759   0.511
 3499SOL     OW11395   0.198   4.328   3.180
 3499SOL    HW111396   0.162   4.235   3.184
 3499SOL    HW211397   0.122   4.393   3.169
 3500SOL     OW11398   6.706   2.500   0.334
 3500SOL    HW111399   6.709   2.598   0.314
 3500SOL    HW211400   6.730   2.448   0.252
 3501SOL     OW11401   0.153   4.711   3.120
 3501SOL    HW111402   0.063   4.724   3.079
 3501SOL    HW211403   0.215   4.671   3.051
 3502SOL     OW11404   0.637   6.564   1.595
 3502SOL    HW111405   0.721   6.618   1.587
 3502SOL    HW211406   0.659   6.470   1.618
 3503SOL     OW11407   2.912   0.613   3.370
 3503SOL    HW111408   2.951   0.621   3.278
 3503SOL    HW211409   2.855   0.530   3.375
 3504SOL     OW11410   1.675   1.956   1.917
 3504SOL    HW111411   1.637   2.024   1.854
 3504SOL    HW211412   1.774   1.951   1.904
 3505SOL     OW11413   4.077   0.353   3.975
 3505SOL    HW111414   4.077   0.420   4.050
 3505SOL    HW211415   4.077   0.401   3.887
 3506SOL     OW11416   6.242   3.508   3.453
 3506SOL    HW111417   6.291   3.479   3.535
 3506SOL    HW211418   6.266   3.448   3.377
 3507SOL     OW11419   0.137   6.684   5.007
 3507SOL    HW111420   0.173   6.777   5.007
 3507SOL    HW211421   0.050   6.681   4.958
 3508SOL     OW11422   0.706   4.228   0.636
 3508SOL    HW111423   0.781   4.236   0.702
 3508SOL    HW211424   0.743   4.222   0.543
 3509SOL     OW11425   3.787   0.370   0.212
 3509SOL    HW111426   3.879   0.359   0.175
 3509SOL    HW211427   3.787   0.352   0.310
 3510SOL     OW11428   2.727   1.749   2.948
 3510SOL    HW111429   2.634   1.751   2.912
 3510SOL    HW211430   2.772   1.665   2.917
 3511SOL     OW11431   0.526   1.263   3.619
 3511SOL    HW111432   0.451   1.198   3.617
 3511SOL    HW211433   0.588   1.241   3.695
 3512SOL     OW11434   3.105   3.148   2.108
 3512SOL    HW111435   3.186   3.148   2.167
 3512SOL    HW211436   3.047   3.071   2.131
 3513SOL     OW11437   6.702   4.970   6.858
 3513SOL    HW111438   6.646   5.044   6.893
 3513SOL    HW211439   6.647   4.912   6.798
 3514SOL     OW11440   2.642   5.299   3.777
 3514SOL    HW111441   2.605   5.220   3.827
 3514SOL    HW211442   2.688   5.267   3.694
 3515SOL     OW11443   3.937   5.446   4.182
 3515SOL    HW111444   3.924   5.356   4.142
 3515SOL    HW211445   3.981   5.506   4.115
 3516SOL     OW11446   1.681   1.316   6.949
 3516SOL    HW111447   1.693   1.253   6.872
 3516SOL    HW211448   1.705   1.409   6.920
 3517SOL     OW11449   0.703   1.169   6.173
 3517SOL    HW111450   0.768   1.103   6.135
 3517SOL    HW211451   0.651   1.210   6.098
 3518SOL     OW11452   4.665   3.645   6.037
 3518SOL    HW111453   4.581   3.692   6.008
 3518SOL    HW211454   4.744   3.701   6.015
 3519SOL     OW11455   3.972   0.497   6.233
 3519SOL    HW111456   3.957   0.564   6.306
 3519SOL    HW211457   3.976   0.544   6.145
 3520SOL     OW11458   4.002   4.784   1.426
 3520SOL    HW111459   3.989   4.706   1.364
 3520SOL    HW211460   3.983   4.756   1.520
 3521SOL     OW11461   0.095   1.707   4.970
 3521SOL    HW111462   0.072   1.674   4.878
 3521SOL    HW211463   0.187   1.746   4.970
 3522SOL     OW11464   2.458   0.376   0.749
 3522SOL    HW111465   2.505   0.407   0.832
 3522SOL    HW211466   2.378   0.434   0.733
 3523SOL     OW11467   2.337   4.375   4.298
 3523SOL    HW111468   2.346   4.315   4.377
 3523SOL    HW211469   2.347   4.470   4.326
 3524SOL     OW11470   2.820   1.393   3.051
 3524SOL    HW111471   2.816   1.436   2.961
 3524SOL    HW211472   2.778   1.453   3.119
 3525SOL     OW11473   1.764   3.050   3.422
 3525SOL    HW111474   1.781   2.954   3.447
 3525SOL    HW211475   1.799   3.109   3.495
 3526SOL     OW11476   4.041   6.424   3.974
 3526SOL    HW111477   4.081   6.365   3.905
 3526SOL    HW211478   4.113   6.471   4.024
 3527SOL     OW11479   6.685   4.128   0.253
 3527SOL    HW111480   6.750   4.158   0.183
 3527SOL    HW211481   6.719   4.044   0.296
 3528SOL     OW11482   0.808   6.827   3.962
 3528SOL    HW111483   0.739   6.792   3.899
 3528SOL    HW211484   0.809   6.770   4.045
 3529SOL     OW11485   3.807   0.667   0.325
 3529SOL    HW111486   3.883   0.679   0.390
 3529SOL    HW211487   3.821   0.582   0.274
 3530SOL     OW11488   2.174   5.926   2.435
 3530SOL    HW111489   2.081   5.962   2.422
 3530SOL    HW211490   2.239   5.981   2.384
 3531SOL     OW11491   5.471   4.166   6.623
 3531SOL    HW111492   5.387   4.113   6.609
 3531SOL    HW211493   5.455   4.236   6.692
 3532SOL     OW11494   2.190   0.443   6.285
 3532SOL    HW111495   2.127   0.401   6.350
 3532SOL    HW211496   2.146   0.450   6.195
 3533SOL     OW11497   1.393   1.292   2.531
 3533SOL    HW111498   1.484   1.303   2.572
 3533SOL    HW211499   1.366   1.377   2.485
 3534SOL     OW11500   4.749   6.760   4.657
 3534SOL    HW111501   4.847   6.769   4.640
 3534SOL    HW211502   4.727   6.798   4.747
 3535SOL     OW11503   3.154   4.411   6.956
 3535SOL    HW111504   3.198   4.322   6.968
 3535SOL    HW211505   3.087   4.425   0.007
 3536SOL     OW11506   2.052   2.766   2.362
 3536SOL    HW111507   1.982   2.770   2.433
 3536SOL    HW211508   2.037   2.685   2.306
 3537SOL     OW11509   3.488   5.124   1.602
 3537SOL    HW111510   3.445   5.123   1.512
 3537SOL    HW211511   3.523   5.033   1.624
 3538SOL     OW11512   2.793   0.288   4.322
 3538SOL    HW111513   2.864   0.234   4.367
 3538SOL    HW211514   2.800   0.277   4.223
 3539SOL     OW11515   5.197   5.042   6.035
 3539SOL    HW111516   5.235   5.133   6.051
 3539SOL    HW211517   5.255   4.973   6.077
 3540SOL     OW11518   5.616   3.490   6.655
 3540SOL    HW111519   5.619   3.520   6.750
 3540SOL    HW211520   5.526   3.512   6.616
 3541SOL     OW11521   0.080   2.892   2.552
 3541SOL    HW111522   0.130   2.916   2.469
 3541SOL    HW211523   7.004   2.900   2.535
 3542SOL     OW11524   5.884   0.720   6.830
 3542SOL    HW111525   5.906   0.796   6.769
 3542SOL    HW211526   5.956   0.710   6.899
 3543SOL     OW11527   0.277   3.292   5.148
 3543SOL    HW111528   0.352   3.262   5.207
 3543SOL    HW211529   0.207   3.220   5.145
 3544SOL     OW11530   4.305   5.114   5.892
 3544SOL    HW111531   4.394   5.158   5.886
 3544SOL    HW211532   4.317   5.014   5.890
 3545SOL     OW11533   2.422   6.627   1.958
 3545SOL    HW111534   2.339   6.572   1.964
 3545SOL    HW211535   2.402   6.712   1.908
 3546SOL     OW11536   6.437   3.622   1.647
 3546SOL    HW111537   6.360   3.653   1.703
 3546SOL    HW211538   6.505   3.577   1.706
 3547SOL     OW11539   2.131   4.247   4.137
 3547SOL    HW111540   2.136   4.262   4.038
 3547SOL    HW211541   2.177   4.322   4.184
 3548SOL     OW11542   6.583   6.345   5.589
 3548SOL    HW111543   6.610   6.322   5.683
 3548SOL    HW211544   6.652   6.311   5.526
 3549SOL     OW11545   0.984   6.791   0.245
 3549SOL    HW111546   0.905   6.778   0.304
 3549SOL    HW211547   1.049   6.853   0.288
 3550SOL     OW11548   6.721   3.017   4.714
 3550SOL    HW111549   6.784   2.966   4.655
 3550SOL    HW211550   6.629   3.014   4.676
 3551SOL     OW11551   5.855   1.856   5.179
 3551SOL    HW111552   5.885   1.890   5.090
 3551SOL    HW211553   5.934   1.848   5.240
 3552SOL     OW11554   6.476   1.241   4.449
 3552SOL    HW111555   6.550   1.186   4.489
 3552SOL    HW211556   6.388   1.201   4.475
 3553SOL     OW11557   5.169   5.732   6.433
 3553SOL    HW111558   5.133   5.671   6.361
 3553SOL    HW211559   5.267   5.718   6.442
 3554SOL     OW11560   5.649   3.415   0.844
 3554SOL    HW111561   5.721   3.446   0.782
 3554SOL    HW211562   5.570   3.385   0.792
 3555SOL     OW11563   3.214   1.241   4.819
 3555SOL    HW111564   3.160   1.217   4.739
 3555SOL    HW211565   3.161   1.304   4.877
 3556SOL     OW11566   4.967   1.696   0.357
 3556SOL    HW111567   4.931   1.616   0.308
 3556SOL    HW211568   4.945   1.779   0.306
 3557SOL     OW11569   4.949   0.333   0.990
 3557SOL    HW111570   4.890   0.255   1.010
 3557SOL    HW211571   5.037   0.320   1.035
 3558SOL     OW11572   4.725   5.837   3.913
 3558SOL    HW111573   4.628   5.813   3.913
 3558SOL    HW211574   4.771   5.786   3.840
 3559SOL     OW11575   3.966   6.714   0.001
 3559SOL    HW111576   3.874   6.678   0.007
 3559SOL    HW211577   3.964   6.814   0.009
 3560SOL     OW11578   2.197   5.737   4.419
 3560SOL    HW111579   2.204   5.705   4.514
 3560SOL    HW211580   2.110   5.783   4.406
 3561SOL     OW11581   4.846   3.001   6.790
 3561SOL    HW111582   4.857   3.092   6.830
 3561SOL    HW211583   4.906   2.993   6.709
 3562SOL     OW11584   2.991   1.014   0.738
 3562SOL    HW111585   2.950   1.095   0.697
 3562SOL    HW211586   2.925   0.938   0.734
 3563SOL     OW11587   5.858   2.486   6.698
 3563SOL    HW111588   5.789   2.557   6.683
 3563SOL    HW211589   5.942   2.510   6.650
 3564SOL     OW11590   5.811   2.925   3.385
 3564SOL    HW111591   5.861   3.012   3.391
 3564SOL    HW211592   5.802   2.899   3.289
 3565SOL     OW11593   5.314   6.389   4.953
 3565SOL    HW111594   5.219   6.362   4.967
 3565SOL    HW211595   5.355   6.414   5.040
 3566SOL     OW11596   0.996   0.898   4.203
 3566SOL    HW111597   0.987   0.937   4.111
 3566SOL    HW211598   0.946   0.956   4.268
 3567SOL     OW11599   1.629   4.040   0.322
 3567SOL    HW111600   1.587   3.950   0.323
 3567SOL    HW211601   1.582   4.101   0.386
 3568SOL     OW11602   1.720   3.205   5.910
 3568SOL    HW111603   1.659   3.195   5.832
 3568SOL    HW211604   1.812   3.172   5.886
 3569SOL     OW11605   0.635   0.139   3.476
 3569SOL    HW111606   0.695   0.160   3.553
 3569SOL    HW211607   0.606   0.224   3.432
 3570SOL     OW11608   6.946   2.346   5.175
 3570SOL    HW111609   6.956   2.442   5.148
 3570SOL    HW211610   6.909   2.341   5.268
 3571SOL     OW11611   0.498   5.249   4.996
 3571SOL    HW111612   0.467   5.272   4.903
 3571SOL    HW211613   0.437   5.179   5.034
 3572SOL     OW11614   5.397   0.052   5.407
 3572SOL    HW111615   5.378   0.000   5.324
 3572SOL    HW211616   5.480   0.016   5.450
 3573SOL     OW11617   0.058   2.975   1.801
 3573SOL    HW111618   0.025   3.041   1.868
 3573SOL    HW211619   0.097   2.896   1.848
 3574SOL     OW11620   0.945   3.299   0.596
 3574SOL    HW111621   0.963   3.276   0.692
 3574SOL    HW211622   0.902   3.389   0.591
 3575SOL     OW11623   6.484   0.648   2.534
 3575SOL    HW111624   6.475   0.652   2.435
 3575SOL    HW211625   6.405   0.601   2.574
 3576SOL     OW11626   0.300   0.879   0.872
 3576SOL    HW111627   0.388   0.916   0.841
 3576SOL    HW211628   0.247   0.951   0.916
 3577SOL     OW11629   1.877   4.412   0.988
 3577SOL    HW111630   1.812   4.432   1.061
 3577SOL    HW211631   1.900   4.496   0.940
 3578SOL     OW11632   3.453   5.524   1.243
 3578SOL    HW111633   3.528   5.576   1.284
 3578SOL    HW211634   3.386   5.500   1.313
 3579SOL     OW11635   2.100   2.834   6.958
 3579SOL    HW111636   2.124   2.774   0.012
 3579SOL    HW211637   2.175   2.836   6.892
 3580SOL     OW11638   6.124   1.198   2.544
 3580SOL    HW111639   6.025   1.202   2.556
 3580SOL    HW211640   6.149   1.113   2.498
 3581SOL     OW11641   6.900   1.750   2.835
 3581SOL    HW111642   6.845   1.818   2.884
 3581SOL    HW211643   6.881   1.755   2.737
 3582SOL     OW11644   0.550   0.921   6.014
 3582SOL    HW111645   0.606   0.916   6.096
 3582SOL    HW211646   0.492   0.840   6.007
 3583SOL     OW11647   0.515   6.623   2.795
 3583SOL    HW111648   0.495   6.626   2.893
 3583SOL    HW211649   0.531   6.715   2.761
 3584SOL     OW11650   5.684   0.093   4.334
 3584SOL    HW111651   5.707   0.002   4.299
 3584SOL    HW211652   5.767   0.145   4.352
 3585SOL     OW11653   1.945   5.111   2.393
 3585SOL    HW111654   1.906   5.048   2.460
 3585SOL    HW211655   2.037   5.138   2.422
 3586SOL     OW11656   1.756   0.882   6.450
 3586SOL    HW111657   1.854   0.892   6.465
 3586SOL    HW211658   1.736   0.787   6.423
 3587SOL     OW11659   3.576   5.960   5.496
 3587SOL    HW111660   3.660   6.009   5.520
 3587SOL    HW211661   3.600   5.879   5.443
 3588SOL     OW11662   2.700   2.321   5.471
 3588SOL    HW111663   2.736   2.327   5.565
 3588SOL    HW211664   2.763   2.367   5.409
 3589SOL     OW11665   3.223   6.019   4.569
 3589SOL    HW111666   3.157   5.979   4.633
 3589SOL    HW211667   3.176   6.048   4.486
 3590SOL     OW11668   1.034   6.966   6.919
 3590SOL    HW111669   1.091   6.902   6.970
 3590SOL    HW211670   1.050   0.037   6.952
 3591SOL     OW11671   5.141   2.179   4.719
 3591SOL    HW111672   5.103   2.106   4.775
 3591SOL    HW211673   5.102   2.175   4.627
 3592SOL     OW11674   5.846   1.121   1.453
 3592SOL    HW111675   5.863   1.086   1.545
 3592SOL    HW211676   5.888   1.060   1.385
 3593SOL     OW11677   1.190   5.016   4.869
 3593SOL    HW111678   1.153   5.064   4.948
 3593SOL    HW211679   1.150   5.052   4.785
 3594SOL     OW11680   4.670   1.251   4.121
 3594SOL    HW111681   4.663   1.337   4.172
 3594SOL    HW211682   4.713   1.269   4.033
 3595SOL     OW11683   2.007   6.634   6.819
 3595SOL    HW111684   2.085   6.577   6.846
 3595SOL    HW211685   2.036   6.729   6.812
 3596SOL     OW11686   6.275   3.192   2.796
 3596SOL    HW111687   6.351   3.213   2.735
 3596SOL    HW211688   6.205   3.263   2.788
 3597SOL     OW11689   4.592   0.584   3.417
 3597SOL    HW111690   4.662   0.518   3.445
 3597SOL    HW211691   4.593   0.594   3.317
 3598SOL     OW11692   2.215   0.009   0.730
 3598SOL    HW111693   2.196   0.075   0.658
 3598SOL    HW211694   2.271   0.052   0.801
 3599SOL     OW11695   0.133   2.246   4.509
 3599SOL    HW111696   0.043   2.201   4.508
 3599SOL    HW211697   0.123   2.340   4.541
 3600SOL     OW11698   6.572   6.066   1.215
 3600SOL    HW111699   6.594   5.992   1.278
 3600SOL    HW211700   6.604   6.153   1.253
 3601SOL     OW11701   0.488   4.034   6.261
 3601SOL    HW111702   0.510   3.937   6.268
 3601SOL    HW211703   0.558   4.088   6.309
 3602SOL     OW11704   4.010   2.060   0.831
 3602SOL    HW111705   4.079   2.073   0.902
 3602SOL    HW211706   3.929   2.115   0.853
 3603SOL     OW11707   3.130   5.127   5.226
 3603SOL    HW111708   3.115   5.169   5.315
 3603SOL    HW211709   3.174   5.038   5.238
 3604SOL     OW11710   5.512   4.491   3.380
 3604SOL    HW111711   5.479   4.586   3.383
 3604SOL    HW211712   5.548   4.466   3.470
 3605SOL     OW11713   5.610   1.351   6.349
 3605SOL    HW111714   5.572   1.349   6.257
 3605SOL    HW211715   5.700   1.307   6.349
 3606SOL     OW11716   1.644   4.303   2.135
 3606SOL    HW111717   1.726   4.335   2.183
 3606SOL    HW211718   1.653   4.206   2.115
 3607SOL     OW11719   4.516   6.361   4.974
 3607SOL    HW111720   4.445   6.431   4.989
 3607SOL    HW211721   4.479   6.289   4.915
 3608SOL     OW11722   0.250   2.909   2.772
 3608SOL    HW111723   0.220   2.834   2.831
 3608SOL    HW211724   0.181   2.926   2.701
 3609SOL     OW11725   1.547   1.099   4.388
 3609SOL    HW111726   1.548   0.999   4.383
 3609SOL    HW211727   1.501   1.136   4.308
 3610SOL     OW11728   1.490   4.438   5.510
 3610SOL    HW111729   1.543   4.458   5.592
 3610SOL    HW211730   1.536   4.366   5.458
 3611SOL     OW11731   4.523   4.652   0.314
 3611SOL    HW111732   4.609   4.697   0.292
 3611SOL    HW211733   4.502   4.583   0.246
 3612SOL     OW11734   3.244   5.498   1.942
 3612SOL    HW111735   3.162   5.549   1.916
 3612SOL    HW211736   3.308   5.497   1.865
 3613SOL     OW11737   5.203   4.054   6.589
 3613SOL    HW111738   5.115   4.011   6.611
 3613SOL    HW211739   5.189   4.123   6.518
 3614SOL     OW11740   3.805   3.160   5.317
 3614SOL    HW111741   3.869   3.163   5.240
 3614SOL    HW211742   3.850   3.122   5.397
 3615SOL     OW11743   6.146   6.692   6.558
 3615SOL    HW111744   6.235   6.660   6.588
 3615SOL    HW211745   6.075   6.631   6.592
 3616SOL     OW11746   0.441   1.623   4.317
 3616SOL    HW111747   0.414   1.667   4.403
 3616SOL    HW211748   0.400   1.532   4.312
 3617SOL     OW11749   0.128   0.836   1.333
 3617SOL    HW111750   0.044   0.868   1.289
 3617SOL    HW211751   0.200   0.827   1.264
 3618SOL     OW11752   3.433   5.569   6.107
 3618SOL    HW111753   3.367   5.621   6.052
 3618SOL    HW211754   3.385   5.495   6.154
 3619SOL     OW11755   4.921   3.454   3.619
 3619SOL    HW111756   5.020   3.439   3.608
 3619SOL    HW211757   4.874   3.424   3.536
 3620SOL     OW11758   5.650   1.966   5.904
 3620SOL    HW111759   5.587   1.990   5.978
 3620SOL    HW211760   5.629   1.873   5.873
 3621SOL     OW11761   2.493   2.630   6.674
 3621SOL    HW111762   2.545   2.560   6.723
 3621SOL    HW211763   2.479   2.600   6.580
 3622SOL     OW11764   1.429   3.460   1.083
 3622SOL    HW111765   1.384   3.381   1.041
 3622SOL    HW211766   1.458   3.436   1.175
 3623SOL     OW11767   5.727   5.116   4.710
 3623SOL    HW111768   5.726   5.090   4.806
 3623SOL    HW211769   5.635   5.107   4.672
 3624SOL     OW11770   2.047   6.876   1.808
 3624SOL    HW111771   1.956   6.894   1.770
 3624SOL    HW211772   2.114   6.936   1.763
 3625SOL     OW11773   1.688   2.680   4.676
 3625SOL    HW111774   1.788   2.688   4.677
 3625SOL    HW211775   1.654   2.681   4.770
 3626SOL     OW11776   2.163   2.864   5.127
 3626SOL    HW111777   2.087   2.896   5.071
 3626SOL    HW211778   2.244   2.920   5.110
 3627SOL     OW11779   4.118   3.362   4.513
 3627SOL    HW111780   4.148   3.284   4.568
 3627SOL    HW211781   4.042   3.334   4.455
 3628SOL     OW11782   2.858   5.090   3.977
 3628SOL    HW111783   2.841   5.132   4.066
 3628SOL    HW211784   2.784   5.026   3.955
 3629SOL     OW11785   6.124   4.267   4.582
 3629SOL    HW111786   6.025   4.254   4.584
 3629SOL    HW211787   6.156   4.297   4.672
 3630SOL     OW11788   6.578   2.136   4.499
 3630SOL    HW111789   6.530   2.210   4.545
 3630SOL    HW211790   6.523   2.053   4.502
 3631SOL     OW11791   2.250   1.154   4.813
 3631SOL    HW111792   2.214   1.062   4.829
 3631SOL    HW211793   2.329   1.148   4.752
 3632SOL     OW11794   5.220   6.786   6.500
 3632SOL    HW111795   5.254   6.725   6.429
 3632SOL    HW211796   5.254   6.756   6.589
 3633SOL     OW11797   0.896   2.850   5.854
 3633SOL    HW111798   0.918   2.918   5.924
 3633SOL    HW211799   0.918   2.888   5.764
 3634SOL     OW11800   2.152   4.449   6.622
 3634SOL    HW111801   2.168   4.515   6.696
 3634SOL    HW211802   2.073   4.478   6.568
 3635SOL     OW11803   1.257   2.100   3.773
 3635SOL    HW111804   1.311   2.172   3.814
 3635SOL    HW211805   1.189   2.140   3.711
 3636SOL     OW11806   1.204   6.734   0.979
 3636SOL    HW111807   1.243   6.765   1.065
 3636SOL    HW211808   1.151   6.651   0.995
 3637SOL     OW11809   5.626   1.620   2.396
 3637SOL    HW111810   5.642   1.644   2.301
 3637SOL    HW211811   5.593   1.699   2.446
 3638SOL     OW11812   6.814   5.277   3.026
 3638SOL    HW111813   6.758   5.227   3.092
 3638SOL    HW211814   6.908   5.243   3.030
 3639SOL     OW11815   2.254   5.882   6.598
 3639SOL    HW111816   2.299   5.822   6.664
 3639SOL    HW211817   2.188   5.829   6.545
 3640SOL     OW11818   2.757   6.963   3.351
 3640SOL    HW111819   2.688   6.891   3.346
 3640SOL    HW211820   2.848   6.922   3.345
 3641SOL     OW11821   2.765   0.033   5.579
 3641SOL    HW111822   2.859   0.011   5.556
 3641SOL    HW211823   2.756   0.131   5.598
 3642SOL     OW11824   5.821   1.364   2.803
 3642SOL    HW111825   5.767   1.375   2.719
 3642SOL    HW211826   5.861   1.273   2.804
 3643SOL     OW11827   3.649   6.450   3.451
 3643SOL    HW111828   3.620   6.401   3.533
 3643SOL    HW211829   3.727   6.403   3.410
 3644SOL     OW11830   5.824   0.824   1.158
 3644SOL    HW111831   5.850   0.730   1.181
 3644SOL    HW211832   5.726   0.835   1.172
 3645SOL     OW11833   5.036   5.380   3.812
 3645SOL    HW111834   4.964   5.326   3.856
 3645SOL    HW211835   5.061   5.456   3.872
 3646SOL     OW11836   0.081   6.023   4.903
 3646SOL    HW111837   0.094   5.934   4.946
 3646SOL    HW211838   0.013   6.015   4.830
 3647SOL     OW11839   3.922   2.570   0.327
 3647SOL    HW111840   3.918   2.662   0.364
 3647SOL    HW211841   4.008   2.527   0.353
 3648SOL     OW11842   2.359   6.168   3.988
 3648SOL    HW111843   2.406   6.080   4.003
 3648SOL    HW211844   2.391   6.235   4.055
 3649SOL     OW11845   3.251   3.051   3.604
 3649SOL    HW111846   3.310   3.098   3.539
 3649SOL    HW211847   3.259   3.094   3.694
 3650SOL     OW11848   5.860   5.592   2.434
 3650SOL    HW111849   5.875   5.561   2.341
 3650SOL    HW211850   5.822   5.518   2.489
 3651SOL     OW11851   1.938   5.985   1.700
 3651SOL    HW111852   1.884   5.918   1.751
 3651SOL    HW211853   2.035   5.961   1.707
 3652SOL     OW11854   3.846   6.858   3.583
 3652SOL    HW111855   3.944   6.841   3.588
 3652SOL    HW211856   3.819   6.875   3.488
 3653SOL     OW11857   0.120   3.678   3.040
 3653SOL    HW111858   0.068   3.607   2.994
 3653SOL    HW211859   0.077   3.767   3.023
 3654SOL     OW11860   1.505   6.888   2.333
 3654SOL    HW111861   1.413   6.919   2.357
 3654SOL    HW211862   1.545   6.838   2.410
 3655SOL     OW11863   6.621   1.320   4.052
 3655SOL    HW111864   6.703   1.376   4.043
 3655SOL    HW211865   6.553   1.349   3.985
 3656SOL     OW11866   1.651   1.602   2.698
 3656SOL    HW111867   1.552   1.588   2.699
 3656SOL    HW211868   1.680   1.631   2.606
 3657SOL     OW11869   6.452   5.082   1.268
 3657SOL    HW111870   6.517   5.155   1.290
 3657SOL    HW211871   6.494   5.020   1.201
 3658SOL     OW11872   2.791   4.324   5.482
 3658SOL    HW111873   2.706   4.287   5.445
 3658SOL    HW211874   2.794   4.309   5.581
 3659SOL     OW11875   1.202   3.358   0.356
 3659SOL    HW111876   1.153   3.283   0.402
 3659SOL    HW211877   1.278   3.320   0.302
 3660SOL     OW11878   5.550   3.714   0.821
 3660SOL    HW111879   5.582   3.710   0.726
 3660SOL    HW211880   5.623   3.684   0.882
 3661SOL     OW11881   5.323   0.930   2.358
 3661SOL    HW111882   5.340   0.870   2.279
 3661SOL    HW211883   5.393   1.001   2.361
 3662SOL     OW11884   2.361   6.668   4.565
 3662SOL    HW111885   2.345   6.716   4.652
 3662SOL    HW211886   2.390   6.575   4.584
 3663SOL     OW11887   3.142   2.645   5.729
 3663SOL    HW111888   3.227   2.690   5.701
 3663SOL    HW211889   3.087   2.625   5.648
 3664SOL     OW11890   4.045   7.005   1.503
 3664SOL    HW111891   3.990   6.922   1.500
 3664SOL    HW211892   4.057   0.011   1.598
 3665SOL     OW11893   2.540   1.669   5.214
 3665SOL    HW111894   2.571   1.761   5.189
 3665SOL    HW211895   2.510   1.621   5.132
 3666SOL     OW11896   1.048   4.945   3.216
 3666SOL    HW111897   0.966   4.978   3.262
 3666SOL    HW211898   1.089   4.872   3.270
 3667SOL     OW11899   0.364   1.158   6.577
 3667SOL    HW111900   0.341   1.246   6.620
 3667SOL    HW211901   0.424   1.174   6.499
 3668SOL     OW11902   2.097   0.432   1.015
 3668SOL    HW111903   2.157   0.466   0.943
 3668SOL    HW211904   2.136   0.456   1.104
 3669SOL     OW11905   5.269   1.477   4.603
 3669SOL    HW111906   5.304   1.545   4.539
 3669SOL    HW211907   5.327   1.476   4.685
 3670SOL     OW11908   3.671   4.602   6.131
 3670SOL    HW111909   3.588   4.548   6.144
 3670SOL    HW211910   3.647   4.695   6.103
 3671SOL     OW11911   1.280   1.409   2.890
 3671SOL    HW111912   1.380   1.403   2.895
 3671SOL    HW211913   1.248   1.370   2.804
 3672SOL     OW11914   5.833   6.248   6.909
 3672SOL    HW111915   5.825   6.290   6.819
 3672SOL    HW211916   5.858   6.319   6.976
 3673SOL     OW11917   3.747   0.227   5.679
 3673SOL    HW111918   3.833   0.182   5.700
 3673SOL    HW211919   3.676   0.194   5.741
 3674SOL     OW11920   1.947   6.471   1.108
 3674SOL    HW111921   1.851   6.475   1.080
 3674SOL    HW211922   1.993   6.555   1.079
 3675SOL     OW11923   1.599   2.091   4.240
 3675SOL    HW111924   1.593   2.182   4.198
 3675SOL    HW211925   1.515   2.073   4.291
 3676SOL     OW11926   0.610   4.227   2.479
 3676SOL    HW111927   0.510   4.224   2.476
 3676SOL    HW211928   0.639   4.304   2.537
 3677SOL     OW11929   6.648   1.288   3.487
 3677SOL    HW111930   6.704   1.364   3.454
 3677SOL    HW211931   6.561   1.286   3.437
 3678SOL     OW11932   0.768   2.658   4.175
 3678SOL    HW111933   0.742   2.706   4.259
 3678SOL    HW211934   0.696   2.670   4.107
 3679SOL     OW11935   6.219   1.158   1.161
 3679SOL    HW111936   6.137   1.182   1.212
 3679SOL    HW211937   6.195   1.092   1.089
 3680SOL     OW11938   6.650   4.826   5.364
 3680SOL    HW111939   6.719   4.899   5.364
 3680SOL    HW211940   6.665   4.766   5.443
 3681SOL     OW11941   5.616   0.351   3.926
 3681SOL    HW111942   5.543   0.401   3.974
 3681SOL    HW211943   5.576   0.296   3.853
 3682SOL     OW11944   0.718   1.703   6.983
 3682SOL    HW111945   0.633   1.654   6.965
 3682SOL    HW211946   0.711   1.753   0.047
 3683SOL     OW11947   4.258   6.873   4.189
 3683SOL    HW111948   4.332   6.933   4.162
 3683SOL    HW211949   4.294   6.800   4.247
 3684SOL     OW11950   2.208   3.903   1.901
 3684SOL    HW111951   2.267   3.982   1.919
 3684SOL    HW211952   2.147   3.889   1.979
 3685SOL     OW11953   5.318   6.218   6.046
 3685SOL    HW111954   5.328   6.260   6.137
 3685SOL    HW211955   5.356   6.279   5.977
 3686SOL     OW11956   0.411   3.991   0.588
 3686SOL    HW111957   0.499   3.947   0.605
 3686SOL    HW211958   0.402   4.012   0.491
 3687SOL     OW11959   3.716   1.274   0.980
 3687SOL    HW111960   3.759   1.362   0.966
 3687SOL    HW211961   3.687   1.236   0.892
 3688SOL     OW11962   0.273   2.021   6.080
 3688SOL    HW111963   0.175   2.004   6.079
 3688SOL    HW211964   0.293   2.105   6.131
 3689SOL     OW11965   1.418   6.396   4.089
 3689SOL    HW111966   1.509   6.372   4.053
 3689SOL    HW211967   1.393   6.487   4.056
 3690SOL     OW11968   5.185   4.349   5.898
 3690SOL    HW111969   5.117   4.326   5.828
 3690SOL    HW211970   5.277   4.340   5.860
 3691SOL     OW11971   3.217   3.268   6.485
 3691SOL    HW111972   3.126   3.239   6.458
 3691SOL    HW211973   3.286   3.214   6.436
 3692SOL     OW11974   6.544   0.844   5.268
 3692SOL    HW111975   6.473   0.844   5.339
 3692SOL    HW211976   6.528   0.769   5.204
 3693SOL     OW11977   1.791   1.206   3.442
 3693SOL    HW111978   1.790   1.306   3.444
 3693SOL    HW211979   1.739   1.171   3.519
 3694SOL     OW11980   2.138   4.194   3.838
 3694SOL    HW111981   2.212   4.233   3.784
 3694SOL    HW211982   2.172   4.119   3.893
 3695SOL     OW11983   2.635   1.713   0.902
 3695SOL    HW111984   2.653   1.617   0.923
 3695SOL    HW211985   2.545   1.738   0.936
 3696SOL     OW11986   2.739   5.816   6.087
 3696SOL    HW111987   2.668   5.870   6.040
 3696SOL    HW211988   2.808   5.877   6.125
 3697SOL     OW11989   5.421   1.590   3.582
 3697SOL    HW111990   5.363   1.511   3.598
 3697SOL    HW211991   5.511   1.574   3.622
 3698SOL     OW11992   2.702   0.905   5.194
 3698SOL    HW111993   2.660   0.833   5.139
 3698SOL    HW211994   2.637   0.981   5.205
 3699SOL     OW11995   0.937   5.223   2.370
 3699SOL    HW111996   1.035   5.237   2.353
 3699SOL    HW211997   0.918   5.126   2.383
 3700SOL     OW11998   6.151   6.639   3.707
 3700SOL    HW111999   6.206   6.563   3.742
 3700SOL    HW212000   6.112   6.689   3.784
 3701SOL     OW12001   4.531   1.786   3.573
 3701SOL    HW112002   4.445   1.754   3.612
 3701SOL    HW212003   4.544   1.743   3.483
 3702SOL     OW12004   5.433   0.803   6.278
 3702SOL    HW112005   5.508   0.765   6.225
 3702SOL    HW212006   5.449   0.788   6.375
 3703SOL     OW12007   3.334   4.911   0.360
 3703SOL    HW112008   3.408   4.965   0.401
 3703SOL    HW212009   3.351   4.814   0.377
 3704SOL     OW12010   3.590   5.855   0.997
 3704SOL    HW112011   3.602   5.891   1.089
 3704SOL    HW212012   3.493   5.842   0.978
 3705SOL     OW12013   6.964   1.492   4.061
 3705SOL    HW112014   0.039   1.510   4.048
 3705SOL    HW212015   6.924   1.562   4.120
 3706SOL     OW12016   2.454   2.647   3.300
 3706SOL    HW112017   2.378   2.611   3.245
 3706SOL    HW212018   2.537   2.596   3.279
 3707SOL     OW12019   4.051   0.917   5.384
 3707SOL    HW112020   4.138   0.915   5.335
 3707SOL    HW212021   4.063   0.967   5.470
 3708SOL     OW12022   6.332   6.277   0.677
 3708SOL    HW112023   6.351   6.375   0.678
 3708SOL    HW212024   6.410   6.227   0.714
 3709SOL     OW12025   1.233   6.184   6.184
 3709SOL    HW112026   1.208   6.118   6.255
 3709SOL    HW212027   1.183   6.162   6.100
 3710SOL     OW12028   0.910   5.216   6.647
 3710SOL    HW112029   0.882   5.130   6.603
 3710SOL    HW212030   1.004   5.238   6.621
 3711SOL     OW12031   6.419   4.660   2.100
 3711SOL    HW112032   6.497   4.723   2.092
 3711SOL    HW212033   6.362   4.668   2.018
 3712SOL     OW12034   1.081   0.635   5.417
 3712SOL    HW112035   0.982   0.626   5.408
 3712SOL    HW212036   1.126   0.566   5.361
 3713SOL     OW12037   3.057   4.658   5.814
 3713SOL    HW112038   2.962   4.688   5.805
 3713SOL    HW212039   3.093   4.685   5.903
 3714SOL     OW12040   4.550   2.837   5.152
 3714SOL    HW112041   4.582   2.860   5.244
 3714SOL    HW212042   4.452   2.818   5.155
 3715SOL     OW12043   4.226   4.675   4.211
 3715SOL    HW112044   4.191   4.591   4.169
 3715SOL    HW212045   4.149   4.732   4.239
 3716SOL     OW12046   1.594   1.666   4.563
 3716SOL    HW112047   1.631   1.723   4.490
 3716SOL    HW212048   1.495   1.660   4.554
 3717SOL     OW12049   6.173   0.658   6.629
 3717SOL    HW112050   6.116   0.577   6.616
 3717SOL    HW212051   6.119   0.733   6.666
 3718SOL     OW12052   0.849   7.019   6.258
 3718SOL    HW112053   0.848   0.065   6.185
 3718SOL    HW212054   0.769   0.011   6.317
 3719SOL     OW12055   3.465   3.967   0.277
 3719SOL    HW112056   3.400   3.941   0.206
 3719SOL    HW212057   3.421   3.960   0.366
 3720SOL     OW12058   6.767   1.441   6.053
 3720SOL    HW112059   6.726   1.402   5.971
 3720SOL    HW212060   6.840   1.381   6.086
 3721SOL     OW12061   5.853   2.114   0.550
 3721SOL    HW112062   5.872   2.212   0.553
 3721SOL    HW212063   5.798   2.088   0.629
 3722SOL     OW12064   4.618   5.814   1.205
 3722SOL    HW112065   4.639   5.794   1.300
 3722SOL    HW212066   4.550   5.887   1.200
 3723SOL     OW12067   3.541   1.497   0.801
 3723SOL    HW112068   3.531   1.426   0.733
 3723SOL    HW212069   3.497   1.469   0.886
 3724SOL     OW12070   1.586   3.644   6.252
 3724SOL    HW112071   1.654   3.588   6.300
 3724SOL    HW212072   1.570   3.728   6.303
 3725SOL     OW12073   4.783   6.315   2.143
 3725SOL    HW112074   4.857   6.372   2.108
 3725SOL    HW212075   4.727   6.368   2.207
 3726SOL     OW12076   6.157   3.798   2.612
 3726SOL    HW112077   6.242   3.846   2.631
 3726SOL    HW212078   6.140   3.799   2.513
 3727SOL     OW12079   2.085   2.176   5.649
 3727SOL    HW112080   2.000   2.137   5.612
 3727SOL    HW212081   2.132   2.108   5.704
 3728SOL     OW12082   0.871   3.440   6.971
 3728SOL    HW112083   0.886   3.424   6.873
 3728SOL    HW212084   0.773   3.437   6.990
 3729SOL     OW12085   1.414   3.654   3.659
 3729SOL    HW112086   1.416   3.624   3.755
 3729SOL    HW212087   1.496   3.622   3.612
 3730SOL     OW12088   1.916   0.143   1.395
 3730SOL    HW112089   1.888   0.152   1.490
 3730SOL    HW212090   1.854   0.195   1.336
 3731SOL     OW12091   2.391   5.864   0.253
 3731SOL    HW112092   2.318   5.820   0.202
 3731SOL    HW212093   2.352   5.921   0.325
 3732SOL     OW12094   1.916   4.047   4.127
 3732SOL    HW112095   1.981   4.123   4.124
 3732SOL    HW212096   1.938   3.987   4.204
 3733SOL     OW12097   3.590   3.459   1.648
 3733SOL    HW112098   3.620   3.379   1.700
 3733SOL    HW212099   3.492   3.453   1.633
 3734SOL     OW12100   4.001   1.611   3.328
 3734SOL    HW112101   3.974   1.552   3.252
 3734SOL    HW212102   3.920   1.643   3.376
 3735SOL     OW12103   3.642   2.183   1.625
 3735SOL    HW112104   3.615   2.093   1.659
 3735SOL    HW212105   3.634   2.250   1.699
 3736SOL     OW12106   5.362   0.585   5.952
 3736SOL    HW112107   5.299   0.508   5.945
 3736SOL    HW212108   5.381   0.603   6.049
 3737SOL     OW12109   3.002   6.828   3.400
 3737SOL    HW112110   3.024   6.740   3.442
 3737SOL    HW212111   3.033   6.903   3.459
 3738SOL     OW12112   0.448   0.260   4.485
 3738SOL    HW112113   0.411   0.338   4.536
 3738SOL    HW212114   0.374   0.197   4.463
 3739SOL     OW12115   6.782   3.545   0.750
 3739SOL    HW112116   6.695   3.498   0.736
 3739SOL    HW212117   6.822   3.516   0.837
 3740SOL     OW12118   5.568   6.453   0.034
 3740SOL    HW112119   5.567   6.499   6.967
 3740SOL    HW212120   5.660   6.423   0.055
 3741SOL     OW12121   4.200   0.658   6.898
 3741SOL    HW112122   4.254   0.576   6.877
 3741SOL    HW212123   4.107   0.631   6.921
 3742SOL     OW12124   3.765   3.230   6.061
 3742SOL    HW112125   3.736   3.223   6.157
 3742SOL    HW212126   3.709   3.298   6.014
 3743SOL     OW12127   1.589   5.962   5.112
 3743SOL    HW112128   1.643   5.946   5.195
 3743SOL    HW212129   1.584   5.878   5.059
 3744SOL     OW12130   6.064   4.892   3.880
 3744SOL    HW112131   5.990   4.941   3.834
 3744SOL    HW212132   6.062   4.911   3.978
 3745SOL     OW12133   5.049   4.958   1.430
 3745SOL    HW112134   5.053   4.994   1.524
 3745SOL    HW212135   5.094   5.022   1.368
 3746SOL     OW12136   4.180   1.062   1.289
 3746SOL    HW112137   4.244   1.129   1.327
 3746SOL    HW212138   4.179   1.068   1.190
 3747SOL     OW12139   3.295   6.364   1.157
 3747SOL    HW112140   3.292   6.419   1.074
 3747SOL    HW212141   3.342   6.278   1.139
 3748SOL     OW12142   5.364   0.365   1.875
 3748SOL    HW112143   5.391   0.295   1.941
 3748SOL    HW212144   5.415   0.449   1.893
 3749SOL     OW12145   0.691   0.928   3.643
 3749SOL    HW112146   0.598   0.909   3.675
 3749SOL    HW212147   0.687   0.980   3.557
 3750SOL     OW12148   0.310   4.038   0.331
 3750SOL    HW112149   0.359   3.974   0.271
 3750SOL    HW212150   0.212   4.023   0.323
 3751SOL     OW12151   1.766   4.919   1.925
 3751SOL    HW112152   1.768   5.006   1.876
 3751SOL    HW212153   1.837   4.918   1.995
 3752SOL     OW12154   5.838   5.570   6.663
 3752SOL    HW112155   5.889   5.488   6.686
 3752SOL    HW212156   5.782   5.553   6.582
 3753SOL     OW12157   0.479   1.467   3.411
 3753SOL    HW112158   0.506   1.417   3.493
 3753SOL    HW212159   0.534   1.550   3.403
 3754SOL     OW12160   3.849   1.188   1.649
 3754SOL    HW112161   3.814   1.228   1.734
 3754SOL    HW212162   3.807   1.098   1.635
 3755SOL     OW12163   2.684   6.544   4.712
 3755SOL    HW112164   2.584   6.547   4.702
 3755SOL    HW212165   2.719   6.463   4.665
 3756SOL     OW12166   0.904   6.391   0.894
 3756SOL    HW112167   0.875   6.478   0.853
 3756SOL    HW212168   0.918   6.323   0.822
 3757SOL     OW12169   1.314   5.105   0.305
 3757SOL    HW112170   1.304   5.094   0.206
 3757SOL    HW212171   1.410   5.117   0.328
 3758SOL     OW12172   6.781   5.483   4.415
 3758SOL    HW112173   6.831   5.570   4.418
 3758SOL    HW212174   6.842   5.410   4.385
 3759SOL     OW12175   4.929   0.662   3.346
 3759SOL    HW112176   4.984   0.739   3.312
 3759SOL    HW212177   4.895   0.683   3.437
 3760SOL     OW12178   0.545   1.038   3.408
 3760SOL    HW112179   0.490   1.070   3.485
 3760SOL    HW212180   0.492   0.975   3.352
 3761SOL     OW12181   4.183   0.855   4.535
 3761SOL    HW112182   4.245   0.784   4.501
 3761SOL    HW212183   4.191   0.936   4.476
 3762SOL     OW12184   6.221   2.293   4.048
 3762SOL    HW112185   6.141   2.350   4.027
 3762SOL    HW212186   6.303   2.349   4.048
 3763SOL     OW12187   0.577   6.578   6.588
 3763SOL    HW112188   0.634   6.641   6.641
 3763SOL    HW212189   0.619   6.561   6.499
 3764SOL     OW12190   4.772   2.276   2.891
 3764SOL    HW112191   4.758   2.318   2.802
 3764SOL    HW212192   4.744   2.340   2.963
 3765SOL     OW12193   5.240   3.852   1.834
 3765SOL    HW112194   5.188   3.825   1.753
 3765SOL    HW212195   5.274   3.770   1.880
 3766SOL     OW12196   2.154   2.281   2.433
 3766SOL    HW112197   2.068   2.232   2.426
 3766SOL    HW212198   2.181   2.287   2.529
 3767SOL     OW12199   1.702   5.494   5.127
 3767SOL    HW112200   1.604   5.509   5.146
 3767SOL    HW212201   1.753   5.497   5.213
 3768SOL     OW12202   1.201   6.826   4.129
 3768SOL    HW112203   1.139   6.830   4.208
 3768SOL    HW212204   1.197   6.913   4.080
 3769SOL     OW12205   4.550   5.257   5.877
 3769SOL    HW112206   4.559   5.205   5.792
 3769SOL    HW212207   4.500   5.342   5.859
 3770SOL     OW12208   2.370   0.179   6.788
 3770SOL    HW112209   2.451   0.126   6.814
 3770SOL    HW212210   2.327   0.216   6.870
 3771SOL     OW12211   6.610   5.811   5.890
 3771SOL    HW112212   6.618   5.713   5.911
 3771SOL    HW212213   6.693   5.842   5.845
 3772SOL     OW12214   2.819   5.364   1.522
 3772SOL    HW112215   2.740   5.410   1.561
 3772SOL    HW212216   2.788   5.286   1.468
 3773SOL     OW12217   4.943   4.017   6.640
 3773SOL    HW112218   4.964   4.087   6.708
 3773SOL    HW212219   4.845   4.022   6.617
 3774SOL     OW12220   0.220   4.240   1.612
 3774SOL    HW112221   0.132   4.220   1.654
 3774SOL    HW212222   0.255   4.157   1.568
 3775SOL     OW12223   6.521   6.192   4.841
 3775SOL    HW112224   6.482   6.148   4.922
 3775SOL    HW212225   6.464   6.171   4.761
 3776SOL     OW12226   3.961   2.474   6.808
 3776SOL    HW112227   3.881   2.422   6.779
 3776SOL    HW212228   3.935   2.569   6.824
 3777SOL     OW12229   3.156   5.264   3.125
 3777SOL    HW112230   3.091   5.338   3.139
 3777SOL    HW212231   3.181   5.259   3.029
 3778SOL     OW12232   2.328   5.188   6.944
 3778SOL    HW112233   2.381   5.270   6.923
 3778SOL    HW212234   2.386   5.107   6.933
 3779SOL     OW12235   6.632   4.752   6.465
 3779SOL    HW112236   6.616   4.659   6.432
 3779SOL    HW212237   6.553   4.784   6.517
 3780SOL     OW12238   6.026   1.927   0.803
 3780SOL    HW112239   6.043   1.993   0.730
 3780SOL    HW212240   5.958   1.860   0.773
 3781SOL     OW12241   1.299   0.800   6.585
 3781SOL    HW112242   1.291   0.900   6.575
 3781SOL    HW212243   1.346   0.763   6.505
 3782SOL     OW12244   3.009   5.446   6.638
 3782SOL    HW112245   3.039   5.509   6.710
 3782SOL    HW212246   2.921   5.476   6.602
 3783SOL     OW12247   4.324   5.350   5.545
 3783SOL    HW112248   4.266   5.401   5.482
 3783SOL    HW212249   4.297   5.368   5.639
 3784SOL     OW12250   5.681   4.200   5.382
 3784SOL    HW112251   5.585   4.224   5.367
 3784SOL    HW212252   5.728   4.193   5.294
 3785SOL     OW12253   1.167   3.563   2.286
 3785SOL    HW112254   1.263   3.590   2.282
 3785SOL    HW212255   1.112   3.626   2.232
 3786SOL     OW12256   3.765   2.662   6.197
 3786SOL    HW112257   3.762   2.705   6.287
 3786SOL    HW212258   3.803   2.727   6.131
 3787SOL     OW12259   5.407   5.921   5.731
 3787SOL    HW112260   5.369   5.878   5.649
 3787SOL    HW212261   5.493   5.877   5.755
 3788SOL     OW12262   5.388   2.610   5.723
 3788SOL    HW112263   5.364   2.520   5.685
 3788SOL    HW212264   5.354   2.617   5.817
 3789SOL     OW12265   1.818   4.724   2.209
 3789SOL    HW112266   1.798   4.647   2.149
 3789SOL    HW212267   1.733   4.762   2.244
 3790SOL     OW12268   3.072   0.204   1.763
 3790SOL    HW112269   3.011   0.127   1.745
 3790SOL    HW212270   3.083   0.216   1.861
 3791SOL     OW12271   5.025   0.791   3.951
 3791SOL    HW112272   4.996   0.781   3.856
 3791SOL    HW212273   4.979   0.871   3.992
 3792SOL     OW12274   5.608   0.609   3.084
 3792SOL    HW112275   5.536   0.631   3.018
 3792SOL    HW212276   5.690   0.663   3.064
 3793SOL     OW12277   4.358   4.064   0.146
 3793SOL    HW112278   4.451   4.066   0.109
 3793SOL    HW212279   4.330   3.969   0.162
 3794SOL     OW12280   1.854   4.867   5.671
 3794SOL    HW112281   1.811   4.785   5.633
 3794SOL    HW212282   1.880   4.929   5.597
 3795SOL     OW12283   3.655   6.144   0.302
 3795SOL    HW112284   3.602   6.080   0.247
 3795SOL    HW212285   3.604   6.167   0.385
 3796SOL     OW12286   5.383   0.796   0.500
 3796SOL    HW112287   5.480   0.810   0.480
 3796SOL    HW212288   5.332   0.880   0.482
 3797SOL     OW12289   6.911   1.483   0.499
 3797SOL    HW112290   6.951   1.471   0.408
 3797SOL    HW212291   6.895   1.393   0.540
 3798SOL     OW12292   0.061   3.809   4.312
 3798SOL    HW112293   0.152   3.784   4.280
 3798SOL    HW212294   0.061   3.904   4.343
 3799SOL     OW12295   6.605   2.704   2.213
 3799SOL    HW112296   6.558   2.792   2.206
 3799SOL    HW212297   6.539   2.630   2.202
 3800SOL     OW12298   5.788   2.985   1.517
 3800SOL    HW112299   5.836   3.003   1.430
 3800SOL    HW212300   5.855   2.966   1.588
 3801SOL     OW12301   5.246   1.104   0.208
 3801SOL    HW112302   5.204   1.081   0.120
 3801SOL    HW212303   5.199   1.055   0.281
 3802SOL     OW12304   6.090   3.752   3.771
 3802SOL    HW112305   6.034   3.812   3.828
 3802SOL    HW212306   6.171   3.802   3.740
 3803SOL     OW12307   3.833   4.255   6.324
 3803SOL    HW112308   3.845   4.235   6.422
 3803SOL    HW212309   3.819   4.170   6.274
 3804SOL     OW12310   4.230   6.214   3.555
 3804SOL    HW112311   4.240   6.176   3.647
 3804SOL    HW212312   4.187   6.304   3.561
 3805SOL     OW12313   2.558   1.759   7.004
 3805SOL    HW112314   2.606   1.681   6.963
 3805SOL    HW212315   2.484   1.725   0.040
 3806SOL     OW12316   2.097   4.700   2.209
 3806SOL    HW112317   2.150   4.778   2.244
 3806SOL    HW212318   2.002   4.708   2.240
 3807SOL     OW12319   6.918   3.944   4.682
 3807SOL    HW112320   6.941   3.983   4.593
 3807SOL    HW212321   6.968   3.992   4.753
 3808SOL     OW12322   2.784   6.827   6.469
 3808SOL    HW112323   2.776   6.728   6.475
 3808SOL    HW212324   2.873   6.851   6.430
 3809SOL     OW12325   5.437   1.951   1.293
 3809SOL    HW112326   5.456   2.048   1.305
 3809SOL    HW212327   5.350   1.939   1.245
 3810SOL     OW12328   4.908   1.880   4.548
 3810SOL    HW112329   4.879   1.937   4.625
 3810SOL    HW212330   4.828   1.842   4.502
 3811SOL     OW12331   0.582   6.270   5.697
 3811SOL    HW112332   0.488   6.297   5.675
 3811SOL    HW212333   0.646   6.335   5.656
 3812SOL     OW12334   4.737   5.208   0.037
 3812SOL    HW112335   4.799   5.134   0.065
 3812SOL    HW212336   4.782   5.264   6.990
 3813SOL     OW12337   0.082   4.050   6.603
 3813SOL    HW112338   0.113   4.045   6.508
 3813SOL    HW212339   0.069   3.958   6.639
 3814SOL     OW12340   0.431   0.485   4.948
 3814SOL    HW112341   0.500   0.552   4.918
 3814SOL    HW212342   0.443   0.400   4.897
 3815SOL     OW12343   4.704   1.835   5.737
 3815SOL    HW112344   4.627   1.772   5.740
 3815SOL    HW212345   4.742   1.845   5.829
 3816SOL     OW12346   6.656   6.620   2.105
 3816SOL    HW112347   6.560   6.593   2.093
 3816SOL    HW212348   6.686   6.673   2.026
 3817SOL     OW12349   4.069   3.367   2.606
 3817SOL    HW112350   3.978   3.394   2.573
 3817SOL    HW212351   4.061   3.329   2.698
 3818SOL     OW12352   4.937   5.489   1.833
 3818SOL    HW112353   5.034   5.490   1.855
 3818SOL    HW212354   4.896   5.577   1.858
 3819SOL     OW12355   6.118   3.192   3.034
 3819SOL    HW112356   6.185   3.168   3.105
 3819SOL    HW212357   6.166   3.212   2.949
 3820SOL     OW12358   4.172   6.919   6.072
 3820SOL    HW112359   4.091   6.929   6.015
 3820SOL    HW212360   4.160   6.972   6.156
 3821SOL     OW12361   1.658   6.388   1.502
 3821SOL    HW112362   1.568   6.422   1.528
 3821SOL    HW212363   1.729   6.445   1.543
 3822SOL     OW12364   6.550   6.114   0.800
 3822SOL    HW112365   6.537   6.019   0.825
 3822SOL    HW212366   6.638   6.124   0.752
 3823SOL     OW12367   6.035   4.745   4.605
 3823SOL    HW112368   6.106   4.776   4.542
 3823SOL    HW212369   6.073   4.741   4.698
 3824SOL     OW12370   1.676   2.406   0.718
 3824SOL    HW112371   1.759   2.449   0.684
 3824SOL    HW212372   1.600   2.471   0.713
 3825SOL     OW12373   0.526   4.879   5.556
 3825SOL    HW112374   0.541   4.830   5.470
 3825SOL    HW212375   0.614   4.896   5.600
 3826SOL     OW12376   4.432   4.517   3.953
 3826SOL    HW112377   4.471   4.493   4.042
 3826SOL    HW212378   4.501   4.507   3.882
 3827SOL     OW12379   1.093   1.022   0.243
 3827SOL    HW112380   1.080   0.999   0.147
 3827SOL    HW212381   1.040   0.958   0.299
 3828SOL     OW12382   2.597   3.412   6.206
 3828SOL    HW112383   2.586   3.456   6.116
 3828SOL    HW212384   2.597   3.313   6.195
 3829SOL     OW12385   6.970   2.168   1.032
 3829SOL    HW112386   6.877   2.199   1.055
 3829SOL    HW212387   0.012   2.243   1.044
 3830SOL     OW12388   5.385   6.224   3.686
 3830SOL    HW112389   5.385   6.177   3.774
 3830SOL    HW212390   5.422   6.317   3.698
 3831SOL     OW12391   5.351   1.799   4.423
 3831SOL    HW112392   5.339   1.837   4.331
 3831SOL    HW212393   5.380   1.871   4.485
 3832SOL     OW12394   6.343   1.482   4.213
 3832SOL    HW112395   6.382   1.390   4.208
 3832SOL    HW212396   6.296   1.493   4.301
 3833SOL     OW12397   2.089   3.182   5.358
 3833SOL    HW112398   2.045   3.266   5.392
 3833SOL    HW212399   2.187   3.198   5.348
 3834SOL     OW12400   4.350   5.380   0.414
 3834SOL    HW112401   4.390   5.289   0.405
 3834SOL    HW212402   4.258   5.380   0.374
 3835SOL     OW12403   4.777   5.084   4.458
 3835SOL    HW112404   4.711   5.137   4.404
 3835SOL    HW212405   4.809   5.138   4.535
 3836SOL     OW12406   0.784   0.428   5.916
 3836SOL    HW112407   0.808   0.525   5.910
 3836SOL    HW212408   0.725   0.404   5.839
 3837SOL     OW12409   4.862   4.719   5.778
 3837SOL    HW112410   4.841   4.777   5.857
 3837SOL    HW212411   4.814   4.631   5.788
 3838SOL     OW12412   0.388   1.982   3.436
 3838SOL    HW112413   0.319   2.023   3.376
 3838SOL    HW212414   0.378   2.020   3.528
 3839SOL     OW12415   4.630   1.312   3.665
 3839SOL    HW112416   4.681   1.342   3.584
 3839SOL    HW212417   4.533   1.334   3.653
 3840SOL     OW12418   3.976   2.168   5.922
 3840SOL    HW112419   3.921   2.241   5.881
 3840SOL    HW212420   3.920   2.085   5.930
 3841SOL     OW12421   5.644   4.115   2.686
 3841SOL    HW112422   5.570   4.069   2.735
 3841SOL    HW212423   5.715   4.142   2.750
 3842SOL     OW12424   1.977   3.960   5.265
 3842SOL    HW112425   1.928   3.893   5.209
 3842SOL    HW212426   2.068   3.975   5.226
 3843SOL     OW12427   5.519   2.468   6.841
 3843SOL    HW112428   5.472   2.556   6.853
 3843SOL    HW212429   5.573   2.448   6.923
 3844SOL     OW12430   5.598   5.925   0.471
 3844SOL    HW112431   5.615   5.841   0.523
 3844SOL    HW212432   5.545   5.989   0.527
 3845SOL     OW12433   2.119   5.900   0.611
 3845SOL    HW112434   2.031   5.942   0.635
 3845SOL    HW212435   2.107   5.801   0.601
 3846SOL     OW12436   6.652   3.342   2.868
 3846SOL    HW112437   6.714   3.409   2.906
 3846SOL    HW212438   6.626   3.275   2.938
 3847SOL     OW12439   7.002   0.831   6.742
 3847SOL    HW112440   6.924   0.882   6.707
 3847SOL    HW212441   0.062   0.889   6.736
 3848SOL     OW12442   5.995   5.188   2.514
 3848SOL    HW112443   6.053   5.152   2.441
 3848SOL    HW212444   5.936   5.115   2.549
 3849SOL     OW12445   0.360   3.326   5.750
 3849SOL    HW112446   0.265   3.318   5.781
 3849SOL    HW212447   0.362   3.327   5.650
 3850SOL     OW12448   3.386   3.026   1.370
 3850SOL    HW112449   3.425   3.080   1.445
 3850SOL    HW212450   3.326   2.956   1.408
 3851SOL     OW12451   0.512   4.879   2.011
 3851SOL    HW112452   0.500   4.827   2.095
 3851SOL    HW212453   0.596   4.933   2.016
 3852SOL     OW12454   3.505   0.455   5.365
 3852SOL    HW112455   3.570   0.381   5.382
 3852SOL    HW212456   3.532   0.536   5.418
 3853SOL     OW12457   1.680   0.514   3.416
 3853SOL    HW112458   1.651   0.605   3.446
 3853SOL    HW212459   1.773   0.520   3.379
 3854SOL     OW12460   0.099   1.550   2.229
 3854SOL    HW112461   0.089   1.489   2.308
 3854SOL    HW212462   0.129   1.497   2.149
 3855SOL     OW12463   2.789   5.948   6.554
 3855SOL    HW112464   2.762   6.014   6.484
 3855SOL    HW212465   2.742   5.969   6.639
 3856SOL     OW12466   0.051   2.767   6.399
 3856SOL    HW112467   7.000   2.765   6.331
 3856SOL    HW212468   0.035   2.843   6.462
 3857SOL     OW12469   1.008   0.106   5.822
 3857SOL    HW112470   0.987   0.181   5.885
 3857SOL    HW212471   1.016   0.142   5.729
 3858SOL     OW12472   3.062   1.111   4.602
 3858SOL    HW112473   3.127   1.061   4.545
 3858SOL    HW212474   2.969   1.092   4.570
 3859SOL     OW12475   5.464   5.948   3.324
 3859SOL    HW112476   5.482   6.037   3.367
 3859SOL    HW212477   5.550   5.902   3.304
 3860SOL     OW12478   1.906   6.821   5.166
 3860SOL    HW112479   1.894   6.751   5.237
 3860SOL    HW212480   1.823   6.828   5.111
 3861SOL     OW12481   2.272   6.425   2.763
 3861SOL    HW112482   2.336   6.411   2.838
 3861SOL    HW212483   2.179   6.429   2.800
 3862SOL     OW12484   2.211   0.742   4.032
 3862SOL    HW112485   2.176   0.654   3.997
 3862SOL    HW212486   2.161   0.767   4.114
 3863SOL     OW12487   4.259   6.773   1.476
 3863SOL    HW112488   4.261   6.807   1.382
 3863SOL    HW212489   4.349   6.738   1.501
 3864SOL     OW12490   0.183   1.212   4.861
 3864SOL    HW112491   0.280   1.187   4.855
 3864SOL    HW212492   0.175   1.306   4.893
 3865SOL     OW12493   4.903   1.457   6.958
 3865SOL    HW112494   4.855   1.374   6.930
 3865SOL    HW212495   5.001   1.445   6.945
 3866SOL     OW12496   3.680   1.266   6.760
 3866SOL    HW112497   3.769   1.295   6.726
 3866SOL    HW212498   3.657   1.177   6.720
 3867SOL     OW12499   6.638   3.539   2.421
 3867SOL    HW112500   6.730   3.527   2.458
 3867SOL    HW212501   6.643   3.592   2.336
 3868SOL     OW12502   4.156   1.072   0.167
 3868SOL    HW112503   4.072   1.039   0.211
 3868SOL    HW212504   4.148   1.060   0.068
 3869SOL     OW12505   2.915   1.087   3.485
 3869SOL    HW112506   2.848   1.013   3.481
 3869SOL    HW212507   2.974   1.075   3.565
 3870SOL     OW12508   6.492   2.061   5.922
 3870SOL    HW112509   6.410   2.048   5.977
 3870SOL    HW212510   6.477   2.132   5.854
 3871SOL     OW12511   2.943   4.783   4.226
 3871SOL    HW112512   2.992   4.788   4.313
 3871SOL    HW212513   2.857   4.733   4.240
 3872SOL     OW12514   2.920   4.044   5.402
 3872SOL    HW112515   2.888   4.113   5.336
 3872SOL    HW212516   3.015   4.020   5.382
 3873SOL     OW12517   5.926   3.143   6.731
 3873SOL    HW112518   5.902   3.191   6.647
 3873SOL    HW212519   5.908   3.045   6.719
 3874SOL     OW12520   1.712   0.150   2.309
 3874SOL    HW112521   1.804   0.187   2.293
 3874SOL    HW212522   1.720   0.056   2.340
 3875SOL     OW12523   0.298   0.691   6.311
 3875SOL    HW112524   0.228   0.668   6.379
 3875SOL    HW212525   0.389   0.681   6.351
 3876SOL     OW12526   3.497   5.281   2.081
 3876SOL    HW112527   3.590   5.274   2.046
 3876SOL    HW212528   3.433   5.282   2.005
 3877SOL     OW12529   0.644   1.712   5.562
 3877SOL    HW112530   0.545   1.714   5.548
 3877SOL    HW212531   0.665   1.664   5.647
 3878SOL     OW12532   4.144   1.300   5.013
 3878SOL    HW112533   4.151   1.361   4.934
 3878SOL    HW212534   4.110   1.351   5.092
 3879SOL     OW12535   5.550   5.346   6.513
 3879SOL    HW112536   5.605   5.425   6.486
 3879SOL    HW212537   5.453   5.368   6.507
 3880SOL     OW12538   4.570   5.593   3.169
 3880SOL    HW112539   4.527   5.539   3.241
 3880SOL    HW212540   4.668   5.577   3.168
 3881SOL     OW12541   2.190   3.037   0.127
 3881SOL    HW112542   2.106   3.085   0.153
 3881SOL    HW212543   2.172   2.980   0.047
 3882SOL     OW12544   0.290   2.986   5.767
 3882SOL    HW112545   0.350   3.019   5.694
 3882SOL    HW212546   0.244   3.063   5.810
 3883SOL     OW12547   3.850   5.707   4.308
 3883SOL    HW112548   3.779   5.702   4.379
 3883SOL    HW212549   3.880   5.615   4.284
 3884SOL     OW12550   6.636   2.847   1.863
 3884SOL    HW112551   6.542   2.882   1.854
 3884SOL    HW212552   6.676   2.836   1.772
 3885SOL     OW12553   3.884   5.620   2.245
 3885SOL    HW112554   3.913   5.715   2.243
 3885SOL    HW212555   3.839   5.600   2.332
 3886SOL     OW12556   2.987   5.199   6.528
 3886SOL    HW112557   2.992   5.287   6.576
 3886SOL    HW212558   3.021   5.126   6.588
 3887SOL     OW12559   2.351   5.864   2.017
 3887SOL    HW112560   2.297   5.780   2.015
 3887SOL    HW212561   2.302   5.933   2.071
 3888SOL     OW12562   4.924   5.302   2.947
 3888SOL    HW112563   5.005   5.255   2.982
 3888SOL    HW212564   4.953   5.382   2.894
 3889SOL     OW12565   5.213   2.689   0.458
 3889SOL    HW112566   5.227   2.709   0.361
 3889SOL    HW212567   5.176   2.770   0.503
 3890SOL     OW12568   4.909   4.465   4.183
 3890SOL    HW112569   4.902   4.558   4.147
 3890SOL    HW212570   4.909   4.400   4.107
 3891SOL     OW12571   5.094   4.671   3.784
 3891SOL    HW112572   4.998   4.672   3.812
 3891SOL    HW212573   5.152   4.653   3.864
 3892SOL     OW12574   0.489   1.720   1.496
 3892SOL    HW112575   0.520   1.795   1.437
 3892SOL    HW212576   0.399   1.689   1.464
 3893SOL     OW12577   3.103   3.128   3.118
 3893SOL    HW112578   3.149   3.215   3.133
 3893SOL    HW212579   3.086   3.083   3.206
 3894SOL     OW12580   4.213   0.455   6.186
 3894SOL    HW112581   4.118   0.467   6.215
 3894SOL    HW212582   4.215   0.437   6.088
 3895SOL     OW12583   1.053   0.632   4.785
 3895SOL    HW112584   1.005   0.661   4.703
 3895SOL    HW212585   1.145   0.599   4.760
 3896SOL     OW12586   1.900   2.036   6.294
 3896SOL    HW112587   1.853   1.968   6.238
 3896SOL    HW212588   1.857   2.041   6.384
 3897SOL     OW12589   3.843   6.215   0.899
 3897SOL    HW112590   3.938   6.223   0.868
 3897SOL    HW212591   3.835   6.138   0.962
 3898SOL     OW12592   4.150   3.552   0.943
 3898SOL    HW112593   4.052   3.568   0.956
 3898SOL    HW212594   4.166   3.454   0.928
 3899SOL     OW12595   3.525   6.727   4.929
 3899SOL    HW112596   3.598   6.796   4.933
 3899SOL    HW212597   3.545   6.662   4.856
 3900SOL     OW12598   4.073   4.731   2.448
 3900SOL    HW112599   4.138   4.687   2.387
 3900SOL    HW212600   3.987   4.747   2.399
 3901SOL     OW12601   3.497   1.418   6.892
 3901SOL    HW112602   3.568   1.486   6.915
 3901SOL    HW212603   3.541   1.335   6.858
 3902SOL     OW12604   4.753   2.723   2.509
 3902SOL    HW112605   4.670   2.675   2.538
 3902SOL    HW212606   4.758   2.724   2.409
 3903SOL     OW12607   3.759   4.985   6.746
 3903SOL    HW112608   3.829   5.018   6.809
 3903SOL    HW212609   3.712   5.064   6.705
 3904SOL     OW12610   1.553   6.533   1.070
 3904SOL    HW112611   1.547   6.627   1.037
 3904SOL    HW212612   1.517   6.471   1.000
 3905SOL     OW12613   0.308   6.419   5.311
 3905SOL    HW112614   0.297   6.518   5.325
 3905SOL    HW212615   0.405   6.399   5.295
 3906SOL     OW12616   0.720   6.089   5.194
 3906SOL    HW112617   0.750   6.092   5.099
 3906SOL    HW212618   0.625   6.059   5.198
 3907SOL     OW12619   5.390   2.155   4.161
 3907SOL    HW112620   5.314   2.098   4.132
 3907SOL    HW212621   5.421   2.212   4.085
 3908SOL     OW12622   2.872   3.843   6.099
 3908SOL    HW112623   2.867   3.797   6.187
 3908SOL    HW212624   2.779   3.857   6.064
 3909SOL     OW12625   4.635   6.336   4.180
 3909SOL    HW112626   4.681   6.274   4.244
 3909SOL    HW212627   4.679   6.426   4.184
 3910SOL     OW12628   3.320   3.651   2.807
 3910SOL    HW112629   3.408   3.664   2.760
 3910SOL    HW212630   3.246   3.681   2.747
 3911SOL     OW12631   5.614   2.117   5.233
 3911SOL    HW112632   5.570   2.042   5.281
 3911SOL    HW212633   5.697   2.084   5.189
 3912SOL     OW12634   5.588   3.205   6.776
 3912SOL    HW112635   5.537   3.286   6.804
 3912SOL    HW212636   5.678   3.205   6.821
 3913SOL     OW12637   0.898   0.145   0.697
 3913SOL    HW112638   0.972   0.100   0.645
 3913SOL    HW212639   0.825   0.170   0.634
 3914SOL     OW12640   3.087   5.943   5.543
 3914SOL    HW112641   3.122   5.856   5.508
 3914SOL    HW212642   3.163   6.008   5.552
 3915SOL     OW12643   5.411   5.418   2.199
 3915SOL    HW112644   5.321   5.462   2.201
 3915SOL    HW212645   5.465   5.449   2.277
 3916SOL     OW12646   6.818   6.966   3.225
 3916SOL    HW112647   6.806   6.975   3.126
 3916SOL    HW212648   6.778   6.880   3.256
 3917SOL     OW12649   3.009   0.089   6.619
 3917SOL    HW112650   3.023   7.015   6.595
 3917SOL    HW212651   3.017   0.100   6.719
 3918SOL     OW12652   6.487   3.208   0.820
 3918SOL    HW112653   6.395   3.213   0.859
 3918SOL    HW212654   6.508   3.294   0.775
 3919SOL     OW12655   3.349   6.331   0.740
 3919SOL    HW112656   3.323   6.405   0.802
 3919SOL    HW212657   3.438   6.294   0.768
 3920SOL     OW12658   2.368   1.160   6.225
 3920SOL    HW112659   2.400   1.254   6.238
 3920SOL    HW212660   2.395   1.105   6.304
 3921SOL     OW12661   0.269   2.868   1.057
 3921SOL    HW112662   0.181   2.863   1.105
 3921SOL    HW212663   0.288   2.963   1.033
 3922SOL     OW12664   0.177   5.263   1.221
 3922SOL    HW112665   0.088   5.221   1.238
 3922SOL    HW212666   0.169   5.362   1.228
 3923SOL     OW12667   0.448   5.680   0.634
 3923SOL    HW112668   0.486   5.708   0.546
 3923SOL    HW212669   0.435   5.761   0.692
 3924SOL     OW12670   6.712   5.124   4.286
 3924SOL    HW112671   6.708   5.200   4.221
 3924SOL    HW212672   6.621   5.083   4.293
 3925SOL     OW12673   0.579   5.129   1.411
 3925SOL    HW112674   0.496   5.090   1.370
 3925SOL    HW212675   0.654   5.063   1.404
 3926SOL     OW12676   2.953   6.313   2.827
 3926SOL    HW112677   3.007   6.254   2.766
 3926SOL    HW212678   2.943   6.403   2.785
 3927SOL     OW12679   2.457   3.569   6.718
 3927SOL    HW112680   2.472   3.479   6.677
 3927SOL    HW212681   2.359   3.583   6.734
 3928SOL     OW12682   0.207   6.582   6.600
 3928SOL    HW112683   0.279   6.531   6.648
 3928SOL    HW212684   0.234   6.677   6.590
 3929SOL     OW12685   1.079   1.364   4.595
 3929SOL    HW112686   1.016   1.315   4.656
 3929SOL    HW212687   1.085   1.315   4.508
 3930SOL     OW12688   3.334   1.608   3.905
 3930SOL    HW112689   3.305   1.517   3.934
 3930SOL    HW212690   3.433   1.608   3.889
 3931SOL     OW12691   3.851   6.364   2.100
 3931SOL    HW112692   3.840   6.265   2.108
 3931SOL    HW212693   3.925   6.394   2.160
 3932SOL     OW12694   2.131   3.764   3.271
 3932SOL    HW112695   2.061   3.787   3.337
 3932SOL    HW212696   2.097   3.692   3.210
 3933SOL     OW12697   1.974   0.837   5.770
 3933SOL    HW112698   2.072   0.857   5.768
 3933SOL    HW212699   1.923   0.917   5.737
 3934SOL     OW12700   4.968   5.750   0.394
 3934SOL    HW112701   4.904   5.679   0.365
 3934SOL    HW212702   5.059   5.730   0.357
 3935SOL     OW12703   4.439   6.942   1.895
 3935SOL    HW112704   4.433   6.984   1.986
 3935SOL    HW212705   4.442   6.843   1.904
 3936SOL     OW12706   1.161   3.882   2.670
 3936SOL    HW112707   1.146   3.810   2.738
 3936SOL    HW212708   1.109   3.861   2.588
 3937SOL     OW12709   0.241   1.962   2.971
 3937SOL    HW112710   0.202   1.888   3.025
 3937SOL    HW212711   0.250   1.932   2.876
 3938SOL     OW12712   6.316   3.238   2.462
 3938SOL    HW112713   6.236   3.294   2.440
 3938SOL    HW212714   6.384   3.294   2.510
 3939SOL     OW12715   1.670   2.476   1.915
 3939SOL    HW112716   1.657   2.450   1.820
 3939SOL    HW212717   1.677   2.394   1.972
 3940SOL     OW12718   4.415   4.228   1.476
 3940SOL    HW112719   4.360   4.166   1.532
 3940SOL    HW212720   4.489   4.266   1.531
 3941SOL     OW12721   4.995   3.477   0.309
 3941SOL    HW112722   4.899   3.454   0.328
 3941SOL    HW212723   5.025   3.547   0.375
 3942SOL     OW12724   5.966   6.518   0.885
 3942SOL    HW112725   6.010   6.603   0.856
 3942SOL    HW212726   5.920   6.475   0.807
 3943SOL     OW12727   0.075   3.159   4.510
 3943SOL    HW112728   0.121   3.242   4.481
 3943SOL    HW212729   0.072   3.094   4.433
 3944SOL     OW12730   5.568   2.494   5.037
 3944SOL    HW112731   5.645   2.487   5.100
 3944SOL    HW212732   5.590   2.557   4.963
 3945SOL     OW12733   0.277   0.264   0.852
 3945SOL    HW112734   0.372   0.239   0.872
 3945SOL    HW212735   0.239   0.312   0.931
 3946SOL     OW12736   3.852   4.846   3.621
 3946SOL    HW112737   3.945   4.878   3.602
 3946SOL    HW212738   3.854   4.786   3.701
 3947SOL     OW12739   0.196   4.388   5.934
 3947SOL    HW112740   0.224   4.476   5.974
 3947SOL    HW212741   0.248   4.315   5.977
 3948SOL     OW12742   6.031   3.122   1.741
 3948SOL    HW112743   5.937   3.142   1.713
 3948SOL    HW212744   6.048   3.161   1.832
 3949SOL     OW12745   5.468   6.211   2.620
 3949SOL    HW112746   5.478   6.268   2.702
 3949SOL    HW212747   5.549   6.220   2.563
 3950SOL     OW12748   2.364   6.497   0.208
 3950SOL    HW112749   2.340   6.553   0.129
 3950SOL    HW212750   2.313   6.529   0.288
 3951SOL     OW12751   5.702   5.720   2.208
 3951SOL    HW112752   5.681   5.631   2.168
 3951SOL    HW212753   5.711   5.712   2.307
 3952SOL     OW12754   6.442   1.011   0.052
 3952SOL    HW112755   6.427   0.916   0.023
 3952SOL    HW212756   6.485   1.013   0.142
 3953SOL     OW12757   3.069   3.915   2.835
 3953SOL    HW112758   3.069   3.885   2.739
 3953SOL    HW212759   3.062   3.835   2.895
 3954SOL     OW12760   4.165   4.020   5.573
 3954SOL    HW112761   4.216   3.935   5.561
 3954SOL    HW212762   4.071   4.008   5.541
 3955SOL     OW12763   4.027   1.508   4.789
 3955SOL    HW112764   3.963   1.538   4.718
 3955SOL    HW212765   4.086   1.436   4.752
 3956SOL     OW12766   2.180   1.267   0.701
 3956SOL    HW112767   2.236   1.259   0.619
 3956SOL    HW212768   2.190   1.185   0.757
 3957SOL     OW12769   4.430   1.956   3.923
 3957SOL    HW112770   4.473   2.046   3.917
 3957SOL    HW212771   4.457   1.911   4.007
 3958SOL     OW12772   5.145   6.535   5.675
 3958SOL    HW112773   5.141   6.529   5.775
 3958SOL    HW212774   5.173   6.446   5.638
 3959SOL     OW12775   5.748   6.336   6.576
 3959SOL    HW112776   5.679   6.391   6.530
 3959SOL    HW212777   5.718   6.241   6.579
 3960SOL     OW12778   6.619   2.664   4.028
 3960SOL    HW112779   6.620   2.714   3.941
 3960SOL    HW212780   6.612   2.729   4.104
 3961SOL     OW12781   4.948   0.172   4.279
 3961SOL    HW112782   4.913   0.123   4.199
 3961SOL    HW212783   4.992   0.107   4.341
 3962SOL     OW12784   6.454   4.968   4.322
 3962SOL    HW112785   6.398   5.050   4.327
 3962SOL    HW212786   6.413   4.896   4.377
 3963SOL     OW12787   3.372   6.042   1.850
 3963SOL    HW112788   3.339   5.992   1.930
 3963SOL    HW212789   3.471   6.050   1.854
 3964SOL     OW12790   6.531   2.158   4.225
 3964SOL    HW112791   6.537   2.250   4.188
 3964SOL    HW212792   6.534   2.162   4.325
 3965SOL     OW12793   5.069   4.252   4.640
 3965SOL    HW112794   5.018   4.268   4.556
 3965SOL    HW212795   5.043   4.163   4.678
 3966SOL     OW12796   3.586   5.953   6.662
 3966SOL    HW112797   3.591   5.904   6.750
 3966SOL    HW212798   3.577   6.051   6.679
 3967SOL     OW12799   2.135   3.478   4.060
 3967SOL    HW112800   2.186   3.513   4.139
 3967SOL    HW212801   2.118   3.381   4.073
 3968SOL     OW12802   4.674   6.400   0.113
 3968SOL    HW112803   4.751   6.377   0.171
 3968SOL    HW212804   4.631   6.484   0.147
 3969SOL     OW12805   0.402   4.469   3.281
 3969SOL    HW112806   0.390   4.455   3.379
 3969SOL    HW212807   0.315   4.453   3.234
 3970SOL     OW12808   4.369   6.505   1.187
 3970SOL    HW112809   4.370   6.490   1.088
 3970SOL    HW212810   4.277   6.486   1.222
 3971SOL     OW12811   0.983   6.042   3.610
 3971SOL    HW112812   0.953   6.137   3.607
 3971SOL    HW212813   1.082   6.038   3.619
 3972SOL     OW12814   1.392   3.779   6.974
 3972SOL    HW112815   1.342   3.747   0.033
 3972SOL    HW212816   1.363   3.727   6.894
 3973SOL     OW12817   1.618   4.117   0.834
 3973SOL    HW112818   1.650   4.103   0.928
 3973SOL    HW212819   1.518   4.129   0.835
 3974SOL     OW12820   2.765   0.330   5.954
 3974SOL    HW112821   2.858   0.306   5.982
 3974SOL    HW212822   2.751   0.306   5.858
 3975SOL     OW12823   6.846   2.638   0.001
 3975SOL    HW112824   6.756   2.606   0.030
 3975SOL    HW212825   6.893   2.682   0.078
 3976SOL     OW12826   0.979   3.875   2.466
 3976SOL    HW112827   0.909   3.814   2.429
 3976SOL    HW212828   0.936   3.961   2.495
 3977SOL     OW12829   0.327   2.744   6.456
 3977SOL    HW112830   0.367   2.817   6.399
 3977SOL    HW212831   0.228   2.749   6.452
 3978SOL     OW12832   5.434   4.084   3.589
 3978SOL    HW112833   5.446   4.040   3.677
 3978SOL    HW212834   5.512   4.065   3.530
 3979SOL     OW12835   3.584   6.231   5.789
 3979SOL    HW112836   3.595   6.325   5.823
 3979SOL    HW212837   3.487   6.207   5.791
 3980SOL     OW12838   5.197   4.785   5.847
 3980SOL    HW112839   5.185   4.698   5.895
 3980SOL    HW212840   5.117   4.843   5.860
 3981SOL     OW12841   4.792   5.601   6.684
 3981SOL    HW112842   4.735   5.627   6.762
 3981SOL    HW212843   4.864   5.669   6.671
 3982SOL     OW12844   2.843   5.986   2.753
 3982SOL    HW112845   2.865   6.023   2.843
 3982SOL    HW212846   2.761   5.929   2.760
 3983SOL     OW12847   3.893   6.134   4.420
 3983SOL    HW112848   3.826   6.196   4.462
 3983SOL    HW212849   3.911   6.057   4.482
 3984SOL     OW12850   6.331   3.367   3.232
 3984SOL    HW112851   6.370   3.419   3.156
 3984SOL    HW212852   6.383   3.283   3.246
 3985SOL     OW12853   4.331   5.447   6.331
 3985SOL    HW112854   4.274   5.527   6.311
 3985SOL    HW212855   4.273   5.371   6.360
 3986SOL     OW12856   5.438   0.833   2.607
 3986SOL    HW112857   5.508   0.768   2.575
 3986SOL    HW212858   5.360   0.832   2.544
 3987SOL     OW12859   3.596   5.153   5.705
 3987SOL    HW112860   3.621   5.131   5.799
 3987SOL    HW212861   3.501   5.126   5.688
 3988SOL     OW12862   4.477   5.699   0.683
 3988SOL    HW112863   4.532   5.666   0.606
 3988SOL    HW212864   4.396   5.641   0.692
 3989SOL     OW12865   0.038   2.630   1.148
 3989SOL    HW112866   6.981   2.622   1.088
 3989SOL    HW212867   0.040   2.721   1.190
 3990SOL     OW12868   6.945   1.684   1.553
 3990SOL    HW112869   6.982   1.733   1.632
 3990SOL    HW212870   7.005   1.607   1.532
 3991SOL     OW12871   4.411   1.208   3.223
 3991SOL    HW112872   4.348   1.151   3.276
 3991SOL    HW212873   4.496   1.222   3.275
 3992SOL     OW12874   4.090   2.043   1.708
 3992SOL    HW112875   4.052   2.135   1.718
 3992SOL    HW212876   4.044   1.982   1.773
 3993SOL     OW12877   1.463   3.270   1.659
 3993SOL    HW112878   1.500   3.362   1.667
 3993SOL    HW212879   1.373   3.266   1.703
 3994SOL     OW12880   2.848   5.520   4.375
 3994SOL    HW112881   2.793   5.591   4.330
 3994SOL    HW212882   2.942   5.525   4.341
 3995SOL     OW12883   1.107   1.891   3.651
 3995SOL    HW112884   1.098   1.835   3.733
 3995SOL    HW212885   1.171   1.965   3.667
 3996SOL     OW12886   6.373   5.598   4.548
 3996SOL    HW112887   6.433   5.521   4.570
 3996SOL    HW212888   6.427   5.674   4.514
 3997SOL     OW12889   2.886   0.039   3.064
 3997SOL    HW112890   2.901   0.136   3.085
 3997SOL    HW212891   2.917   0.021   2.971
 3998SOL     OW12892   4.040   1.896   3.114
 3998SOL    HW112893   4.045   1.992   3.141
 3998SOL    HW212894   4.131   1.856   3.118
 3999SOL     OW12895   4.472   1.238   4.343
 3999SOL    HW112896   4.519   1.231   4.431
 3999SOL    HW212897   4.538   1.261   4.272
 4000SOL     OW12898   5.014   5.194   4.647
 4000SOL    HW112899   4.984   5.279   4.604
 4000SOL    HW212900   4.940   5.157   4.703
 4001SOL     OW12901   0.739   1.717   4.736
 4001SOL    HW112902   0.772   1.782   4.667
 4001SOL    HW212903   0.815   1.659   4.765
 4002SOL     OW12904   1.952   4.964   2.138
 4002SOL    HW112905   1.961   5.021   2.220
 4002SOL    HW212906   1.920   4.873   2.163
 4003SOL     OW12907   3.808   1.602   4.642
 4003SOL    HW112908   3.792   1.700   4.656
 4003SOL    HW212909   3.830   1.586   4.545
 4004SOL     OW12910   6.451   1.944   6.257
 4004SOL    HW112911   6.503   2.012   6.204
 4004SOL    HW212912   6.367   1.985   6.290
 4005SOL     OW12913   6.697   5.216   4.734
 4005SOL    HW112914   6.753   5.166   4.668
 4005SOL    HW212915   6.746   5.298   4.764
 4006SOL     OW12916   3.439   6.096   3.309
 4006SOL    HW112917   3.340   6.093   3.303
 4006SOL    HW212918   3.470   6.192   3.305
 4007SOL     OW12919   0.196   1.914   5.196
 4007SOL    HW112920   0.154   1.997   5.231
 4007SOL    HW212921   0.177   1.838   5.259
 4008SOL     OW12922   3.447   1.722   5.033
 4008SOL    HW112923   3.492   1.633   5.042
 4008SOL    HW212924   3.364   1.712   4.979
 4009SOL     OW12925   3.988   3.887   3.027
 4009SOL    HW112926   3.926   3.946   3.079
 4009SOL    HW212927   3.958   3.884   2.931
 4010SOL     OW12928   0.995   3.137   1.112
 4010SOL    HW112929   0.922   3.069   1.105
 4010SOL    HW212930   1.059   3.110   1.183
 4011SOL     OW12931   0.352   1.455   0.639
 4011SOL    HW112932   0.333   1.500   0.552
 4011SOL    HW212933   0.434   1.495   0.680
 4012SOL     OW12934   5.225   3.561   3.512
 4012SOL    HW112935   5.183   3.541   3.423
 4012SOL    HW212936   5.277   3.646   3.506
 4013SOL     OW12937   5.362   2.810   3.114
 4013SOL    HW112938   5.422   2.884   3.083
 4013SOL    HW212939   5.315   2.838   3.198
 4014SOL     OW12940   5.347   4.378   2.591
 4014SOL    HW112941   5.292   4.299   2.619
 4014SOL    HW212942   5.444   4.358   2.606
 4015SOL     OW12943   5.032   3.888   0.162
 4015SOL    HW112944   4.995   3.849   0.078
 4015SOL    HW212945   5.130   3.904   0.150
 4016SOL     OW12946   3.260   6.556   4.677
 4016SOL    HW112947   3.286   6.462   4.655
 4016SOL    HW212948   3.304   6.619   4.613
 4017SOL     OW12949   4.909   6.458   6.314
 4017SOL    HW112950   4.875   6.394   6.383
 4017SOL    HW212951   4.838   6.474   6.246
 4018SOL     OW12952   1.746   0.087   6.908
 4018SOL    HW112953   1.667   0.133   6.868
 4018SOL    HW212954   1.715   0.007   6.960
 4019SOL     OW12955   5.309   6.924   3.783
 4019SOL    HW112956   5.290   6.874   3.868
 4019SOL    HW212957   5.408   6.932   3.771
 4020SOL     OW12958   5.645   1.707   4.714
 4020SOL    HW112959   5.733   1.690   4.758
 4020SOL    HW212960   5.638   1.803   4.688
 4021SOL     OW12961   4.560   2.972   6.804
 4021SOL    HW112962   4.654   2.956   6.774
 4021SOL    HW212963   4.553   2.953   6.902
 4022SOL     OW12964   5.236   1.266   1.142
 4022SOL    HW112965   5.181   1.291   1.062
 4022SOL    HW212966   5.330   1.295   1.127
 4023SOL     OW12967   6.980   5.689   5.272
 4023SOL    HW112968   6.995   5.742   5.355
 4023SOL    HW212969   6.945   5.599   5.296
 4024SOL     OW12970   4.232   4.268   6.170
 4024SOL    HW112971   4.328   4.248   6.188
 4024SOL    HW212972   4.198   4.206   6.098
 4025SOL     OW12973   0.347   3.882   4.238
 4025SOL    HW112974   0.317   3.931   4.156
 4025SOL    HW212975   0.425   3.824   4.215
 4026SOL     OW12976   5.964   1.102   5.354
 4026SOL    HW112977   5.874   1.062   5.334
 4026SOL    HW212978   6.030   1.073   5.285
 4027SOL     OW12979   2.615   5.446   2.612
 4027SOL    HW112980   2.683   5.442   2.538
 4027SOL    HW212981   2.634   5.524   2.670
 4028SOL     OW12982   1.437   5.579   2.647
 4028SOL    HW112983   1.514   5.642   2.643
 4028SOL    HW212984   1.456   5.507   2.714
 4029SOL     OW12985   1.978   4.086   3.330
 4029SOL    HW112986   1.932   4.035   3.257
 4029SOL    HW212987   1.961   4.040   3.417
 4030SOL     OW12988   2.599   1.316   5.943
 4030SOL    HW112989   2.651   1.274   6.016
 4030SOL    HW212990   2.545   1.246   5.895
 4031SOL     OW12991   6.605   6.182   3.714
 4031SOL    HW112992   6.575   6.129   3.794
 4031SOL    HW212993   6.665   6.256   3.744
 4032SOL     OW12994   3.894   0.204   4.604
 4032SOL    HW112995   3.843   0.207   4.690
 4032SOL    HW212996   3.982   0.250   4.616
 4033SOL     OW12997   3.589   3.798   6.486
 4033SOL    HW112998   3.649   3.808   6.565
 4033SOL    HW212999   3.620   3.859   6.413
 4034SOL     OW13000   6.178   3.765   4.840
 4034SOL    HW113001   6.170   3.764   4.740
 4034SOL    HW213002   6.107   3.824   4.879
 4035SOL     OW13003   0.125   6.204   2.521
 4035SOL    HW113004   0.210   6.248   2.490
 4035SOL    HW213005   0.063   6.274   2.555
 4036SOL     OW13006   5.827   6.258   1.674
 4036SOL    HW113007   5.819   6.256   1.574
 4036SOL    HW213008   5.736   6.252   1.715
 4037SOL     OW13009   0.909   4.073   6.431
 4037SOL    HW113010   0.942   4.062   6.524
 4037SOL    HW213011   0.982   4.108   6.373
 4038SOL     OW13012   6.284   5.023   3.465
 4038SOL    HW113013   6.261   4.982   3.553
 4038SOL    HW213014   6.378   5.000   3.440
 4039SOL     OW13015   2.719   5.037   1.448
 4039SOL    HW113016   2.730   5.091   1.365
 4039SOL    HW213017   2.634   4.985   1.443
 4040SOL     OW13018   3.032   0.093   0.147
 4040SOL    HW113019   3.020   7.017   0.130
 4040SOL    HW213020   3.077   0.107   0.235
 4041SOL     OW13021   0.208   5.839   3.264
 4041SOL    HW113022   0.287   5.820   3.323
 4041SOL    HW213023   0.236   5.900   3.190
 4042SOL     OW13024   5.323   5.058   1.072
 4042SOL    HW113025   5.321   5.055   0.972
 4042SOL    HW213026   5.357   4.971   1.107
 4043SOL     OW13027   6.755   3.556   1.043
 4043SOL    HW113028   6.853   3.552   1.024
 4043SOL    HW213029   6.740   3.549   1.142
 4044SOL     OW13030   5.240   4.608   2.758
 4044SOL    HW113031   5.252   4.546   2.680
 4044SOL    HW213032   5.170   4.570   2.820
 4045SOL     OW13033   3.031   5.181   5.493
 4045SOL    HW113034   3.075   5.175   5.583
 4045SOL    HW213035   2.976   5.264   5.488
 4046SOL     OW13036   0.707   3.797   1.136
 4046SOL    HW113037   0.728   3.760   1.227
 4046SOL    HW213038   0.766   3.753   1.068
 4047SOL     OW13039   3.524   3.916   3.770
 4047SOL    HW113040   3.570   3.834   3.804
 4047SOL    HW213041   3.488   3.898   3.678
 4048SOL     OW13042   5.187   2.749   0.876
 4048SOL    HW113043   5.101   2.758   0.825
 4048SOL    HW213044   5.230   2.839   0.886
 4049SOL     OW13045   6.398   6.346   0.143
 4049SOL    HW113046   6.380   6.385   0.233
 4049SOL    HW213047   6.491   6.311   0.139
 4050SOL     OW13048   2.278   1.090   1.921
 4050SOL    HW113049   2.231   1.029   1.985
 4050SOL    HW213050   2.345   1.145   1.970
 4051SOL     OW13051   3.081   4.010   1.314
 4051SOL    HW113052   3.002   3.949   1.312
 4051SOL    HW213053   3.119   4.019   1.222
 4052SOL     OW13054   1.303   0.213   0.603
 4052SOL    HW113055   1.388   0.168   0.631
 4052SOL    HW213056   1.231   0.145   0.593
 4053SOL     OW13057   2.776   5.652   1.977
 4053SOL    HW113058   2.710   5.715   2.018
 4053SOL    HW213059   2.850   5.633   2.042
 4054SOL     OW13060   5.292   1.380   6.708
 4054SOL    HW113061   5.311   1.362   6.611
 4054SOL    HW213062   5.339   1.312   6.764
 4055SOL     OW13063   4.824   4.132   6.051
 4055SOL    HW113064   4.785   4.162   6.138
 4055SOL    HW213065   4.773   4.053   6.017
 4056SOL     OW13066   4.322   3.416   0.019
 4056SOL    HW113067   4.247   3.475   7.010
 4056SOL    HW213068   4.384   3.398   6.965
 4057SOL     OW13069   6.769   2.574   0.711
 4057SOL    HW113070   6.844   2.600   0.650
 4057SOL    HW213071   6.718   2.498   0.670
 4058SOL     OW13072   1.496   3.924   3.885
 4058SOL    HW113073   1.580   3.870   3.893
 4058SOL    HW213074   1.468   3.929   3.790
 4059SOL     OW13075   6.661   2.213   4.848
 4059SOL    HW113076   6.694   2.155   4.921
 4059SOL    HW213077   6.713   2.196   4.765
 4060SOL     OW13078   2.212   6.824   6.180
 4060SOL    HW113079   2.261   6.784   6.102
 4060SOL    HW213080   2.213   6.924   6.172
 4061SOL     OW13081   1.765   2.725   1.918
 4061SOL    HW113082   1.827   2.739   1.841
 4061SOL    HW213083   1.721   2.636   1.909
 4062SOL     OW13084   2.438   1.032   3.410
 4062SOL    HW113085   2.344   1.065   3.418
 4062SOL    HW213086   2.498   1.107   3.381
 4063SOL     OW13087   4.278   6.696   5.749
 4063SOL    HW113088   4.247   6.626   5.685
 4063SOL    HW213089   4.323   6.653   5.827
 4064SOL     OW13090   6.405   0.166   4.366
 4064SOL    HW113091   6.383   0.253   4.321
 4064SOL    HW213092   6.410   0.180   4.465
 4065SOL     OW13093   0.645   4.809   5.818
 4065SOL    HW113094   0.622   4.713   5.798
 4065SOL    HW213095   0.704   4.812   5.899
 4066SOL     OW13096   4.824   3.941   2.089
 4066SOL    HW113097   4.792   3.929   1.995
 4066SOL    HW213098   4.841   3.852   2.130
 4067SOL     OW13099   5.179   0.200   1.737
 4067SOL    HW113100   5.148   0.247   1.655
 4067SOL    HW213101   5.226   0.265   1.798
 4068SOL     OW13102   5.147   0.027   4.425
 4068SOL    HW113103   5.193   0.055   4.509
 4068SOL    HW213104   5.171   6.954   4.404
 4069SOL     OW13105   6.390   5.849   0.878
 4069SOL    HW113106   6.397   5.862   0.779
 4069SOL    HW213107   6.478   5.865   0.921
 4070SOL     OW13108   0.394   3.669   3.024
 4070SOL    HW113109   0.302   3.631   3.020
 4070SOL    HW213110   0.420   3.704   2.934
 4071SOL     OW13111   2.740   6.910   4.549
 4071SOL    HW113112   2.801   6.988   4.532
 4071SOL    HW213113   2.645   6.941   4.544
 4072SOL     OW13114   0.075   0.480   4.856
 4072SOL    HW113115   7.012   0.533   4.857
 4072SOL    HW213116   0.094   0.451   4.762
 4073SOL     OW13117   2.516   4.508   1.608
 4073SOL    HW113118   2.509   4.544   1.516
 4073SOL    HW213119   2.605   4.462   1.620
 4074SOL     OW13120   6.988   2.382   1.777
 4074SOL    HW113121   7.005   2.452   1.846
 4074SOL    HW213122   0.002   2.412   1.689
 4075SOL     OW13123   7.018   0.749   3.988
 4075SOL    HW113124   0.041   0.725   3.902
 4075SOL    HW213125   6.950   0.820   3.972
 4076SOL     OW13126   1.601   3.465   3.258
 4076SOL    HW113127   1.560   3.381   3.221
 4076SOL    HW213128   1.686   3.485   3.207
 4077SOL     OW13129   3.527   0.660   1.830
 4077SOL    HW113130   3.604   0.622   1.778
 4077SOL    HW213131   3.445   0.658   1.774
 4078SOL     OW13132   4.743   4.125   2.639
 4078SOL    HW113133   4.820   4.070   2.607
 4078SOL    HW213134   4.662   4.103   2.585
 4079SOL     OW13135   4.398   0.783   2.929
 4079SOL    HW113136   4.430   0.801   2.836
 4079SOL    HW213137   4.308   0.824   2.942
 4080SOL     OW13138   4.039   3.703   4.262
 4080SOL    HW113139   3.951   3.668   4.230
 4080SOL    HW213140   4.052   3.796   4.227
 4081SOL     OW13141   2.529   6.721   0.646
 4081SOL    HW113142   2.617   6.767   0.632
 4081SOL    HW213143   2.513   6.710   0.744
 4082SOL     OW13144   1.497   1.290   6.221
 4082SOL    HW113145   1.514   1.226   6.295
 4082SOL    HW213146   1.579   1.299   6.164
 4083SOL     OW13147   5.757   3.882   2.211
 4083SOL    HW113148   5.693   3.905   2.285
 4083SOL    HW213149   5.797   3.965   2.174
 4084SOL     OW13150   4.184   5.993   3.172
 4084SOL    HW113151   4.122   6.037   3.237
 4084SOL    HW213152   4.157   5.898   3.158
 4085SOL     OW13153   1.850   4.534   2.818
 4085SOL    HW113154   1.929   4.535   2.879
 4085SOL    HW213155   1.842   4.444   2.775
 4086SOL     OW13156   6.205   5.120   5.510
 4086SOL    HW113157   6.301   5.134   5.489
 4086SOL    HW213158   6.191   5.027   5.543
 4087SOL     OW13159   1.106   1.349   1.380
 4087SOL    HW113160   1.010   1.339   1.404
 4087SOL    HW213161   1.121   1.316   1.287
 4088SOL     OW13162   0.378   2.141   4.722
 4088SOL    HW113163   0.371   2.119   4.819
 4088SOL    HW213164   0.327   2.226   4.703
 4089SOL     OW13165   6.706   6.301   2.721
 4089SOL    HW113166   6.804   6.317   2.729
 4089SOL    HW213167   6.659   6.389   2.710
 4090SOL     OW13168   3.373   2.387   5.609
 4090SOL    HW113169   3.446   2.426   5.553
 4090SOL    HW213170   3.384   2.419   5.703
 4091SOL     OW13171   4.008   0.055   3.189
 4091SOL    HW113172   3.925   0.051   3.245
 4091SOL    HW213173   4.054   0.142   3.203
 4092SOL     OW13174   3.925   1.895   6.819
 4092SOL    HW113175   3.977   1.912   6.903
 4092SOL    HW213176   3.885   1.980   6.787
 4093SOL     OW13177   5.775   4.410   0.849
 4093SOL    HW113178   5.678   4.414   0.873
 4093SOL    HW213179   5.811   4.318   0.869
 4094SOL     OW13180   5.986   5.783   0.478
 4094SOL    HW113181   6.058   5.741   0.534
 4094SOL    HW213182   5.948   5.714   0.417
 4095SOL     OW13183   1.426   4.533   0.632
 4095SOL    HW113184   1.511   4.523   0.580
 4095SOL    HW213185   1.447   4.568   0.723
 4096SOL     OW13186   0.904   6.219   5.530
 4096SOL    HW113187   0.827   6.282   5.524
 4096SOL    HW213188   0.880   6.141   5.587
 4097SOL     OW13189   1.508   4.290   5.965
 4097SOL    HW113190   1.589   4.296   5.908
 4097SOL    HW213191   1.507   4.202   6.013
 4098SOL     OW13192   1.319   5.861   1.951
 4098SOL    HW113193   1.267   5.873   2.036
 4098SOL    HW213194   1.415   5.884   1.967
 4099SOL     OW13195   0.237   2.773   5.560
 4099SOL    HW113196   0.193   2.819   5.638
 4099SOL    HW213197   0.335   2.766   5.577
 4100SOL     OW13198   1.559   1.388   3.207
 4100SOL    HW113199   1.462   1.376   3.184
 4100SOL    HW213200   1.570   1.468   3.266
 4101SOL     OW13201   5.516   5.997   6.034
 4101SOL    HW113202   5.445   6.055   6.074
 4101SOL    HW213203   5.521   6.013   5.936
 4102SOL     OW13204   3.124   5.592   0.621
 4102SOL    HW113205   3.127   5.686   0.586
 4102SOL    HW213206   3.141   5.528   0.546
 4103SOL     OW13207   2.257   5.677   2.348
 4103SOL    HW113208   2.233   5.763   2.393
 4103SOL    HW213209   2.356   5.676   2.329
 4104SOL     OW13210   2.295   5.538   4.994
 4104SOL    HW113211   2.309   5.637   4.996
 4104SOL    HW213212   2.237   5.511   5.071
 4105SOL     OW13213   3.932   0.406   1.319
 4105SOL    HW113214   3.941   0.491   1.268
 4105SOL    HW213215   3.971   0.417   1.410
 4106SOL     OW13216   1.742   6.896   2.979
 4106SOL    HW113217   1.672   6.846   2.928
 4106SOL    HW213218   1.832   6.877   2.939
 4107SOL     OW13219   3.097   2.482   1.332
 4107SOL    HW113220   3.090   2.436   1.420
 4107SOL    HW213221   3.161   2.433   1.273
 4108SOL     OW13222   0.888   5.586   6.029
 4108SOL    HW113223   0.862   5.540   5.944
 4108SOL    HW213224   0.873   5.684   6.021
 4109SOL     OW13225   5.821   0.398   4.819
 4109SOL    HW113226   5.737   0.451   4.829
 4109SOL    HW213227   5.800   0.308   4.783
 4110SOL     OW13228   4.998   2.626   0.320
 4110SOL    HW113229   5.081   2.618   0.375
 4110SOL    HW213230   4.950   2.539   0.318
 4111SOL     OW13231   6.241   4.749   4.426
 4111SOL    HW113232   6.183   4.706   4.356
 4111SOL    HW213233   6.304   4.682   4.464
 4112SOL     OW13234   3.402   4.532   5.397
 4112SOL    HW113235   3.488   4.579   5.378
 4112SOL    HW213236   3.415   4.468   5.472
 4113SOL     OW13237   5.484   6.034   5.256
 4113SOL    HW113238   5.497   6.050   5.159
 4113SOL    HW213239   5.550   6.088   5.308
 4114SOL     OW13240   5.520   1.989   3.857
 4114SOL    HW113241   5.485   2.052   3.926
 4114SOL    HW213242   5.577   1.919   3.901
 4115SOL     OW13243   5.026   0.655   4.745
 4115SOL    HW113244   4.979   0.634   4.660
 4115SOL    HW213245   5.045   0.754   4.749
 4116SOL     OW13246   5.706   3.733   2.782
 4116SOL    HW113247   5.801   3.734   2.814
 4116SOL    HW213248   5.647   3.776   2.851
 4117SOL     OW13249   0.524   2.325   2.579
 4117SOL    HW113250   0.599   2.387   2.604
 4117SOL    HW213251   0.467   2.307   2.659
 4118SOL     OW13252   0.869   1.471   1.708
 4118SOL    HW113253   0.963   1.503   1.723
 4118SOL    HW213254   0.868   1.406   1.632
 4119SOL     OW13255   6.256   1.135   4.566
 4119SOL    HW113256   6.190   1.147   4.641
 4119SOL    HW213257   6.234   1.052   4.515
 4120SOL     OW13258   1.570   0.068   0.303
 4120SOL    HW113259   1.503   0.003   0.267
 4120SOL    HW213260   1.550   0.160   0.268
 4121SOL     OW13261   6.532   6.939   1.347
 4121SOL    HW113262   6.571   6.985   1.427
 4121SOL    HW213263   6.603   6.927   1.278
 4122SOL     OW13264   1.069   4.778   3.452
 4122SOL    HW113265   1.104   4.774   3.546
 4122SOL    HW213266   1.045   4.686   3.422
 4123SOL     OW13267   6.109   5.020   1.988
 4123SOL    HW113268   6.078   5.005   1.894
 4123SOL    HW213269   6.201   5.057   1.988
 4124SOL     OW13270   5.637   5.771   0.232
 4124SOL    HW113271   5.651   5.821   0.147
 4124SOL    HW213272   5.584   5.827   0.295
 4125SOL     OW13273   1.462   3.300   0.239
 4125SOL    HW113274   1.527   3.372   0.264
 4125SOL    HW213275   1.442   3.306   0.141
 4126SOL     OW13276   2.359   4.458   2.704
 4126SOL    HW113277   2.270   4.473   2.662
 4126SOL    HW213278   2.413   4.543   2.700
 4127SOL     OW13279   4.639   2.686   4.652
 4127SOL    HW113280   4.694   2.697   4.735
 4127SOL    HW213281   4.554   2.638   4.674
 4128SOL     OW13282   6.387   2.912   6.943
 4128SOL    HW113283   6.317   2.848   6.910
 4128SOL    HW213284   6.353   2.961   0.001
 4129SOL     OW13285   3.353   6.307   2.051
 4129SOL    HW113286   3.357   6.271   1.958
 4129SOL    HW213287   3.385   6.238   2.116
 4130SOL     OW13288   4.795   1.728   6.914
 4130SOL    HW113289   4.828   1.640   6.948
 4130SOL    HW213290   4.871   1.792   6.906
 4131SOL     OW13291   5.661   6.018   4.712
 4131SOL    HW113292   5.700   5.980   4.795
 4131SOL    HW213293   5.642   5.945   4.647
 4132SOL     OW13294   0.106   3.422   2.358
 4132SOL    HW113295   0.125   3.409   2.261
 4132SOL    HW213296   0.022   3.373   2.383
 4133SOL     OW13297   5.126   6.606   3.629
 4133SOL    HW113298   5.144   6.578   3.535
 4133SOL    HW213299   5.175   6.545   3.691
 4134SOL     OW13300   2.179   2.845   1.265
 4134SOL    HW113301   2.261   2.833   1.209
 4134SOL    HW213302   2.185   2.786   1.346
 4135SOL     OW13303   6.381   0.678   0.544
 4135SOL    HW113304   6.468   0.721   0.568
 4135SOL    HW213305   6.387   0.580   0.561
 4136SOL     OW13306   0.920   5.099   0.578
 4136SOL    HW113307   0.942   5.039   0.500
 4136SOL    HW213308   0.920   5.045   0.662
 4137SOL     OW13309   0.550   2.229   5.180
 4137SOL    HW113310   0.622   2.193   5.120
 4137SOL    HW213311   0.591   2.271   5.261
 4138SOL     OW13312   5.539   6.517   6.478
 4138SOL    HW113313   5.500   6.588   6.419
 4138SOL    HW213314   5.469   6.448   6.496
 4139SOL     OW13315   1.358   4.005   2.052
 4139SOL    HW113316   1.365   4.099   2.085
 4139SOL    HW213317   1.310   3.949   2.120
 4140SOL     OW13318   2.151   6.704   1.045
 4140SOL    HW113319   2.245   6.740   1.046
 4140SOL    HW213320   2.091   6.772   1.002
 4141SOL     OW13321   5.517   0.186   5.770
 4141SOL    HW113322   5.464   0.222   5.694
 4141SOL    HW213323   5.516   0.086   5.768
 4142SOL     OW13324   0.595   6.699   2.150
 4142SOL    HW113325   0.504   6.739   2.157
 4142SOL    HW213326   0.617   6.651   2.235
 4143SOL     OW13327   5.868   3.652   0.233
 4143SOL    HW113328   5.926   3.648   0.151
 4143SOL    HW213329   5.778   3.687   0.208
 4144SOL     OW13330   4.955   0.721   1.706
 4144SOL    HW113331   4.995   0.632   1.726
 4144SOL    HW213332   5.018   0.775   1.650
 4145SOL     OW13333   4.162   1.139   1.001
 4145SOL    HW113334   4.147   1.234   0.974
 4145SOL    HW213335   4.206   1.090   0.926
 4146SOL     OW13336   2.773   1.267   1.520
 4146SOL    HW113337   2.822   1.326   1.455
 4146SOL    HW213338   2.686   1.238   1.479
 4147SOL     OW13339   5.571   4.151   0.064
 4147SOL    HW113340   5.580   4.088   7.009
 4147SOL    HW213341   5.492   4.210   0.050
 4148SOL     OW13342   3.397   0.244   6.579
 4148SOL    HW113343   3.357   0.208   6.495
 4148SOL    HW213344   3.404   0.170   6.646
 4149SOL     OW13345   1.639   2.655   6.091
 4149SOL    HW113346   1.547   2.691   6.075
 4149SOL    HW213347   1.676   2.618   6.005
 4150SOL     OW13348   6.447   0.967   0.793
 4150SOL    HW113349   6.374   0.979   0.726
 4150SOL    HW213350   6.467   1.056   0.835
 4151SOL     OW13351   3.546   5.924   4.142
 4151SOL    HW113352   3.580   6.018   4.145
 4151SOL    HW213353   3.617   5.862   4.174
 4152SOL     OW13354   2.717   3.653   1.674
 4152SOL    HW113355   2.747   3.619   1.584
 4152SOL    HW213356   2.629   3.612   1.697
 4153SOL     OW13357   6.047   6.568   6.902
 4153SOL    HW113358   5.999   6.541   6.818
 4153SOL    HW213359   5.985   6.620   6.961
 4154SOL     OW13360   0.792   0.195   3.691
 4154SOL    HW113361   0.842   0.119   3.732
 4154SOL    HW213362   0.740   0.243   3.762
 4155SOL     OW13363   5.010   1.166   2.544
 4155SOL    HW113364   4.913   1.182   2.529
 4155SOL    HW213365   5.062   1.210   2.471
 4156SOL     OW13366   0.485   5.742   6.001
 4156SOL    HW113367   0.522   5.771   5.913
 4156SOL    HW213368   0.534   5.660   6.032
 4157SOL     OW13369   4.248   6.322   0.407
 4157SOL    HW113370   4.264   6.372   0.322
 4157SOL    HW213371   4.153   6.291   0.411
 4158SOL     OW13372   6.573   0.648   6.265
 4158SOL    HW113373   6.626   0.631   6.348
 4158SOL    HW213374   6.603   0.734   6.223
 4159SOL     OW13375   3.799   0.979   4.517
 4159SOL    HW113376   3.754   1.047   4.460
 4159SOL    HW213377   3.865   1.025   4.578
 4160SOL     OW13378   1.052   0.930   5.841
 4160SOL    HW113379   0.955   0.953   5.829
 4160SOL    HW213380   1.108   0.994   5.789
 4161SOL     OW13381   3.253   3.491   4.924
 4161SOL    HW113382   3.347   3.461   4.913
 4161SOL    HW213383   3.231   3.499   5.021
 4162SOL     OW13384   4.764   0.063   1.035
 4162SOL    HW113385   4.787   0.061   1.132
 4162SOL    HW213386   4.754   6.992   1.001
 4163SOL     OW13387   4.334   6.471   1.701
 4163SOL    HW113388   4.393   6.534   1.650
 4163SOL    HW213389   4.276   6.421   1.637
 4164SOL     OW13390   5.622   1.162   0.011
 4164SOL    HW113391   5.663   1.252   0.002
 4164SOL    HW213392   5.694   1.093   0.020
 4165SOL     OW13393   3.300   0.946   4.495
 4165SOL    HW113394   3.362   0.927   4.571
 4165SOL    HW213395   3.298   0.868   4.433
 4166SOL     OW13396   5.597   2.174   2.708
 4166SOL    HW113397   5.512   2.151   2.661
 4166SOL    HW213398   5.633   2.259   2.671
 4167SOL     OW13399   3.623   5.536   5.121
 4167SOL    HW113400   3.579   5.460   5.170
 4167SOL    HW213401   3.570   5.557   5.039
 4168SOL     OW13402   5.831   3.223   6.976
 4168SOL    HW113403   5.887   3.198   6.897
 4168SOL    HW213404   5.836   3.150   0.022
 4169SOL     OW13405   5.249   4.575   0.047
 4169SOL    HW113406   5.291   4.487   0.071
 4169SOL    HW213407   5.197   4.610   0.124
 4170SOL     OW13408   1.274   2.589   5.266
 4170SOL    HW113409   1.348   2.650   5.236
 4170SOL    HW213410   1.191   2.611   5.216
 4171SOL     OW13411   0.179   6.863   5.763
 4171SOL    HW113412   0.115   6.938   5.745
 4171SOL    HW213413   0.212   6.870   5.857
 4172SOL     OW13414   3.377   3.645   0.208
 4172SOL    HW113415   3.458   3.588   0.195
 4172SOL    HW213416   3.343   3.636   0.301
 4173SOL     OW13417   5.624   1.548   5.961
 4173SOL    HW113418   5.554   1.508   6.020
 4173SOL    HW213419   5.700   1.581   6.017
 4174SOL     OW13420   2.530   6.587   3.618
 4174SOL    HW113421   2.618   6.599   3.663
 4174SOL    HW213422   2.539   6.520   3.544
 4175SOL     OW13423   1.954   3.297   6.586
 4175SOL    HW113424   2.005   3.230   6.642
 4175SOL    HW213425   2.000   3.308   6.498
 4176SOL     OW13426   5.022   6.799   4.674
 4176SOL    HW113427   5.066   6.789   4.585
 4176SOL    HW213428   5.064   6.875   4.724
 4177SOL     OW13429   5.118   6.071   4.041
 4177SOL    HW113430   5.034   6.035   4.000
 4177SOL    HW213431   5.122   6.047   4.138
 4178SOL     OW13432   2.618   6.463   1.061
 4178SOL    HW113433   2.607   6.445   1.159
 4178SOL    HW213434   2.655   6.382   1.016
 4179SOL     OW13435   3.493   1.962   0.028
 4179SOL    HW113436   3.487   2.038   0.092
 4179SOL    HW213437   3.413   1.963   6.989
 4180SOL     OW13438   3.815   4.461   0.162
 4180SOL    HW113439   3.828   4.368   0.194
 4180SOL    HW213440   3.750   4.462   0.086
 4181SOL     OW13441   4.931   6.319   5.969
 4181SOL    HW113442   5.020   6.356   5.996
 4181SOL    HW213443   4.917   6.336   5.871
 4182SOL     OW13444   6.101   5.287   5.708
 4182SOL    HW113445   6.180   5.322   5.759
 4182SOL    HW213446   6.132   5.252   5.619
 4183SOL     OW13447   4.651   2.576   6.779
 4183SOL    HW113448   4.605   2.609   6.861
 4183SOL    HW213449   4.595   2.507   6.734
 4184SOL     OW13450   3.504   5.912   3.534
 4184SOL    HW113451   3.540   5.840   3.475
 4184SOL    HW213452   3.416   5.944   3.499
 4185SOL     OW13453   4.478   4.546   3.442
 4185SOL    HW113454   4.500   4.540   3.539
 4185SOL    HW213455   4.558   4.577   3.391
 4186SOL     OW13456   1.789   4.979   1.190
 4186SOL    HW113457   1.787   5.062   1.246
 4186SOL    HW213458   1.696   4.951   1.167
 4187SOL     OW13459   1.396   3.493   6.146
 4187SOL    HW113460   1.312   3.492   6.200
 4187SOL    HW213461   1.462   3.557   6.187
 4188SOL     OW13462   5.449   0.460   6.218
 4188SOL    HW113463   5.523   0.476   6.282
 4188SOL    HW213464   5.476   0.392   6.150
 4189SOL     OW13465   3.873   5.119   4.165
 4189SOL    HW113466   3.813   5.061   4.110
 4189SOL    HW213467   3.837   5.126   4.258
 4190SOL     OW13468   6.565   5.726   2.065
 4190SOL    HW113469   6.648   5.754   2.018
 4190SOL    HW213470   6.490   5.718   1.999
 4191SOL     OW13471   4.788   3.039   6.206
 4191SOL    HW113472   4.861   3.026   6.139
 4191SOL    HW213473   4.725   3.110   6.175
 4192SOL     OW13474   2.033   3.898   6.230
 4192SOL    HW113475   2.118   3.916   6.182
 4192SOL    HW213476   2.050   3.891   6.328
 4193SOL     OW13477   5.049   6.525   1.298
 4193SOL    HW113478   5.054   6.468   1.216
 4193SOL    HW213479   5.134   6.577   1.307
 4194SOL     OW13480   6.059   0.033   6.949
 4194SOL    HW113481   6.091   7.017   6.862
 4194SOL    HW213482   6.128   0.095   6.986
 4195SOL     OW13483   1.976   6.386   0.515
 4195SOL    HW113484   2.002   6.384   0.612
 4195SOL    HW213485   2.054   6.412   0.459
 4196SOL     OW13486   6.384   3.564   3.042
 4196SOL    HW113487   6.459   3.590   2.982
 4196SOL    HW213488   6.336   3.647   3.073
 4197SOL     OW13489   4.243   0.600   6.573
 4197SOL    HW113490   4.204   0.683   6.611
 4197SOL    HW213491   4.340   0.593   6.599
 4198SOL     OW13492   6.297   2.021   1.598
 4198SOL    HW113493   6.364   1.947   1.607
 4198SOL    HW213494   6.249   2.012   1.511
 4199SOL     OW13495   0.986   3.525   0.194
 4199SOL    HW113496   1.044   3.455   0.234
 4199SOL    HW213497   0.933   3.485   0.119
 4200SOL     OW13498   5.203   2.114   2.814
 4200SOL    HW113499   5.205   2.111   2.914
 4200SOL    HW213500   5.109   2.107   2.782
 4201SOL     OW13501   4.904   0.177   5.354
 4201SOL    HW113502   4.987   0.128   5.379
 4201SOL    HW213503   4.848   0.120   5.293
 4202SOL     OW13504   4.153   3.897   1.776
 4202SOL    HW113505   4.227   3.835   1.751
 4202SOL    HW213506   4.131   3.885   1.873
 4203SOL     OW13507   6.390   4.397   4.354
 4203SOL    HW113508   6.418   4.477   4.301
 4203SOL    HW213509   6.399   4.417   4.451
 4204SOL     OW13510   2.771   4.243   6.066
 4204SOL    HW113511   2.766   4.249   5.966
 4204SOL    HW213512   2.794   4.333   6.104
 4205SOL     OW13513   5.134   5.209   6.448
 4205SOL    HW113514   5.122   5.143   6.522
 4205SOL    HW213515   5.070   5.285   6.460
 4206SOL     OW13516   2.176   2.731   4.681
 4206SOL    HW113517   2.204   2.647   4.728
 4206SOL    HW213518   2.248   2.759   4.618
 4207SOL     OW13519   2.634   2.828   1.548
 4207SOL    HW113520   2.658   2.795   1.456
 4207SOL    HW213521   2.678   2.771   1.617
 4208SOL     OW13522   1.532   2.299   3.207
 4208SOL    HW113523   1.483   2.216   3.179
 4208SOL    HW213524   1.569   2.345   3.126
 4209SOL     OW13525   6.785   5.063   2.792
 4209SOL    HW113526   6.793   4.963   2.800
 4209SOL    HW213527   6.704   5.093   2.840
 4210SOL     OW13528   3.447   5.485   5.570
 4210SOL    HW113529   3.422   5.417   5.502
 4210SOL    HW213530   3.546   5.498   5.569
 4211SOL     OW13531   5.029   3.241   5.750
 4211SOL    HW113532   5.070   3.251   5.659
 4211SOL    HW213533   4.936   3.205   5.741
 4212SOL     OW13534   0.087   3.127   2.917
 4212SOL    HW113535   0.114   3.145   2.822
 4212SOL    HW213536   0.142   3.053   2.954
 4213SOL     OW13537   3.196   1.233   3.833
 4213SOL    HW113538   3.162   1.147   3.794
 4213SOL    HW213539   3.276   1.215   3.890
 4214SOL     OW13540   6.464   6.060   3.936
 4214SOL    HW113541   6.381   6.113   3.952
 4214SOL    HW213542   6.538   6.096   3.993
 4215SOL     OW13543   6.359   6.984   4.703
 4215SOL    HW113544   6.281   6.943   4.750
 4215SOL    HW213545   6.444   6.948   4.742
 4216SOL     OW13546   1.433   5.827   2.214
 4216SOL    HW113547   1.348   5.801   2.260
 4216SOL    HW213548   1.494   5.748   2.210
 4217SOL     OW13549   0.524   0.645   2.914
 4217SOL    HW113550   0.479   0.596   2.839
 4217SOL    HW213551   0.528   0.743   2.892
 4218SOL     OW13552   2.805   0.489   2.055
 4218SOL    HW113553   2.745   0.483   2.134
 4218SOL    HW213554   2.752   0.479   1.971
 4219SOL     OW13555   2.469   4.824   2.006
 4219SOL    HW113556   2.507   4.750   1.950
 4219SOL    HW213557   2.483   4.803   2.102
 4220SOL     OW13558   5.407   1.887   0.803
 4220SOL    HW113559   5.400   1.809   0.741
 4220SOL    HW213560   5.315   1.912   0.834
 4221SOL     OW13561   0.534   6.913   0.809
 4221SOL    HW113562   0.478   6.945   0.733
 4221SOL    HW213563   0.503   6.822   0.837
 4222SOL     OW13564   5.721   3.622   4.424
 4222SOL    HW113565   5.807   3.588   4.384
 4222SOL    HW213566   5.690   3.701   4.372
 4223SOL     OW13567   3.667   4.117   2.866
 4223SOL    HW113568   3.711   4.204   2.845
 4223SOL    HW213569   3.569   4.133   2.879
 4224SOL     OW13570   4.645   4.190   5.329
 4224SOL    HW113571   4.697   4.187   5.414
 4224SOL    HW213572   4.550   4.163   5.347
 4225SOL     OW13573   0.747   1.590   5.788
 4225SOL    HW113574   0.692   1.625   5.864
 4225SOL    HW213575   0.716   1.498   5.764
 4226SOL     OW13576   4.742   5.263   4.021
 4226SOL    HW113577   4.663   5.249   4.080
 4226SOL    HW213578   4.807   5.324   4.065
 4227SOL     OW13579   6.581   5.529   1.148
 4227SOL    HW113580   6.675   5.561   1.139
 4227SOL    HW213581   6.574   5.466   1.226
 4228SOL     OW13582   1.567   5.016   3.769
 4228SOL    HW113583   1.594   4.937   3.826
 4228SOL    HW213584   1.468   5.014   3.755
 4229SOL     OW13585   6.028   6.034   5.987
 4229SOL    HW113586   5.991   5.941   5.989
 4229SOL    HW213587   6.101   6.043   6.054
 4230SOL     OW13588   0.126   2.010   2.468
 4230SOL    HW113589   0.032   2.015   2.504
 4230SOL    HW213590   0.158   1.916   2.474
 4231SOL     OW13591   0.741   0.095   5.630
 4231SOL    HW113592   0.798   0.174   5.656
 4231SOL    HW213593   0.698   0.058   5.712
 4232SOL     OW13594   2.079   4.445   2.329
 4232SOL    HW113595   2.073   4.531   2.279
 4232SOL    HW213596   2.175   4.421   2.343
 4233SOL     OW13597   4.671   5.144   2.278
 4233SOL    HW113598   4.680   5.172   2.373
 4233SOL    HW213599   4.678   5.044   2.272
 4234SOL     OW13600   2.921   5.189   6.248
 4234SOL    HW113601   2.903   5.285   6.226
 4234SOL    HW213602   2.985   5.184   6.325
 4235SOL     OW13603   6.383   5.930   0.612
 4235SOL    HW113604   6.480   5.908   0.603
 4235SOL    HW213605   6.358   5.997   0.542
 4236SOL     OW13606   0.401   5.300   4.403
 4236SOL    HW113607   0.306   5.329   4.413
 4236SOL    HW213608   0.455   5.378   4.370
 4237SOL     OW13609   7.004   4.946   4.843
 4237SOL    HW113610   6.988   4.876   4.774
 4237SOL    HW213611   0.047   4.912   4.911
 4238SOL     OW13612   1.661   5.468   3.641
 4238SOL    HW113613   1.683   5.372   3.659
 4238SOL    HW213614   1.742   5.514   3.605
 4239SOL     OW13615   3.983   1.105   3.360
 4239SOL    HW113616   3.916   1.096   3.433
 4239SOL    HW213617   3.938   1.094   3.271
 4240SOL     OW13618   4.285   0.687   1.260
 4240SOL    HW113619   4.272   0.734   1.348
 4240SOL    HW213620   4.238   0.599   1.262
 4241SOL     OW13621   0.700   4.431   6.329
 4241SOL    HW113622   0.684   4.337   6.359
 4241SOL    HW213623   0.683   4.437   6.230
 4242SOL     OW13624   3.520   2.079   2.601
 4242SOL    HW113625   3.502   1.981   2.611
 4242SOL    HW213626   3.615   2.093   2.572
 4243SOL     OW13627   2.488   2.153   2.832
 4243SOL    HW113628   2.525   2.178   2.922
 4243SOL    HW213629   2.389   2.145   2.838
 4244SOL     OW13630   2.777   2.814   5.402
 4244SOL    HW113631   2.747   2.903   5.368
 4244SOL    HW213632   2.708   2.744   5.382
 4245SOL     OW13633   6.457   0.625   5.518
 4245SOL    HW113634   6.441   0.542   5.466
 4245SOL    HW213635   6.497   0.602   5.607
 4246SOL     OW13636   1.527   5.359   5.936
 4246SOL    HW113637   1.478   5.443   5.960
 4246SOL    HW213638   1.497   5.328   5.846
 4247SOL     OW13639   0.422   4.397   5.174
 4247SOL    HW113640   0.350   4.443   5.227
 4247SOL    HW213641   0.383   4.358   5.091
 4248SOL     OW13642   1.885   3.531   6.741
 4248SOL    HW113643   1.833   3.609   6.705
 4248SOL    HW213644   1.898   3.464   6.668
 4249SOL     OW13645   5.065   3.315   6.027
 4249SOL    HW113646   5.093   3.258   6.103
 4249SOL    HW213647   5.057   3.260   5.944
 4250SOL     OW13648   7.010   4.205   4.010
 4250SOL    HW113649   7.006   4.258   3.925
 4250SOL    HW213650   6.973   4.113   3.993
 4251SOL     OW13651   5.693   4.875   6.086
 4251SOL    HW113652   5.726   4.968   6.101
 4251SOL    HW213653   5.747   4.811   6.140
 4252SOL     OW13654   6.987   4.987   5.868
 4252SOL    HW113655   0.039   5.012   5.930
 4252SOL    HW213656   6.937   4.908   5.904
 4253SOL     OW13657   3.119   0.526   3.569
 4253SOL    HW113658   3.146   0.622   3.559
 4253SOL    HW213659   3.029   0.512   3.530
 4254SOL     OW13660   4.009   3.793   3.817
 4254SOL    HW113661   3.949   3.855   3.767
 4254SOL    HW213662   4.011   3.819   3.913
 4255SOL     OW13663   0.797   2.080   4.616
 4255SOL    HW113664   0.880   2.116   4.659
 4255SOL    HW213665   0.820   2.004   4.557
 4256SOL     OW13666   1.028   0.896   1.204
 4256SOL    HW113667   1.032   0.991   1.173
 4256SOL    HW213668   1.048   0.835   1.127
 4257SOL     OW13669   4.294   2.272   4.787
 4257SOL    HW113670   4.256   2.183   4.762
 4257SOL    HW213671   4.233   2.319   4.850
 4258SOL     OW13672   5.652   6.489   2.288
 4258SOL    HW113673   5.657   6.400   2.334
 4258SOL    HW213674   5.564   6.497   2.241
 4259SOL     OW13675   2.559   3.021   1.740
 4259SOL    HW113676   2.461   3.037   1.750
 4259SOL    HW213677   2.574   2.940   1.683
 4260SOL     OW13678   4.345   5.483   5.210
 4260SOL    HW113679   4.276   5.481   5.282
 4260SOL    HW213680   4.415   5.413   5.228
 4261SOL     OW13681   0.619   1.142   2.289
 4261SOL    HW113682   0.522   1.122   2.302
 4261SOL    HW213683   0.673   1.062   2.315
 4262SOL     OW13684   1.338   6.949   4.954
 4262SOL    HW113685   1.436   6.948   4.974
 4262SOL    HW213686   1.307   6.856   4.935
 4263SOL     OW13687   4.448   5.621   6.999
 4263SOL    HW113688   4.457   5.649   0.073
 4263SOL    HW213689   4.373   5.555   6.991
 4264SOL     OW13690   1.688   0.778   1.613
 4264SOL    HW113691   1.611   0.840   1.602
 4264SOL    HW213692   1.675   0.723   1.696
 4265SOL     OW13693   2.085   1.528   1.014
 4265SOL    HW113694   2.022   1.599   1.045
 4265SOL    HW213695   2.047   1.483   0.934
 4266SOL     OW13696   2.246   5.180   0.265
 4266SOL    HW113697   2.271   5.275   0.283
 4266SOL    HW213698   2.212   5.138   0.349
 4267SOL     OW13699   1.554   3.245   5.168
 4267SOL    HW113700   1.598   3.217   5.253
 4267SOL    HW213701   1.623   3.255   5.096
 4268SOL     OW13702   0.516   1.850   0.838
 4268SOL    HW113703   0.459   1.895   0.770
 4268SOL    HW213704   0.522   1.906   0.920
 4269SOL     OW13705   3.008   3.808   1.539
 4269SOL    HW113706   3.062   3.734   1.501
 4269SOL    HW213707   2.924   3.820   1.486
 4270SOL     OW13708   3.678   3.145   0.494
 4270SOL    HW113709   3.609   3.200   0.447
 4270SOL    HW213710   3.763   3.148   0.442
 4271SOL     OW13711   2.031   0.676   0.545
 4271SOL    HW113712   1.953   0.692   0.484
 4271SOL    HW213713   2.076   0.762   0.566
 4272SOL     OW13714   1.441   4.344   3.688
 4272SOL    HW113715   1.526   4.322   3.737
 4272SOL    HW213716   1.394   4.419   3.735
 4273SOL     OW13717   6.959   6.220   3.548
 4273SOL    HW113718   7.020   6.292   3.513
 4273SOL    HW213719   6.945   6.151   3.477
 4274SOL     OW13720   1.374   0.111   3.855
 4274SOL    HW113721   1.465   0.092   3.893
 4274SOL    HW213722   1.379   0.192   3.795
 4275SOL     OW13723   0.096   0.829   5.890
 4275SOL    HW113724   0.162   0.818   5.816
 4275SOL    HW213725   0.108   0.755   5.956
 4276SOL     OW13726   2.170   3.318   3.434
 4276SOL    HW113727   2.260   3.312   3.390
 4276SOL    HW213728   2.138   3.226   3.457
 4277SOL     OW13729   0.868   6.148   5.989
 4277SOL    HW113730   0.877   6.240   5.950
 4277SOL    HW213731   0.879   6.152   6.088
 4278SOL     OW13732   1.192   6.440   6.303
 4278SOL    HW113733   1.239   6.375   6.243
 4278SOL    HW213734   1.250   6.521   6.317
 4279SOL     OW13735   4.408   6.078   4.266
 4279SOL    HW113736   4.408   5.985   4.230
 4279SOL    HW213737   4.370   6.141   4.198
 4280SOL     OW13738   4.951   3.190   4.186
 4280SOL    HW113739   5.048   3.183   4.162
 4280SOL    HW213740   4.895   3.151   4.113
 4281SOL     OW13741   2.210   4.144   4.581
 4281SOL    HW113742   2.211   4.107   4.674
 4281SOL    HW213743   2.272   4.223   4.576
 4282SOL     OW13744   1.366   1.086   6.627
 4282SOL    HW113745   1.460   1.051   6.619
 4282SOL    HW213746   1.326   1.054   6.713
 4283SOL     OW13747   2.414   1.725   3.974
 4283SOL    HW113748   2.376   1.645   3.927
 4283SOL    HW213749   2.508   1.741   3.942
 4284SOL     OW13750   6.906   3.154   3.109
 4284SOL    HW113751   6.904   3.254   3.106
 4284SOL    HW213752   6.958   3.120   3.030
 4285SOL     OW13753   0.825   6.694   4.222
 4285SOL    HW113754   0.868   6.604   4.214
 4285SOL    HW213755   0.778   6.701   4.310
 4286SOL     OW13756   5.109   5.337   0.578
 4286SOL    HW113757   5.164   5.420   0.585
 4286SOL    HW213758   5.013   5.359   0.596
 4287SOL     OW13759   4.110   6.272   5.896
 4287SOL    HW113760   4.079   6.240   5.806
 4287SOL    HW213761   4.100   6.198   5.962
 4288SOL     OW13762   0.801   6.416   4.485
 4288SOL    HW113763   0.824   6.387   4.578
 4288SOL    HW213764   0.743   6.497   4.489
 4289SOL     OW13765   1.199   4.343   6.817
 4289SOL    HW113766   1.117   4.392   6.847
 4289SOL    HW213767   1.280   4.388   6.853
 4290SOL     OW13768   1.389   1.598   2.667
 4290SOL    HW113769   1.322   1.540   2.621
 4290SOL    HW213770   1.366   1.694   2.653
 4291SOL     OW13771   6.621   3.179   2.112
 4291SOL    HW113772   6.660   3.219   2.195
 4291SOL    HW213773   6.693   3.167   2.044
 4292SOL     OW13774   5.817   5.752   5.262
 4292SOL    HW113775   5.864   5.816   5.201
 4292SOL    HW213776   5.726   5.787   5.285
 4293SOL     OW13777   0.779   1.876   0.696
 4293SOL    HW113778   0.688   1.838   0.714
 4293SOL    HW213779   0.816   1.914   0.781
 4294SOL     OW13780   4.738   2.482   5.131
 4294SOL    HW113781   4.707   2.392   5.162
 4294SOL    HW213782   4.778   2.474   5.040
 4295SOL     OW13783   3.218   4.815   5.637
 4295SOL    HW113784   3.144   4.776   5.692
 4295SOL    HW213785   3.238   4.754   5.560
 4296SOL     OW13786   2.047   1.904   2.325
 4296SOL    HW113787   2.110   1.832   2.293
 4296SOL    HW213788   2.080   1.941   2.412
 4297SOL     OW13789   5.920   6.926   0.158
 4297SOL    HW113790   5.916   6.950   0.255
 4297SOL    HW213791   5.983   6.987   0.110
 4298SOL     OW13792   1.258   4.587   1.762
 4298SOL    HW113793   1.310   4.515   1.807
 4298SOL    HW213794   1.223   4.553   1.674
 4299SOL     OW13795   1.058   5.609   4.499
 4299SOL    HW113796   1.111   5.688   4.468
 4299SOL    HW213797   1.017   5.629   4.588
 4300SOL     OW13798   6.611   0.234   5.740
 4300SOL    HW113799   6.663   0.223   5.825
 4300SOL    HW213800   6.515   0.208   5.756
 4301SOL     OW13801   2.536   0.193   0.518
 4301SOL    HW113802   2.526   0.246   0.602
 4301SOL    HW213803   2.480   0.110   0.524
 4302SOL     OW13804   0.472   0.895   0.163
 4302SOL    HW113805   0.430   0.912   0.252
 4302SOL    HW213806   0.480   0.797   0.148
 4303SOL     OW13807   0.148   4.072   2.664
 4303SOL    HW113808   0.230   4.124   2.689
 4303SOL    HW213809   0.171   3.975   2.657
 4304SOL     OW13810   2.452   3.304   6.569
 4304SOL    HW113811   2.386   3.242   6.612
 4304SOL    HW213812   2.405   3.363   6.503
 4305SOL     OW13813   0.589   1.305   4.743
 4305SOL    HW113814   0.683   1.283   4.769
 4305SOL    HW213815   0.539   1.221   4.724
 4306SOL     OW13816   5.708   5.374   5.977
 4306SOL    HW113817   5.775   5.436   6.018
 4306SOL    HW213818   5.641   5.348   6.047
 4307SOL     OW13819   6.241   3.772   1.330
 4307SOL    HW113820   6.150   3.767   1.289
 4307SOL    HW213821   6.287   3.855   1.298
 4308SOL     OW13822   3.378   0.204   5.595
 4308SOL    HW113823   3.436   0.281   5.617
 4308SOL    HW213824   3.400   0.127   5.655
 4309SOL     OW13825   1.109   0.958   1.499
 4309SOL    HW113826   1.079   0.898   1.573
 4309SOL    HW213827   1.077   0.921   1.412
 4310SOL     OW13828   1.265   6.808   2.880
 4310SOL    HW113829   1.270   6.879   2.951
 4310SOL    HW213830   1.183   6.822   2.824
 4311SOL     OW13831   0.721   4.846   5.075
 4311SOL    HW113832   0.682   4.814   4.989
 4311SOL    HW213833   0.692   4.940   5.092
 4312SOL     OW13834   2.091   5.632   2.135
 4312SOL    HW113835   2.035   5.549   2.128
 4312SOL    HW213836   2.152   5.625   2.214
 4313SOL     OW13837   4.980   1.500   0.879
 4313SOL    HW113838   4.890   1.512   0.923
 4313SOL    HW213839   4.978   1.543   0.789
 4314SOL     OW13840   6.911   2.695   1.585
 4314SOL    HW113841   6.936   2.634   1.660
 4314SOL    HW213842   6.963   2.671   1.503
 4315SOL     OW13843   1.325   0.807   1.768
 4315SOL    HW113844   1.408   0.759   1.797
 4315SOL    HW213845   1.300   0.874   1.838
 4316SOL     OW13846   6.665   1.207   2.641
 4316SOL    HW113847   6.579   1.196   2.592
 4316SOL    HW213848   6.727   1.263   2.587
 4317SOL     OW13849   3.999   0.565   3.124
 4317SOL    HW113850   4.046   0.600   3.043
 4317SOL    HW213851   3.938   0.636   3.160
 4318SOL     OW13852   0.037   2.268   4.946
 4318SOL    HW113853   7.007   2.307   5.022
 4318SOL    HW213854   0.104   2.335   4.914
 4319SOL     OW13855   4.715   3.230   6.509
 4319SOL    HW113856   4.773   3.150   6.493
 4319SOL    HW213857   4.632   3.202   6.557
 4320SOL     OW13858   0.783   6.657   3.419
 4320SOL    HW113859   0.804   6.745   3.461
 4320SOL    HW213860   0.846   6.588   3.453
 4321SOL     OW13861   7.009   6.858   3.973
 4321SOL    HW113862   0.031   6.925   3.913
 4321SOL    HW213863   6.910   6.863   3.961
 4322SOL     OW13864   0.222   0.951   6.733
 4322SOL    HW113865   0.251   0.954   6.829
 4322SOL    HW213866   0.240   1.039   6.690
 4323SOL     OW13867   6.895   2.839   4.611
 4323SOL    HW113868   6.880   2.764   4.675
 4323SOL    HW213869   6.909   2.803   4.519
 4324SOL     OW13870   5.833   2.852   5.820
 4324SOL    HW113871   5.895   2.835   5.897
 4324SOL    HW213872   5.738   2.841   5.850
 4325SOL     OW13873   2.489   2.276   6.482
 4325SOL    HW113874   2.446   2.195   6.442
 4325SOL    HW213875   2.585   2.280   6.454
 4326SOL     OW13876   0.630   2.452   5.394
 4326SOL    HW113877   0.630   2.458   5.493
 4326SOL    HW213878   0.724   2.446   5.361
 4327SOL     OW13879   4.797   0.605   3.120
 4327SOL    HW113880   4.850   0.618   3.204
 4327SOL    HW213881   4.753   0.515   3.122
 4328SOL     OW13882   6.464   5.269   0.785
 4328SOL    HW113883   6.421   5.238   0.869
 4328SOL    HW213884   6.446   5.367   0.771
 4329SOL     OW13885   5.093   1.343   6.374
 4329SOL    HW113886   5.056   1.261   6.332
 4329SOL    HW213887   5.170   1.319   6.433
 4330SOL     OW13888   0.866   0.440   6.344
 4330SOL    HW113889   0.900   0.374   6.277
 4330SOL    HW213890   0.920   0.435   6.428
 4331SOL     OW13891   5.472   2.629   6.308
 4331SOL    HW113892   5.388   2.649   6.359
 4331SOL    HW213893   5.528   2.564   6.359
 4332SOL     OW13894   6.433   4.415   2.194
 4332SOL    HW113895   6.428   4.508   2.156
 4332SOL    HW213896   6.496   4.414   2.271
 4333SOL     OW13897   6.417   2.095   4.811
 4333SOL    HW113898   6.506   2.141   4.820
 4333SOL    HW213899   6.345   2.157   4.842
 4334SOL     OW13900   4.301   7.003   1.673
 4334SOL    HW113901   4.265   6.934   1.611
 4334SOL    HW213902   4.334   6.959   1.756
 4335SOL     OW13903   4.471   4.415   6.320
 4335SOL    HW113904   4.431   4.425   6.411
 4335SOL    HW213905   4.480   4.506   6.278
 4336SOL     OW13906   0.935   0.298   5.626
 4336SOL    HW113907   1.001   0.368   5.656
 4336SOL    HW213908   0.858   0.343   5.580
 4337SOL     OW13909   1.515   5.989   6.263
 4337SOL    HW113910   1.480   6.042   6.186
 4337SOL    HW213911   1.615   5.988   6.259
 4338SOL     OW13912   5.202   6.637   2.975
 4338SOL    HW113913   5.194   6.551   2.925
 4338SOL    HW213914   5.122   6.651   3.032
 4339SOL     OW13915   6.996   1.192   0.302
 4339SOL    HW113916   6.906   1.179   0.260
 4339SOL    HW213917   0.025   1.106   0.299
 4340SOL     OW13918   4.963   3.147   1.562
 4340SOL    HW113919   5.052   3.113   1.534
 4340SOL    HW213920   4.953   3.138   1.661
 4341SOL     OW13921   1.336   3.515   0.535
 4341SOL    HW113922   1.341   3.465   0.621
 4341SOL    HW213923   1.298   3.456   0.464
 4342SOL     OW13924   6.321   2.782   3.175
 4342SOL    HW113925   6.252   2.740   3.117
 4342SOL    HW213926   6.299   2.879   3.189
 4343SOL     OW13927   3.412   3.783   1.501
 4343SOL    HW113928   3.407   3.882   1.489
 4343SOL    HW213929   3.399   3.760   1.597
 4344SOL     OW13930   2.521   3.486   1.654
 4344SOL    HW113931   2.459   3.494   1.732
 4344SOL    HW213932   2.507   3.397   1.610
 4345SOL     OW13933   2.590   0.680   5.794
 4345SOL    HW113934   2.633   0.734   5.867
 4345SOL    HW213935   2.515   0.626   5.832
 4346SOL     OW13936   6.833   3.708   1.882
 4346SOL    HW113937   6.878   3.672   1.800
 4346SOL    HW213938   6.821   3.635   1.949
 4347SOL     OW13939   5.043   6.147   2.549
 4347SOL    HW113940   5.021   6.097   2.465
 4347SOL    HW213941   5.098   6.227   2.527
 4348SOL     OW13942   0.681   2.934   0.330
 4348SOL    HW113943   0.740   3.006   0.292
 4348SOL    HW213944   0.690   2.933   0.430
 4349SOL     OW13945   5.906   0.951   0.683
 4349SOL    HW113946   5.966   0.875   0.711
 4349SOL    HW213947   5.828   0.956   0.746
 4350SOL     OW13948   3.310   0.336   3.485
 4350SOL    HW113949   3.255   0.269   3.435
 4350SOL    HW213950   3.251   0.409   3.518
 4351SOL     OW13951   3.427   7.015   0.089
 4351SOL    HW113952   3.505   0.045   0.054
 4351SOL    HW213953   3.348   0.007   0.029
 4352SOL     OW13954   6.123   1.749   1.119
 4352SOL    HW113955   6.111   1.848   1.126
 4352SOL    HW213956   6.034   1.706   1.102
 4353SOL     OW13957   3.291   5.844   0.987
 4353SOL    HW113958   3.292   5.891   1.076
 4353SOL    HW213959   3.203   5.860   0.943
 4354SOL     OW13960   2.404   1.478   1.610
 4354SOL    HW113961   2.350   1.554   1.647
 4354SOL    HW213962   2.480   1.514   1.557
 4355SOL     OW13963   4.624   0.401   6.729
 4355SOL    HW113964   4.663   0.455   6.655
 4355SOL    HW213965   4.633   0.304   6.707
 4356SOL     OW13966   3.983   3.465   1.342
 4356SOL    HW113967   4.056   3.396   1.345
 4356SOL    HW213968   3.897   3.422   1.370
 4357SOL     OW13969   5.125   0.625   1.092
 4357SOL    HW113970   5.081   0.656   1.008
 4357SOL    HW213971   5.167   0.536   1.076
 4358SOL     OW13972   6.356   0.419   0.267
 4358SOL    HW113973   6.372   0.474   0.349
 4358SOL    HW213974   6.300   0.339   0.291
 4359SOL     OW13975   0.024   4.066   4.461
 4359SOL    HW113976   0.121   4.075   4.483
 4359SOL    HW213977   7.012   4.151   4.422
 4360SOL     OW13978   2.740   3.080   1.264
 4360SOL    HW113979   2.747   3.169   1.309
 4360SOL    HW213980   2.820   3.024   1.286
 4361SOL     OW13981   5.007   1.808   2.854
 4361SOL    HW113982   5.105   1.800   2.835
 4361SOL    HW213983   4.973   1.895   2.819
 4362SOL     OW13984   5.109   4.267   2.809
 4362SOL    HW113985   5.033   4.217   2.851
 4362SOL    HW213986   5.147   4.212   2.735
 4363SOL     OW13987   5.394   0.063   6.801
 4363SOL    HW113988   5.383   6.986   6.790
 4363SOL    HW213989   5.362   0.110   6.718
 4364SOL     OW13990   4.376   4.159   5.380
 4364SOL    HW113991   4.301   4.094   5.389
 4364SOL    HW213992   4.341   4.246   5.345
 4365SOL     OW13993   4.797   2.699   0.152
 4365SOL    HW113994   4.864   2.672   0.222
 4365SOL    HW213995   4.705   2.675   0.184
 4366SOL     OW13996   4.748   4.454   0.600
 4366SOL    HW113997   4.777   4.430   0.507
 4366SOL    HW213998   4.687   4.533   0.597
 4367SOL     OW13999   5.741   6.521   1.082
 4367SOL    HW114000   5.782   6.448   1.137
 4367SOL    HW214001   5.804   6.546   1.008
 4368SOL     OW14002   4.084   6.215   1.962
 4368SOL    HW114003   4.057   6.221   1.866
 4368SOL    HW214004   4.013   6.170   2.014
 4369SOL     OW14005   3.050   5.394   1.702
 4369SOL    HW114006   2.978   5.359   1.643
 4369SOL    HW214007   3.069   5.329   1.775
 4370SOL     OW14008   4.997   3.842   1.278
 4370SOL    HW114009   5.082   3.875   1.320
 4370SOL    HW214010   4.998   3.864   1.180
 4371SOL     OW14011   1.408   1.381   2.186
 4371SOL    HW114012   1.359   1.417   2.107
 4371SOL    HW214013   1.358   1.303   2.223
 4372SOL     OW14014   4.408   0.107   3.542
 4372SOL    HW114015   4.408   0.133   3.638
 4372SOL    HW214016   4.445   0.015   3.532
 4373SOL     OW14017   0.780   1.794   5.201
 4373SOL    HW114018   0.805   1.740   5.281
 4373SOL    HW214019   0.682   1.816   5.204
 4374SOL     OW14020   3.977   1.506   0.332
 4374SOL    HW114021   3.949   1.582   0.391
 4374SOL    HW214022   4.071   1.520   0.301
 4375SOL     OW14023   3.594   5.479   4.659
 4375SOL    HW114024   3.572   5.399   4.714
 4375SOL    HW214025   3.577   5.562   4.712
 4376SOL     OW14026   0.134   2.362   2.917
 4376SOL    HW114027   0.141   2.302   2.997
 4376SOL    HW214028   0.090   2.447   2.943
 4377SOL     OW14029   0.477   5.173   5.641
 4377SOL    HW114030   0.527   5.184   5.556
 4377SOL    HW214031   0.470   5.076   5.664
 4378SOL     OW14032   3.687   1.655   4.088
 4378SOL    HW114033   3.634   1.664   4.173
 4378SOL    HW214034   3.776   1.700   4.099
 4379SOL     OW14035   3.400   1.504   6.024
 4379SOL    HW114036   3.429   1.599   6.029
 4379SOL    HW214037   3.348   1.481   6.107
 4380SOL     OW14038   6.468   2.288   3.845
 4380SOL    HW114039   6.412   2.337   3.778
 4380SOL    HW214040   6.472   2.191   3.820
 4381SOL     OW14041   0.685   4.546   6.577
 4381SOL    HW114042   0.761   4.523   6.638
 4381SOL    HW214043   0.706   4.516   6.484
 4382SOL     OW14044   1.550   4.749   4.801
 4382SOL    HW114045   1.454   4.777   4.808
 4382SOL    HW214046   1.555   4.652   4.776
 4383SOL     OW14047   0.475   4.272   0.374
 4383SOL    HW114048   0.408   4.199   0.356
 4383SOL    HW214049   0.440   4.332   0.446
 4384SOL     OW14050   4.500   0.299   4.201
 4384SOL    HW114051   4.422   0.273   4.144
 4384SOL    HW214052   4.558   0.220   4.217
 4385SOL     OW14053   5.176   0.411   6.243
 4385SOL    HW114054   5.149   0.506   6.224
 4385SOL    HW214055   5.275   0.405   6.247
 4386SOL     OW14056   1.854   2.793   3.551
 4386SOL    HW114057   1.771   2.759   3.596
 4386SOL    HW214058   1.931   2.787   3.615
 4387SOL     OW14059   4.126   2.584   1.005
 4387SOL    HW114060   4.045   2.621   0.961
 4387SOL    HW214061   4.194   2.561   0.935
 4388SOL     OW14062   6.014   2.862   0.410
 4388SOL    HW114063   6.003   2.881   0.508
 4388SOL    HW214064   5.936   2.810   0.377
 4389SOL     OW14065   2.464   1.399   6.305
 4389SOL    HW114066   2.392   1.454   6.348
 4389SOL    HW214067   2.508   1.453   6.233
 4390SOL     OW14068   0.062   1.011   1.541
 4390SOL    HW114069   0.062   0.940   1.470
 4390SOL    HW214070   6.999   1.005   1.594
 4391SOL     OW14071   6.749   6.272   2.381
 4391SOL    HW114072   6.728   6.199   2.447
 4391SOL    HW214073   6.829   6.323   2.412
 4392SOL     OW14074   2.179   2.508   6.679
 4392SOL    HW114075   2.213   2.595   6.716
 4392SOL    HW214076   2.245   2.472   6.613
 4393SOL     OW14077   6.216   6.950   1.691
 4393SOL    HW114078   6.293   6.900   1.730
 4393SOL    HW214079   6.169   7.000   1.763
 4394SOL     OW14080   6.270   1.528   3.118
 4394SOL    HW114081   6.318   1.615   3.108
 4394SOL    HW214082   6.270   1.501   3.214
 4395SOL     OW14083   2.310   3.346   1.028
 4395SOL    HW114084   2.294   3.282   0.954
 4395SOL    HW214085   2.274   3.436   1.003
 4396SOL     OW14086   2.393   1.503   2.197
 4396SOL    HW114087   2.414   1.466   2.288
 4396SOL    HW214088   2.309   1.556   2.201
 4397SOL     OW14089   4.074   0.786   4.773
 4397SOL    HW114090   4.127   0.810   4.691
 4397SOL    HW214091   3.978   0.774   4.747
 4398SOL     OW14092   2.665   2.984   5.911
 4398SOL    HW114093   2.650   3.040   5.993
 4398SOL    HW214094   2.745   2.926   5.925
 4399SOL     OW14095   3.287   5.915   2.090
 4399SOL    HW114096   3.231   5.952   2.165
 4399SOL    HW214097   3.319   5.823   2.114
 4400SOL     OW14098   1.455   6.222   5.192
 4400SOL    HW114099   1.534   6.276   5.222
 4400SOL    HW214100   1.468   6.195   5.097
 4401SOL     OW14101   2.862   0.566   5.773
 4401SOL    HW114102   2.846   0.522   5.684
 4401SOL    HW214103   2.781   0.556   5.830
 4402SOL     OW14104   0.345   0.793   1.854
 4402SOL    HW114105   0.258   0.745   1.842
 4402SOL    HW214106   0.409   0.761   1.783
 4403SOL     OW14107   6.523   6.487   2.838
 4403SOL    HW114108   6.523   6.394   2.877
 4403SOL    HW214109   6.429   6.520   2.833
 4404SOL     OW14110   0.856   5.879   4.997
 4404SOL    HW114111   0.941   5.917   4.960
 4404SOL    HW214112   0.779   5.935   4.967
 4405SOL     OW14113   1.014   5.619   3.501
 4405SOL    HW114114   1.091   5.556   3.501
 4405SOL    HW214115   0.962   5.609   3.416
 4406SOL     OW14116   5.625   4.231   2.253
 4406SOL    HW114117   5.698   4.224   2.186
 4406SOL    HW214118   5.633   4.156   2.319
 4407SOL     OW14119   5.101   0.592   1.356
 4407SOL    HW114120   5.092   0.591   1.256
 4407SOL    HW214121   5.018   0.631   1.396
 4408SOL     OW14122   5.026   0.359   6.907
 4408SOL    HW114123   5.064   0.451   6.908
 4408SOL    HW214124   5.084   0.299   6.964
 4409SOL     OW14125   3.771   0.780   4.092
 4409SOL    HW114126   3.848   0.815   4.146
 4409SOL    HW214127   3.806   0.739   4.008
 4410SOL     OW14128   1.674   0.689   0.603
 4410SOL    HW114129   1.686   0.763   0.669
 4410SOL    HW214130   1.599   0.630   0.633
 4411SOL     OW14131   4.635   4.283   4.699
 4411SOL    HW114132   4.644   4.267   4.601
 4411SOL    HW214133   4.696   4.357   4.726
 4412SOL     OW14134   4.842   6.430   0.839
 4412SOL    HW114135   4.826   6.520   0.799
 4412SOL    HW214136   4.876   6.441   0.933
 4413SOL     OW14137   5.086   6.514   4.502
 4413SOL    HW114138   5.179   6.552   4.506
 4413SOL    HW214139   5.086   6.435   4.441
 4414SOL     OW14140   6.104   4.113   1.123
 4414SOL    HW114141   6.185   4.056   1.136
 4414SOL    HW214142   6.131   4.209   1.118
 4415SOL     OW14143   0.604   4.319   1.416
 4415SOL    HW114144   0.624   4.221   1.423
 4415SOL    HW214145   0.539   4.335   1.342
 4416SOL     OW14146   4.931   3.389   4.379
 4416SOL    HW114147   4.896   3.475   4.344
 4416SOL    HW214148   4.920   3.318   4.310
 4417SOL     OW14149   0.196   3.868   1.794
 4417SOL    HW114150   0.270   3.831   1.850
 4417SOL    HW214151   0.234   3.907   1.710
 4418SOL     OW14152   6.240   2.543   4.768
 4418SOL    HW114153   6.282   2.610   4.708
 4418SOL    HW214154   6.241   2.577   4.862
 4419SOL     OW14155   6.169   6.238   6.402
 4419SOL    HW114156   6.170   6.172   6.327
 4419SOL    HW214157   6.120   6.321   6.374
 4420SOL     OW14158   4.458   0.338   0.417
 4420SOL    HW114159   4.396   0.260   0.414
 4420SOL    HW214160   4.413   0.418   0.379
 4421SOL     OW14161   2.366   1.960   0.294
 4421SOL    HW114162   2.294   1.963   0.363
 4421SOL    HW214163   2.433   1.890   0.317
 4422SOL     OW14164   0.431   2.488   6.437
 4422SOL    HW114165   0.470   2.444   6.519
 4422SOL    HW214166   0.408   2.583   6.458
 4423SOL     OW14167   5.777   4.055   4.088
 4423SOL    HW114168   5.717   4.001   4.030
 4423SOL    HW214169   5.741   4.149   4.095
 4424SOL     OW14170   3.480   4.993   2.167
 4424SOL    HW114171   3.471   5.090   2.146
 4424SOL    HW214172   3.394   4.959   2.206
 4425SOL     OW14173   0.556   6.218   0.491
 4425SOL    HW114174   0.563   6.200   0.589
 4425SOL    HW214175   0.554   6.317   0.476
 4426SOL     OW14176   1.285   0.800   4.400
 4426SOL    HW114177   1.364   0.849   4.363
 4426SOL    HW214178   1.248   0.739   4.330
 4427SOL     OW14179   3.858   6.263   0.162
 4427SOL    HW114180   3.794   6.217   0.223
 4427SOL    HW214181   3.893   6.346   0.207
 4428SOL     OW14182   6.481   5.860   2.785
 4428SOL    HW114183   6.481   5.952   2.746
 4428SOL    HW214184   6.566   5.845   2.836
 4429SOL     OW14185   1.957   5.301   2.716
 4429SOL    HW114186   1.931   5.323   2.810
 4429SOL    HW214187   2.002   5.380   2.675
 4430SOL     OW14188   5.352   4.028   4.429
 4430SOL    HW114189   5.420   4.008   4.359
 4430SOL    HW214190   5.397   4.046   4.516
 4431SOL     OW14191   5.248   0.583   4.527
 4431SOL    HW114192   5.189   0.555   4.603
 4431SOL    HW214193   5.191   0.609   4.449
 4432SOL     OW14194   2.258   3.435   6.415
 4432SOL    HW114195   2.232   3.531   6.400
 4432SOL    HW214196   2.206   3.376   6.354
 4433SOL     OW14197   0.573   0.609   5.168
 4433SOL    HW114198   0.602   0.525   5.122
 4433SOL    HW214199   0.653   0.664   5.192
 4434SOL     OW14200   6.551   0.303   2.372
 4434SOL    HW114201   6.563   0.243   2.451
 4434SOL    HW214202   6.640   0.319   2.328
 4435SOL     OW14203   1.670   4.420   1.684
 4435SOL    HW114204   1.737   4.405   1.612
 4435SOL    HW214205   1.696   4.501   1.737
 4436SOL     OW14206   5.238   1.710   1.523
 4436SOL    HW114207   5.338   1.703   1.519
 4436SOL    HW214208   5.201   1.697   1.431
 4437SOL     OW14209   0.173   5.748   0.469
 4437SOL    HW114210   0.104   5.799   0.417
 4437SOL    HW214211   0.193   5.797   0.554
 4438SOL     OW14212   3.408   1.938   4.677
 4438SOL    HW114213   3.366   1.957   4.589
 4438SOL    HW214214   3.339   1.943   4.749
 4439SOL     OW14215   2.916   5.359   2.112
 4439SOL    HW114216   3.012   5.355   2.083
 4439SOL    HW214217   2.858   5.322   2.039
 4440SOL     OW14218   1.904   5.419   6.064
 4440SOL    HW114219   1.849   5.342   6.096
 4440SOL    HW214220   1.995   5.414   6.105
 4441SOL     OW14221   6.249   1.389   0.978
 4441SOL    HW114222   6.161   1.433   0.993
 4441SOL    HW214223   6.257   1.309   1.037
 4442SOL     OW14224   1.242   4.391   1.053
 4442SOL    HW114225   1.310   4.319   1.063
 4442SOL    HW214226   1.271   4.472   1.105
 4443SOL     OW14227   1.173   5.944   5.465
 4443SOL    HW114228   1.215   5.986   5.384
 4443SOL    HW214229   1.089   5.896   5.437
 4444SOL     OW14230   4.314   6.718   0.244
 4444SOL    HW114231   4.263   6.684   0.165
 4444SOL    HW214232   4.250   6.748   0.315
 4445SOL     OW14233   1.705   3.345   0.718
 4445SOL    HW114234   1.656   3.431   0.718
 4445SOL    HW214235   1.761   3.338   0.801
 4446SOL     OW14236   6.040   2.187   1.545
 4446SOL    HW114237   5.990   2.112   1.588
 4446SOL    HW214238   5.982   2.233   1.479
 4447SOL     OW14239   4.805   5.190   6.152
 4447SOL    HW114240   4.848   5.100   6.158
 4447SOL    HW214241   4.717   5.189   6.199
 4448SOL     OW14242   2.019   6.392   2.855
 4448SOL    HW114243   1.989   6.468   2.913
 4448SOL    HW214244   1.945   6.325   2.845
 4449SOL     OW14245   3.614   2.227   5.217
 4449SOL    HW114246   3.602   2.162   5.142
 4449SOL    HW214247   3.704   2.216   5.258
 4450SOL     OW14248   2.713   5.634   0.600
 4450SOL    HW114249   2.677   5.691   0.526
 4450SOL    HW214250   2.643   5.570   0.631
 4451SOL     OW14251   4.828   5.754   2.433
 4451SOL    HW114252   4.811   5.823   2.503
 4451SOL    HW214253   4.817   5.663   2.473
 4452SOL     OW14254   5.174   4.915   3.698
 4452SOL    HW114255   5.222   4.963   3.771
 4452SOL    HW214256   5.141   4.827   3.732
 4453SOL     OW14257   0.112   5.616   1.517
 4453SOL    HW114258   0.120   5.700   1.572
 4453SOL    HW214259   0.064   5.546   1.570
 4454SOL     OW14260   6.916   0.907   7.003
 4454SOL    HW114261   6.916   0.833   0.048
 4454SOL    HW214262   6.931   0.870   6.912
 4455SOL     OW14263   0.899   0.909   3.810
 4455SOL    HW114264   0.900   0.809   3.808
 4455SOL    HW214265   0.829   0.943   3.748
 4456SOL     OW14266   1.832   5.981   4.556
 4456SOL    HW114267   1.769   5.927   4.611
 4456SOL    HW214268   1.882   5.920   4.494
 4457SOL     OW14269   1.876   2.386   4.709
 4457SOL    HW114270   1.930   2.440   4.773
 4457SOL    HW214271   1.891   2.419   4.616
 4458SOL     OW14272   1.836   2.102   5.553
 4458SOL    HW114273   1.843   2.109   5.453
 4458SOL    HW214274   1.762   2.161   5.585
 4459SOL     OW14275   2.058   4.427   3.602
 4459SOL    HW114276   2.091   4.352   3.544
 4459SOL    HW214277   1.959   4.420   3.612
 4460SOL     OW14278   6.623   3.488   5.109
 4460SOL    HW114279   6.721   3.481   5.089
 4460SOL    HW214280   6.593   3.582   5.093
 4461SOL     OW14281   2.652   0.036   0.824
 4461SOL    HW114282   2.696   0.009   0.910
 4461SOL    HW214283   2.695   7.009   0.748
 4462SOL     OW14284   0.465   4.762   2.923
 4462SOL    HW114285   0.433   4.850   2.959
 4462SOL    HW214286   0.511   4.710   2.995
 4463SOL     OW14287   5.174   1.976   6.776
 4463SOL    HW114288   5.160   1.884   6.814
 4463SOL    HW214289   5.086   2.013   6.746
 4464SOL     OW14290   0.633   3.239   1.363
 4464SOL    HW114291   0.596   3.313   1.308
 4464SOL    HW214292   0.584   3.154   1.343
 4465SOL     OW14293   4.328   4.676   1.010
 4465SOL    HW114294   4.393   4.646   1.079
 4465SOL    HW214295   4.340   4.622   0.927
 4466SOL     OW14296   0.750   2.780   2.176
 4466SOL    HW114297   0.833   2.831   2.201
 4466SOL    HW214298   0.715   2.733   2.256
 4467SOL     OW14299   4.922   4.466   1.673
 4467SOL    HW114300   4.964   4.556   1.685
 4467SOL    HW214301   4.849   4.454   1.740
 4468SOL     OW14302   1.965   3.613   0.361
 4468SOL    HW114303   1.896   3.676   0.395
 4468SOL    HW214304   2.055   3.639   0.397
 4469SOL     OW14305   1.004   6.672   2.211
 4469SOL    HW114306   1.092   6.684   2.165
 4469SOL    HW214307   0.966   6.582   2.188
 4470SOL     OW14308   0.260   6.864   3.295
 4470SOL    HW114309   0.295   6.930   3.229
 4470SOL    HW214310   0.322   6.858   3.373
 4471SOL     OW14311   1.470   0.489   6.694
 4471SOL    HW114312   1.462   0.489   6.594
 4471SOL    HW214313   1.563   0.465   6.721
 4472SOL     OW14314   2.167   3.406   1.267
 4472SOL    HW114315   2.198   3.355   1.187
 4472SOL    HW214316   2.113   3.485   1.238
 4473SOL     OW14317   1.223   2.973   5.594
 4473SOL    HW114318   1.305   3.002   5.545
 4473SOL    HW214319   1.203   2.877   5.572
 4474SOL     OW14320   1.597   6.225   1.729
 4474SOL    HW114321   1.682   6.212   1.780
 4474SOL    HW214322   1.616   6.278   1.646
 4475SOL     OW14323   1.248   3.242   1.020
 4475SOL    HW114324   1.167   3.234   1.078
 4475SOL    HW214325   1.293   3.153   1.013
 4476SOL     OW14326   4.391   0.790   3.471
 4476SOL    HW114327   4.466   0.735   3.437
 4476SOL    HW214328   4.389   0.877   3.421
 4477SOL     OW14329   6.545   1.584   4.848
 4477SOL    HW114330   6.484   1.588   4.769
 4477SOL    HW214331   6.493   1.555   4.928
 4478SOL     OW14332   0.805   0.543   2.401
 4478SOL    HW114333   0.776   0.449   2.382
 4478SOL    HW214334   0.860   0.577   2.325
 4479SOL     OW14335   3.177   3.424   0.234
 4479SOL    HW114336   3.209   3.407   0.327
 4479SOL    HW214337   3.216   3.510   0.201
 4480SOL     OW14338   6.666   1.174   3.728
 4480SOL    HW114339   6.709   1.229   3.799
 4480SOL    HW214340   6.643   1.232   3.650
 4481SOL     OW14341   2.353   4.581   6.484
 4481SOL    HW114342   2.323   4.499   6.534
 4481SOL    HW214343   2.288   4.655   6.500
 4482SOL     OW14344   3.028   7.021   1.474
 4482SOL    HW114345   3.084   6.951   1.518
 4482SOL    HW214346   2.931   7.001   1.489
 4483SOL     OW14347   1.593   2.436   1.644
 4483SOL    HW114348   1.664   2.389   1.591
 4483SOL    HW214349   1.503   2.401   1.618
 4484SOL     OW14350   4.452   7.001   0.477
 4484SOL    HW114351   4.388   0.047   0.514
 4484SOL    HW214352   4.508   0.022   0.406
 4485SOL     OW14353   0.401   2.356   5.587
 4485SOL    HW114354   0.330   2.297   5.627
 4485SOL    HW214355   0.366   2.450   5.582
 4486SOL     OW14356   5.319   5.543   3.684
 4486SOL    HW114357   5.273   5.545   3.773
 4486SOL    HW214358   5.264   5.594   3.617
 4487SOL     OW14359   0.234   3.679   6.979
 4487SOL    HW114360   0.218   3.698   6.882
 4487SOL    HW214361   0.174   3.737   0.012
 4488SOL     OW14362   5.634   4.795   3.369
 4488SOL    HW114363   5.540   4.768   3.388
 4488SOL    HW214364   5.695   4.751   3.435
 4489SOL     OW14365   3.283   6.213   5.705
 4489SOL    HW114366   3.285   6.220   5.805
 4489SOL    HW214367   3.260   6.302   5.666
 4490SOL     OW14368   4.666   1.743   1.590
 4490SOL    HW114369   4.676   1.827   1.644
 4490SOL    HW214370   4.738   1.679   1.615
 4491SOL     OW14371   0.177   4.786   2.611
 4491SOL    HW114372   0.143   4.832   2.693
 4491SOL    HW214373   0.271   4.756   2.626
 4492SOL     OW14374   6.544   0.871   1.814
 4492SOL    HW114375   6.580   0.783   1.783
 4492SOL    HW214376   6.496   0.915   1.739
 4493SOL     OW14377   5.435   1.062   5.928
 4493SOL    HW114378   5.462   0.974   5.888
 4493SOL    HW214379   5.509   1.096   5.986
 4494SOL     OW14380   0.348   1.643   2.277
 4494SOL    HW114381   0.257   1.623   2.243
 4494SOL    HW214382   0.403   1.560   2.275
 4495SOL     OW14383   4.002   6.236   1.680
 4495SOL    HW114384   4.072   6.171   1.649
 4495SOL    HW214385   3.912   6.193   1.673
 4496SOL     OW14386   2.429   4.783   5.458
 4496SOL    HW114387   2.373   4.709   5.496
 4496SOL    HW214388   2.510   4.795   5.515
 4497SOL     OW14389   6.172   6.553   4.557
 4497SOL    HW114390   6.118   6.469   4.552
 4497SOL    HW214391   6.111   6.630   4.577
 4498SOL     OW14392   1.975   5.238   3.545
 4498SOL    HW114393   1.900   5.220   3.609
 4498SOL    HW214394   1.986   5.161   3.482
 4499SOL     OW14395   5.282   2.256   2.208
 4499SOL    HW114396   5.269   2.185   2.139
 4499SOL    HW214397   5.377   2.257   2.238
 4500SOL     OW14398   3.511   6.144   0.528
 4500SOL    HW114399   3.575   6.175   0.598
 4500SOL    HW214400   3.442   6.086   0.571
 4501SOL     OW14401   5.303   1.117   3.132
 4501SOL    HW114402   5.268   1.031   3.096
 4501SOL    HW214403   5.384   1.144   3.081
 4502SOL     OW14404   0.565   3.351   0.278
 4502SOL    HW114405   0.610   3.382   0.362
 4502SOL    HW214406   0.496   3.418   0.250
 4503SOL     OW14407   3.085   1.295   3.114
 4503SOL    HW114408   3.083   1.273   3.212
 4503SOL    HW214409   2.995   1.330   3.086
 4504SOL     OW14410   0.841   3.177   3.705
 4504SOL    HW114411   0.883   3.243   3.767
 4504SOL    HW214412   0.876   3.085   3.725
 4505SOL     OW14413   6.338   3.725   3.980
 4505SOL    HW114414   6.351   3.823   3.970
 4505SOL    HW214415   6.398   3.677   3.916
 4506SOL     OW14416   4.082   4.253   0.375
 4506SOL    HW114417   3.992   4.238   0.334
 4506SOL    HW214418   4.091   4.350   0.401
 4507SOL     OW14419   5.511   2.153   3.083
 4507SOL    HW114420   5.412   2.161   3.095
 4507SOL    HW214421   5.531   2.106   2.997
 4508SOL     OW14422   6.825   4.371   1.211
 4508SOL    HW114423   6.762   4.299   1.241
 4508SOL    HW214424   6.813   4.387   1.113
 4509SOL     OW14425   4.529   1.475   2.629
 4509SOL    HW114426   4.481   1.536   2.566
 4509SOL    HW214427   4.626   1.499   2.631
 4510SOL     OW14428   4.815   1.810   3.349
 4510SOL    HW114429   4.718   1.786   3.359
 4510SOL    HW214430   4.839   1.808   3.252
 4511SOL     OW14431   0.470   3.854   0.175
 4511SOL    HW114432   0.497   3.788   0.105
 4511SOL    HW214433   0.535   3.851   0.250
 4512SOL     OW14434   2.873   3.858   6.668
 4512SOL    HW114435   2.926   3.897   6.593
 4512SOL    HW214436   2.927   3.862   6.753
 4513SOL     OW14437   0.330   2.228   0.664
 4513SOL    HW114438   0.330   2.128   0.661
 4513SOL    HW214439   0.332   2.263   0.570
 4514SOL     OW14440   3.805   5.389   0.121
 4514SOL    HW114441   3.867   5.444   0.065
 4514SOL    HW214442   3.786   5.302   0.075
 4515SOL     OW14443   4.860   6.863   5.845
 4515SOL    HW114444   4.790   6.800   5.810
 4515SOL    HW214445   4.817   6.933   5.901
 4516SOL     OW14446   3.612   1.791   4.729
 4516SOL    HW114447   3.582   1.701   4.759
 4516SOL    HW214448   3.531   1.846   4.704
 4517SOL     OW14449   3.560   0.194   3.875
 4517SOL    HW114450   3.656   0.208   3.853
 4517SOL    HW214451   3.508   0.178   3.792
 4518SOL     OW14452   6.664   5.894   0.601
 4518SOL    HW114453   6.683   5.990   0.622
 4518SOL    HW214454   6.734   5.836   0.643
 4519SOL     OW14455   5.155   6.532   5.957
 4519SOL    HW114456   5.254   6.516   5.961
 4519SOL    HW214457   5.128   6.587   6.036
 4520SOL     OW14458   4.969   5.457   5.371
 4520SOL    HW114459   5.068   5.446   5.377
 4520SOL    HW214460   4.925   5.372   5.399
 4521SOL     OW14461   5.056   2.527   3.816
 4521SOL    HW114462   5.122   2.592   3.854
 4521SOL    HW214463   5.090   2.493   3.728
 4522SOL     OW14464   5.712   4.321   3.890
 4522SOL    HW114465   5.656   4.367   3.959
 4522SOL    HW214466   5.808   4.346   3.903
 4523SOL     OW14467   0.996   2.336   0.339
 4523SOL    HW114468   1.013   2.238   0.348
 4523SOL    HW214469   1.082   2.386   0.341
 4524SOL     OW14470   1.483   3.923   1.524
 4524SOL    HW114471   1.487   4.020   1.501
 4524SOL    HW214472   1.396   3.885   1.494
 4525SOL     OW14473   3.238   1.781   5.921
 4525SOL    HW114474   3.158   1.840   5.923
 4525SOL    HW214475   3.272   1.767   6.014
 4526SOL     OW14476   0.899   6.825   5.087
 4526SOL    HW114477   0.930   6.821   4.992
 4526SOL    HW214478   0.901   6.920   5.118
 4527SOL     OW14479   1.443   2.595   2.868
 4527SOL    HW114480   1.348   2.568   2.882
 4527SOL    HW214481   1.458   2.685   2.909
 4528SOL     OW14482   4.739   2.108   4.232
 4528SOL    HW114483   4.701   2.022   4.200
 4528SOL    HW214484   4.679   2.148   4.302
 4529SOL     OW14485   0.955   2.532   2.885
 4529SOL    HW114486   0.911   2.505   2.970
 4529SOL    HW214487   1.039   2.583   2.906
 4530SOL     OW14488   4.678   4.377   6.542
 4530SOL    HW114489   4.653   4.401   6.448
 4530SOL    HW214490   4.775   4.393   6.557
 4531SOL     OW14491   1.241   6.049   5.220
 4531SOL    HW114492   1.292   6.134   5.237
 4531SOL    HW214493   1.143   6.070   5.216
 4532SOL     OW14494   5.742   0.449   2.294
 4532SOL    HW114495   5.684   0.388   2.349
 4532SOL    HW214496   5.696   0.468   2.207
 4533SOL     OW14497   2.931   6.366   0.862
 4533SOL    HW114498   2.865   6.292   0.852
 4533SOL    HW214499   2.994   6.346   0.937
 4534SOL     OW14500   6.089   1.813   5.348
 4534SOL    HW114501   6.165   1.795   5.286
 4534SOL    HW214502   6.086   1.742   5.418
 4535SOL     OW14503   1.732   6.756   0.742
 4535SOL    HW114504   1.756   6.828   0.807
 4535SOL    HW214505   1.761   6.782   0.651
 4536SOL     OW14506   3.999   0.648   5.466
 4536SOL    HW114507   4.022   0.567   5.412
 4536SOL    HW214508   4.024   0.730   5.415
 4537SOL     OW14509   3.658   3.607   3.450
 4537SOL    HW114510   3.712   3.690   3.466
 4537SOL    HW214511   3.612   3.581   3.535
 4538SOL     OW14512   1.833   2.796   0.449
 4538SOL    HW114513   1.807   2.705   0.417
 4538SOL    HW214514   1.752   2.855   0.452
 4539SOL     OW14515   0.686   4.387   5.110
 4539SOL    HW114516   0.678   4.402   5.011
 4539SOL    HW214517   0.609   4.429   5.156
 4540SOL     OW14518   1.595   1.102   6.396
 4540SOL    HW114519   1.650   1.018   6.404
 4540SOL    HW214520   1.641   1.177   6.443
 4541SOL     OW14521   3.821   2.947   0.774
 4541SOL    HW114522   3.773   2.894   0.704
 4541SOL    HW214523   3.808   2.904   0.864
 4542SOL     OW14524   6.737   2.367   0.105
 4542SOL    HW114525   6.719   2.269   0.090
 4542SOL    HW214526   6.658   2.420   0.075
 4543SOL     OW14527   4.423   1.539   0.460
 4543SOL    HW114528   4.352   1.487   0.507
 4543SOL    HW214529   4.449   1.619   0.515
 4544SOL     OW14530   4.413   6.109   6.827
 4544SOL    HW114531   4.496   6.162   6.813
 4544SOL    HW214532   4.345   6.135   6.758
 4545SOL     OW14533   3.112   3.036   6.346
 4545SOL    HW114534   3.208   3.008   6.339
 4545SOL    HW214535   3.063   3.006   6.265
 4546SOL     OW14536   4.827   6.322   5.153
 4546SOL    HW114537   4.765   6.395   5.125
 4546SOL    HW214538   4.824   6.311   5.252
 4547SOL     OW14539   0.094   6.820   1.118
 4547SOL    HW114540   7.018   6.809   1.098
 4547SOL    HW214541   0.110   6.912   1.152
 4548SOL     OW14542   3.926   0.647   1.188
 4548SOL    HW114543   3.910   0.707   1.266
 4548SOL    HW214544   3.972   0.699   1.115
 4549SOL     OW14545   6.914   5.425   3.603
 4549SOL    HW114546   6.888   5.338   3.645
 4549SOL    HW214547   6.944   5.408   3.509
 4550SOL     OW14548   2.512   5.366   6.805
 4550SOL    HW114549   2.596   5.317   6.828
 4550SOL    HW214550   2.477   5.333   6.717
 4551SOL     OW14551   3.577   3.325   6.526
 4551SOL    HW114552   3.501   3.286   6.475
 4551SOL    HW214553   3.553   3.418   6.555
 4552SOL     OW14554   5.681   0.535   6.382
 4552SOL    HW114555   5.666   0.568   6.475
 4552SOL    HW214556   5.705   0.438   6.384
 4553SOL     OW14557   0.459   0.143   0.474
 4553SOL    HW114558   0.455   0.241   0.454
 4553SOL    HW214559   0.385   0.119   0.537
 4554SOL     OW14560   5.240   5.922   2.943
 4554SOL    HW114561   5.207   5.896   2.852
 4554SOL    HW214562   5.188   6.001   2.976
 4555SOL     OW14563   0.685   0.580   3.736
 4555SOL    HW114564   0.778   0.615   3.721
 4555SOL    HW214565   0.632   0.590   3.653
 4556SOL     OW14566   5.226   4.807   4.545
 4556SOL    HW114567   5.315   4.776   4.511
 4556SOL    HW214568   5.230   4.906   4.564
 4557SOL     OW14569   0.988   6.455   5.161
 4557SOL    HW114570   0.999   6.358   5.180
 4557SOL    HW214571   1.074   6.503   5.177
 4558SOL     OW14572   0.889   3.832   4.084
 4558SOL    HW114573   0.955   3.856   4.155
 4558SOL    HW214574   0.858   3.915   4.038
 4559SOL     OW14575   0.561   3.209   3.810
 4559SOL    HW114576   0.497   3.133   3.795
 4559SOL    HW214577   0.640   3.198   3.751
 4560SOL     OW14578   6.233   2.778   4.161
 4560SOL    HW114579   6.169   2.849   4.191
 4560SOL    HW214580   6.235   2.777   4.061
 4561SOL     OW14581   5.055   3.504   5.097
 4561SOL    HW114582   4.959   3.524   5.079
 4561SOL    HW214583   5.102   3.589   5.124
 4562SOL     OW14584   5.295   0.450   0.347
 4562SOL    HW114585   5.373   0.388   0.351
 4562SOL    HW214586   5.246   0.448   0.434
 4563SOL     OW14587   0.937   3.205   2.668
 4563SOL    HW114588   0.953   3.264   2.588
 4563SOL    HW214589   0.840   3.185   2.675
 4564SOL     OW14590   1.993   3.644   2.565
 4564SOL    HW114591   2.042   3.558   2.553
 4564SOL    HW214592   1.898   3.633   2.535
 4565SOL     OW14593   2.307   6.667   5.214
 4565SOL    HW114594   2.252   6.707   5.141
 4565SOL    HW214595   2.366   6.738   5.254
 4566SOL     OW14596   6.763   4.947   2.326
 4566SOL    HW114597   6.714   5.028   2.358
 4566SOL    HW214598   6.748   4.871   2.389
 4567SOL     OW14599   1.373   0.898   0.198
 4567SOL    HW114600   1.374   0.993   0.229
 4567SOL    HW214601   1.279   0.863   0.201
 4568SOL     OW14602   0.300   4.405   4.235
 4568SOL    HW114603   0.332   4.357   4.317
 4568SOL    HW214604   0.201   4.392   4.226
 4569SOL     OW14605   6.635   3.082   4.057
 4569SOL    HW114606   6.727   3.071   4.020
 4569SOL    HW214607   6.634   3.160   4.120
 4570SOL     OW14608   5.043   5.860   1.734
 4570SOL    HW114609   5.026   5.901   1.824
 4570SOL    HW214610   5.137   5.826   1.730
 4571SOL     OW14611   2.279   2.516   4.775
 4571SOL    HW114612   2.296   2.422   4.744
 4571SOL    HW214613   2.356   2.547   4.831
 4572SOL     OW14614   5.294   3.314   1.418
 4572SOL    HW114615   5.250   3.235   1.461
 4572SOL    HW214616   5.324   3.289   1.325
 4573SOL     OW14617   2.798   4.502   1.163
 4573SOL    HW114618   2.768   4.598   1.159
 4573SOL    HW214619   2.838   4.484   1.253
 4574SOL     OW14620   4.976   0.098   1.915
 4574SOL    HW114621   5.025   0.120   1.831
 4574SOL    HW214622   5.007   0.158   1.989
 4575SOL     OW14623   0.105   1.704   5.399
 4575SOL    HW114624   0.082   1.701   5.496
 4575SOL    HW214625   0.089   1.615   5.358
 4576SOL     OW14626   3.176   3.956   6.670
 4576SOL    HW114627   3.252   3.954   6.605
 4576SOL    HW214628   3.102   4.012   6.632
 4577SOL     OW14629   6.717   1.397   2.325
 4577SOL    HW114630   6.753   1.314   2.282
 4577SOL    HW214631   6.620   1.406   2.305
 4578SOL     OW14632   1.801   0.683   2.527
 4578SOL    HW114633   1.867   0.677   2.601
 4578SOL    HW214634   1.744   0.765   2.539
 4579SOL     OW14635   3.338   1.027   2.319
 4579SOL    HW114636   3.375   1.066   2.235
 4579SOL    HW214637   3.243   1.001   2.304
 4580SOL     OW14638   0.761   6.939   1.569
 4580SOL    HW114639   0.814   6.854   1.565
 4580SOL    HW214640   0.743   6.971   1.477
 4581SOL     OW14641   3.877   6.997   1.233
 4581SOL    HW114642   3.868   0.056   1.291
 4581SOL    HW214643   3.801   6.934   1.252
 4582SOL     OW14644   5.833   1.001   4.495
 4582SOL    HW114645   5.789   0.946   4.424
 4582SOL    HW214646   5.926   1.025   4.467
 4583SOL     OW14647   1.818   6.238   6.737
 4583SOL    HW114648   1.897   6.177   6.739
 4583SOL    HW214649   1.848   6.332   6.718
 4584SOL     OW14650   6.670   0.366   4.306
 4584SOL    HW114651   6.571   0.357   4.317
 4584SOL    HW214652   6.706   0.424   4.379
 4585SOL     OW14653   1.676   3.284   2.096
 4585SOL    HW114654   1.594   3.244   2.054
 4585SOL    HW214655   1.686   3.379   2.067
 4586SOL     OW14656   0.396   4.278   6.377
 4586SOL    HW114657   0.379   4.311   6.284
 4586SOL    HW214658   0.470   4.212   6.376
 4587SOL     OW14659   4.310   3.194   6.226
 4587SOL    HW114660   4.221   3.239   6.232
 4587SOL    HW214661   4.297   3.097   6.208
 4588SOL     OW14662   1.949   5.054   6.687
 4588SOL    HW114663   1.921   5.126   6.623
 4588SOL    HW214664   1.904   5.070   6.775
 4589SOL     OW14665   4.436   5.826   2.055
 4589SOL    HW114666   4.459   5.795   1.962
 4589SOL    HW214667   4.487   5.772   2.121
 4590SOL     OW14668   1.589   5.037   2.082
 4590SOL    HW114669   1.632   4.963   2.031
 4590SOL    HW214670   1.501   5.060   2.040
 4591SOL     OW14671   2.026   1.742   5.848
 4591SOL    HW114672   2.120   1.773   5.861
 4591SOL    HW214673   2.024   1.672   5.777
 4592SOL     OW14674   2.659   2.359   2.501
 4592SOL    HW114675   2.736   2.302   2.531
 4592SOL    HW214676   2.622   2.409   2.578
 4593SOL     OW14677   1.961   5.000   5.456
 4593SOL    HW114678   2.029   4.935   5.423
 4593SOL    HW214679   1.879   4.996   5.399
 4594SOL     OW14680   0.872   6.721   2.920
 4594SOL    HW114681   0.818   6.671   2.988
 4594SOL    HW214682   0.896   6.811   2.955
 4595SOL     OW14683   5.698   1.407   0.194
 4595SOL    HW114684   5.763   1.331   0.207
 4595SOL    HW214685   5.690   1.428   0.097
 4596SOL     OW14686   0.230   1.518   1.909
 4596SOL    HW114687   0.287   1.591   1.946
 4596SOL    HW214688   0.133   1.542   1.920
 4597SOL     OW14689   2.001   5.017   0.894
 4597SOL    HW114690   1.951   5.087   0.944
 4597SOL    HW214691   1.967   4.927   0.920
 4598SOL     OW14692   0.060   3.051   0.787
 4598SOL    HW114693   0.069   3.072   0.690
 4598SOL    HW214694   7.003   2.991   0.801
 4599SOL     OW14695   2.831   6.235   3.089
 4599SOL    HW114696   2.882   6.294   3.026
 4599SOL    HW214697   2.864   6.141   3.081
 4600SOL     OW14698   0.464   6.457   5.921
 4600SOL    HW114699   0.373   6.464   5.880
 4600SOL    HW214700   0.529   6.509   5.867
 4601SOL     OW14701   1.420   1.363   5.173
 4601SOL    HW114702   1.366   1.444   5.193
 4601SOL    HW214703   1.491   1.385   5.106
 4602SOL     OW14704   4.646   0.117   5.632
 4602SOL    HW114705   4.571   0.179   5.608
 4602SOL    HW214706   4.711   0.163   5.692
 4603SOL     OW14707   4.607   6.662   6.938
 4603SOL    HW114708   4.599   6.634   0.012
 4603SOL    HW214709   4.543   6.609   6.883
 4604SOL     OW14710   6.890   0.095   3.532
 4604SOL    HW114711   6.833   0.014   3.543
 4604SOL    HW214712   6.890   0.148   3.616
 4605SOL     OW14713   4.251   1.518   2.063
 4605SOL    HW114714   4.225   1.423   2.077
 4605SOL    HW214715   4.349   1.523   2.042
 4606SOL     OW14716   6.463   0.218   3.966
 4606SOL    HW114717   6.508   0.271   3.894
 4606SOL    HW214718   6.516   0.135   3.985
 4607SOL     OW14719   2.357   1.500   1.294
 4607SOL    HW114720   2.352   1.572   1.225
 4607SOL    HW214721   2.415   1.530   1.370
 4608SOL     OW14722   0.573   3.105   6.063
 4608SOL    HW114723   0.626   3.025   6.092
 4608SOL    HW214724   0.600   3.131   5.970
 4609SOL     OW14725   5.610   4.620   6.465
 4609SOL    HW114726   5.614   4.521   6.451
 4609SOL    HW214727   5.515   4.652   6.456
 4610SOL     OW14728   4.763   3.923   6.278
 4610SOL    HW114729   4.812   3.848   6.323
 4610SOL    HW214730   4.666   3.900   6.272
 4611SOL     OW14731   0.376   0.381   6.422
 4611SOL    HW114732   0.400   0.454   6.359
 4611SOL    HW214733   0.316   0.416   6.494
 4612SOL     OW14734   1.236   0.841   2.351
 4612SOL    HW114735   1.147   0.832   2.307
 4612SOL    HW214736   1.226   0.886   2.440
 4613SOL     OW14737   1.356   5.029   4.129
 4613SOL    HW114738   1.391   4.949   4.178
 4613SOL    HW214739   1.273   5.004   4.080
 4614SOL     OW14740   6.381   5.045   1.898
 4614SOL    HW114741   6.431   5.122   1.859
 4614SOL    HW214742   6.395   4.964   1.841
 4615SOL     OW14743   0.478   4.641   6.404
 4615SOL    HW114744   0.533   4.586   6.467
 4615SOL    HW214745   0.518   4.732   6.394
 4616SOL     OW14746   1.685   5.122   5.715
 4616SOL    HW114747   1.591   5.095   5.738
 4616SOL    HW214748   1.744   5.042   5.717
 4617SOL     OW14749   1.080   4.048   4.721
 4617SOL    HW114750   1.155   4.045   4.787
 4617SOL    HW214751   1.030   3.961   4.722
 4618SOL     OW14752   2.242   4.007   5.366
 4618SOL    HW114753   2.262   3.931   5.427
 4618SOL    HW214754   2.319   4.023   5.305
 4619SOL     OW14755   5.037   6.007   6.461
 4619SOL    HW114756   5.045   6.052   6.372
 4619SOL    HW214757   5.101   5.931   6.466
 4620SOL     OW14758   0.452   5.271   2.686
 4620SOL    HW114759   0.496   5.269   2.776
 4620SOL    HW214760   0.353   5.272   2.697
 4621SOL     OW14761   3.093   6.726   2.154
 4621SOL    HW114762   3.116   6.812   2.108
 4621SOL    HW214763   3.159   6.656   2.127
 4622SOL     OW14764   6.388   6.546   0.709
 4622SOL    HW114765   6.315   6.601   0.750
 4622SOL    HW214766   6.471   6.554   0.765
 4623SOL     OW14767   2.798   5.205   1.893
 4623SOL    HW114768   2.875   5.165   1.843
 4623SOL    HW214769   2.723   5.139   1.899
 4624SOL     OW14770   5.506   1.172   0.275
 4624SOL    HW114771   5.411   1.147   0.256
 4624SOL    HW214772   5.552   1.195   0.190
 4625SOL     OW14773   1.156   0.283   1.920
 4625SOL    HW114774   1.146   0.325   2.010
 4625SOL    HW214775   1.143   0.184   1.927
 4626SOL     OW14776   3.921   3.914   2.283
 4626SOL    HW114777   3.959   4.005   2.266
 4626SOL    HW214778   3.822   3.916   2.272
 4627SOL     OW14779   6.044   6.173   4.720
 4627SOL    HW114780   5.994   6.252   4.687
 4627SOL    HW214781   6.084   6.193   4.810
 4628SOL     OW14782   6.812   2.790   2.055
 4628SOL    HW114783   6.740   2.803   1.987
 4628SOL    HW214784   6.795   2.706   2.106
 4629SOL     OW14785   0.994   5.477   1.121
 4629SOL    HW114786   1.079   5.524   1.147
 4629SOL    HW214787   0.989   5.471   1.021
 4630SOL     OW14788   1.517   3.041   1.500
 4630SOL    HW114789   1.525   2.992   1.586
 4630SOL    HW214790   1.504   3.139   1.517
 4631SOL     OW14791   5.215   1.631   0.996
 4631SOL    HW114792   5.205   1.724   0.960
 4631SOL    HW214793   5.139   1.574   0.964
 4632SOL     OW14794   2.440   5.350   4.161
 4632SOL    HW114795   2.523   5.360   4.106
 4632SOL    HW214796   2.374   5.293   4.111
 4633SOL     OW14797   5.321   3.719   4.522
 4633SOL    HW114798   5.360   3.809   4.505
 4633SOL    HW214799   5.307   3.705   4.620
 4634SOL     OW14800   3.367   2.825   5.105
 4634SOL    HW114801   3.335   2.874   5.025
 4634SOL    HW214802   3.294   2.765   5.139
 4635SOL     OW14803   3.463   0.284   2.374
 4635SOL    HW114804   3.436   0.196   2.336
 4635SOL    HW214805   3.550   0.312   2.332
 4636SOL     OW14806   1.795   6.141   6.462
 4636SOL    HW114807   1.792   6.175   6.555
 4636SOL    HW214808   1.791   6.217   6.398
 4637SOL     OW14809   1.597   2.698   3.672
 4637SOL    HW114810   1.589   2.601   3.650
 4637SOL    HW214811   1.583   2.711   3.771
 4638SOL     OW14812   4.083   4.455   0.114
 4638SOL    HW114813   3.991   4.491   0.095
 4638SOL    HW214814   4.087   4.425   0.209
 4639SOL     OW14815   3.651   2.521   1.351
 4639SOL    HW114816   3.594   2.603   1.340
 4639SOL    HW214817   3.747   2.548   1.359
 4640SOL     OW14818   0.577   2.019   0.417
 4640SOL    HW114819   0.551   2.115   0.404
 4640SOL    HW214820   0.677   2.012   0.422
 4641SOL     OW14821   1.330   6.547   4.688
 4641SOL    HW114822   1.421   6.580   4.711
 4641SOL    HW214823   1.304   6.581   4.597
 4642SOL     OW14824   5.875   1.309   6.063
 4642SOL    HW114825   5.872   1.393   6.117
 4642SOL    HW214826   5.970   1.279   6.055
 4643SOL     OW14827   0.975   1.902   0.012
 4643SOL    HW114828   0.926   1.988   0.019
 4643SOL    HW214829   0.937   1.848   6.959
 4644SOL     OW14830   1.343   1.454   1.032
 4644SOL    HW114831   1.364   1.469   0.935
 4644SOL    HW214832   1.404   1.510   1.088
 4645SOL     OW14833   5.568   2.672   5.529
 4645SOL    HW114834   5.525   2.658   5.439
 4645SOL    HW214835   5.503   2.649   5.601
 4646SOL     OW14836   1.164   3.876   2.275
 4646SOL    HW114837   1.239   3.816   2.302
 4646SOL    HW214838   1.106   3.895   2.355
 4647SOL     OW14839   1.823   6.299   2.422
 4647SOL    HW114840   1.757   6.306   2.348
 4647SOL    HW214841   1.791   6.353   2.500
 4648SOL     OW14842   2.883   1.520   3.997
 4648SOL    HW114843   2.794   1.522   3.951
 4648SOL    HW214844   2.879   1.575   4.081
 4649SOL     OW14845   5.125   4.273   1.056
 4649SOL    HW114846   5.210   4.317   1.086
 4649SOL    HW214847   5.114   4.285   0.957
 4650SOL     OW14848   3.701   4.325   0.507
 4650SOL    HW114849   3.627   4.306   0.443
 4650SOL    HW214850   3.674   4.298   0.600
 4651SOL     OW14851   1.724   3.436   0.247
 4651SOL    HW114852   1.802   3.478   0.293
 4651SOL    HW214853   1.726   3.459   0.150
 4652SOL     OW14854   6.536   6.768   6.326
 4652SOL    HW114855   6.520   6.673   6.353
 4652SOL    HW214856   6.512   6.828   6.403
 4653SOL     OW14857   1.324   6.685   0.746
 4653SOL    HW114858   1.363   6.769   0.708
 4653SOL    HW214859   1.294   6.702   0.840
 4654SOL     OW14860   0.562   0.936   5.437
 4654SOL    HW114861   0.650   0.961   5.397
 4654SOL    HW214862   0.531   1.008   5.499
 4655SOL     OW14863   5.515   5.439   3.500
 4655SOL    HW114864   5.601   5.396   3.524
 4655SOL    HW214865   5.469   5.471   3.583
 4656SOL     OW14866   6.549   0.543   1.507
 4656SOL    HW114867   6.562   0.451   1.471
 4656SOL    HW214868   6.462   0.580   1.473
 4657SOL     OW14869   3.548   1.910   2.204
 4657SOL    HW114870   3.623   1.976   2.209
 4657SOL    HW214871   3.558   1.842   2.276
 4658SOL     OW14872   1.766   1.038   0.035
 4658SOL    HW114873   1.808   0.953   0.003
 4658SOL    HW214874   1.821   1.077   0.108
 4659SOL     OW14875   2.474   5.302   1.066
 4659SOL    HW114876   2.527   5.267   0.989
 4659SOL    HW214877   2.449   5.397   1.048
 4660SOL     OW14878   0.284   4.540   4.881
 4660SOL    HW114879   0.383   4.529   4.887
 4660SOL    HW214880   0.239   4.464   4.927
 4661SOL     OW14881   0.032   0.849   4.945
 4661SOL    HW114882   6.958   0.872   4.963
 4661SOL    HW214883   0.044   0.750   4.950
 4662SOL     OW14884   2.595   0.420   0.002
 4662SOL    HW114885   2.553   0.429   6.933
 4662SOL    HW214886   2.625   0.325   0.014
 4663SOL     OW14887   0.527   6.855   1.123
 4663SOL    HW114888   0.613   6.826   1.081
 4663SOL    HW214889   0.456   6.787   1.106
 4664SOL     OW14890   6.842   6.305   5.442
 4664SOL    HW114891   6.836   6.229   5.378
 4664SOL    HW214892   6.906   6.374   5.406
 4665SOL     OW14893   6.502   1.410   2.746
 4665SOL    HW114894   6.580   1.361   2.707
 4665SOL    HW214895   6.418   1.381   2.701
 4666SOL     OW14896   2.087   2.817   5.631
 4666SOL    HW114897   2.048   2.757   5.700
 4666SOL    HW214898   2.183   2.795   5.617
 4667SOL     OW14899   6.335   1.935   0.880
 4667SOL    HW114900   6.393   1.952   0.801
 4667SOL    HW214901   6.242   1.914   0.850
 4668SOL     OW14902   4.828   1.775   5.491
 4668SOL    HW114903   4.744   1.772   5.437
 4668SOL    HW214904   4.806   1.803   5.585
 4669SOL     OW14905   5.727   6.595   6.076
 4669SOL    HW114906   5.725   6.672   6.011
 4669SOL    HW214907   5.748   6.511   6.026
 4670SOL     OW14908   0.860   3.177   0.257
 4670SOL    HW114909   0.953   3.167   0.224
 4670SOL    HW214910   0.796   3.168   0.181
 4671SOL     OW14911   6.995   2.062   1.503
 4671SOL    HW114912   6.904   2.037   1.535
 4671SOL    HW214913   7.022   2.002   1.427
 4672SOL     OW14914   3.869   3.214   0.803
 4672SOL    HW114915   3.831   3.124   0.781
 4672SOL    HW214916   3.887   3.219   0.901
 4673SOL     OW14917   4.877   1.942   0.278
 4673SOL    HW114918   4.890   1.958   0.376
 4673SOL    HW214919   4.789   1.981   0.249
 4674SOL     OW14920   0.513   2.852   0.113
 4674SOL    HW114921   0.425   2.882   0.150
 4674SOL    HW214922   0.586   2.872   0.178
 4675SOL     OW14923   1.495   6.738   0.455
 4675SOL    HW114924   1.466   6.650   0.417
 4675SOL    HW214925   1.593   6.734   0.476
 4676SOL     OW14926   0.244   5.676   4.438
 4676SOL    HW114927   0.232   5.603   4.505
 4676SOL    HW214928   0.225   5.641   4.346
 4677SOL     OW14929   5.721   7.017   6.775
 4677SOL    HW114930   5.645   0.047   6.735
 4677SOL    HW214931   5.715   7.019   6.874
 4678SOL     OW14932   2.455   5.243   0.660
 4678SOL    HW114933   2.377   5.207   0.609
 4678SOL    HW214934   2.530   5.176   0.659
 4679SOL     OW14935   2.195   6.380   5.622
 4679SOL    HW114936   2.238   6.465   5.592
 4679SOL    HW214937   2.107   6.369   5.577
 4680SOL     OW14938   1.517   5.747   5.813
 4680SOL    HW114939   1.561   5.821   5.864
 4680SOL    HW214940   1.467   5.688   5.877
 4681SOL     OW14941   0.143   6.008   6.174
 4681SOL    HW114942   0.101   5.955   6.248
 4681SOL    HW214943   0.166   5.948   6.098
 4682SOL     OW14944   2.917   6.732   1.350
 4682SOL    HW114945   2.946   6.779   1.434
 4682SOL    HW214946   2.998   6.704   1.298
 4683SOL     OW14947   0.313   5.515   3.652
 4683SOL    HW114948   0.378   5.482   3.720
 4683SOL    HW214949   0.228   5.542   3.697
 4684SOL     OW14950   1.659   1.436   3.998
 4684SOL    HW114951   1.693   1.438   4.092
 4684SOL    HW214952   1.736   1.428   3.935
 4685SOL     OW14953   5.433   4.994   3.858
 4685SOL    HW114954   5.373   5.056   3.807
 4685SOL    HW214955   5.435   5.021   3.954
 4686SOL     OW14956   4.092   5.431   6.081
 4686SOL    HW114957   4.044   5.512   6.113
 4686SOL    HW214958   4.137   5.385   6.158
 4687SOL     OW14959   4.741   0.641   5.065
 4687SOL    HW114960   4.711   0.671   5.155
 4687SOL    HW214961   4.819   0.697   5.036
 4688SOL     OW14962   0.170   0.405   1.068
 4688SOL    HW114963   0.202   0.394   1.162
 4688SOL    HW214964   0.195   0.496   1.034
 4689SOL     OW14965   2.019   6.151   4.703
 4689SOL    HW114966   1.939   6.096   4.678
 4689SOL    HW214967   2.014   6.239   4.657
 4690SOL     OW14968   3.308   2.297   0.455
 4690SOL    HW114969   3.359   2.322   0.537
 4690SOL    HW214970   3.215   2.269   0.481
 4691SOL     OW14971   2.502   4.692   0.055
 4691SOL    HW114972   2.446   4.645   0.123
 4691SOL    HW214973   2.595   4.655   0.058
 4692SOL     OW14974   0.971   5.032   3.767
 4692SOL    HW114975   0.942   5.099   3.699
 4692SOL    HW214976   0.909   5.034   3.845
 4693SOL     OW14977   0.097   1.576   2.737
 4693SOL    HW114978   0.012   1.601   2.785
 4693SOL    HW214979   0.098   1.620   2.647
 4694SOL     OW14980   1.759   0.651   4.763
 4694SOL    HW114981   1.842   0.706   4.777
 4694SOL    HW214982   1.683   0.692   4.812
 4695SOL     OW14983   3.300   3.389   2.893
 4695SOL    HW114984   3.304   3.326   2.816
 4695SOL    HW214985   3.314   3.483   2.860
 4696SOL     OW14986   0.564   1.962   6.475
 4696SOL    HW114987   0.500   2.015   6.530
 4696SOL    HW214988   0.636   1.926   6.534
 4697SOL     OW14989   0.938   4.915   6.916
 4697SOL    HW114990   0.984   5.003   6.905
 4697SOL    HW214991   0.842   4.924   6.890
 4698SOL     OW14992   6.000   3.152   2.048
 4698SOL    HW114993   5.924   3.096   2.015
 4698SOL    HW214994   5.965   3.236   2.088
 4699SOL     OW14995   6.505   0.592   3.475
 4699SOL    HW114996   6.552   0.521   3.421
 4699SOL    HW214997   6.407   0.571   3.478
 4700SOL     OW14998   5.430   6.716   4.745
 4700SOL    HW114999   5.472   6.802   4.775
 4700SOL    HW215000   5.338   6.709   4.784
 4701SOL     OW15001   2.461   1.565   5.886
 4701SOL    HW115002   2.527   1.490   5.896
 4701SOL    HW215003   2.481   1.617   5.803
 4702SOL     OW15004   3.557   3.270   0.768
 4702SOL    HW115005   3.644   3.246   0.724
 4702SOL    HW215006   3.482   3.231   0.714
 4703SOL     OW15007   0.890   6.699   1.544
 4703SOL    HW115008   0.948   6.680   1.465
 4703SOL    HW215009   0.921   6.644   1.622
 4704SOL     OW15010   4.761   0.043   5.987
 4704SOL    HW115011   4.783   0.125   5.935
 4704SOL    HW215012   4.770   0.063   6.085
 4705SOL     OW15013   3.157   3.076   5.161
 4705SOL    HW115014   3.083   3.143   5.155
 4705SOL    HW215015   3.129   3.001   5.221
 4706SOL     OW15016   5.563   2.956   0.590
 4706SOL    HW115017   5.587   2.897   0.667
 4706SOL    HW215018   5.613   3.042   0.596
 4707SOL     OW15019   2.740   3.947   1.670
 4707SOL    HW115020   2.749   3.956   1.571
 4707SOL    HW215021   2.738   3.851   1.695
 4708SOL     OW15022   2.350   2.435   2.342
 4708SOL    HW115023   2.279   2.372   2.372
 4708SOL    HW215024   2.437   2.386   2.334
 4709SOL     OW15025   2.759   3.990   0.528
 4709SOL    HW115026   2.812   4.018   0.448
 4709SOL    HW215027   2.690   4.059   0.549
 4710SOL     OW15028   4.409   2.433   1.310
 4710SOL    HW115029   4.312   2.454   1.300
 4710SOL    HW215030   4.420   2.356   1.373
 4711SOL     OW15031   2.411   0.407   3.438
 4711SOL    HW115032   2.454   0.332   3.388
 4711SOL    HW215033   2.470   0.488   3.433
 4712SOL     OW15034   1.401   3.342   7.002
 4712SOL    HW115035   1.439   3.290   6.926
 4712SOL    HW215036   1.303   3.356   6.987
 4713SOL     OW15037   0.610   6.219   0.756
 4713SOL    HW115038   0.532   6.173   0.798
 4713SOL    HW215039   0.690   6.159   0.759
 4714SOL     OW15040   4.245   1.724   0.820
 4714SOL    HW115041   4.298   1.660   0.763
 4714SOL    HW215042   4.217   1.802   0.765
 4715SOL     OW15043   5.066   3.808   5.329
 4715SOL    HW115044   5.149   3.765   5.296
 4715SOL    HW215045   4.993   3.740   5.334
 4716SOL     OW15046   1.923   5.484   6.573
 4716SOL    HW115047   1.859   5.480   6.650
 4716SOL    HW215048   1.933   5.393   6.533
 4717SOL     OW15049   2.155   4.811   5.371
 4717SOL    HW115050   2.146   4.779   5.277
 4717SOL    HW215051   2.251   4.828   5.392
 4718SOL     OW15052   5.109   0.082   0.184
 4718SOL    HW115053   5.151   0.046   0.267
 4718SOL    HW215054   5.179   0.097   0.114
 4719SOL     OW15055   4.237   2.999   0.979
 4719SOL    HW115056   4.315   3.058   0.998
 4719SOL    HW215057   4.182   2.988   1.061
 4720SOL     OW15058   2.334   1.772   3.640
 4720SOL    HW115059   2.331   1.702   3.711
 4720SOL    HW215060   2.328   1.728   3.550
 4721SOL     OW15061   1.726   1.492   1.738
 4721SOL    HW115062   1.808   1.476   1.684
 4721SOL    HW215063   1.653   1.526   1.678
 4722SOL     OW15064   2.175   0.938   2.126
 4722SOL    HW115065   2.170   0.986   2.214
 4722SOL    HW215066   2.135   0.847   2.135
 4723SOL     OW15067   2.916   1.029   5.646
 4723SOL    HW115068   2.881   1.122   5.643
 4723SOL    HW215069   2.909   0.988   5.555
 4724SOL     OW15070   3.766   5.346   0.943
 4724SOL    HW115071   3.748   5.429   0.995
 4724SOL    HW215072   3.818   5.368   0.861
 4725SOL     OW15073   6.366   4.720   2.733
 4725SOL    HW115074   6.365   4.623   2.708
 4725SOL    HW215075   6.296   4.737   2.802
 4726SOL     OW15076   6.346   6.941   3.811
 4726SOL    HW115077   6.350   0.007   3.859
 4726SOL    HW215078   6.316   6.957   3.716
 4727SOL     OW15079   4.778   6.461   1.619
 4727SOL    HW115080   4.697   6.404   1.631
 4727SOL    HW215081   4.752   6.558   1.619
 4728SOL     OW15082   6.771   6.208   6.781
 4728SOL    HW115083   6.731   6.142   6.845
 4728SOL    HW215084   6.780   6.296   6.826
 4729SOL     OW15085   3.423   0.403   1.210
 4729SOL    HW115086   3.480   0.480   1.236
 4729SOL    HW215087   3.481   0.323   1.191
 4730SOL     OW15088   0.989   0.625   6.152
 4730SOL    HW115089   0.923   0.582   6.214
 4730SOL    HW215090   1.055   0.679   6.205
 4731SOL     OW15091   5.198   1.408   6.055
 4731SOL    HW115092   5.150   1.417   6.143
 4731SOL    HW215093   5.148   1.459   5.985
 4732SOL     OW15094   0.623   6.989   6.422
 4732SOL    HW115095   0.651   6.965   6.514
 4732SOL    HW215096   0.530   0.006   6.424
 4733SOL     OW15097   5.383   3.949   2.813
 4733SOL    HW115098   5.391   4.033   2.867
 4733SOL    HW215099   5.410   3.871   2.869
 4734SOL     OW15100   6.162   3.961   5.728
 4734SOL    HW115101   6.245   4.014   5.745
 4734SOL    HW215102   6.099   3.970   5.805
 4735SOL     OW15103   0.860   3.565   3.252
 4735SOL    HW115104   0.785   3.600   3.195
 4735SOL    HW215105   0.822   3.532   3.339
 4736SOL     OW15106   1.413   6.818   2.032
 4736SOL    HW115107   1.366   6.786   2.115
 4736SOL    HW215108   1.495   6.763   2.018
 4737SOL     OW15109   3.320   5.580   2.706
 4737SOL    HW115110   3.397   5.521   2.729
 4737SOL    HW215111   3.300   5.571   2.609
 4738SOL     OW15112   1.184   0.591   3.223
 4738SOL    HW115113   1.128   0.645   3.286
 4738SOL    HW215114   1.200   0.500   3.263
 4739SOL     OW15115   3.837   0.172   1.428
 4739SOL    HW115116   3.915   0.150   1.486
 4739SOL    HW215117   3.836   0.270   1.408
 4740SOL     OW15118   0.754   2.156   4.920
 4740SOL    HW115119   0.836   2.099   4.920
 4740SOL    HW215120   0.709   2.149   4.831
 4741SOL     OW15121   4.082   3.158   4.694
 4741SOL    HW115122   3.991   3.118   4.704
 4741SOL    HW215123   4.151   3.093   4.726
 4742SOL     OW15124   4.358   0.910   3.708
 4742SOL    HW115125   4.373   0.870   3.618
 4742SOL    HW215126   4.425   0.982   3.725
 4743SOL     OW15127   0.376   5.065   0.907
 4743SOL    HW115128   0.420   5.041   0.820
 4743SOL    HW215129   0.432   5.133   0.955
 4744SOL     OW15130   1.134   4.753   2.031
 4744SOL    HW115131   1.194   4.815   2.082
 4744SOL    HW215132   1.078   4.805   1.967
 4745SOL     OW15133   1.958   3.071   0.285
 4745SOL    HW115134   1.908   3.141   0.337
 4745SOL    HW215135   1.967   2.988   0.341
 4746SOL     OW15136   6.208   5.983   4.465
 4746SOL    HW115137   6.153   6.052   4.512
 4746SOL    HW215138   6.164   5.957   4.379
 4747SOL     OW15139   4.486   0.383   0.751
 4747SOL    HW115140   4.424   0.438   0.806
 4747SOL    HW215141   4.561   0.349   0.808
 4748SOL     OW15142   2.411   6.829   3.573
 4748SOL    HW115143   2.454   6.742   3.596
 4748SOL    HW215144   2.423   6.893   3.648
 4749SOL     OW15145   2.887   1.610   1.165
 4749SOL    HW115146   2.906   1.672   1.241
 4749SOL    HW215147   2.816   1.545   1.192
 4750SOL     OW15148   5.672   2.977   6.260
 4750SOL    HW115149   5.601   3.023   6.206
 4750SOL    HW215150   5.677   3.020   6.350
 4751SOL     OW15151   3.644   1.799   2.472
 4751SOL    HW115152   3.700   1.854   2.535
 4751SOL    HW215153   3.555   1.780   2.515
 4752SOL     OW15154   6.394   6.631   6.717
 4752SOL    HW115155   6.367   6.612   6.811
 4752SOL    HW215156   6.399   6.545   6.666
 4753SOL     OW15157   3.270   5.834   5.055
 4753SOL    HW115158   3.212   5.802   5.130
 4753SOL    HW215159   3.217   5.897   4.997
 4754SOL     OW15160   6.152   4.665   0.231
 4754SOL    HW115161   6.127   4.741   0.171
 4754SOL    HW215162   6.244   4.633   0.206
 4755SOL     OW15163   6.433   1.069   2.244
 4755SOL    HW115164   6.351   1.030   2.203
 4755SOL    HW215165   6.506   1.073   2.176
 4756SOL     OW15166   0.055   3.742   4.814
 4756SOL    HW115167   0.146   3.783   4.825
 4756SOL    HW215168   0.058   3.671   4.744
 4757SOL     OW15169   2.324   3.780   1.179
 4757SOL    HW115170   2.378   3.749   1.100
 4757SOL    HW215171   2.385   3.793   1.257
 4758SOL     OW15172   2.044   5.160   1.964
 4758SOL    HW115173   2.139   5.129   1.965
 4758SOL    HW215174   1.990   5.104   2.027
 4759SOL     OW15175   0.761   6.562   3.161
 4759SOL    HW115176   0.780   6.471   3.197
 4759SOL    HW215177   0.761   6.628   3.236
 4760SOL     OW15178   0.736   0.918   2.610
 4760SOL    HW115179   0.804   0.893   2.679
 4760SOL    HW215180   0.778   0.918   2.520
 4761SOL     OW15181   4.068   5.871   2.251
 4761SOL    HW115182   3.996   5.904   2.312
 4761SOL    HW215183   4.145   5.837   2.306
 4762SOL     OW15184   0.377   1.045   2.692
 4762SOL    HW115185   0.415   0.981   2.625
 4762SOL    HW215186   0.343   1.126   2.644
 4763SOL     OW15187   4.917   3.999   1.594
 4763SOL    HW115188   5.005   3.972   1.554
 4763SOL    HW215189   4.871   4.063   1.532
 4764SOL     OW15190   4.461   3.182   6.619
 4764SOL    HW115191   4.368   3.209   6.595
 4764SOL    HW215192   4.459   3.101   6.677
 4765SOL     OW15193   3.883   1.747   5.543
 4765SOL    HW115194   3.847   1.726   5.452
 4765SOL    HW215195   3.890   1.846   5.555
 4766SOL     OW15196   1.290   0.855   2.919
 4766SOL    HW115197   1.347   0.934   2.897
 4766SOL    HW215198   1.345   0.786   2.967
 4767SOL     OW15199   2.684   5.051   2.392
 4767SOL    HW115200   2.783   5.037   2.387
 4767SOL    HW215201   2.662   5.104   2.474
 4768SOL     OW15202   4.391   2.319   6.120
 4768SOL    HW115203   4.296   2.300   6.095
 4768SOL    HW215204   4.408   2.291   6.214
 4769SOL     OW15205   3.243   2.810   0.324
 4769SOL    HW115206   3.182   2.828   0.401
 4769SOL    HW215207   3.198   2.749   0.259
 4770SOL     OW15208   0.212   1.978   3.874
 4770SOL    HW115209   0.273   1.901   3.860
 4770SOL    HW215210   0.182   1.982   3.969
 4771SOL     OW15211   3.118   1.389   4.046
 4771SOL    HW115212   3.118   1.312   3.982
 4771SOL    HW215213   3.030   1.436   4.043
 4772SOL     OW15214   3.043   5.189   2.567
 4772SOL    HW115215   3.092   5.256   2.512
 4772SOL    HW215216   3.040   5.220   2.662
 4773SOL     OW15217   3.434   5.708   3.705
 4773SOL    HW115218   3.346   5.711   3.658
 4773SOL    HW215219   3.492   5.782   3.673
 4774SOL     OW15220   6.924   3.818   0.825
 4774SOL    HW115221   6.924   3.725   0.861
 4774SOL    HW215222   6.956   3.817   0.730
 4775SOL     OW15223   5.174   4.968   4.198
 4775SOL    HW115224   5.247   4.978   4.266
 4775SOL    HW215225   5.148   5.059   4.164
 4776SOL     OW15226   6.830   1.528   5.173
 4776SOL    HW115227   6.749   1.494   5.221
 4776SOL    HW215228   6.912   1.485   5.212
 4777SOL     OW15229   0.894   6.406   3.487
 4777SOL    HW115230   0.874   6.339   3.415
 4777SOL    HW215231   0.904   6.358   3.574
 4778SOL     OW15232   1.100   0.671   1.045
 4778SOL    HW115233   1.117   0.600   1.113
 4778SOL    HW215234   1.081   0.628   0.956
 4779SOL     OW15235   4.597   2.077   4.766
 4779SOL    HW115236   4.679   2.020   4.767
 4779SOL    HW215237   4.516   2.019   4.757
 4780SOL     OW15238   5.046   2.951   4.305
 4780SOL    HW115239   5.009   2.874   4.253
 4780SOL    HW215240   5.012   3.037   4.267
 4781SOL     OW15241   2.957   5.125   1.078
 4781SOL    HW115242   3.008   5.051   1.122
 4781SOL    HW215243   3.004   5.212   1.094
 4782SOL     OW15244   0.955   0.178   3.119
 4782SOL    HW115245   0.876   0.200   3.062
 4782SOL    HW215246   1.038   0.185   3.064
 4783SOL     OW15247   1.037   4.139   6.868
 4783SOL    HW115248   1.076   4.054   6.903
 4783SOL    HW215249   1.109   4.208   6.861
 4784SOL     OW15250   6.415   2.831   6.455
 4784SOL    HW115251   6.446   2.775   6.531
 4784SOL    HW215252   6.401   2.774   6.374
 4785SOL     OW15253   0.268   1.316   4.441
 4785SOL    HW115254   0.222   1.311   4.352
 4785SOL    HW215255   0.366   1.301   4.429
 4786SOL     OW15256   1.462   6.443   0.650
 4786SOL    HW115257   1.490   6.414   0.558
 4786SOL    HW215258   1.443   6.541   0.649
 4787SOL     OW15259   4.512   1.628   5.722
 4787SOL    HW115260   4.582   1.593   5.783
 4787SOL    HW215261   4.423   1.626   5.768
 4788SOL     OW15262   6.820   5.629   1.009
 4788SOL    HW115263   6.909   5.654   0.972
 4788SOL    HW215264   6.771   5.573   0.942
 4789SOL     OW15265   5.127   1.099   1.385
 4789SOL    HW115266   5.227   1.091   1.387
 4789SOL    HW215267   5.096   1.102   1.291
 4790SOL     OW15268   6.930   2.477   6.599
 4790SOL    HW115269   6.924   2.379   6.582
 4790SOL    HW215270   6.982   2.493   6.682
 4791SOL     OW15271   0.917   0.788   6.804
 4791SOL    HW115272   0.998   0.729   6.809
 4791SOL    HW215273   0.857   0.756   6.730
 4792SOL     OW15274   0.806   4.463   1.691
 4792SOL    HW115275   0.709   4.486   1.686
 4792SOL    HW215276   0.861   4.546   1.678
 4793SOL     OW15277   1.610   2.831   5.332
 4793SOL    HW115278   1.696   2.830   5.382
 4793SOL    HW215279   1.543   2.886   5.382
 4794SOL     OW15280   5.628   1.127   6.550
 4794SOL    HW115281   5.616   1.204   6.488
 4794SOL    HW215282   5.545   1.114   6.604
 4795SOL     OW15283   0.035   6.673   6.914
 4795SOL    HW115284   0.097   6.736   6.868
 4795SOL    HW215285   0.088   6.608   6.969
 4796SOL     OW15286   5.596   1.749   5.766
 4796SOL    HW115287   5.515   1.765   5.709
 4796SOL    HW215288   5.595   1.655   5.799
 4797SOL     OW15289   2.843   5.194   5.229
 4797SOL    HW115290   2.943   5.199   5.229
 4797SOL    HW215291   2.814   5.099   5.216
 4798SOL     OW15292   3.793   6.241   6.603
 4798SOL    HW115293   3.704   6.236   6.650
 4798SOL    HW215294   3.845   6.318   6.639
 4799SOL     OW15295   4.330   3.639   1.487
 4799SOL    HW115296   4.365   3.585   1.411
 4799SOL    HW215297   4.235   3.663   1.469
 4800SOL     OW15298   0.842   4.300   6.729
 4800SOL    HW115299   0.760   4.245   6.713
 4800SOL    HW215300   0.884   4.273   6.816
 4801SOL     OW15301   4.912   3.102   3.454
 4801SOL    HW115302   4.890   3.081   3.549
 4801SOL    HW215303   4.876   3.030   3.394
 4802SOL     OW15304   6.650   0.590   4.678
 4802SOL    HW115305   6.701   0.655   4.622
 4802SOL    HW215306   6.556   0.623   4.691
 4803SOL     OW15307   5.471   3.559   5.997
 4803SOL    HW115308   5.453   3.471   6.041
 4803SOL    HW215309   5.570   3.568   5.979
 4804SOL     OW15310   5.971   2.613   1.164
 4804SOL    HW115311   6.053   2.637   1.112
 4804SOL    HW215312   5.982   2.642   1.259
 4805SOL     OW15313   6.100   0.374   5.290
 4805SOL    HW115314   6.030   0.339   5.353
 4805SOL    HW215315   6.085   0.335   5.199
 4806SOL     OW15316   1.173   2.261   3.558
 4806SOL    HW115317   1.267   2.290   3.544
 4806SOL    HW215318   1.112   2.340   3.547
 4807SOL     OW15319   0.766   3.582   0.970
 4807SOL    HW115320   0.690   3.540   0.920
 4807SOL    HW215321   0.845   3.591   0.909
 4808SOL     OW15322   2.351   6.173   3.469
 4808SOL    HW115323   2.348   6.073   3.476
 4808SOL    HW215324   2.359   6.213   3.560
 4809SOL     OW15325   2.734   3.831   0.987
 4809SOL    HW115326   2.778   3.769   0.922
 4809SOL    HW215327   2.703   3.913   0.939
 4810SOL     OW15328   1.997   5.496   4.361
 4810SOL    HW115329   2.086   5.539   4.375
 4810SOL    HW215330   1.977   5.493   4.263
 4811SOL     OW15331   3.204   2.968   4.887
 4811SOL    HW115332   3.141   2.972   4.964
 4811SOL    HW215333   3.191   3.047   4.828
 4812SOL     OW15334   2.178   6.133   1.402
 4812SOL    HW115335   2.171   6.044   1.447
 4812SOL    HW215336   2.199   6.120   1.305
 4813SOL     OW15337   1.362   2.365   4.817
 4813SOL    HW115338   1.286   2.330   4.871
 4813SOL    HW215339   1.448   2.348   4.866
 4814SOL     OW15340   4.570   1.277   0.532
 4814SOL    HW115341   4.609   1.354   0.583
 4814SOL    HW215342   4.587   1.290   0.435
 4815SOL     OW15343   6.557   4.344   3.257
 4815SOL    HW115344   6.506   4.315   3.338
 4815SOL    HW215345   6.652   4.312   3.264
 4816SOL     OW15346   2.657   0.734   2.574
 4816SOL    HW115347   2.740   0.685   2.549
 4816SOL    HW215348   2.679   0.830   2.593
 4817SOL     OW15349   4.985   3.671   6.754
 4817SOL    HW115350   4.913   3.616   6.711
 4817SOL    HW215351   5.071   3.620   6.752
 4818SOL     OW15352   4.879   6.477   5.729
 4818SOL    HW115353   4.972   6.512   5.714
 4818SOL    HW215354   4.814   6.539   5.686
 4819SOL     OW15355   3.770   0.355   0.501
 4819SOL    HW115356   3.769   0.444   0.547
 4819SOL    HW215357   3.689   0.303   0.526
 4820SOL     OW15358   0.768   5.351   1.171
 4820SOL    HW115359   0.863   5.380   1.158
 4820SOL    HW215360   0.711   5.432   1.184
 4821SOL     OW15361   6.656   5.848   0.948
 4821SOL    HW115362   6.719   5.770   0.951
 4821SOL    HW215363   6.662   5.898   1.034
 4822SOL     OW15364   0.692   3.291   2.182
 4822SOL    HW115365   0.739   3.344   2.111
 4822SOL    HW215366   0.706   3.194   2.166
 4823SOL     OW15367   6.466   1.943   2.627
 4823SOL    HW115368   6.391   1.973   2.685
 4823SOL    HW215369   6.446   1.965   2.532
 4824SOL     OW15370   5.021   1.187   2.907
 4824SOL    HW115371   4.988   1.106   2.860
 4824SOL    HW215372   5.006   1.268   2.849
 4825SOL     OW15373   2.378   4.352   4.614
 4825SOL    HW115374   2.321   4.408   4.675
 4825SOL    HW215375   2.473   4.382   4.621
 4826SOL     OW15376   0.821   5.843   6.714
 4826SOL    HW115377   0.761   5.911   6.754
 4826SOL    HW215378   0.819   5.851   6.614
 4827SOL     OW15379   5.648   0.863   6.512
 4827SOL    HW115380   5.597   0.806   6.576
 4827SOL    HW215381   5.640   0.959   6.538
 4828SOL     OW15382   6.461   2.593   6.597
 4828SOL    HW115383   6.430   2.499   6.583
 4828SOL    HW215384   6.547   2.593   6.647
 4829SOL     OW15385   1.993   1.340   5.341
 4829SOL    HW115386   2.057   1.412   5.369
 4829SOL    HW215387   2.039   1.279   5.277
 4830SOL     OW15388   6.453   4.601   4.561
 4830SOL    HW115389   6.501   4.687   4.578
 4830SOL    HW215390   6.388   4.585   4.636
 4831SOL     OW15391   0.003   1.720   6.560
 4831SOL    HW115392   6.993   1.758   6.473
 4831SOL    HW215393   0.090   1.673   6.546
 4832SOL     OW15394   1.501   2.502   6.309
 4832SOL    HW115395   1.551   2.564   6.249
 4832SOL    HW215396   1.423   2.550   6.350
 4833SOL     OW15397   6.518   2.379   1.995
 4833SOL    HW115398   6.554   2.386   2.088
 4833SOL    HW215399   6.594   2.368   1.931
 4834SOL     OW15400   5.630   0.790   3.310
 4834SOL    HW115401   5.541   0.747   3.295
 4834SOL    HW215402   5.694   0.760   3.239
 4835SOL     OW15403   2.130   2.557   5.918
 4835SOL    HW115404   2.069   2.497   5.867
 4835SOL    HW215405   2.080   2.639   5.947
 4836SOL     OW15406   5.722   5.250   3.577
 4836SOL    HW115407   5.632   5.226   3.613
 4836SOL    HW215408   5.745   5.189   3.501
 4837SOL     OW15409   6.975   4.973   2.139
 4837SOL    HW115410   0.046   4.965   2.176
 4837SOL    HW215411   6.909   4.952   2.211
 4838SOL     OW15412   2.966   6.500   3.307
 4838SOL    HW115413   2.884   6.448   3.328
 4838SOL    HW215414   2.958   6.539   3.215
 4839SOL     OW15415   0.576   6.984   5.863
 4839SOL    HW115416   0.525   6.923   5.803
 4839SOL    HW215417   0.642   6.932   5.916
 4840SOL     OW15418   6.317   5.378   5.865
 4840SOL    HW115419   6.346   5.452   5.805
 4840SOL    HW215420   6.317   5.410   5.960
 4841SOL     OW15421   0.907   5.359   1.955
 4841SOL    HW115422   0.847   5.405   2.021
 4841SOL    HW215423   0.984   5.317   2.004
 4842SOL     OW15424   3.141   0.047   0.420
 4842SOL    HW115425   3.223   0.063   0.475
 4842SOL    HW215426   3.135   6.972   0.397
 4843SOL     OW15427   2.484   3.843   0.230
 4843SOL    HW115428   2.546   3.830   0.307
 4843SOL    HW215429   2.421   3.766   0.224
 4844SOL     OW15430   0.301   1.054   5.685
 4844SOL    HW115431   0.211   1.083   5.654
 4844SOL    HW215432   0.371   1.088   5.621
 4845SOL     OW15433   5.809   0.031   3.708
 4845SOL    HW115434   5.723   0.033   3.658
 4845SOL    HW215435   5.839   0.124   3.729
 4846SOL     OW15436   6.909   4.487   5.366
 4846SOL    HW115437   6.997   4.533   5.358
 4846SOL    HW215438   6.889   4.471   5.463
 4847SOL     OW15439   5.445   3.486   4.439
 4847SOL    HW115440   5.400   3.570   4.470
 4847SOL    HW215441   5.543   3.494   4.454
 4848SOL     OW15442   2.964   3.641   1.183
 4848SOL    HW115443   3.017   3.623   1.266
 4848SOL    HW215444   2.871   3.668   1.208
 4849SOL     OW15445   2.818   6.314   6.926
 4849SOL    HW115446   2.778   6.356   7.008
 4849SOL    HW215447   2.768   6.231   6.903
 4850SOL     OW15448   3.519   6.833   3.308
 4850SOL    HW115449   3.451   6.888   3.260
 4850SOL    HW215450   3.476   6.786   3.385
 4851SOL     OW15451   5.442   1.493   5.575
 4851SOL    HW115452   5.406   1.409   5.536
 4851SOL    HW215453   5.538   1.504   5.551
 4852SOL     OW15454   1.185   1.915   2.047
 4852SOL    HW115455   1.214   1.834   2.098
 4852SOL    HW215456   1.210   1.997   2.099
 4853SOL     OW15457   3.261   0.549   0.961
 4853SOL    HW115458   3.287   0.512   1.051
 4853SOL    HW215459   3.196   0.487   0.918
 4854SOL     OW15460   4.746   0.012   5.136
 4854SOL    HW115461   4.703   6.988   5.214
 4854SOL    HW215462   4.713   6.994   5.051
 4855SOL     OW15463   0.322   2.558   2.646
 4855SOL    HW115464   0.250   2.499   2.609
 4855SOL    HW215465   0.347   2.627   2.578
 4856SOL     OW15466   6.961   4.970   3.172
 4856SOL    HW115467   6.990   5.066   3.172
 4856SOL    HW215468   6.869   4.963   3.212
 4857SOL     OW15469   6.401   1.218   5.905
 4857SOL    HW115470   6.389   1.154   5.829
 4857SOL    HW215471   6.340   1.297   5.892
 4858SOL     OW15472   1.201   6.529   2.894
 4858SOL    HW115473   1.240   6.620   2.898
 4858SOL    HW215474   1.266   6.466   2.851
 4859SOL     OW15475   3.942   6.956   5.919
 4859SOL    HW115476   3.985   7.021   5.856
 4859SOL    HW215477   3.861   6.916   5.876
 4860SOL     OW15478   2.749   5.235   6.807
 4860SOL    HW115479   2.838   5.213   6.846
 4860SOL    HW215480   2.760   5.308   6.739
 4861SOL     OW15481   4.322   3.520   5.846
 4861SOL    HW115482   4.377   3.501   5.765
 4861SOL    HW215483   4.348   3.457   5.919
 4862SOL     OW15484   1.785   0.544   7.015
 4862SOL    HW115485   1.802   0.639   6.991
 4862SOL    HW215486   1.773   0.535   0.092
 4863SOL     OW15487   4.945   3.600   5.631
 4863SOL    HW115488   4.906   3.678   5.681
 4863SOL    HW215489   4.938   3.617   5.533
 4864SOL     OW15490   3.606   1.633   3.821
 4864SOL    HW115491   3.629   1.636   3.918
 4864SOL    HW215492   3.685   1.660   3.767
 4865SOL     OW15493   1.290   5.480   5.060
 4865SOL    HW115494   1.273   5.536   5.141
 4865SOL    HW215495   1.342   5.398   5.085
 4866SOL     OW15496   0.385   4.005   5.600
 4866SOL    HW115497   0.403   3.919   5.553
 4866SOL    HW215498   0.287   4.012   5.620
 4867SOL     OW15499   3.828   0.748   3.200
 4867SOL    HW115500   3.782   0.837   3.205
 4867SOL    HW215501   3.765   0.676   3.229
 4868SOL     OW15502   0.119   6.125   1.128
 4868SOL    HW115503   0.182   6.179   1.073
 4868SOL    HW215504   0.165   6.041   1.158
 4869SOL     OW15505   6.542   0.975   0.298
 4869SOL    HW115506   6.589   0.888   0.286
 4869SOL    HW215507   6.585   1.027   0.371
 4870SOL     OW15508   1.810   0.759   0.380
 4870SOL    HW115509   1.778   0.851   0.356
 4870SOL    HW215510   1.744   0.717   0.443
 4871SOL     OW15511   1.189   1.886   4.191
 4871SOL    HW115512   1.251   1.879   4.113
 4871SOL    HW215513   1.171   1.795   4.228
 4872SOL     OW15514   5.376   0.724   2.912
 4872SOL    HW115515   5.324   0.799   2.953
 4872SOL    HW215516   5.382   0.738   2.814
 4873SOL     OW15517   6.483   6.653   3.373
 4873SOL    HW115518   6.398   6.652   3.321
 4873SOL    HW215519   6.480   6.582   3.444
 4874SOL     OW15520   5.622   4.398   2.606
 4874SOL    HW115521   5.632   4.299   2.599
 4874SOL    HW215522   5.688   4.434   2.672
 4875SOL     OW15523   6.512   6.936   4.282
 4875SOL    HW115524   6.573   6.939   4.202
 4875SOL    HW215525   6.493   0.007   4.312
 4876SOL     OW15526   5.891   2.192   2.091
 4876SOL    HW115527   5.910   2.290   2.085
 4876SOL    HW215528   5.962   2.141   2.042
 4877SOL     OW15529   0.500   1.287   0.037
 4877SOL    HW115530   0.495   1.382   0.067
 4877SOL    HW215531   0.518   1.283   6.961
 4878SOL     OW15532   6.457   4.635   4.196
 4878SOL    HW115533   6.366   4.676   4.195
 4878SOL    HW215534   6.526   4.708   4.194
 4879SOL     OW15535   5.227   1.384   3.207
 4879SOL    HW115536   5.212   1.295   3.165
 4879SOL    HW215537   5.324   1.392   3.233
 4880SOL     OW15538   0.360   3.465   6.765
 4880SOL    HW115539   0.313   3.551   6.747
 4880SOL    HW215540   0.310   3.413   6.834
 4881SOL     OW15541   6.842   3.909   2.187
 4881SOL    HW115542   6.756   3.871   2.153
 4881SOL    HW215543   6.905   3.924   2.111
 4882SOL     OW15544   5.323   2.297   4.368
 4882SOL    HW115545   5.345   2.248   4.284
 4882SOL    HW215546   5.397   2.360   4.391
 4883SOL     OW15547   0.361   4.551   6.156
 4883SOL    HW115548   0.300   4.627   6.130
 4883SOL    HW215549   0.414   4.576   6.237
 4884SOL     OW15550   1.863   2.271   1.467
 4884SOL    HW115551   1.778   2.249   1.418
 4884SOL    HW215552   1.895   2.361   1.439
 4885SOL     OW15553   1.416   6.031   6.516
 4885SOL    HW115554   1.350   5.960   6.539
 4885SOL    HW215555   1.448   6.018   6.422
 4886SOL     OW15556   3.119   0.824   2.106
 4886SOL    HW115557   3.024   0.833   2.136
 4886SOL    HW215558   3.172   0.779   2.177
 4887SOL     OW15559   5.515   6.087   0.674
 4887SOL    HW115560   5.581   6.051   0.741
 4887SOL    HW215561   5.425   6.093   0.717
 4888SOL     OW15562   3.798   6.457   2.983
 4888SOL    HW115563   3.898   6.454   2.991
 4888SOL    HW215564   3.761   6.526   3.045
 4889SOL     OW15565   5.398   3.443   3.230
 4889SOL    HW115566   5.413   3.466   3.326
 4889SOL    HW215567   5.318   3.492   3.196
 4890SOL     OW15568   6.614   2.713   4.797
 4890SOL    HW115569   6.584   2.780   4.730
 4890SOL    HW215570   6.706   2.735   4.828
 4891SOL     OW15571   3.351   6.030   0.313
 4891SOL    HW115572   3.355   5.933   0.338
 4891SOL    HW215573   3.414   6.082   0.372
 4892SOL     OW15574   4.640   4.373   1.587
 4892SOL    HW115575   4.701   4.427   1.529
 4892SOL    HW215576   4.665   4.386   1.683
 4893SOL     OW15577   2.396   2.373   0.825
 4893SOL    HW115578   2.395   2.432   0.744
 4893SOL    HW215579   2.302   2.344   0.845
 4894SOL     OW15580   4.827   6.055   0.346
 4894SOL    HW115581   4.733   6.059   0.379
 4894SOL    HW215582   4.869   5.969   0.376
 4895SOL     OW15583   6.363   3.660   5.001
 4895SOL    HW115584   6.298   3.713   4.947
 4895SOL    HW215585   6.325   3.568   5.017
 4896SOL     OW15586   2.195   4.814   5.105
 4896SOL    HW115587   2.254   4.742   5.067
 4896SOL    HW215588   2.158   4.869   5.030
 4897SOL     OW15589   2.680   1.798   5.859
 4897SOL    HW115590   2.705   1.710   5.900
 4897SOL    HW215591   2.747   1.822   5.789
 4898SOL     OW15592   5.180   2.500   3.061
 4898SOL    HW115593   5.270   2.524   3.023
 4898SOL    HW215594   5.118   2.579   3.053
 4899SOL     OW15595   6.353   5.463   1.014
 4899SOL    HW115596   6.323   5.391   1.077
 4899SOL    HW215597   6.444   5.495   1.040
 4900SOL     OW15598   3.141   5.215   5.748
 4900SOL    HW115599   3.079   5.169   5.812
 4900SOL    HW215600   3.203   5.274   5.800
 4901SOL     OW15601   2.432   0.670   6.409
 4901SOL    HW115602   2.427   0.595   6.343
 4901SOL    HW215603   2.494   0.644   6.484
 4902SOL     OW15604   1.649   0.432   5.903
 4902SOL    HW115605   1.696   0.520   5.909
 4902SOL    HW215606   1.653   0.398   5.809
 4903SOL     OW15607   5.163   3.579   3.198
 4903SOL    HW115608   5.063   3.573   3.202
 4903SOL    HW215609   5.189   3.656   3.141
 4904SOL     OW15610   2.639   0.447   2.265
 4904SOL    HW115611   2.546   0.472   2.294
 4904SOL    HW215612   2.655   0.350   2.285
 4905SOL     OW15613   2.244   1.273   1.068
 4905SOL    HW115614   2.166   1.222   1.032
 4905SOL    HW215615   2.218   1.369   1.081
 4906SOL     OW15616   5.259   3.649   5.204
 4906SOL    HW115617   5.343   3.698   5.177
 4906SOL    HW215618   5.283   3.557   5.234
 4907SOL     OW15619   4.702   2.083   0.855
 4907SOL    HW115620   4.644   2.055   0.931
 4907SOL    HW215621   4.673   2.173   0.822
 4908SOL     OW15622   2.839   6.471   0.225
 4908SOL    HW115623   2.747   6.451   0.193
 4908SOL    HW215624   2.854   6.426   0.313
 4909SOL     OW15625   5.230   6.757   4.926
 4909SOL    HW115626   5.137   6.777   4.960
 4909SOL    HW215627   5.296   6.778   4.998
 4910SOL     OW15628   4.103   1.937   6.599
 4910SOL    HW115629   4.177   1.881   6.563
 4910SOL    HW215630   4.072   1.899   6.687
 4911SOL     OW15631   6.223   4.644   3.836
 4911SOL    HW115632   6.152   4.713   3.828
 4911SOL    HW215633   6.247   4.609   3.745
 4912SOL     OW15634   5.870   3.484   4.201
 4912SOL    HW115635   5.967   3.461   4.193
 4912SOL    HW215636   5.853   3.573   4.159
 4913SOL     OW15637   1.397   4.001   5.833
 4913SOL    HW115638   1.420   3.904   5.833
 4913SOL    HW215639   1.411   4.038   5.925
 4914SOL     OW15640   2.743   6.754   4.293
 4914SOL    HW115641   2.769   6.842   4.255
 4914SOL    HW215642   2.732   6.763   4.392
 4915SOL     OW15643   4.676   6.893   4.916
 4915SOL    HW115644   4.577   6.891   4.904
 4915SOL    HW215645   4.711   6.981   4.882
 4916SOL     OW15646   5.948   3.041   3.769
 4916SOL    HW115647   5.925   2.968   3.833
 4916SOL    HW215648   5.901   3.125   3.796
 4917SOL     OW15649   5.041   6.178   6.672
 4917SOL    HW115650   5.101   6.158   6.750
 4917SOL    HW215651   5.054   6.109   6.601
 4918SOL     OW15652   4.561   6.155   4.498
 4918SOL    HW115653   4.585   6.076   4.554
 4918SOL    HW215654   4.518   6.123   4.413
 4919SOL     OW15655   4.861   3.562   1.959
 4919SOL    HW115656   4.834   3.579   2.053
 4919SOL    HW215657   4.780   3.563   1.900
 4920SOL     OW15658   6.509   0.849   5.770
 4920SOL    HW115659   6.480   0.944   5.757
 4920SOL    HW215660   6.437   0.800   5.821
 4921SOL     OW15661   6.105   1.327   2.091
 4921SOL    HW115662   6.186   1.309   2.035
 4921SOL    HW215663   6.024   1.290   2.045
 4922SOL     OW15664   4.054   0.128   5.661
 4922SOL    HW115665   4.095   0.207   5.705
 4922SOL    HW215666   4.125   0.065   5.631
 4923SOL     OW15667   4.168   1.274   2.128
 4923SOL    HW115668   4.092   1.332   2.157
 4923SOL    HW215669   4.135   1.182   2.107
 4924SOL     OW15670   3.347   2.124   4.300
 4924SOL    HW115671   3.260   2.162   4.332
 4924SOL    HW215672   3.339   2.097   4.204
 4925SOL     OW15673   5.229   0.153   3.656
 4925SOL    HW115674   5.281   0.069   3.669
 4925SOL    HW215675   5.199   0.187   3.745
 4926SOL     OW15676   4.781   2.765   1.925
 4926SOL    HW115677   4.702   2.704   1.917
 4926SOL    HW215678   4.753   2.850   1.970
 4927SOL     OW15679   1.637   1.877   0.828
 4927SOL    HW115680   1.651   1.873   0.729
 4927SOL    HW215681   1.559   1.936   0.848
 4928SOL     OW15682   0.667   1.962   1.519
 4928SOL    HW115683   0.615   1.931   1.599
 4928SOL    HW215684   0.720   1.886   1.482
 4929SOL     OW15685   6.391   0.373   5.303
 4929SOL    HW115686   6.293   0.352   5.311
 4929SOL    HW215687   6.414   0.390   5.207
 4930SOL     OW15688   4.847   5.520   2.562
 4930SOL    HW115689   4.938   5.517   2.520
 4930SOL    HW215690   4.790   5.448   2.523
 4931SOL     OW15691   4.285   0.179   0.700
 4931SOL    HW115692   4.328   0.263   0.668
 4931SOL    HW215693   4.187   0.194   0.711
 4932SOL     OW15694   3.670   4.213   4.516
 4932SOL    HW115695   3.629   4.290   4.468
 4932SOL    HW215696   3.630   4.205   4.607
 4933SOL     OW15697   1.873   0.848   4.904
 4933SOL    HW115698   1.823   0.840   4.990
 4933SOL    HW215699   1.842   0.930   4.855
 4934SOL     OW15700   1.934   6.904   2.784
 4934SOL    HW115701   1.927   6.996   2.744
 4934SOL    HW215702   2.031   6.882   2.800
 4935SOL     OW15703   6.286   0.452   4.568
 4935SOL    HW115704   6.199   0.445   4.616
 4935SOL    HW215705   6.335   0.365   4.574
 4936SOL     OW15706   4.896   2.409   0.537
 4936SOL    HW115707   4.887   2.398   0.438
 4936SOL    HW215708   4.847   2.490   0.566
 4937SOL     OW15709   3.757   2.758   5.291
 4937SOL    HW115710   3.832   2.800   5.342
 4937SOL    HW215711   3.705   2.829   5.245
 4938SOL     OW15712   2.499   4.890   6.644
 4938SOL    HW115713   2.582   4.943   6.628
 4938SOL    HW215714   2.443   4.890   6.562
 4939SOL     OW15715   5.087   2.579   6.630
 4939SOL    HW115716   5.143   2.501   6.660
 4939SOL    HW215717   5.108   2.659   6.685
 4940SOL     OW15718   0.903   5.919   3.066
 4940SOL    HW115719   0.850   5.989   3.017
 4940SOL    HW215720   0.938   5.958   3.151
 4941SOL     OW15721   6.662   0.677   6.970
 4941SOL    HW115722   6.673   0.683   6.871
 4941SOL    HW215723   6.751   0.682   7.015
 4942SOL     OW15724   5.128   2.606   6.335
 4942SOL    HW115725   5.099   2.528   6.280
 4942SOL    HW215726   5.098   2.594   6.429
 4943SOL     OW15727   6.854   3.236   1.082
 4943SOL    HW115728   6.878   3.273   0.992
 4943SOL    HW215729   6.766   3.188   1.076
 4944SOL     OW15730   2.117   3.285   2.239
 4944SOL    HW115731   2.170   3.203   2.258
 4944SOL    HW215732   2.159   3.335   2.164
 4945SOL     OW15733   6.638   5.697   4.106
 4945SOL    HW115734   6.620   5.753   4.025
 4945SOL    HW215735   6.616   5.601   4.086
 4946SOL     OW15736   6.667   4.798   3.016
 4946SOL    HW115737   6.665   4.698   3.020
 4946SOL    HW215738   6.655   4.835   3.107
 4947SOL     OW15739   5.660   6.868   0.327
 4947SOL    HW115740   5.668   6.770   0.343
 4947SOL    HW215741   5.587   6.886   0.261
 4948SOL     OW15742   2.407   1.122   2.340
 4948SOL    HW115743   2.425   1.150   2.245
 4948SOL    HW215744   2.461   1.179   2.402
 4949SOL     OW15745   5.541   2.150   5.688
 4949SOL    HW115746   5.620   2.196   5.649
 4949SOL    HW215747   5.571   2.080   5.753
 4950SOL     OW15748   3.898   5.713   3.762
 4950SOL    HW115749   3.822   5.770   3.790
 4950SOL    HW215750   3.865   5.639   3.703
 4951SOL     OW15751   4.353   2.198   4.179
 4951SOL    HW115752   4.362   2.274   4.243
 4951SOL    HW215753   4.396   2.222   4.092
 4952SOL     OW15754   5.691   5.340   4.192
 4952SOL    HW115755   5.760   5.374   4.256
 4952SOL    HW215756   5.736   5.300   4.113
 4953SOL     OW15757   0.942   5.451   1.695
 4953SOL    HW115758   0.928   5.431   1.792
 4953SOL    HW215759   1.040   5.454   1.675
 4954SOL     OW15760   0.572   6.632   5.703
 4954SOL    HW115761   0.659   6.671   5.735
 4954SOL    HW215762   0.513   6.705   5.670
 4955SOL     OW15763   1.305   0.270   2.276
 4955SOL    HW115764   1.335   0.196   2.217
 4955SOL    HW215765   1.374   0.287   2.346
 4956SOL     OW15766   6.127   5.461   2.536
 4956SOL    HW115767   6.071   5.379   2.548
 4956SOL    HW215768   6.155   5.495   2.626
 4957SOL     OW15769   1.290   5.487   4.282
 4957SOL    HW115770   1.221   5.537   4.334
 4957SOL    HW215771   1.297   5.393   4.316
 4958SOL     OW15772   6.240   6.122   0.332
 4958SOL    HW115773   6.329   6.102   0.372
 4958SOL    HW215774   6.217   6.052   0.265
 4959SOL     OW15775   0.761   2.093   0.029
 4959SOL    HW115776   0.738   2.132   0.118
 4959SOL    HW215777   0.723   2.151   6.979
 4960SOL     OW15778   4.189   6.792   5.319
 4960SOL    HW115779   4.230   6.701   5.320
 4960SOL    HW215780   4.242   6.851   5.257
 4961SOL     OW15781   5.967   6.838   5.024
 4961SOL    HW115782   5.956   6.938   5.018
 4961SOL    HW215783   5.878   6.796   5.039
 4962SOL     OW15784   5.919   2.473   2.331
 4962SOL    HW115785   5.883   2.482   2.238
 4962SOL    HW215786   5.943   2.564   2.366
 4963SOL     OW15787   0.833   4.670   1.964
 4963SOL    HW115788   0.765   4.601   1.938
 4963SOL    HW215789   0.852   4.664   2.062
 4964SOL     OW15790   4.101   1.202   4.158
 4964SOL    HW115791   4.141   1.170   4.072
 4964SOL    HW215792   4.159   1.273   4.198
 4965SOL     OW15793   0.019   5.351   5.026
 4965SOL    HW115794   0.052   5.356   5.121
 4965SOL    HW215795   0.095   5.325   4.967
 4966SOL     OW15796   4.757   5.619   6.226
 4966SOL    HW115797   4.833   5.555   6.217
 4966SOL    HW215798   4.684   5.576   6.278
 4967SOL     OW15799   5.433   0.795   6.676
 4967SOL    HW115800   5.490   0.771   6.754
 4967SOL    HW215801   5.341   0.820   6.709
 4968SOL     OW15802   5.230   3.178   6.780
 4968SOL    HW115803   5.263   3.114   6.849
 4968SOL    HW215804   5.283   3.263   6.786
 4969SOL     OW15805   0.863   0.540   1.733
 4969SOL    HW115806   0.801   0.587   1.796
 4969SOL    HW215807   0.885   0.450   1.770
 4970SOL     OW15808   1.810   2.301   6.123
 4970SOL    HW115809   1.874   2.246   6.069
 4970SOL    HW215810   1.861   2.354   6.191
 4971SOL     OW15811   6.255   5.814   3.432
 4971SOL    HW115812   6.273   5.716   3.419
 4971SOL    HW215813   6.157   5.829   3.436
 4972SOL     OW15814   2.206   2.075   4.230
 4972SOL    HW115815   2.147   2.108   4.155
 4972SOL    HW215816   2.153   2.014   4.289
 4973SOL     OW15817   4.304   5.776   2.779
 4973SOL    HW115818   4.326   5.710   2.707
 4973SOL    HW215819   4.370   5.767   2.854
 4974SOL     OW15820   3.736   0.180   6.054
 4974SOL    HW115821   3.673   0.103   6.048
 4974SOL    HW215822   3.686   0.266   6.043
 4975SOL     OW15823   4.086   6.140   6.936
 4975SOL    HW115824   4.031   6.181   7.009
 4975SOL    HW215825   4.156   6.081   6.977
 4976SOL     OW15826   3.131   1.002   4.919
 4976SOL    HW115827   3.169   0.926   4.866
 4976SOL    HW215828   3.156   1.089   4.877
 4977SOL     OW15829   3.749   2.856   1.683
 4977SOL    HW115830   3.667   2.843   1.627
 4977SOL    HW215831   3.723   2.898   1.770
 4978SOL     OW15832   6.071   4.154   6.139
 4978SOL    HW115833   6.053   4.187   6.046
 4978SOL    HW215834   6.160   4.109   6.141
 4979SOL     OW15835   1.325   1.859   3.947
 4979SOL    HW115836   1.319   1.794   3.871
 4979SOL    HW215837   1.295   1.949   3.916
 4980SOL     OW15838   2.447   5.218   2.269
 4980SOL    HW115839   2.422   5.270   2.351
 4980SOL    HW215840   2.528   5.259   2.227
 4981SOL     OW15841   5.211   6.038   5.845
 4981SOL    HW115842   5.234   6.111   5.910
 4981SOL    HW215843   5.295   5.996   5.811
 4982SOL     OW15844   3.022   1.330   6.731
 4982SOL    HW115845   2.993   1.424   6.752
 4982SOL    HW215846   2.949   1.266   6.754
 4983SOL     OW15847   0.255   1.913   4.370
 4983SOL    HW115848   0.177   1.893   4.429
 4983SOL    HW215849   0.338   1.872   4.408
 4984SOL     OW15850   5.263   5.285   4.291
 4984SOL    HW115851   5.253   5.382   4.313
 4984SOL    HW215852   5.290   5.275   4.195
 4985SOL     OW15853   5.902   3.770   1.395
 4985SOL    HW115854   5.958   3.818   1.462
 4985SOL    HW215855   5.819   3.736   1.438
 4986SOL     OW15856   3.313   5.197   3.526
 4986SOL    HW115857   3.245   5.151   3.585
 4986SOL    HW215858   3.405   5.167   3.552
 4987SOL     OW15859   1.804   2.651   0.079
 4987SOL    HW115860   1.865   2.730   0.080
 4987SOL    HW215861   1.713   2.678   0.111
 4988SOL     OW15862   2.224   1.823   4.724
 4988SOL    HW115863   2.138   1.873   4.715
 4988SOL    HW215864   2.245   1.808   4.821
 4989SOL     OW15865   6.765   0.643   1.212
 4989SOL    HW115866   6.802   0.695   1.135
 4989SOL    HW215867   6.836   0.584   1.250
 4990SOL     OW15868   2.164   2.116   6.616
 4990SOL    HW115869   2.164   2.183   6.542
 4990SOL    HW215870   2.228   2.144   6.687
 4991SOL     OW15871   2.501   2.190   5.745
 4991SOL    HW115872   2.472   2.228   5.657
 4991SOL    HW215873   2.536   2.263   5.803
 4992SOL     OW15874   4.551   0.326   4.674
 4992SOL    HW115875   4.517   0.370   4.591
 4992SOL    HW215876   4.498   0.244   4.692
 4993SOL     OW15877   1.292   6.657   4.429
 4993SOL    HW115878   1.372   6.684   4.375
 4993SOL    HW215879   1.214   6.713   4.404
 4994SOL     OW15880   6.761   6.616   2.963
 4994SOL    HW115881   6.697   6.540   2.969
 4994SOL    HW215882   6.851   6.587   2.992
 4995SOL     OW15883   6.292   3.151   4.988
 4995SOL    HW115884   6.263   3.226   4.928
 4995SOL    HW215885   6.261   3.064   4.950
 4996SOL     OW15886   0.951   1.193   3.757
 4996SOL    HW115887   1.001   1.275   3.785
 4996SOL    HW215888   0.969   1.174   3.661
 4997SOL     OW15889   6.872   2.335   3.494
 4997SOL    HW115890   6.969   2.319   3.478
 4997SOL    HW215891   6.859   2.426   3.535
 4998SOL     OW15892   0.891   5.651   5.132
 4998SOL    HW115893   0.866   5.732   5.079
 4998SOL    HW215894   0.813   5.588   5.134
 4999SOL     OW15895   6.542   4.525   1.187
 4999SOL    HW115896   6.615   4.574   1.235
 4999SOL    HW215897   6.460   4.582   1.184
 5000SOL     OW15898   5.790   5.624   3.806
 5000SOL    HW115899   5.824   5.675   3.727
 5000SOL    HW215900   5.719   5.677   3.852
 5001SOL     OW15901   4.951   3.963   5.544
 5001SOL    HW115902   4.962   3.914   5.458
 5001SOL    HW215903   4.926   3.899   5.617
 5002SOL     OW15904   1.260   2.677   1.434
 5002SOL    HW115905   1.214   2.645   1.517
 5002SOL    HW215906   1.357   2.652   1.438
 5003SOL     OW15907   5.637   6.265   4.601
 5003SOL    HW115908   5.573   6.328   4.645
 5003SOL    HW215909   5.637   6.178   4.649
 5004SOL     OW15910   1.995   4.921   6.335
 5004SOL    HW115911   1.925   4.855   6.364
 5004SOL    HW215912   2.053   4.945   6.413
 5005SOL     OW15913   5.097   1.749   6.886
 5005SOL    HW115914   5.070   1.819   6.952
 5005SOL    HW215915   5.168   1.691   6.927
 5006SOL     OW15916   4.082   5.542   1.907
 5006SOL    HW115917   4.174   5.527   1.944
 5006SOL    HW215918   4.065   5.475   1.834
 5007SOL     OW15919   3.175   0.517   4.675
 5007SOL    HW115920   3.088   0.480   4.643
 5007SOL    HW215921   3.249   0.455   4.650
 5008SOL     OW15922   5.635   1.748   3.989
 5008SOL    HW115923   5.684   1.661   3.996
 5008SOL    HW215924   5.626   1.789   4.080
 5009SOL     OW15925   3.441   6.613   2.459
 5009SOL    HW115926   3.521   6.563   2.424
 5009SOL    HW215927   3.361   6.553   2.456
 5010SOL     OW15928   3.278   3.825   6.155
 5010SOL    HW115929   3.278   3.823   6.255
 5010SOL    HW215930   3.250   3.916   6.124
 5011SOL     OW15931   0.889   2.392   5.048
 5011SOL    HW115932   0.856   2.306   5.087
 5011SOL    HW215933   0.861   2.468   5.107
 5012SOL     OW15934   6.075   1.723   6.812
 5012SOL    HW115935   5.981   1.754   6.827
 5012SOL    HW215936   6.106   1.753   6.722
 5013SOL     OW15937   4.819   1.543   5.220
 5013SOL    HW115938   4.763   1.575   5.143
 5013SOL    HW215939   4.833   1.444   5.212
 5014SOL     OW15940   1.179   4.642   6.520
 5014SOL    HW115941   1.160   4.670   6.614
 5014SOL    HW215942   1.092   4.628   6.472
 5015SOL     OW15943   4.558   2.511   3.952
 5015SOL    HW115944   4.485   2.443   3.956
 5015SOL    HW215945   4.594   2.516   3.859
 5016SOL     OW15946   1.705   5.538   1.376
 5016SOL    HW115947   1.720   5.637   1.379
 5016SOL    HW215948   1.791   5.490   1.389
 5017SOL     OW15949   6.672   1.188   1.610
 5017SOL    HW115950   6.691   1.218   1.517
 5017SOL    HW215951   6.737   1.118   1.637
 5018SOL     OW15952   5.755   5.640   4.434
 5018SOL    HW115953   5.802   5.712   4.384
 5018SOL    HW215954   5.817   5.600   4.501
 5019SOL     OW15955   3.053   5.864   4.695
 5019SOL    HW115956   3.075   5.767   4.709
 5019SOL    HW215957   2.966   5.885   4.740
 5020SOL     OW15958   5.098   5.303   0.309
 5020SOL    HW115959   5.104   5.289   0.408
 5020SOL    HW215960   5.182   5.270   0.265
 5021SOL     OW15961   2.723   4.909   5.148
 5021SOL    HW115962   2.668   4.829   5.172
 5021SOL    HW215963   2.820   4.884   5.152
 5022SOL     OW15964   1.744   2.637   6.801
 5022SOL    HW115965   1.716   2.635   6.897
 5022SOL    HW215966   1.834   2.594   6.793
 5023SOL     OW15967   6.497   3.605   3.770
 5023SOL    HW115968   6.432   3.535   3.740
 5023SOL    HW215969   6.585   3.563   3.790
 5024SOL     OW15970   5.250   3.944   5.794
 5024SOL    HW115971   5.262   3.846   5.805
 5024SOL    HW215972   5.226   3.985   5.882
 5025SOL     OW15973   6.214   6.826   4.910
 5025SOL    HW115974   6.283   6.818   4.981
 5025SOL    HW215975   6.123   6.816   4.951
 5026SOL     OW15976   1.036   5.788   2.634
 5026SOL    HW115977   0.998   5.873   2.597
 5026SOL    HW215978   1.131   5.778   2.605
 5027SOL     OW15979   1.197   5.593   2.761
 5027SOL    HW115980   1.275   5.549   2.717
 5027SOL    HW215981   1.190   5.562   2.856
 5028SOL     OW15982   0.398   6.778   2.321
 5028SOL    HW115983   0.324   6.842   2.338
 5028SOL    HW215984   0.484   6.815   2.357
 5029SOL     OW15985   5.412   1.207   3.774
 5029SOL    HW115986   5.349   1.283   3.783
 5029SOL    HW215987   5.429   1.189   3.677
 5030SOL     OW15988   1.454   5.796   0.542
 5030SOL    HW115989   1.355   5.801   0.529
 5030SOL    HW215990   1.474   5.794   0.640
 5031SOL     OW15991   5.319   0.144   0.016
 5031SOL    HW115992   5.368   0.130   6.952
 5031SOL    HW215993   5.337   0.237   0.050
 5032SOL     OW15994   1.701   5.573   3.163
 5032SOL    HW115995   1.796   5.551   3.182
 5032SOL    HW215996   1.695   5.638   3.087
 5033SOL     OW15997   1.252   4.734   4.795
 5033SOL    HW115998   1.183   4.799   4.828
 5033SOL    HW215999   1.229   4.642   4.827
 5034SOL     OW16000   0.909   2.437   5.775
 5034SOL    HW116001   0.937   2.396   5.861
 5034SOL    HW216002   0.829   2.389   5.739
 5035SOL     OW16003   6.865   4.608   0.961
 5035SOL    HW116004   6.889   4.701   0.990
 5035SOL    HW216005   6.949   4.554   0.952
 5036SOL     OW16006   0.795   1.335   2.182
 5036SOL    HW116007   0.724   1.275   2.218
 5036SOL    HW216008   0.754   1.415   2.140
 5037SOL     OW16009   5.400   3.973   0.938
 5037SOL    HW116010   5.431   3.902   0.875
 5037SOL    HW216011   5.381   3.933   1.028
 5038SOL     OW16012   2.893   5.403   5.594
 5038SOL    HW116013   2.849   5.492   5.603
 5038SOL    HW216014   2.823   5.332   5.587
 5039SOL     OW16015   0.959   1.743   3.849
 5039SOL    HW116016   0.930   1.679   3.920
 5039SOL    HW216017   0.889   1.813   3.836
 5040SOL     OW16018   2.041   2.982   6.140
 5040SOL    HW116019   2.036   3.064   6.084
 5040SOL    HW216020   1.949   2.954   6.167
 5041SOL     OW16021   0.617   5.448   0.043
 5041SOL    HW116022   0.623   5.357   0.084
 5041SOL    HW216023   0.688   5.506   0.082
 5042SOL     OW16024   5.935   1.046   5.914
 5042SOL    HW116025   5.862   1.034   5.982
 5042SOL    HW216026   5.895   1.071   5.826
 5043SOL     OW16027   5.352   6.065   3.918
 5043SOL    HW116028   5.261   6.065   3.961
 5043SOL    HW216029   5.392   5.973   3.925
 5044SOL     OW16030   0.551   4.226   3.222
 5044SOL    HW116031   0.486   4.296   3.253
 5044SOL    HW216032   0.502   4.140   3.206
 5045SOL     OW16033   5.188   3.189   5.187
 5045SOL    HW116034   5.257   3.117   5.183
 5045SOL    HW216035   5.229   3.273   5.222
 5046SOL     OW16036   4.287   2.876   5.561
 5046SOL    HW116037   4.276   2.971   5.591
 5046SOL    HW216038   4.241   2.816   5.626
 5047SOL     OW16039   6.707   1.751   1.344
 5047SOL    HW116040   6.767   1.746   1.423
 5047SOL    HW216041   6.694   1.846   1.317
 5048SOL     OW16042   5.756   4.727   6.661
 5048SOL    HW116043   5.840   4.672   6.667
 5048SOL    HW216044   5.699   4.691   6.587
 5049SOL     OW16045   0.782   0.587   0.093
 5049SOL    HW116046   0.828   0.525   0.029
 5049SOL    HW216047   0.781   0.545   0.184
 5050SOL     OW16048   1.039   3.899   0.988
 5050SOL    HW116049   1.044   3.950   1.074
 5050SOL    HW216050   1.128   3.858   0.969
 5051SOL     OW16051   2.507   3.842   5.933
 5051SOL    HW116052   2.587   3.837   5.873
 5051SOL    HW216053   2.465   3.932   5.926
 5052SOL     OW16054   6.748   2.673   1.196
 5052SOL    HW116055   6.654   2.643   1.184
 5052SOL    HW216056   6.749   2.760   1.246
 5053SOL     OW16057   0.481   3.876   1.034
 5053SOL    HW116058   0.562   3.837   1.077
 5053SOL    HW216059   0.476   3.973   1.055
 5054SOL     OW16060   4.540   5.411   4.428
 5054SOL    HW116061   4.570   5.346   4.498
 5054SOL    HW216062   4.474   5.474   4.467
 5055SOL     OW16063   0.819   6.993   4.207
 5055SOL    HW116064   0.840   6.908   4.160
 5055SOL    HW216065   0.724   7.019   4.188
 5056SOL     OW16066   2.910   1.119   6.943
 5056SOL    HW116067   2.953   1.198   6.987
 5056SOL    HW216068   2.834   1.087   7.000
 5057SOL     OW16069   0.585   3.623   3.218
 5057SOL    HW116070   0.512   3.633   3.150
 5057SOL    HW216071   0.559   3.553   3.284
 5058SOL     OW16072   3.654   2.143   6.875
 5058SOL    HW116073   3.626   2.048   6.885
 5058SOL    HW216074   3.741   2.157   6.923
 5059SOL     OW16075   5.284   2.482   2.752
 5059SOL    HW116076   5.354   2.505   2.820
 5059SOL    HW216077   5.223   2.413   2.789
 5060SOL     OW16078   0.613   3.171   5.807
 5060SOL    HW116079   0.556   3.253   5.813
 5060SOL    HW216080   0.703   3.196   5.772
 5061SOL     OW16081   4.269   2.564   6.407
 5061SOL    HW116082   4.201   2.556   6.480
 5061SOL    HW216083   4.332   2.639   6.428
 5062SOL     OW16084   5.513   1.811   3.195
 5062SOL    HW116085   5.445   1.863   3.247
 5062SOL    HW216086   5.581   1.875   3.157
 5063SOL     OW16087   0.211   0.682   0.665
 5063SOL    HW116088   0.281   0.611   0.670
 5063SOL    HW216089   0.246   0.766   0.707
 5064SOL     OW16090   0.117   5.066   0.515
 5064SOL    HW116091   0.084   5.016   0.435
 5064SOL    HW216092   0.045   5.071   0.584
 5065SOL     OW16093   0.858   1.961   2.052
 5065SOL    HW116094   0.760   1.975   2.060
 5065SOL    HW216095   0.904   2.049   2.039
 5066SOL     OW16096   0.746   5.413   3.664
 5066SOL    HW116097   0.828   5.435   3.718
 5066SOL    HW216098   0.665   5.425   3.721
 5067SOL     OW16099   4.100   3.005   0.731
 5067SOL    HW116100   4.004   2.989   0.755
 5067SOL    HW216101   4.158   2.967   0.803
 5068SOL     OW16102   1.411   5.954   1.015
 5068SOL    HW116103   1.462   5.890   0.958
 5068SOL    HW216104   1.404   6.042   0.968
 5069SOL     OW16105   4.345   4.456   6.566
 5069SOL    HW116106   4.304   4.411   6.645
 5069SOL    HW216107   4.288   4.535   6.541
 5070SOL     OW16108   0.841   3.565   6.489
 5070SOL    HW116109   0.867   3.639   6.426
 5070SOL    HW216110   0.825   3.481   6.436
 5071SOL     OW16111   1.427   6.410   3.299
 5071SOL    HW116112   1.513   6.359   3.297
 5071SOL    HW216113   1.413   6.449   3.390
 5072SOL     OW16114   0.587   2.457   2.324
 5072SOL    HW116115   0.596   2.555   2.345
 5072SOL    HW216116   0.588   2.405   2.409
 5073SOL     OW16117   2.088   1.651   4.527
 5073SOL    HW116118   2.039   1.568   4.554
 5073SOL    HW216119   2.120   1.700   4.608
 5074SOL     OW16120   3.166   2.166   1.407
 5074SOL    HW116121   3.243   2.223   1.380
 5074SOL    HW216122   3.109   2.145   1.328
 5075SOL     OW16123   6.209   2.171   6.678
 5075SOL    HW116124   6.168   2.181   6.768
 5075SOL    HW216125   6.269   2.091   6.677
 5076SOL     OW16126   6.933   2.020   5.696
 5076SOL    HW116127   0.004   1.988   5.714
 5076SOL    HW216128   6.892   1.965   5.624
 5077SOL     OW16129   1.282   5.586   4.021
 5077SOL    HW116130   1.278   5.559   4.117
 5077SOL    HW216131   1.266   5.505   3.964
 5078SOL     OW16132   5.957   2.060   2.396
 5078SOL    HW116133   5.994   2.139   2.347
 5078SOL    HW216134   5.954   2.080   2.494
 5079SOL     OW16135   1.783   3.713   5.788
 5079SOL    HW116136   1.841   3.632   5.775
 5079SOL    HW216137   1.837   3.785   5.832
 5080SOL     OW16138   6.519   6.501   6.392
 5080SOL    HW116139   6.462   6.448   6.454
 5080SOL    HW216140   6.599   6.446   6.365
 5081SOL     OW16141   4.124   4.158   6.374
 5081SOL    HW116142   4.077   4.199   6.452
 5081SOL    HW216143   4.149   4.229   6.308
 5082SOL     OW16144   5.740   0.361   3.096
 5082SOL    HW116145   5.781   0.363   3.187
 5082SOL    HW216146   5.694   0.448   3.078
 5083SOL     OW16147   0.396   0.789   3.671
 5083SOL    HW116148   0.415   0.741   3.585
 5083SOL    HW216149   0.395   0.723   3.746
 5084SOL     OW16150   3.623   5.092   5.288
 5084SOL    HW116151   3.680   5.015   5.316
 5084SOL    HW216152   3.585   5.075   5.197
 5085SOL     OW16153   1.268   3.038   6.654
 5085SOL    HW116154   1.184   3.079   6.688
 5085SOL    HW216155   1.258   3.017   6.556
 5086SOL     OW16156   0.857   4.045   2.112
 5086SOL    HW116157   0.899   4.126   2.153
 5086SOL    HW216158   0.890   4.034   2.018
 5087SOL     OW16159   6.387   5.516   1.638
 5087SOL    HW116160   6.329   5.571   1.578
 5087SOL    HW216161   6.482   5.523   1.609
 5088SOL     OW16162   4.472   4.666   2.723
 5088SOL    HW116163   4.442   4.606   2.648
 5088SOL    HW216164   4.566   4.694   2.707
 5089SOL     OW16165   4.086   5.839   6.487
 5089SOL    HW116166   4.096   5.851   6.586
 5089SOL    HW216167   3.989   5.844   6.462
 5090SOL     OW16168   2.399   6.440   4.714
 5090SOL    HW116169   2.316   6.428   4.768
 5090SOL    HW216170   2.473   6.385   4.753
 5091SOL     OW16171   5.895   5.382   4.641
 5091SOL    HW116172   5.851   5.462   4.682
 5091SOL    HW216173   5.868   5.300   4.690
 5092SOL     OW16174   3.739   2.976   4.659
 5092SOL    HW116175   3.643   2.950   4.672
 5092SOL    HW216176   3.768   2.949   4.567
 5093SOL     OW16177   2.987   2.217   3.280
 5093SOL    HW116178   3.027   2.153   3.214
 5093SOL    HW216179   3.032   2.206   3.369
 5094SOL     OW16180   1.804   4.332   4.769
 5094SOL    HW116181   1.831   4.295   4.857
 5094SOL    HW216182   1.744   4.267   4.722
 5095SOL     OW16183   6.090   2.704   3.052
 5095SOL    HW116184   6.036   2.742   2.976
 5095SOL    HW216185   6.057   2.613   3.075
 5096SOL     OW16186   6.558   3.131   5.013
 5096SOL    HW116187   6.584   3.189   4.936
 5096SOL    HW216188   6.459   3.140   5.029
 5097SOL     OW16189   0.869   0.222   6.079
 5097SOL    HW116190   0.838   0.299   6.024
 5097SOL    HW216191   0.966   0.233   6.101
 5098SOL     OW16192   2.519   1.611   0.650
 5098SOL    HW116193   2.556   1.681   0.710
 5098SOL    HW216194   2.440   1.568   0.694
 5099SOL     OW16195   1.806   5.581   1.906
 5099SOL    HW116196   1.840   5.548   1.994
 5099SOL    HW216197   1.809   5.506   1.840
 5100SOL     OW16198   6.901   3.268   1.708
 5100SOL    HW116199   6.987   3.318   1.711
 5100SOL    HW216200   6.845   3.300   1.632
 5101SOL     OW16201   4.538   1.792   6.388
 5101SOL    HW116202   4.487   1.708   6.368
 5101SOL    HW216203   4.474   1.863   6.417
 5102SOL     OW16204   5.812   4.933   5.247
 5102SOL    HW116205   5.776   4.860   5.306
 5102SOL    HW216206   5.787   5.022   5.286
 5103SOL     OW16207   0.341   0.165   5.181
 5103SOL    HW116208   0.357   0.176   5.083
 5103SOL    HW216209   0.364   0.072   5.209
 5104SOL     OW16210   3.504   2.980   4.293
 5104SOL    HW116211   3.484   3.059   4.351
 5104SOL    HW216212   3.422   2.953   4.244
 5105SOL     OW16213   4.632   2.207   6.478
 5105SOL    HW116214   4.609   2.162   6.565
 5105SOL    HW216215   4.552   2.257   6.445
 5106SOL     OW16216   4.493   0.056   0.857
 5106SOL    HW116217   4.416   0.073   0.796
 5106SOL    HW216218   4.558   0.131   0.850
 5107SOL     OW16219   6.326   4.383   6.878
 5107SOL    HW116220   6.393   4.405   6.948
 5107SOL    HW216221   6.254   4.326   6.917
 5108SOL     OW16222   4.471   4.519   0.823
 5108SOL    HW116223   4.510   4.558   0.739
 5108SOL    HW216224   4.545   4.484   0.880
 5109SOL     OW16225   1.020   2.507   2.046
 5109SOL    HW116226   0.973   2.426   2.082
 5109SOL    HW216227   1.108   2.480   2.007
 5110SOL     OW16228   3.858   6.965   4.662
 5110SOL    HW116229   3.877   6.895   4.593
 5110SOL    HW216230   3.861   0.033   4.619
 5111SOL     OW16231   2.554   6.494   6.313
 5111SOL    HW116232   2.493   6.573   6.313
 5111SOL    HW216233   2.632   6.512   6.373
 5112SOL     OW16234   0.583   3.273   2.515
 5112SOL    HW116235   0.588   3.368   2.546
 5112SOL    HW216236   0.616   3.266   2.421
 5113SOL     OW16237   3.040   4.718   1.400
 5113SOL    HW116238   3.116   4.782   1.404
 5113SOL    HW216239   2.974   4.740   1.472
 5114SOL     OW16240   4.592   4.121   1.232
 5114SOL    HW116241   4.542   4.207   1.214
 5114SOL    HW216242   4.532   4.058   1.280
 5115SOL     OW16243   1.555   3.763   0.291
 5115SOL    HW116244   1.468   3.733   0.330
 5115SOL    HW216245   1.571   3.717   0.204
 5116SOL     OW16246   0.843   5.858   6.040
 5116SOL    HW116247   0.804   5.891   6.125
 5116SOL    HW216248   0.831   5.926   5.968
 5117SOL     OW16249   0.786   4.059   4.023
 5117SOL    HW116250   0.831   4.146   4.047
 5117SOL    HW216251   0.687   4.070   4.030
 5118SOL     OW16252   4.820   5.531   0.901
 5118SOL    HW116253   4.840   5.516   0.804
 5118SOL    HW216254   4.897   5.498   0.956
 5119SOL     OW16255   4.845   1.426   6.645
 5119SOL    HW116256   4.882   1.518   6.637
 5119SOL    HW216257   4.920   1.360   6.650
 5120SOL     OW16258   5.228   5.893   0.302
 5120SOL    HW116259   5.162   5.906   0.228
 5120SOL    HW216260   5.281   5.809   0.284
 5121SOL     OW16261   2.196   3.785   6.794
 5121SOL    HW116262   2.184   3.709   6.730
 5121SOL    HW216263   2.139   3.772   6.874
 5122SOL     OW16264   4.938   5.474   3.585
 5122SOL    HW116265   4.990   5.554   3.556
 5122SOL    HW216266   4.972   5.441   3.673
 5123SOL     OW16267   4.879   2.474   1.511
 5123SOL    HW116268   4.791   2.427   1.513
 5123SOL    HW216269   4.903   2.506   1.603
 5124SOL     OW16270   0.275   6.231   4.181
 5124SOL    HW116271   0.259   6.220   4.279
 5124SOL    HW216272   0.320   6.318   4.164
 5125SOL     OW16273   5.008   3.092   3.731
 5125SOL    HW116274   5.050   3.181   3.711
 5125SOL    HW216275   5.079   3.028   3.760
 5126SOL     OW16276   3.075   0.869   2.512
 5126SOL    HW116277   3.034   0.780   2.491
 5126SOL    HW216278   3.130   0.862   2.594
 5127SOL     OW16279   2.181   5.896   0.882
 5127SOL    HW116280   2.184   5.922   0.785
 5127SOL    HW216281   2.105   5.832   0.897
 5128SOL     OW16282   3.785   0.029   1.948
 5128SOL    HW116283   3.830   0.117   1.957
 5128SOL    HW216284   3.717   0.033   1.875
 5129SOL     OW16285   5.918   5.955   7.004
 5129SOL    HW116286   5.909   6.053   6.986
 5129SOL    HW216287   5.918   5.939   0.081
 5130SOL     OW16288   5.680   4.767   1.796
 5130SOL    HW116289   5.676   4.703   1.872
 5130SOL    HW216290   5.652   4.858   1.827
 5131SOL     OW16291   2.019   2.307   2.077
 5131SOL    HW116292   2.060   2.218   2.094
 5131SOL    HW216293   1.925   2.308   2.111
 5132SOL     OW16294   2.803   6.548   6.456
 5132SOL    HW116295   2.797   6.464   6.509
 5132SOL    HW216296   2.898   6.570   6.437
 5133SOL     OW16297   4.163   5.036   4.979
 5133SOL    HW116298   4.167   5.119   4.924
 5133SOL    HW216299   4.250   4.986   4.970
 5134SOL     OW16300   0.540   2.950   6.884
 5134SOL    HW116301   0.530   2.923   6.979
 5134SOL    HW216302   0.487   2.887   6.826
 5135SOL     OW16303   6.019   1.808   2.690
 5135SOL    HW116304   6.073   1.782   2.609
 5135SOL    HW216305   6.045   1.750   2.767
 5136SOL     OW16306   3.594   1.702   0.039
 5136SOL    HW116307   3.590   1.649   0.124
 5136SOL    HW216308   3.545   1.788   0.050
 5137SOL     OW16309   4.103   3.571   0.228
 5137SOL    HW116310   4.072   3.552   0.135
 5137SOL    HW216311   4.039   3.635   0.272
 5138SOL     OW16312   2.191   2.420   6.163
 5138SOL    HW116313   2.280   2.393   6.124
 5138SOL    HW216314   2.157   2.500   6.115
 5139SOL     OW16315   0.382   6.828   3.556
 5139SOL    HW116316   0.382   6.927   3.566
 5139SOL    HW216317   0.322   6.787   3.625
 5140SOL     OW16318   3.216   3.429   2.604
 5140SOL    HW116319   3.261   3.342   2.626
 5140SOL    HW216320   3.256   3.466   2.519
 5141SOL     OW16321   1.700   3.032   5.671
 5141SOL    HW116322   1.693   2.934   5.689
 5141SOL    HW216323   1.792   3.054   5.640
 5142SOL     OW16324   4.942   3.158   1.250
 5142SOL    HW116325   4.882   3.113   1.184
 5142SOL    HW216326   4.889   3.219   1.308
 5143SOL     OW16327   0.228   5.288   6.513
 5143SOL    HW116328   0.295   5.294   6.587
 5143SOL    HW216329   0.136   5.297   6.551
 5144SOL     OW16330   2.194   1.390   4.931
 5144SOL    HW116331   2.196   1.313   4.867
 5144SOL    HW216332   2.268   1.453   4.909
 5145SOL     OW16333   3.831   4.703   6.724
 5145SOL    HW116334   3.815   4.800   6.744
 5145SOL    HW216335   3.746   4.660   6.695
 5146SOL     OW16336   3.715   5.261   1.375
 5146SOL    HW116337   3.643   5.194   1.391
 5146SOL    HW216338   3.751   5.250   1.282
 5147SOL     OW16339   0.560   5.850   5.745
 5147SOL    HW116340   0.551   5.803   5.658
 5147SOL    HW216341   0.639   5.911   5.742
 5148SOL     OW16342   0.017   0.666   1.496
 5148SOL    HW116343   0.066   0.731   1.437
 5148SOL    HW216344   6.952   0.706   1.523
 5149SOL     OW16345   6.135   0.145   4.590
 5149SOL    HW116346   6.223   0.102   4.572
 5149SOL    HW216347   6.135   0.183   4.683
 5150SOL     OW16348   2.727   5.013   6.258
 5150SOL    HW116349   2.815   5.057   6.272
 5150SOL    HW216350   2.663   5.079   6.219
 5151SOL     OW16351   5.038   6.878   6.035
 5151SOL    HW116352   4.975   6.844   5.965
 5151SOL    HW216353   5.012   6.971   6.061
 5152SOL     OW16354   0.390   4.915   6.819
 5152SOL    HW116355   0.351   4.922   6.727
 5152SOL    HW216356   0.338   4.849   6.873
 5153SOL     OW16357   2.683   3.586   1.363
 5153SOL    HW116358   2.737   3.502   1.376
 5153SOL    HW216359   2.606   3.567   1.303
 5154SOL     OW16360   1.592   3.798   5.432
 5154SOL    HW116361   1.570   3.876   5.490
 5154SOL    HW216362   1.690   3.778   5.438
 5155SOL     OW16363   4.053   0.640   2.492
 5155SOL    HW116364   4.075   0.654   2.396
 5155SOL    HW216365   3.971   0.691   2.515
 5156SOL     OW16366   5.752   3.555   5.738
 5156SOL    HW116367   5.742   3.539   5.836
 5156SOL    HW216368   5.820   3.492   5.701
 5157SOL     OW16369   0.123   2.862   3.922
 5157SOL    HW116370   0.127   2.779   3.977
 5157SOL    HW216371   0.207   2.915   3.935
 5158SOL     OW16372   3.412   1.064   1.697
 5158SOL    HW116373   3.345   1.057   1.770
 5158SOL    HW216374   3.419   1.159   1.667
 5159SOL     OW16375   1.593   3.967   4.872
 5159SOL    HW116376   1.571   3.919   4.957
 5159SOL    HW216377   1.664   3.917   4.823
 5160SOL     OW16378   2.575   2.414   3.162
 5160SOL    HW116379   2.499   2.350   3.153
 5160SOL    HW216380   2.641   2.378   3.229
 5161SOL     OW16381   1.293   2.346   0.005
 5161SOL    HW116382   1.295   2.391   0.094
 5161SOL    HW216383   1.386   2.341   6.990
 5162SOL     OW16384   6.146   5.835   5.172
 5162SOL    HW116385   6.191   5.813   5.258
 5162SOL    HW216386   6.181   5.777   5.099
 5163SOL     OW16387   6.025   3.518   0.855
 5163SOL    HW116388   6.079   3.485   0.932
 5163SOL    HW216389   5.985   3.607   0.879
 5164SOL     OW16390   6.700   6.614   5.475
 5164SOL    HW116391   6.760   6.683   5.515
 5164SOL    HW216392   6.707   6.529   5.526
 5165SOL     OW16393   5.834   4.832   4.781
 5165SOL    HW116394   5.785   4.747   4.804
 5165SOL    HW216395   5.909   4.812   4.719
 5166SOL     OW16396   6.885   0.662   2.975
 5166SOL    HW116397   6.875   0.571   2.934
 5166SOL    HW216398   6.860   0.657   3.072
 5167SOL     OW16399   2.145   0.063   4.711
 5167SOL    HW116400   2.103   0.026   4.628
 5167SOL    HW216401   2.110   0.155   4.727
 5168SOL     OW16402   2.861   1.466   2.068
 5168SOL    HW116403   2.823   1.443   1.978
 5168SOL    HW216404   2.876   1.565   2.074
 5169SOL     OW16405   3.606   5.716   6.257
 5169SOL    HW116406   3.549   5.658   6.199
 5169SOL    HW216407   3.645   5.791   6.202
 5170SOL     OW16408   3.946   5.021   4.621
 5170SOL    HW116409   4.025   5.079   4.602
 5170SOL    HW216410   3.972   4.951   4.688
 5171SOL     OW16411   2.449   4.380   5.915
 5171SOL    HW116412   2.466   4.479   5.914
 5171SOL    HW216413   2.474   4.342   6.004
 5172SOL     OW16414   2.028   3.345   6.320
 5172SOL    HW116415   1.967   3.278   6.278
 5172SOL    HW216416   2.019   3.433   6.273
 5173SOL     OW16417   0.819   2.409   4.765
 5173SOL    HW116418   0.867   2.335   4.718
 5173SOL    HW216419   0.828   2.396   4.864
 5174SOL     OW16420   3.106   5.021   6.695
 5174SOL    HW116421   3.039   5.057   6.760
 5174SOL    HW216422   3.198   5.042   6.727
 5175SOL     OW16423   1.333   5.424   0.353
 5175SOL    HW116424   1.260   5.448   0.289
 5175SOL    HW216425   1.302   5.351   0.413
 5176SOL     OW16426   5.982   3.515   6.795
 5176SOL    HW116427   6.027   3.587   6.742
 5176SOL    HW216428   5.924   3.460   6.736
 5177SOL     OW16429   4.978   5.114   0.150
 5177SOL    HW116430   5.019   5.205   0.159
 5177SOL    HW216431   4.960   5.078   0.241
 5178SOL     OW16432   2.914   4.580   0.519
 5178SOL    HW116433   2.991   4.643   0.512
 5178SOL    HW216434   2.924   4.524   0.601
 5179SOL     OW16435   2.502   5.810   5.367
 5179SOL    HW116436   2.439   5.887   5.358
 5179SOL    HW216437   2.471   5.750   5.441
 5180SOL     OW16438   4.943   1.561   5.933
 5180SOL    HW116439   4.966   1.609   5.848
 5180SOL    HW216440   4.963   1.621   6.011
 5181SOL     OW16441   2.907   6.559   2.717
 5181SOL    HW116442   2.833   6.587   2.778
 5181SOL    HW216443   2.870   6.540   2.626
 5182SOL     OW16444   4.532   3.847   0.506
 5182SOL    HW116445   4.463   3.888   0.565
 5182SOL    HW216446   4.563   3.761   0.546
 5183SOL     OW16447   2.784   0.878   3.126
 5183SOL    HW116448   2.716   0.842   3.189
 5183SOL    HW216449   2.784   0.978   3.130
 5184SOL     OW16450   0.813   2.113   3.327
 5184SOL    HW116451   0.796   2.113   3.229
 5184SOL    HW216452   0.861   2.029   3.353
 5185SOL     OW16453   4.805   0.764   1.910
 5185SOL    HW116454   4.856   0.744   1.826
 5185SOL    HW216455   4.717   0.716   1.907
 5186SOL     OW16456   5.524   3.466   6.968
 5186SOL    HW116457   5.615   3.461   7.010
 5186SOL    HW216458   5.457   3.424   0.008
 5187SOL     OW16459   4.970   4.422   4.452
 5187SOL    HW116460   4.997   4.511   4.489
 5187SOL    HW216461   4.933   4.433   4.360
 5188SOL     OW16462   0.801   0.706   3.385
 5188SOL    HW116463   0.797   0.787   3.326
 5188SOL    HW216464   0.894   0.694   3.419
 5189SOL     OW16465   4.973   5.184   5.610
 5189SOL    HW116466   5.010   5.096   5.579
 5189SOL    HW216467   4.954   5.180   5.708
 5190SOL     OW16468   1.737   1.679   2.430
 5190SOL    HW116469   1.712   1.587   2.400
 5190SOL    HW216470   1.748   1.739   2.350
 5191SOL     OW16471   5.352   1.542   2.364
 5191SOL    HW116472   5.398   1.547   2.276
 5191SOL    HW216473   5.371   1.626   2.416
 5192SOL     OW16474   6.645   4.126   2.481
 5192SOL    HW116475   6.685   4.114   2.572
 5192SOL    HW216476   6.717   4.151   2.416
 5193SOL     OW16477   3.832   4.852   3.325
 5193SOL    HW116478   3.928   4.870   3.345
 5193SOL    HW216479   3.786   4.818   3.408
 5194SOL     OW16480   5.496   0.256   0.300
 5194SOL    HW116481   5.532   0.284   0.211
 5194SOL    HW216482   5.554   0.294   0.372
 5195SOL     OW16483   0.163   4.759   4.989
 5195SOL    HW116484   0.124   4.726   5.075
 5195SOL    HW216485   0.204   4.682   4.940
 5196SOL     OW16486   1.453   3.236   3.183
 5196SOL    HW116487   1.419   3.217   3.090
 5196SOL    HW216488   1.378   3.270   3.239
 5197SOL     OW16489   3.040   6.440   5.372
 5197SOL    HW116490   3.030   6.346   5.341
 5197SOL    HW216491   3.056   6.499   5.292
 5198SOL     OW16492   4.321   1.312   6.589
 5198SOL    HW116493   4.332   1.256   6.507
 5198SOL    HW216494   4.400   1.301   6.649
 5199SOL     OW16495   0.862   6.282   3.738
 5199SOL    HW116496   0.799   6.209   3.765
 5199SOL    HW216497   0.902   6.324   3.820
 5200SOL     OW16498   5.847   6.350   5.989
 5200SOL    HW116499   5.941   6.328   5.961
 5200SOL    HW216500   5.786   6.276   5.963
 5201SOL     OW16501   6.715   3.855   5.640
 5201SOL    HW116502   6.669   3.937   5.608
 5201SOL    HW216503   6.727   3.791   5.565
 5202SOL     OW16504   3.425   3.042   6.114
 5202SOL    HW116505   3.358   3.099   6.067
 5202SOL    HW216506   3.469   2.982   6.047
 5203SOL     OW16507   6.973   6.872   4.884
 5203SOL    HW116508   6.980   6.972   4.890
 5203SOL    HW216509   7.012   6.842   4.797
 5204SOL     OW16510   1.980   0.367   2.303
 5204SOL    HW116511   2.052   0.414   2.354
 5204SOL    HW216512   2.007   0.272   2.287
 5205SOL     OW16513   5.933   6.577   1.700
 5205SOL    HW116514   5.989   6.632   1.639
 5205SOL    HW216515   5.855   6.539   1.649
 5206SOL     OW16516   1.052   4.802   5.035
 5206SOL    HW116517   1.025   4.706   5.025
 5206SOL    HW216518   1.137   4.807   5.087
 5207SOL     OW16519   4.448   1.525   5.067
 5207SOL    HW116520   4.407   1.504   5.156
 5207SOL    HW216521   4.528   1.584   5.081
 5208SOL     OW16522   6.840   1.150   0.899
 5208SOL    HW116523   6.765   1.105   0.948
 5208SOL    HW216524   6.863   1.236   0.946
 5209SOL     OW16525   4.464   5.577   2.671
 5209SOL    HW116526   4.465   5.555   2.573
 5209SOL    HW216527   4.413   5.506   2.720
 5210SOL     OW16528   6.471   3.962   2.325
 5210SOL    HW116529   6.540   4.006   2.382
 5210SOL    HW216530   6.428   4.030   2.266
 5211SOL     OW16531   4.860   2.986   4.555
 5211SOL    HW116532   4.921   2.909   4.576
 5211SOL    HW216533   4.777   2.951   4.511
 5212SOL     OW16534   6.867   4.092   0.542
 5212SOL    HW116535   6.854   4.135   0.631
 5212SOL    HW216536   6.890   4.161   0.474
 5213SOL     OW16537   3.467   2.896   4.750
 5213SOL    HW116538   3.461   2.796   4.757
 5213SOL    HW216539   3.407   2.938   4.818
 5214SOL     OW16540   5.970   3.188   5.175
 5214SOL    HW116541   6.054   3.162   5.223
 5214SOL    HW216542   5.993   3.243   5.094
 5215SOL     OW16543   0.529   4.124   5.216
 5215SOL    HW116544   0.506   4.215   5.249
 5215SOL    HW216545   0.468   4.057   5.259
 5216SOL     OW16546   0.722   4.120   0.325
 5216SOL    HW116547   0.709   4.024   0.351
 5216SOL    HW216548   0.633   4.166   0.326
 5217SOL     OW16549   3.081   0.479   1.696
 5217SOL    HW116550   3.060   0.527   1.782
 5217SOL    HW216551   3.070   0.381   1.710
 5218SOL     OW16552   6.571   6.367   0.428
 5218SOL    HW116553   6.636   6.389   0.501
 5218SOL    HW216554   6.488   6.422   0.439
 5219SOL     OW16555   4.067   1.754   4.487
 5219SOL    HW116556   4.065   1.776   4.389
 5219SOL    HW216557   4.005   1.815   4.536
 5220SOL     OW16558   2.379   4.879   4.795
 5220SOL    HW116559   2.412   4.811   4.729
 5220SOL    HW216560   2.454   4.909   4.853
 5221SOL     OW16561   4.250   0.169   0.381
 5221SOL    HW116562   4.157   0.202   0.365
 5221SOL    HW216563   4.279   0.111   0.305
 5222SOL     OW16564   5.635   2.070   1.991
 5222SOL    HW116565   5.613   1.977   2.021
 5222SOL    HW216566   5.677   2.120   2.067
 5223SOL     OW16567   6.960   1.240   0.605
 5223SOL    HW116568   6.976   1.246   0.703
 5223SOL    HW216569   6.963   1.144   0.577
 5224SOL     OW16570   2.639   1.010   4.854
 5224SOL    HW116571   2.622   1.087   4.793
 5224SOL    HW216572   2.637   1.042   4.949
 5225SOL     OW16573   6.552   3.863   5.873
 5225SOL    HW116574   6.630   3.849   5.812
 5225SOL    HW216575   6.499   3.942   5.841
 5226SOL     OW16576   0.694   0.527   4.304
 5226SOL    HW116577   0.653   0.544   4.393
 5226SOL    HW216578   0.719   0.614   4.261
 5227SOL     OW16579   2.685   2.562   6.265
 5227SOL    HW116580   2.593   2.573   6.302
 5227SOL    HW216581   2.750   2.614   6.320
 5228SOL     OW16582   0.153   2.403   5.997
 5228SOL    HW116583   0.101   2.377   5.916
 5228SOL    HW216584   0.226   2.335   6.013
 5229SOL     OW16585   3.978   1.718   1.459
 5229SOL    HW116586   3.996   1.683   1.551
 5229SOL    HW216587   3.943   1.644   1.401
 5230SOL     OW16588   5.501   1.164   2.184
 5230SOL    HW116589   5.538   1.077   2.152
 5230SOL    HW216590   5.572   1.234   2.178
 5231SOL     OW16591   6.843   4.176   2.308
 5231SOL    HW116592   6.837   4.239   2.231
 5231SOL    HW216593   6.848   4.082   2.274
 5232SOL     OW16594   2.558   1.610   6.163
 5232SOL    HW116595   2.644   1.660   6.156
 5232SOL    HW216596   2.507   1.620   6.078
 5233SOL     OW16597   2.365   0.065   4.030
 5233SOL    HW116598   2.361   0.164   4.014
 5233SOL    HW216599   2.315   0.044   4.114
 5234SOL     OW16600   3.611   2.458   6.046
 5234SOL    HW116601   3.621   2.396   6.124
 5234SOL    HW216602   3.681   2.529   6.050
 5235SOL     OW16603   2.227   2.798   1.702
 5235SOL    HW116604   2.307   2.756   1.746
 5235SOL    HW216605   2.245   2.895   1.686
 5236SOL     OW16606   2.621   5.011   1.876
 5236SOL    HW116607   2.683   4.959   1.818
 5236SOL    HW216608   2.552   4.951   1.915
 5237SOL     OW16609   0.824   1.353   1.455
 5237SOL    HW116610   0.743   1.315   1.499
 5237SOL    HW216611   0.798   1.432   1.400
 5238SOL     OW16612   5.810   1.708   3.354
 5238SOL    HW116613   5.775   1.800   3.367
 5238SOL    HW216614   5.828   1.666   3.443
 5239SOL     OW16615   2.542   3.477   0.153
 5239SOL    HW116616   2.607   3.418   0.200
 5239SOL    HW216617   2.592   3.540   0.092
 5240SOL     OW16618   1.280   3.713   4.647
 5240SOL    HW116619   1.182   3.735   4.646
 5240SOL    HW216620   1.313   3.704   4.553
 5241SOL     OW16621   2.378   5.053   2.735
 5241SOL    HW116622   2.398   4.968   2.686
 5241SOL    HW216623   2.279   5.058   2.753
 5242SOL     OW16624   4.802   5.873   5.834
 5242SOL    HW116625   4.797   5.931   5.752
 5242SOL    HW216626   4.897   5.857   5.858
 5243SOL     OW16627   2.281   5.510   3.850
 5243SOL    HW116628   2.267   5.434   3.787
 5243SOL    HW216629   2.376   5.543   3.842
 5244SOL     OW16630   5.806   6.610   6.337
 5244SOL    HW116631   5.773   6.609   6.242
 5244SOL    HW216632   5.732   6.583   6.398
 5245SOL     OW16633   3.092   4.011   2.022
 5245SOL    HW116634   3.061   3.919   2.001
 5245SOL    HW216635   3.070   4.072   1.945
 5246SOL     OW16636   6.704   2.731   5.726
 5246SOL    HW116637   6.755   2.790   5.663
 5246SOL    HW216638   6.679   2.782   5.808
 5247SOL     OW16639   4.579   1.182   4.585
 5247SOL    HW116640   4.500   1.125   4.612
 5247SOL    HW216641   4.663   1.130   4.599
 5248SOL     OW16642   4.250   1.710   2.271
 5248SOL    HW116643   4.240   1.648   2.194
 5248SOL    HW216644   4.257   1.804   2.237
 5249SOL     OW16645   0.727   5.524   2.173
 5249SOL    HW116646   0.669   5.442   2.177
 5249SOL    HW216647   0.669   5.605   2.169
 5250SOL     OW16648   1.434   5.437   6.905
 5250SOL    HW116649   1.483   5.453   6.819
 5250SOL    HW216650   1.421   5.339   6.919
 5251SOL     OW16651   2.530   4.373   6.682
 5251SOL    HW116652   2.452   4.322   6.721
 5251SOL    HW216653   2.509   4.470   6.681
 5252SOL     OW16654   3.998   5.907   4.199
 5252SOL    HW116655   3.948   5.987   4.233
 5252SOL    HW216656   3.943   5.824   4.214
 5253SOL     OW16657   0.587   6.446   3.380
 5253SOL    HW116658   0.506   6.460   3.437
 5253SOL    HW216659   0.647   6.526   3.388
 5254SOL     OW16660   4.678   6.053   2.245
 5254SOL    HW116661   4.685   6.063   2.344
 5254SOL    HW216662   4.663   6.143   2.204
 5255SOL     OW16663   0.755   1.521   6.141
 5255SOL    HW116664   0.662   1.497   6.112
 5255SOL    HW216665   0.752   1.553   6.235
 5256SOL     OW16666   4.001   2.153   2.673
 5256SOL    HW116667   4.039   2.214   2.742
 5256SOL    HW216668   4.070   2.087   2.645
 5257SOL     OW16669   6.148   1.069   6.853
 5257SOL    HW116670   6.053   1.089   6.829
 5257SOL    HW216671   6.190   1.150   6.895
 5258SOL     OW16672   5.841   2.138   5.404
 5258SOL    HW116673   5.789   2.053   5.415
 5258SOL    HW216674   5.810   2.204   5.473
 5259SOL     OW16675   4.720   6.360   4.685
 5259SOL    HW116676   4.756   6.450   4.657
 5259SOL    HW216677   4.653   6.329   4.618
 5260SOL     OW16678   1.903   6.960   2.421
 5260SOL    HW116679   1.998   6.990   2.422
 5260SOL    HW216680   1.896   6.873   2.372
 5261SOL     OW16681   0.033   5.290   0.302
 5261SOL    HW116682   7.018   5.263   0.391
 5261SOL    HW216683   0.123   5.333   0.315
 5262SOL     OW16684   1.375   1.727   2.156
 5262SOL    HW116685   1.290   1.691   2.196
 5262SOL    HW216686   1.422   1.654   2.107
 5263SOL     OW16687   6.765   5.782   1.871
 5263SOL    HW116688   6.725   5.700   1.831
 5263SOL    HW216689   6.789   5.846   1.798
 5264SOL     OW16690   6.028   2.671   2.692
 5264SOL    HW116691   6.019   2.675   2.592
 5264SOL    HW216692   6.002   2.579   2.723
 5265SOL     OW16693   1.569   6.028   5.967
 5265SOL    HW116694   1.557   6.125   5.946
 5265SOL    HW216695   1.664   6.003   5.951
 5266SOL     OW16696   0.536   6.965   6.872
 5266SOL    HW116697   0.524   6.877   6.920
 5266SOL    HW216698   0.632   6.976   6.846
 5267SOL     OW16699   6.560   1.064   5.113
 5267SOL    HW116700   6.558   0.972   5.152
 5267SOL    HW216701   6.546   1.059   5.014
 5268SOL     OW16702   5.570   0.500   5.587
 5268SOL    HW116703   5.493   0.563   5.599
 5268SOL    HW216704   5.536   0.407   5.578
 5269SOL     OW16705   1.895   0.216   4.012
 5269SOL    HW116706   1.959   0.269   3.956
 5269SOL    HW216707   1.944   0.141   4.056
 5270SOL     OW16708   1.626   1.549   6.696
 5270SOL    HW116709   1.691   1.551   6.620
 5270SOL    HW216710   1.570   1.467   6.690
 5271SOL     OW16711   1.275   7.001   6.084
 5271SOL    HW116712   1.291   0.031   6.001
 5271SOL    HW216713   1.185   6.958   6.081
 5272SOL     OW16714   4.023   0.236   6.022
 5272SOL    HW116715   4.070   0.176   6.087
 5272SOL    HW216716   3.925   0.236   6.041
 5273SOL     OW16717   1.951   1.233   3.069
 5273SOL    HW116718   1.995   1.160   3.122
 5273SOL    HW216719   1.903   1.194   2.991
 5274SOL     OW16720   6.229   4.370   1.680
 5274SOL    HW116721   6.157   4.337   1.741
 5274SOL    HW216722   6.254   4.298   1.615
 5275SOL     OW16723   5.837   0.002   6.080
 5275SOL    HW116724   5.803   0.096   6.069
 5275SOL    HW216725   5.846   7.003   6.177
 5276SOL     OW16726   2.521   6.662   1.394
 5276SOL    HW116727   2.584   6.719   1.342
 5276SOL    HW216728   2.550   6.658   1.490
 5277SOL     OW16729   1.554   2.638   1.412
 5277SOL    HW116730   1.626   2.679   1.355
 5277SOL    HW216731   1.596   2.601   1.496
 5278SOL     OW16732   4.011   3.226   5.127
 5278SOL    HW116733   3.989   3.307   5.073
 5278SOL    HW216734   4.086   3.248   5.190
 5279SOL     OW16735   1.259   6.983   3.130
 5279SOL    HW116736   1.355   6.980   3.159
 5279SOL    HW216737   1.247   0.035   3.064
 5280SOL     OW16738   3.729   0.751   3.686
 5280SOL    HW116739   3.780   0.724   3.769
 5280SOL    HW216740   3.740   0.681   3.616
 5281SOL     OW16741   7.012   3.035   3.539
 5281SOL    HW116742   6.931   3.073   3.493
 5281SOL    HW216743   0.072   3.079   3.502
 5282SOL     OW16744   4.764   2.178   1.431
 5282SOL    HW116745   4.793   2.205   1.339
 5282SOL    HW216746   4.833   2.119   1.472
 5283SOL     OW16747   5.783   5.198   5.312
 5283SOL    HW116748   5.872   5.230   5.345
 5283SOL    HW216749   5.711   5.236   5.371
 5284SOL     OW16750   5.401   2.717   3.822
 5284SOL    HW116751   5.371   2.690   3.913
 5284SOL    HW216752   5.494   2.753   3.827
 5285SOL     OW16753   4.422   5.105   2.153
 5285SOL    HW116754   4.445   5.040   2.081
 5285SOL    HW216755   4.499   5.114   2.216
 5286SOL     OW16756   1.575   4.893   2.319
 5286SOL    HW116757   1.488   4.857   2.353
 5286SOL    HW216758   1.559   4.949   2.238
 5287SOL     OW16759   6.790   0.837   3.460
 5287SOL    HW116760   6.730   0.792   3.526
 5287SOL    HW216761   6.769   0.935   3.458
 5288SOL     OW16762   3.968   0.890   0.536
 5288SOL    HW116763   4.007   0.822   0.474
 5288SOL    HW216764   3.907   0.845   0.601
 5289SOL     OW16765   1.773   6.962   1.776
 5289SOL    HW116766   1.821   0.021   1.742
 5289SOL    HW216767   1.683   6.957   1.733
 5290SOL     OW16768   5.521   6.792   6.519
 5290SOL    HW116769   5.471   6.850   6.455
 5290SOL    HW216770   5.461   6.766   6.595
 5291SOL     OW16771   0.864   5.095   1.308
 5291SOL    HW116772   0.849   5.180   1.257
 5291SOL    HW216773   0.942   5.106   1.370
 5292SOL     OW16774   5.640   1.542   0.890
 5292SOL    HW116775   5.660   1.488   0.972
 5292SOL    HW216776   5.583   1.489   0.828
 5293SOL     OW16777   2.013   1.204   3.761
 5293SOL    HW116778   1.992   1.225   3.856
 5293SOL    HW216779   1.953   1.257   3.701
 5294SOL     OW16780   3.450   2.259   7.010
 5294SOL    HW116781   3.536   2.233   6.966
 5294SOL    HW216782   3.458   2.250   0.087
 5295SOL     OW16783   6.873   2.537   3.983
 5295SOL    HW116784   6.787   2.588   3.987
 5295SOL    HW216785   6.859   2.446   4.021
 5296SOL     OW16786   0.133   4.465   6.494
 5296SOL    HW116787   0.215   4.420   6.458
 5296SOL    HW216788   0.128   4.452   6.593
 5297SOL     OW16789   1.085   2.541   2.329
 5297SOL    HW116790   1.095   2.552   2.230
 5297SOL    HW216791   1.054   2.628   2.368
 5298SOL     OW16792   1.414   3.245   2.035
 5298SOL    HW116793   1.395   3.254   2.133
 5298SOL    HW216794   1.329   3.262   1.984
 5299SOL     OW16795   3.623   0.126   6.968
 5299SOL    HW116796   3.623   0.223   6.994
 5299SOL    HW216797   3.621   0.118   6.869
 5300SOL     OW16798   0.104   4.733   4.605
 5300SOL    HW116799   0.201   4.748   4.628
 5300SOL    HW216800   0.092   4.639   4.573
 5301SOL     OW16801   5.531   6.921   5.818
 5301SOL    HW116802   5.483   6.911   5.906
 5301SOL    HW216803   5.626   6.894   5.829
 5302SOL     OW16804   0.044   3.929   2.950
 5302SOL    HW116805   6.974   3.947   2.914
 5302SOL    HW216806   0.101   3.892   2.876
 5303SOL     OW16807   2.532   4.877   2.273
 5303SOL    HW116808   2.552   4.974   2.285
 5303SOL    HW216809   2.615   4.829   2.244
 5304SOL     OW16810   5.678   2.490   6.435
 5304SOL    HW116811   5.645   2.430   6.509
 5304SOL    HW216812   5.747   2.441   6.382
 5305SOL     OW16813   4.024   1.467   5.219
 5305SOL    HW116814   3.959   1.541   5.202
 5305SOL    HW216815   3.985   1.403   5.285
 5306SOL     OW16816   2.064   6.472   3.642
 5306SOL    HW116817   2.155   6.474   3.682
 5306SOL    HW216818   2.016   6.558   3.663
 5307SOL     OW16819   4.987   6.930   6.486
 5307SOL    HW116820   4.922   6.854   6.481
 5307SOL    HW216821   5.080   6.896   6.474
 5308SOL     OW16822   6.318   1.295   0.724
 5308SOL    HW116823   6.247   1.225   0.727
 5308SOL    HW216824   6.314   1.349   0.809
 5309SOL     OW16825   3.394   4.066   6.511
 5309SOL    HW116826   3.446   4.092   6.593
 5309SOL    HW216827   3.427   4.118   6.432
 5310SOL     OW16828   4.993   2.338   0.034
 5310SOL    HW116829   5.028   2.252   7.019
 5310SOL    HW216830   5.057   2.412   0.011
 5311SOL     OW16831   6.757   5.776   0.015
 5311SOL    HW116832   6.692   5.723   0.069
 5311SOL    HW216833   6.707   5.840   6.979
 5312SOL     OW16834   0.781   3.599   2.074
 5312SOL    HW116835   0.733   3.625   1.990
 5312SOL    HW216836   0.869   3.646   2.077
 5313SOL     OW16837   1.141   6.166   5.927
 5313SOL    HW116838   1.152   6.265   5.918
 5313SOL    HW216839   1.044   6.144   5.923
 5314SOL     OW16840   4.864   4.404   1.115
 5314SOL    HW116841   4.843   4.433   1.209
 5314SOL    HW216842   4.945   4.346   1.116
 5315SOL     OW16843   5.264   0.528   3.113
 5315SOL    HW116844   5.309   0.439   3.106
 5315SOL    HW216845   5.305   0.591   3.047
 5316SOL     OW16846   5.261   5.384   5.039
 5316SOL    HW116847   5.177   5.388   4.986
 5316SOL    HW216848   5.330   5.331   4.988
 5317SOL     OW16849   0.526   4.598   1.464
 5317SOL    HW116850   0.552   4.505   1.491
 5317SOL    HW216851   0.429   4.599   1.439
 5318SOL     OW16852   6.986   2.832   3.258
 5318SOL    HW116853   6.890   2.851   3.235
 5318SOL    HW216854   6.991   2.751   3.315
 5319SOL     OW16855   2.682   5.964   2.331
 5319SOL    HW116856   2.678   6.062   2.313
 5319SOL    HW216857   2.766   5.942   2.379
 5320SOL     OW16858   6.504   1.471   0.979
 5320SOL    HW116859   6.500   1.565   1.012
 5320SOL    HW216860   6.411   1.438   0.960
 5321SOL     OW16861   2.609   5.619   6.784
 5321SOL    HW116862   2.595   5.521   6.780
 5321SOL    HW216863   2.704   5.640   6.757
 5322SOL     OW16864   2.919   6.245   6.474
 5322SOL    HW116865   2.964   6.197   6.550
 5322SOL    HW216866   2.831   6.203   6.455
 5323SOL     OW16867   6.509   3.781   0.290
 5323SOL    HW116868   6.499   3.775   0.389
 5323SOL    HW216869   6.598   3.821   0.268
 5324SOL     OW16870   4.051   3.206   2.375
 5324SOL    HW116871   4.047   3.233   2.471
 5324SOL    HW216872   4.109   3.270   2.325
 5325SOL     OW16873   3.372   6.973   5.253
 5325SOL    HW116874   3.460   7.016   5.232
 5325SOL    HW216875   3.387   6.878   5.280
 5326SOL     OW16876   5.371   0.850   3.771
 5326SOL    HW116877   5.409   0.888   3.687
 5326SOL    HW216878   5.360   0.751   3.761
 5327SOL     OW16879   6.402   5.925   3.652
 5327SOL    HW116880   6.344   5.874   3.588
 5327SOL    HW216881   6.494   5.931   3.615
 5328SOL     OW16882   2.298   4.842   5.755
 5328SOL    HW116883   2.321   4.840   5.658
 5328SOL    HW216884   2.201   4.865   5.766
 5329SOL     OW16885   0.648   6.866   5.241
 5329SOL    HW116886   0.648   6.809   5.159
 5329SOL    HW216887   0.706   6.824   5.311
 5330SOL     OW16888   4.275   3.796   0.235
 5330SOL    HW116889   4.224   3.712   0.253
 5330SOL    HW216890   4.363   3.792   0.283
 5331SOL     OW16891   6.324   0.563   6.827
 5331SOL    HW116892   6.264   0.511   6.888
 5331SOL    HW216893   6.270   0.596   6.749
 5332SOL     OW16894   1.148   3.359   6.909
 5332SOL    HW116895   1.091   3.421   6.854
 5332SOL    HW216896   1.105   3.270   6.915
 5333SOL     OW16897   0.206   6.705   3.948
 5333SOL    HW116898   0.284   6.765   3.968
 5333SOL    HW216899   0.122   6.748   3.981
 5334SOL     OW16900   3.363   5.970   0.702
 5334SOL    HW116901   3.359   5.984   0.801
 5334SOL    HW216902   3.365   5.872   0.681
 5335SOL     OW16903   6.748   4.961   1.784
 5335SOL    HW116904   6.837   4.917   1.768
 5335SOL    HW216905   6.676   4.892   1.785
 5336SOL     OW16906   1.829   3.195   6.204
 5336SOL    HW116907   1.754   3.172   6.267
 5336SOL    HW216908   1.797   3.188   6.110
 5337SOL     OW16909   6.207   1.654   0.813
 5337SOL    HW116910   6.149   1.717   0.865
 5337SOL    HW216911   6.153   1.575   0.786
 5338SOL     OW16912   6.923   2.392   1.248
 5338SOL    HW116913   7.000   2.451   1.224
 5338SOL    HW216914   6.847   2.449   1.281
 5339SOL     OW16915   5.412   3.647   2.356
 5339SOL    HW116916   5.450   3.672   2.445
 5339SOL    HW216917   5.372   3.728   2.313
 5340SOL     OW16918   5.876   4.170   0.949
 5340SOL    HW116919   5.955   4.147   1.005
 5340SOL    HW216920   5.794   4.175   1.006
 5341SOL     OW16921   4.688   4.802   3.533
 5341SOL    HW116922   4.750   4.879   3.518
 5341SOL    HW216923   4.738   4.716   3.519
 5342SOL     OW16924   6.342   5.002   4.663
 5342SOL    HW116925   6.366   5.066   4.737
 5342SOL    HW216926   6.425   4.955   4.632
 5343SOL     OW16927   4.325   3.343   1.377
 5343SOL    HW116928   4.416   3.307   1.357
 5343SOL    HW216929   4.261   3.315   1.304
 5344SOL     OW16930   6.426   1.962   6.943
 5344SOL    HW116931   6.423   1.953   6.844
 5344SOL    HW216932   6.383   1.882   6.986
 5345SOL     OW16933   3.669   0.820   6.856
 5345SOL    HW116934   3.628   0.910   6.842
 5345SOL    HW216935   3.748   0.829   6.916
 5346SOL     OW16936   2.315   5.943   3.109
 5346SOL    HW116937   2.228   5.969   3.068
 5346SOL    HW216938   2.362   6.024   3.142
 5347SOL     OW16939   6.213   2.647   5.037
 5347SOL    HW116940   6.134   2.709   5.030
 5347SOL    HW216941   6.212   2.604   5.128
 5348SOL     OW16942   5.728   2.785   5.167
 5348SOL    HW116943   5.649   2.736   5.204
 5348SOL    HW216944   5.706   2.882   5.157
 5349SOL     OW16945   0.877   3.692   0.375
 5349SOL    HW116946   0.939   3.759   0.418
 5349SOL    HW216947   0.931   3.622   0.328
 5350SOL     OW16948   1.352   6.819   6.564
 5350SOL    HW116949   1.303   6.759   6.628
 5350SOL    HW216950   1.450   6.805   6.574
 5351SOL     OW16951   0.849   6.291   3.227
 5351SOL    HW116952   0.923   6.326   3.169
 5351SOL    HW216953   0.816   6.204   3.189
 5352SOL     OW16954   0.064   3.658   6.304
 5352SOL    HW116955   0.036   3.727   6.239
 5352SOL    HW216956   0.085   3.701   6.392
 5353SOL     OW16957   2.714   6.941   2.664
 5353SOL    HW116958   2.652   6.904   2.733
 5353SOL    HW216959   2.673   6.931   2.573
 5354SOL     OW16960   2.284   6.482   1.593
 5354SOL    HW116961   2.188   6.455   1.588
 5354SOL    HW216962   2.341   6.412   1.551
 5355SOL     OW16963   4.769   4.428   5.622
 5355SOL    HW116964   4.784   4.445   5.719
 5355SOL    HW216965   4.760   4.330   5.606
 5356SOL     OW16966   6.172   6.745   1.221
 5356SOL    HW116967   6.196   6.832   1.266
 5356SOL    HW216968   6.074   6.728   1.231
 5357SOL     OW16969   6.489   2.939   2.234
 5357SOL    HW116970   6.392   2.936   2.208
 5357SOL    HW216971   6.533   3.015   2.185
 5358SOL     OW16972   5.486   6.328   5.175
 5358SOL    HW116973   5.584   6.337   5.158
 5358SOL    HW216974   5.449   6.256   5.116
 5359SOL     OW16975   2.930   1.837   5.723
 5359SOL    HW116976   2.990   1.867   5.649
 5359SOL    HW216977   2.940   1.900   5.800
 5360SOL     OW16978   5.230   5.874   2.261
 5360SOL    HW116979   5.314   5.876   2.207
 5360SOL    HW216980   5.152   5.854   2.201
 5361SOL     OW16981   1.243   3.405   2.484
 5361SOL    HW116982   1.329   3.437   2.523
 5361SOL    HW216983   1.224   3.457   2.400
 5362SOL     OW16984   6.539   1.668   4.143
 5362SOL    HW116985   6.485   1.751   4.126
 5362SOL    HW216986   6.483   1.600   4.189
 5363SOL     OW16987   6.239   3.881   6.346
 5363SOL    HW116988   6.180   3.925   6.414
 5363SOL    HW216989   6.243   3.937   6.263
 5364SOL     OW16990   4.719   2.010   1.672
 5364SOL    HW116991   4.705   2.109   1.679
 5364SOL    HW216992   4.756   1.976   1.759
 5365SOL     OW16993   3.089   2.255   6.485
 5365SOL    HW116994   3.139   2.281   6.402
 5365SOL    HW216995   3.153   2.245   6.561
 5366SOL     OW16996   0.065   4.335   3.764
 5366SOL    HW116997   0.125   4.266   3.724
 5366SOL    HW216998   0.080   4.423   3.720
 5367SOL     OW16999   6.722   5.524   1.808
 5367SOL    HW117000   6.646   5.483   1.859
 5367SOL    HW217001   6.808   5.478   1.834
 5368SOL     OW17002   0.102   5.124   4.671
 5368SOL    HW117003   0.033   5.075   4.726
 5368SOL    HW217004   0.193   5.094   4.698
 5369SOL     OW17005   3.869   0.595   1.960
 5369SOL    HW117006   3.884   0.668   1.893
 5369SOL    HW217007   3.907   0.623   2.048
 5370SOL     OW17008   2.061   2.483   7.012
 5370SOL    HW117009   1.969   2.518   6.995
 5370SOL    HW217010   2.105   2.537   0.062
 5371SOL     OW17011   6.330   4.820   3.145
 5371SOL    HW117012   6.428   4.826   3.128
 5371SOL    HW217013   6.302   4.890   3.210
 5372SOL     OW17014   0.872   1.265   4.767
 5372SOL    HW117015   0.858   1.176   4.724
 5372SOL    HW217016   0.916   1.252   4.856
 5373SOL     OW17017   4.837   0.012   1.285
 5373SOL    HW117018   4.904   6.962   1.305
 5373SOL    HW217019   4.826   0.071   1.364
 5374SOL     OW17020   2.017   3.012   1.437
 5374SOL    HW117021   2.085   2.948   1.401
 5374SOL    HW217022   1.932   3.003   1.386
 5375SOL     OW17023   2.978   4.824   5.157
 5375SOL    HW117024   3.063   4.792   5.199
 5375SOL    HW217025   2.934   4.749   5.108
 5376SOL     OW17026   6.286   6.857   2.067
 5376SOL    HW117027   6.195   6.836   2.103
 5376SOL    HW217028   6.351   6.868   2.143
 5377SOL     OW17029   0.561   3.469   1.225
 5377SOL    HW117030   0.629   3.462   1.152
 5377SOL    HW217031   0.469   3.464   1.185
 5378SOL     OW17032   5.217   0.630   5.242
 5378SOL    HW117033   5.212   0.560   5.170
 5378SOL    HW217034   5.205   0.587   5.331
 5379SOL     OW17035   3.617   1.835   4.351
 5379SOL    HW117036   3.716   1.836   4.337
 5379SOL    HW217037   3.587   1.740   4.364
 5380SOL     OW17038   4.590   6.911   1.301
 5380SOL    HW117039   4.604   6.812   1.304
 5380SOL    HW217040   4.675   6.956   1.274
 5381SOL     OW17041   2.615   1.610   1.949
 5381SOL    HW117042   2.652   1.574   2.034
 5381SOL    HW217043   2.655   1.700   1.931
 5382SOL     OW17044   3.589   0.542   2.738
 5382SOL    HW117045   3.529   0.576   2.811
 5382SOL    HW217046   3.535   0.486   2.675
 5383SOL     OW17047   2.119   4.481   5.225
 5383SOL    HW117048   2.168   4.484   5.312
 5383SOL    HW217049   2.050   4.409   5.228
 5384SOL     OW17050   4.994   5.649   5.601
 5384SOL    HW117051   4.954   5.582   5.538
 5384SOL    HW217052   4.922   5.688   5.658
 5385SOL     OW17053   4.036   3.873   0.843
 5385SOL    HW117054   4.059   3.847   0.937
 5385SOL    HW217055   4.026   3.973   0.838
 5386SOL     OW17056   4.056   6.101   3.363
 5386SOL    HW117057   3.959   6.104   3.388
 5386SOL    HW217058   4.109   6.153   3.429
 5387SOL     OW17059   1.178   2.726   5.517
 5387SOL    HW117060   1.163   2.644   5.573
 5387SOL    HW217061   1.235   2.702   5.438
 5388SOL     OW17062   6.721   6.273   3.281
 5388SOL    HW117063   6.780   6.347   3.314
 5388SOL    HW217064   6.628   6.306   3.271
 5389SOL     OW17065   6.885   1.828   5.137
 5389SOL    HW117066   6.860   1.732   5.130
 5389SOL    HW217067   6.985   1.837   5.136
 5390SOL     OW17068   5.923   2.461   4.298
 5390SOL    HW117069   5.857   2.456   4.372
 5390SOL    HW217070   5.929   2.372   4.252
 5391SOL     OW17071   5.128   2.978   1.113
 5391SOL    HW117072   5.160   2.919   1.187
 5391SOL    HW217073   5.064   3.046   1.150
 5392SOL     OW17074   5.016   1.054   3.743
 5392SOL    HW117075   5.082   1.040   3.817
 5392SOL    HW217076   5.013   1.150   3.718
 5393SOL     OW17077   5.205   3.032   2.234
 5393SOL    HW117078   5.193   2.951   2.291
 5393SOL    HW217079   5.115   3.062   2.201
 5394SOL     OW17080   0.429   3.270   3.123
 5394SOL    HW117081   0.460   3.303   3.212
 5394SOL    HW217082   0.339   3.309   3.103
 5395SOL     OW17083   0.264   0.318   1.810
 5395SOL    HW117084   0.280   0.410   1.773
 5395SOL    HW217085   0.294   0.249   1.745
 5396SOL     OW17086   3.456   2.611   6.641
 5396SOL    HW117087   3.506   2.525   6.628
 5396SOL    HW217088   3.358   2.594   6.633
 5397SOL     OW17089   0.037   6.996   3.069
 5397SOL    HW117090   0.121   0.012   3.109
 5397SOL    HW217091   6.981   7.018   3.128
 5398SOL     OW17092   5.956   2.583   3.502
 5398SOL    HW117093   5.947   2.484   3.505
 5398SOL    HW217094   5.868   2.623   3.477
 5399SOL     OW17095   2.568   2.279   0.468
 5399SOL    HW117096   2.576   2.233   0.556
 5399SOL    HW217097   2.579   2.377   0.480
 5400SOL     OW17098   4.189   3.281   0.918
 5400SOL    HW117099   4.154   3.207   0.862
 5400SOL    HW217100   4.287   3.269   0.932
 5401SOL     OW17101   4.638   2.873   1.141
 5401SOL    HW117102   4.545   2.841   1.155
 5401SOL    HW217103   4.701   2.822   1.200
 5402SOL     OW17104   2.082   5.451   1.088
 5402SOL    HW117105   2.096   5.389   1.011
 5402SOL    HW217106   2.163   5.450   1.147
 5403SOL     OW17107   6.763   3.135   5.510
 5403SOL    HW117108   6.670   3.111   5.481
 5403SOL    HW217109   6.819   3.053   5.514
 5404SOL     OW17110   4.262   6.669   6.446
 5404SOL    HW117111   4.249   6.654   6.349
 5404SOL    HW217112   4.222   6.757   6.472
 5405SOL     OW17113   6.073   5.180   6.434
 5405SOL    HW117114   6.173   5.184   6.425
 5405SOL    HW217115   6.042   5.087   6.417
 5406SOL     OW17116   2.381   1.583   4.971
 5406SOL    HW117117   2.359   1.679   4.984
 5406SOL    HW217118   2.469   1.575   4.924
 5407SOL     OW17119   1.898   2.197   2.407
 5407SOL    HW117120   1.854   2.224   2.321
 5407SOL    HW217121   1.839   2.133   2.456
 5408SOL     OW17122   2.838   2.324   3.981
 5408SOL    HW117123   2.792   2.253   3.928
 5408SOL    HW217124   2.876   2.284   4.064
 5409SOL     OW17125   6.457   4.499   3.946
 5409SOL    HW117126   6.371   4.537   3.913
 5409SOL    HW217127   6.469   4.521   4.043
 5410SOL     OW17128   5.954   0.786   0.220
 5410SOL    HW117129   5.871   0.745   0.181
 5410SOL    HW217130   6.002   0.717   0.275
 5411SOL     OW17131   2.701   6.242   2.215
 5411SOL    HW117132   2.777   6.304   2.235
 5411SOL    HW217133   2.721   6.191   2.132
 5412SOL     OW17134   3.206   2.309   6.213
 5412SOL    HW117135   3.117   2.299   6.169
 5412SOL    HW217136   3.234   2.405   6.213
 5413SOL     OW17137   0.218   4.786   6.079
 5413SOL    HW117138   0.159   4.754   6.004
 5413SOL    HW217139   0.210   4.885   6.089
 5414SOL     OW17140   5.590   5.743   6.067
 5414SOL    HW117141   5.687   5.735   6.047
 5414SOL    HW217142   5.558   5.834   6.041
 5415SOL     OW17143   2.681   6.690   0.050
 5415SOL    HW117144   2.715   6.613   7.019
 5415SOL    HW217145   2.601   6.730   0.005
 5416SOL     OW17146   4.299   4.689   5.469
 5416SOL    HW117147   4.304   4.721   5.375
 5416SOL    HW217148   4.391   4.683   5.508
 5417SOL     OW17149   4.750   0.205   2.041
 5417SOL    HW117150   4.679   0.231   1.976
 5417SOL    HW217151   4.823   0.157   1.993
 5418SOL     OW17152   7.006   3.793   6.081
 5418SOL    HW117153   6.908   3.807   6.070
 5418SOL    HW217154   0.027   3.782   5.991
 5419SOL     OW17155   4.246   2.905   6.068
 5419SOL    HW117156   4.245   2.975   5.997
 5419SOL    HW217157   4.317   2.838   6.049
 5420SOL     OW17158   0.847   1.602   0.362
 5420SOL    HW117159   0.825   1.538   0.289
 5420SOL    HW217160   0.765   1.618   0.418
 5421SOL     OW17161   3.867   5.437   0.390
 5421SOL    HW117162   3.827   5.411   0.302
 5421SOL    HW217163   3.811   5.509   0.432
 5422SOL     OW17164   2.427   0.002   3.770
 5422SOL    HW117165   2.489   0.075   3.741
 5422SOL    HW217166   2.387   0.026   3.858
 5423SOL     OW17167   4.537   5.006   3.176
 5423SOL    HW117168   4.613   5.062   3.143
 5423SOL    HW217169   4.526   4.926   3.118
 5424SOL     OW17170   4.429   2.536   5.708
 5424SOL    HW117171   4.402   2.444   5.736
 5424SOL    HW217172   4.432   2.541   5.608
 5425SOL     OW17173   2.270   5.733   4.683
 5425SOL    HW117174   2.288   5.638   4.658
 5425SOL    HW217175   2.357   5.783   4.689
 5426SOL     OW17176   1.095   3.192   0.132
 5426SOL    HW117177   1.119   3.274   0.080
 5426SOL    HW217178   1.151   3.115   0.101
 5427SOL     OW17179   4.289   1.703   6.981
 5427SOL    HW117180   4.213   1.764   6.964
 5427SOL    HW217181   4.277   1.619   6.928
 5428SOL     OW17182   5.004   6.022   1.981
 5428SOL    HW117183   5.079   6.085   2.003
 5428SOL    HW217184   4.927   6.074   1.943
 5429SOL     OW17185   2.664   6.404   2.818
 5429SOL    HW117186   2.740   6.342   2.841
 5429SOL    HW217187   2.629   6.382   2.727
 5430SOL     OW17188   0.838   3.745   5.875
 5430SOL    HW117189   0.790   3.773   5.959
 5430SOL    HW217190   0.879   3.825   5.832
 5431SOL     OW17191   5.067   4.149   1.305
 5431SOL    HW117192   4.974   4.151   1.342
 5431SOL    HW217193   5.067   4.187   1.212
 5432SOL     OW17194   1.396   5.265   5.691
 5432SOL    HW117195   1.434   5.207   5.618
 5432SOL    HW217196   1.324   5.323   5.652
 5433SOL     OW17197   3.521   6.671   1.931
 5433SOL    HW117198   3.595   6.603   1.924
 5433SOL    HW217199   3.555   6.751   1.980
 5434SOL     OW17200   4.430   6.706   4.312
 5434SOL    HW117201   4.509   6.684   4.254
 5434SOL    HW217202   4.442   6.662   4.401
 5435SOL     OW17203   0.710   3.119   0.027
 5435SOL    HW117204   0.670   3.063   6.976
 5435SOL    HW217205   0.668   3.210   0.025
 5436SOL     OW17206   1.719   4.034   0.589
 5436SOL    HW117207   1.705   4.068   0.682
 5436SOL    HW217208   1.743   4.110   0.529
 5437SOL     OW17209   3.013   0.583   6.021
 5437SOL    HW117210   3.092   0.641   6.002
 5437SOL    HW217211   2.951   0.584   5.943
 5438SOL     OW17212   4.485   6.542   3.357
 5438SOL    HW117213   4.464   6.449   3.388
 5438SOL    HW217214   4.411   6.576   3.300
 5439SOL     OW17215   1.877   3.549   2.284
 5439SOL    HW117216   1.970   3.579   2.261
 5439SOL    HW217217   1.882   3.463   2.335
 5440SOL     OW17218   4.804   5.912   2.655
 5440SOL    HW117219   4.727   5.872   2.706
 5440SOL    HW217220   4.888   5.900   2.707
 5441SOL     OW17221   5.913   0.202   4.436
 5441SOL    HW117222   5.985   0.184   4.503
 5441SOL    HW217223   5.900   0.300   4.426
 5442SOL     OW17224   2.571   5.900   6.752
 5442SOL    HW117225   2.493   5.932   6.805
 5442SOL    HW217226   2.568   5.800   6.745
 5443SOL     OW17227   5.289   1.775   2.800
 5443SOL    HW117228   5.328   1.867   2.807
 5443SOL    HW217229   5.356   1.708   2.833
 5444SOL     OW17230   2.332   1.805   6.155
 5444SOL    HW117231   2.366   1.715   6.183
 5444SOL    HW217232   2.237   1.816   6.185
 5445SOL     OW17233   0.273   5.993   5.913
 5445SOL    HW117234   0.237   6.086   5.907
 5445SOL    HW217235   0.272   5.950   5.823
 5446SOL     OW17236   2.405   4.123   0.228
 5446SOL    HW117237   2.453   4.177   0.158
 5446SOL    HW217238   2.439   4.029   0.225
 5447SOL     OW17239   5.405   2.714   1.763
 5447SOL    HW117240   5.488   2.675   1.725
 5447SOL    HW217241   5.422   2.745   1.857
 5448SOL     OW17242   6.192   5.830   1.061
 5448SOL    HW117243   6.198   5.745   1.114
 5448SOL    HW217244   6.259   5.828   0.987
 5449SOL     OW17245   2.404   0.639   2.318
 5449SOL    HW117246   2.468   0.710   2.291
 5449SOL    HW217247   2.392   0.642   2.417
 5450SOL     OW17248   4.372   4.591   2.025
 5450SOL    HW117249   4.358   4.577   1.927
 5450SOL    HW217250   4.460   4.635   2.040
 5451SOL     OW17251   0.286   5.225   3.691
 5451SOL    HW117252   0.270   5.305   3.633
 5451SOL    HW217253   0.277   5.142   3.636
 5452SOL     OW17254   2.281   4.197   3.046
 5452SOL    HW117255   2.212   4.205   3.118
 5452SOL    HW217256   2.342   4.276   3.048
 5453SOL     OW17257   5.842   5.061   4.474
 5453SOL    HW117258   5.939   5.037   4.465
 5453SOL    HW217259   5.822   5.084   4.569
 5454SOL     OW17260   6.893   3.611   2.890
 5454SOL    HW117261   6.832   3.675   2.843
 5454SOL    HW217262   6.974   3.595   2.834
 5455SOL     OW17263   1.970   1.782   2.725
 5455SOL    HW117264   1.966   1.694   2.677
 5455SOL    HW217265   2.038   1.841   2.682
 5456SOL     OW17266   5.849   3.016   0.120
 5456SOL    HW117267   5.914   2.977   0.055
 5456SOL    HW217268   5.844   2.957   0.201
 5457SOL     OW17269   5.453   0.889   0.971
 5457SOL    HW117270   5.419   0.828   0.899
 5457SOL    HW217271   5.413   0.863   1.058
 5458SOL     OW17272   6.103   4.597   6.505
 5458SOL    HW117273   6.060   4.664   6.445
 5458SOL    HW217274   6.190   4.568   6.465
 5459SOL     OW17275   2.122   3.473   4.554
 5459SOL    HW117276   2.091   3.423   4.472
 5459SOL    HW217277   2.221   3.485   4.549
 5460SOL     OW17278   6.764   1.620   0.820
 5460SOL    HW117279   6.845   1.570   0.853
 5460SOL    HW217280   6.683   1.562   0.829
 5461SOL     OW17281   6.066   0.629   5.537
 5461SOL    HW117282   6.090   0.725   5.545
 5461SOL    HW217283   5.966   0.619   5.539
 5462SOL     OW17284   5.834   4.826   0.662
 5462SOL    HW117285   5.884   4.876   0.592
 5462SOL    HW217286   5.736   4.832   0.645
 5463SOL     OW17287   3.217   4.810   6.539
 5463SOL    HW117288   3.152   4.876   6.576
 5463SOL    HW217289   3.217   4.728   6.596
 5464SOL     OW17290   3.251   5.912   4.080
 5464SOL    HW117291   3.314   5.893   4.156
 5464SOL    HW217292   3.171   5.854   4.088
 5465SOL     OW17293   0.351   1.782   4.938
 5465SOL    HW117294   0.364   1.780   4.838
 5465SOL    HW217295   0.380   1.871   4.974
 5466SOL     OW17296   5.944   2.474   4.892
 5466SOL    HW117297   5.951   2.481   4.793
 5466SOL    HW217298   5.961   2.564   4.934
 5467SOL     OW17299   4.398   4.542   3.114
 5467SOL    HW117300   4.408   4.562   3.212
 5467SOL    HW217301   4.322   4.594   3.077
 5468SOL     OW17302   0.588   2.043   1.038
 5468SOL    HW117303   0.643   2.099   1.100
 5468SOL    HW217304   0.580   2.088   0.950
 5469SOL     OW17305   4.091   0.884   2.714
 5469SOL    HW117306   4.001   0.919   2.739
 5469SOL    HW217307   4.127   0.937   2.636
 5470SOL     OW17308   2.878   4.751   2.777
 5470SOL    HW117309   2.866   4.830   2.717
 5470SOL    HW217310   2.944   4.688   2.737
 5471SOL     OW17311   5.633   1.547   3.767
 5471SOL    HW117312   5.626   1.629   3.823
 5471SOL    HW217313   5.677   1.474   3.820
 5472SOL     OW17314   2.532   4.857   0.596
 5472SOL    HW117315   2.602   4.917   0.558
 5472SOL    HW217316   2.461   4.841   0.527
 5473SOL     OW17317   3.194   4.797   1.715
 5473SOL    HW117318   3.262   4.732   1.680
 5473SOL    HW217319   3.229   4.840   1.799
 5474SOL     OW17320   1.397   5.469   1.381
 5474SOL    HW117321   1.378   5.374   1.403
 5474SOL    HW217322   1.445   5.512   1.457
 5475SOL     OW17323   0.157   1.432   5.004
 5475SOL    HW117324   0.144   1.399   5.097
 5475SOL    HW217325   0.121   1.525   4.996
 5476SOL     OW17326   3.167   1.665   4.441
 5476SOL    HW117327   3.188   1.760   4.466
 5476SOL    HW217328   3.201   1.647   4.348
 5477SOL     OW17329   2.154   3.953   2.802
 5477SOL    HW117330   2.210   4.024   2.758
 5477SOL    HW217331   2.171   3.954   2.900
 5478SOL     OW17332   6.533   2.999   5.415
 5478SOL    HW117333   6.503   2.939   5.489
 5478SOL    HW217334   6.460   3.006   5.346
 5479SOL     OW17335   5.490   4.178   4.908
 5479SOL    HW117336   5.415   4.240   4.887
 5479SOL    HW217337   5.470   4.126   4.991
 5480SOL     OW17338   2.323   2.503   6.436
 5480SOL    HW117339   2.375   2.419   6.453
 5480SOL    HW217340   2.241   2.481   6.383
 5481SOL     OW17341   3.381   0.099   1.006
 5481SOL    HW117342   3.420   0.175   0.953
 5481SOL    HW217343   3.286   0.086   0.978
 5482SOL     OW17344   5.679   4.555   2.261
 5482SOL    HW117345   5.728   4.534   2.346
 5482SOL    HW217346   5.593   4.504   2.258
 5483SOL     OW17347   5.853   1.727   1.090
 5483SOL    HW117348   5.859   1.702   1.187
 5483SOL    HW217349   5.764   1.769   1.073
 5484SOL     OW17350   6.155   7.012   5.426
 5484SOL    HW117351   6.231   6.994   5.487
 5484SOL    HW217352   6.183   6.997   5.331
 5485SOL     OW17353   2.143   2.008   3.927
 5485SOL    HW117354   2.164   1.997   3.829
 5485SOL    HW217355   2.121   2.104   3.946
 5486SOL     OW17356   5.521   1.328   4.205
 5486SOL    HW117357   5.444   1.391   4.205
 5486SOL    HW217358   5.488   1.235   4.222
 5487SOL     OW17359   4.050   6.031   1.204
 5487SOL    HW117360   3.991   6.015   1.124
 5487SOL    HW217361   3.999   6.083   1.272
 5488SOL     OW17362   4.894   0.019   6.763
 5488SOL    HW117363   4.872   0.091   6.698
 5488SOL    HW217364   4.852   6.955   6.732
 5489SOL     OW17365   6.975   3.186   2.460
 5489SOL    HW117366   6.906   3.190   2.532
 5489SOL    HW217367   6.935   3.148   2.377
 5490SOL     OW17368   2.729   1.178   6.682
 5490SOL    HW117369   2.652   1.124   6.650
 5490SOL    HW217370   2.760   1.142   6.771
 5491SOL     OW17371   6.253   6.265   1.313
 5491SOL    HW117372   6.293   6.282   1.223
 5491SOL    HW217373   6.311   6.306   1.384
 5492SOL     OW17374   1.425   0.612   5.879
 5492SOL    HW117375   1.462   0.650   5.964
 5492SOL    HW217376   1.327   0.600   5.888
 5493SOL     OW17377   4.118   0.877   6.347
 5493SOL    HW117378   4.051   0.949   6.330
 5493SOL    HW217379   4.070   0.791   6.366
 5494SOL     OW17380   5.702   3.087   1.991
 5494SOL    HW117381   5.651   3.078   2.076
 5494SOL    HW217382   5.637   3.094   1.915
 5495SOL     OW17383   3.391   3.003   5.309
 5495SOL    HW117384   3.334   3.068   5.260
 5495SOL    HW217385   3.403   2.921   5.254
 5496SOL     OW17386   4.381   4.713   1.587
 5496SOL    HW117387   4.478   4.734   1.574
 5496SOL    HW217388   4.330   4.799   1.597
 5497SOL     OW17389   5.475   6.232   0.433
 5497SOL    HW117390   5.385   6.187   0.437
 5497SOL    HW217391   5.527   6.210   0.515
 5498SOL     OW17392   4.177   0.624   3.581
 5498SOL    HW117393   4.251   0.558   3.593
 5498SOL    HW217394   4.186   0.668   3.491
 5499SOL     OW17395   0.809   0.749   4.586
 5499SOL    HW117396   0.836   0.843   4.607
 5499SOL    HW217397   0.769   0.707   4.667
 5500SOL     OW17398   1.153   6.464   0.665
 5500SOL    HW117399   1.233   6.520   0.686
 5500SOL    HW217400   1.070   6.519   0.674
 5501SOL     OW17401   2.450   1.248   2.120
 5501SOL    HW117402   2.549   1.239   2.110
 5501SOL    HW217403   2.424   1.344   2.110
 5502SOL     OW17404   5.484   4.512   0.833
 5502SOL    HW117405   5.497   4.597   0.784
 5502SOL    HW217406   5.470   4.437   0.768
 5503SOL     OW17407   6.658   1.096   4.200
 5503SOL    HW117408   6.753   1.066   4.193
 5503SOL    HW217409   6.648   1.184   4.154
 5504SOL     OW17410   2.557   2.122   4.743
 5504SOL    HW117411   2.501   2.105   4.661
 5504SOL    HW217412   2.534   2.056   4.814
 5505SOL     OW17413   3.382   5.695   0.645
 5505SOL    HW117414   3.450   5.698   0.718
 5505SOL    HW217415   3.308   5.632   0.671
 5506SOL     OW17416   1.669   6.367   5.276
 5506SOL    HW117417   1.734   6.412   5.214
 5506SOL    HW217418   1.622   6.436   5.331
 5507SOL     OW17419   2.321   5.298   4.866
 5507SOL    HW117420   2.362   5.266   4.951
 5507SOL    HW217421   2.298   5.395   4.875
 5508SOL     OW17422   2.562   1.950   5.172
 5508SOL    HW117423   2.524   1.997   5.092
 5508SOL    HW217424   2.500   1.963   5.250
 5509SOL     OW17425   7.008   0.072   5.397
 5509SOL    HW117426   6.923   0.106   5.437
 5509SOL    HW217427   0.004   0.119   5.310
 5510SOL     OW17428   0.076   0.078   5.663
 5510SOL    HW117429   0.077   0.061   5.564
 5510SOL    HW217430   0.096   0.175   5.680
 5511SOL     OW17431   0.335   2.514   0.740
 5511SOL    HW117432   0.367   2.422   0.719
 5511SOL    HW217433   0.239   2.511   0.766
 5512SOL     OW17434   6.690   6.297   0.176
 5512SOL    HW117435   6.700   6.197   0.180
 5512SOL    HW217436   6.677   6.333   0.268
 5513SOL     OW17437   2.925   6.578   4.962
 5513SOL    HW117438   2.967   6.488   4.975
 5513SOL    HW217439   2.869   6.601   5.041
 5514SOL     OW17440   5.999   6.057   3.970
 5514SOL    HW117441   6.057   5.998   3.913
 5514SOL    HW217442   5.968   6.135   3.915
 5515SOL     OW17443   1.835   3.964   3.866
 5515SOL    HW117444   1.852   3.967   3.965
 5515SOL    HW217445   1.899   3.899   3.824
 5516SOL     OW17446   2.210   2.678   0.141
 5516SOL    HW117447   2.167   2.675   0.231
 5516SOL    HW217448   2.303   2.641   0.147
 5517SOL     OW17449   3.149   0.087   2.201
 5517SOL    HW117450   3.248   0.080   2.211
 5517SOL    HW217451   3.105   0.070   2.289
 5518SOL     OW17452   4.908   3.727   6.467
 5518SOL    HW117453   4.836   3.659   6.477
 5518SOL    HW217454   4.919   3.778   6.553
 5519SOL     OW17455   5.403   3.500   2.631
 5519SOL    HW117456   5.349   3.423   2.597
 5519SOL    HW217457   5.358   3.540   2.710
 5520SOL     OW17458   1.091   2.844   1.248
 5520SOL    HW117459   1.132   2.784   1.317
 5520SOL    HW217460   1.118   2.813   1.157
 5521SOL     OW17461   5.619   4.364   6.475
 5521SOL    HW117462   5.621   4.343   6.572
 5521SOL    HW217463   5.559   4.300   6.428
 5522SOL     OW17464   1.924   2.538   1.445
 5522SOL    HW117465   1.869   2.605   1.394
 5522SOL    HW217466   2.012   2.579   1.469
 5523SOL     OW17467   2.431   6.317   1.818
 5523SOL    HW117468   2.371   6.383   1.773
 5523SOL    HW217469   2.383   6.230   1.830
 5524SOL     OW17470   6.618   6.585   5.807
 5524SOL    HW117471   6.599   6.620   5.899
 5524SOL    HW217472   6.535   6.543   5.770
 5525SOL     OW17473   6.565   0.077   2.868
 5525SOL    HW117474   6.604   7.019   2.914
 5525SOL    HW217475   6.472   0.055   2.838
 5526SOL     OW17476   5.310   3.804   4.907
 5526SOL    HW117477   5.284   3.815   5.003
 5526SOL    HW217478   5.342   3.711   4.891
 5527SOL     OW17479   3.112   2.758   0.090
 5527SOL    HW117480   3.093   2.714   0.002
 5527SOL    HW217481   3.163   2.843   0.074
 5528SOL     OW17482   5.652   2.884   2.366
 5528SOL    HW117483   5.746   2.917   2.371
 5528SOL    HW217484   5.589   2.957   2.393
 5529SOL     OW17485   1.296   1.141   4.751
 5529SOL    HW117486   1.339   1.203   4.685
 5529SOL    HW217487   1.266   1.194   4.831
 5530SOL     OW17488   0.197   3.110   6.538
 5530SOL    HW117489   0.247   3.065   6.464
 5530SOL    HW217490   0.227   3.205   6.547
 5531SOL     OW17491   2.887   2.585   0.696
 5531SOL    HW117492   2.826   2.578   0.618
 5531SOL    HW217493   2.934   2.498   0.710
 5532SOL     OW17494   2.124   2.967   2.062
 5532SOL    HW117495   2.207   2.914   2.044
 5532SOL    HW217496   2.120   2.991   2.159
 5533SOL     OW17497   3.127   0.054   0.888
 5533SOL    HW117498   3.101   0.012   0.802
 5533SOL    HW217499   3.089   0.001   0.964
 5534SOL     OW17500   0.395   3.639   5.794
 5534SOL    HW117501   0.369   3.543   5.783
 5534SOL    HW217502   0.414   3.679   5.704
 5535SOL     OW17503   4.857   5.505   3.181
 5535SOL    HW117504   4.887   5.428   3.125
 5535SOL    HW217505   4.904   5.503   3.269
 5536SOL     OW17506   2.556   1.118   4.415
 5536SOL    HW117507   2.488   1.075   4.357
 5536SOL    HW217508   2.626   1.161   4.358
 5537SOL     OW17509   3.746   1.591   3.433
 5537SOL    HW117510   3.780   1.604   3.526
 5537SOL    HW217511   3.684   1.512   3.431
 5538SOL     OW17512   4.588   2.605   2.931
 5538SOL    HW117513   4.542   2.580   2.846
 5538SOL    HW217514   4.671   2.550   2.942
 5539SOL     OW17515   1.128   0.252   6.176
 5539SOL    HW117516   1.214   0.297   6.154
 5539SOL    HW217517   1.139   0.197   6.258
 5540SOL     OW17518   4.254   6.697   4.900
 5540SOL    HW117519   4.275   6.793   4.886
 5540SOL    HW217520   4.157   6.680   4.879
 5541SOL     OW17521   4.913   2.812   5.353
 5541SOL    HW117522   4.888   2.909   5.349
 5541SOL    HW217523   4.831   2.757   5.372
 5542SOL     OW17524   4.982   4.410   6.987
 5542SOL    HW117525   4.916   4.480   7.014
 5542SOL    HW217526   5.074   4.440   7.011
 5543SOL     OW17527   0.572   0.705   5.708
 5543SOL    HW117528   0.631   0.710   5.788
 5543SOL    HW217529   0.628   0.703   5.625
 5544SOL     OW17530   4.201   5.069   6.856
 5544SOL    HW117531   4.285   5.084   6.908
 5544SOL    HW217532   4.190   5.141   6.788
 5545SOL     OW17533   4.954   2.711   2.993
 5545SOL    HW117534   4.993   2.724   2.902
 5545SOL    HW217535   4.869   2.763   3.000
 5546SOL     OW17536   1.117   6.163   4.136
 5546SOL    HW117537   1.034   6.122   4.096
 5546SOL    HW217538   1.095   6.201   4.226
 5547SOL     OW17539   5.010   2.019   4.253
 5547SOL    HW117540   4.911   2.033   4.247
 5547SOL    HW217541   5.042   2.049   4.343
 5548SOL     OW17542   1.010   4.166   4.493
 5548SOL    HW117543   1.029   4.125   4.582
 5548SOL    HW217544   0.912   4.165   4.476
 5549SOL     OW17545   4.128   3.451   0.488
 5549SOL    HW117546   4.105   3.495   0.400
 5549SOL    HW217547   4.044   3.416   0.529
 5550SOL     OW17548   3.114   4.405   1.237
 5550SOL    HW117549   3.195   4.403   1.295
 5550SOL    HW217550   3.032   4.400   1.295
 5551SOL     OW17551   0.785   3.749   2.347
 5551SOL    HW117552   0.747   3.685   2.281
 5551SOL    HW217553   0.719   3.822   2.366
 5552SOL     OW17554   0.119   1.035   0.993
 5552SOL    HW117555   0.042   0.998   1.046
 5552SOL    HW217556   0.108   1.134   0.984
 5553SOL     OW17557   6.070   6.412   1.447
 5553SOL    HW117558   6.116   6.339   1.396
 5553SOL    HW217559   6.002   6.456   1.388
 5554SOL     OW17560   0.355   2.127   1.640
 5554SOL    HW117561   0.400   2.190   1.577
 5554SOL    HW217562   0.256   2.143   1.637
 5555SOL     OW17563   1.018   4.625   2.403
 5555SOL    HW117564   1.106   4.591   2.369
 5555SOL    HW217565   0.944   4.582   2.351
 5556SOL     OW17566   6.334   1.789   5.225
 5556SOL    HW117567   6.361   1.862   5.288
 5556SOL    HW217568   6.367   1.810   5.134
 5557SOL     OW17569   2.939   6.720   3.091
 5557SOL    HW117570   2.952   6.816   3.115
 5557SOL    HW217571   2.858   6.711   3.032
 5558SOL     OW17572   4.184   3.812   6.123
 5558SOL    HW117573   4.103   3.839   6.177
 5558SOL    HW217574   4.189   3.712   6.119
 5559SOL     OW17575   3.570   0.349   3.546
 5559SOL    HW117576   3.470   0.351   3.548
 5559SOL    HW217577   3.601   0.254   3.557
 5560SOL     OW17578   0.238   5.012   3.204
 5560SOL    HW117579   0.192   4.924   3.218
 5560SOL    HW217580   0.246   5.029   3.105
 5561SOL     OW17581   2.840   0.638   3.841
 5561SOL    HW117582   2.808   0.724   3.802
 5561SOL    HW217583   2.940   0.641   3.851
 5562SOL     OW17584   5.386   2.687   1.269
 5562SOL    HW117585   5.469   2.734   1.299
 5562SOL    HW217586   5.358   2.621   1.339
 5563SOL     OW17587   1.135   4.294   2.476
 5563SOL    HW117588   1.077   4.267   2.553
 5563SOL    HW217589   1.227   4.256   2.489
 5564SOL     OW17590   4.583   0.118   6.649
 5564SOL    HW117591   4.544   0.034   6.685
 5564SOL    HW217592   4.555   0.130   6.554
 5565SOL     OW17593   2.950   2.154   6.167
 5565SOL    HW117594   2.920   2.236   6.118
 5565SOL    HW217595   2.882   2.131   6.237
 5566SOL     OW17596   1.419   4.983   5.032
 5566SOL    HW117597   1.340   4.988   4.970
 5566SOL    HW217598   1.503   4.995   4.979
 5567SOL     OW17599   1.811   4.795   6.674
 5567SOL    HW117600   1.859   4.852   6.607
 5567SOL    HW217601   1.869   4.783   6.754
 5568SOL     OW17602   5.209   5.061   2.692
 5568SOL    HW117603   5.301   5.026   2.678
 5568SOL    HW217604   5.213   5.159   2.714
 5569SOL     OW17605   1.602   2.040   2.968
 5569SOL    HW117606   1.539   1.963   2.957
 5569SOL    HW217607   1.569   2.118   2.915
 5570SOL     OW17608   6.814   3.348   1.465
 5570SOL    HW117609   6.876   3.318   1.393
 5570SOL    HW217610   6.751   3.417   1.429
 5571SOL     OW17611   6.684   4.527   6.852
 5571SOL    HW117612   6.747   4.546   6.777
 5571SOL    HW217613   6.657   4.431   6.849
 5572SOL     OW17614   0.822   4.481   5.658
 5572SOL    HW117615   0.722   4.491   5.656
 5572SOL    HW217616   0.848   4.407   5.596
 5573SOL     OW17617   2.755   4.776   3.050
 5573SOL    HW117618   2.835   4.772   3.109
 5573SOL    HW217619   2.783   4.793   2.955
 5574SOL     OW17620   1.508   0.974   6.132
 5574SOL    HW117621   1.522   1.009   6.225
 5574SOL    HW217622   1.423   1.012   6.096
 5575SOL     OW17623   0.720   0.025   2.028
 5575SOL    HW117624   0.679   0.003   1.939
 5575SOL    HW217625   0.708   0.123   2.046
 5576SOL     OW17626   1.597   5.319   3.154
 5576SOL    HW117627   1.691   5.285   3.157
 5576SOL    HW217628   1.598   5.418   3.146
 5577SOL     OW17629   3.540   1.811   5.841
 5577SOL    HW117630   3.456   1.779   5.885
 5577SOL    HW217631   3.545   1.776   5.747
 5578SOL     OW17632   4.138   3.608   3.672
 5578SOL    HW117633   4.099   3.678   3.732
 5578SOL    HW217634   4.233   3.631   3.652
 5579SOL     OW17635   6.444   3.110   1.924
 5579SOL    HW117636   6.521   3.137   1.982
 5579SOL    HW217637   6.374   3.066   1.980
 5580SOL     OW17638   5.712   2.546   5.740
 5580SOL    HW117639   5.725   2.564   5.837
 5580SOL    HW217640   5.656   2.619   5.700
 5581SOL     OW17641   1.053   0.922   5.460
 5581SOL    HW117642   0.955   0.941   5.471
 5581SOL    HW217643   1.070   0.826   5.479
 5582SOL     OW17644   2.859   2.418   6.075
 5582SOL    HW117645   2.773   2.404   6.026
 5582SOL    HW217646   2.845   2.483   6.149
 5583SOL     OW17647   5.316   6.690   1.297
 5583SOL    HW117648   5.406   6.701   1.256
 5583SOL    HW217649   5.257   6.766   1.269
 5584SOL     OW17650   0.232   3.800   5.047
 5584SOL    HW117651   0.322   3.800   5.090
 5584SOL    HW217652   0.181   3.719   5.074
 5585SOL     OW17653   6.002   4.898   1.764
 5585SOL    HW117654   5.904   4.891   1.784
 5585SOL    HW217655   6.018   4.971   1.698
 5586SOL     OW17656   1.732   6.395   2.008
 5586SOL    HW117657   1.814   6.416   2.062
 5586SOL    HW217658   1.757   6.333   1.933
 5587SOL     OW17659   6.020   1.395   4.473
 5587SOL    HW117660   6.096   1.344   4.433
 5587SOL    HW217661   5.936   1.377   4.420
 5588SOL     OW17662   3.239   6.586   0.867
 5588SOL    HW117663   3.156   6.600   0.813
 5588SOL    HW217664   3.226   6.623   0.959
 5589SOL     OW17665   0.227   5.391   5.355
 5589SOL    HW117666   0.324   5.395   5.331
 5589SOL    HW217667   0.195   5.297   5.352
 5590SOL     OW17668   5.165   5.701   3.525
 5590SOL    HW117669   5.133   5.751   3.605
 5590SOL    HW217670   5.136   5.749   3.442
 5591SOL     OW17671   4.466   1.217   2.557
 5591SOL    HW117672   4.482   1.301   2.607
 5591SOL    HW217673   4.426   1.239   2.467
 5592SOL     OW17674   6.552   5.367   4.542
 5592SOL    HW117675   6.613   5.402   4.471
 5592SOL    HW217676   6.602   5.303   4.600
 5593SOL     OW17677   2.156   4.682   1.281
 5593SOL    HW117678   2.233   4.746   1.285
 5593SOL    HW217679   2.190   4.592   1.252
 5594SOL     OW17680   6.278   6.718   5.592
 5594SOL    HW117681   6.179   6.708   5.599
 5594SOL    HW217682   6.303   6.813   5.613
 5595SOL     OW17683   6.818   1.230   1.365
 5595SOL    HW117684   6.783   1.310   1.315
 5595SOL    HW217685   6.891   1.260   1.428
 5596SOL     OW17686   4.402   6.633   2.969
 5596SOL    HW117687   4.385   6.565   2.898
 5596SOL    HW217688   4.372   6.597   3.058
 5597SOL     OW17689   4.928   3.117   2.149
 5597SOL    HW117690   4.861   3.050   2.119
 5597SOL    HW217691   4.928   3.195   2.086
 5598SOL     OW17692   3.107   0.685   3.898
 5598SOL    HW117693   3.144   0.719   3.984
 5598SOL    HW217694   3.167   0.713   3.823
 5599SOL     OW17695   1.164   1.412   3.591
 5599SOL    HW117696   1.234   1.341   3.595
 5599SOL    HW217697   1.129   1.430   3.683
 5600SOL     OW17698   2.592   2.644   5.337
 5600SOL    HW117699   2.508   2.651   5.283
 5600SOL    HW217700   2.645   2.565   5.307
 5601SOL     OW17701   1.446   0.323   0.208
 5601SOL    HW117702   1.544   0.343   0.208
 5601SOL    HW217703   1.417   0.301   0.115
 5602SOL     OW17704   1.658   1.293   0.189
 5602SOL    HW117705   1.669   1.298   0.090
 5602SOL    HW217706   1.701   1.373   0.231
 5603SOL     OW17707   6.549   3.358   4.859
 5603SOL    HW117708   6.619   3.378   4.790
 5603SOL    HW217709   6.568   3.412   4.942
 5604SOL     OW17710   5.368   1.094   6.671
 5604SOL    HW117711   5.350   1.000   6.701
 5604SOL    HW217712   5.308   1.118   6.595
 5605SOL     OW17713   1.729   1.264   6.559
 5605SOL    HW117714   1.760   1.207   6.635
 5605SOL    HW217715   1.641   1.305   6.581
 5606SOL     OW17716   6.185   6.111   3.551
 5606SOL    HW117717   6.158   6.204   3.526
 5606SOL    HW217718   6.231   6.113   3.639
 5607SOL     OW17719   5.270   6.554   0.601
 5607SOL    HW117720   5.345   6.593   0.548
 5607SOL    HW217721   5.207   6.626   0.630
 5608SOL     OW17722   3.651   6.860   5.385
 5608SOL    HW117723   3.595   6.798   5.331
 5608SOL    HW217724   3.745   6.860   5.349
 5609SOL     OW17725   1.781   5.998   4.905
 5609SOL    HW117726   1.746   5.935   4.836
 5609SOL    HW217727   1.716   6.003   4.981
 5610SOL     OW17728   5.454   7.005   6.347
 5610SOL    HW117729   5.443   0.060   6.409
 5610SOL    HW217730   5.536   7.017   6.292
 5611SOL     OW17731   2.012   4.912   4.107
 5611SOL    HW117732   2.010   4.946   4.013
 5611SOL    HW217733   1.937   4.847   4.121
 5612SOL     OW17734   4.225   6.447   4.285
 5612SOL    HW117735   4.204   6.542   4.305
 5612SOL    HW217736   4.144   6.402   4.249
 5613SOL     OW17737   2.257   5.406   2.752
 5613SOL    HW117738   2.181   5.467   2.777
 5613SOL    HW217739   2.291   5.360   2.834
 5614SOL     OW17740   5.359   2.062   4.522
 5614SOL    HW117741   5.293   2.080   4.595
 5614SOL    HW217742   5.353   2.133   4.453
 5615SOL     OW17743   0.673   1.058   1.889
 5615SOL    HW117744   0.598   1.034   1.951
 5615SOL    HW217745   0.640   1.124   1.822
 5616SOL     OW17746   3.236   6.620   4.927
 5616SOL    HW117747   3.325   6.658   4.951
 5616SOL    HW217748   3.230   6.611   4.827
 5617SOL     OW17749   0.098   1.068   6.033
 5617SOL    HW117750   0.191   1.101   6.020
 5617SOL    HW217751   0.082   0.988   5.975
 5618SOL     OW17752   6.584   5.085   3.997
 5618SOL    HW117753   6.650   5.011   3.981
 5618SOL    HW217754   6.491   5.049   3.986
 5619SOL     OW17755   2.323   2.796   3.773
 5619SOL    HW117756   2.322   2.772   3.676
 5619SOL    HW217757   2.342   2.894   3.783
 5620SOL     OW17758   5.586   2.226   6.002
 5620SOL    HW117759   5.634   2.314   6.006
 5620SOL    HW217760   5.629   2.167   5.934
 5621SOL     OW17761   2.610   1.744   4.845
 5621SOL    HW117762   2.601   1.737   4.746
 5621SOL    HW217763   2.698   1.786   4.868
 5622SOL     OW17764   6.018   1.976   4.941
 5622SOL    HW117765   5.929   2.022   4.930
 5622SOL    HW217766   6.071   2.024   5.011
 5623SOL     OW17767   0.745   5.847   6.427
 5623SOL    HW117768   0.714   5.752   6.431
 5623SOL    HW217769   0.673   5.904   6.388
 5624SOL     OW17770   1.388   4.015   2.572
 5624SOL    HW117771   1.372   4.109   2.542
 5624SOL    HW217772   1.307   3.982   2.620
 5625SOL     OW17773   5.954   1.818   6.218
 5625SOL    HW117774   6.001   1.887   6.273
 5625SOL    HW217775   5.962   1.841   6.121
 5626SOL     OW17776   5.726   6.137   5.660
 5626SOL    HW117777   5.816   6.176   5.644
 5626SOL    HW217778   5.735   6.040   5.682
 5627SOL     OW17779   1.364   0.584   1.463
 5627SOL    HW117780   1.354   0.520   1.539
 5627SOL    HW217781   1.461   0.608   1.453
 5628SOL     OW17782   1.108   1.559   4.247
 5628SOL    HW117783   1.018   1.577   4.206
 5628SOL    HW217784   1.102   1.569   4.346
 5629SOL     OW17785   3.545   3.678   3.944
 5629SOL    HW117786   3.537   3.708   4.039
 5629SOL    HW217787   3.530   3.580   3.938
 5630SOL     OW17788   6.329   4.330   1.098
 5630SOL    HW117789   6.408   4.381   1.132
 5630SOL    HW217790   6.360   4.246   1.053
 5631SOL     OW17791   6.166   0.995   6.053
 5631SOL    HW117792   6.164   0.918   6.118
 5631SOL    HW217793   6.105   0.975   5.977
 5632SOL     OW17794   2.927   1.901   1.030
 5632SOL    HW117795   2.843   1.890   1.084
 5632SOL    HW217796   2.954   1.812   0.992
 5633SOL     OW17797   0.107   3.271   5.844
 5633SOL    HW117798   0.046   3.264   5.765
 5633SOL    HW217799   0.052   3.275   5.928
 5634SOL     OW17800   4.450   5.996   5.622
 5634SOL    HW117801   4.507   6.064   5.668
 5634SOL    HW217802   4.449   6.014   5.524
 5635SOL     OW17803   2.835   1.468   0.138
 5635SOL    HW117804   2.923   1.425   0.122
 5635SOL    HW217805   2.849   1.563   0.166
 5636SOL     OW17806   4.676   0.743   4.324
 5636SOL    HW117807   4.770   0.771   4.304
 5636SOL    HW217808   4.652   0.665   4.267
 5637SOL     OW17809   5.771   0.141   2.941
 5637SOL    HW117810   5.815   0.066   2.989
 5637SOL    HW217811   5.744   0.212   3.006
 5638SOL     OW17812   6.772   3.646   0.466
 5638SOL    HW117813   6.808   3.579   0.531
 5638SOL    HW217814   6.711   3.709   0.513
 5639SOL     OW17815   3.976   0.222   6.571
 5639SOL    HW117816   4.054   0.166   6.600
 5639SOL    HW217817   3.939   0.270   6.651
 5640SOL     OW17818   1.244   6.385   3.595
 5640SOL    HW117819   1.242   6.466   3.653
 5640SOL    HW217820   1.268   6.305   3.650
 5641SOL     OW17821   6.650   5.874   4.642
 5641SOL    HW117822   6.663   5.840   4.549
 5641SOL    HW217823   6.565   5.927   4.647
 5642SOL     OW17824   1.192   0.836   0.582
 5642SOL    HW117825   1.238   0.844   0.671
 5642SOL    HW217826   1.229   0.904   0.519
 5643SOL     OW17827   5.054   2.259   0.672
 5643SOL    HW117828   5.060   2.271   0.771
 5643SOL    HW217829   4.995   2.331   0.633
 5644SOL     OW17830   2.732   0.311   5.643
 5644SOL    HW117831   2.748   0.401   5.603
 5644SOL    HW217832   2.643   0.310   5.689
 5645SOL     OW17833   5.169   4.114   4.249
 5645SOL    HW117834   5.154   4.213   4.255
 5645SOL    HW217835   5.248   4.089   4.304
 5646SOL     OW17836   1.266   4.798   2.668
 5646SOL    HW117837   1.213   4.716   2.687
 5646SOL    HW217838   1.287   4.845   2.754
 5647SOL     OW17839   4.253   5.355   2.586
 5647SOL    HW117840   4.210   5.266   2.601
 5647SOL    HW217841   4.279   5.364   2.490
 5648SOL     OW17842   5.783   6.591   3.723
 5648SOL    HW117843   5.774   6.664   3.791
 5648SOL    HW217844   5.848   6.619   3.653
 5649SOL     OW17845   1.025   0.589   4.498
 5649SOL    HW117846   0.939   0.630   4.528
 5649SOL    HW217847   1.062   0.641   4.422
 5650SOL     OW17848   0.848   3.810   6.298
 5650SOL    HW117849   0.927   3.822   6.238
 5650SOL    HW217850   0.836   3.891   6.355
 5651SOL     OW17851   3.010   0.870   1.158
 5651SOL    HW117852   3.003   0.913   1.248
 5651SOL    HW217853   2.967   0.930   1.090
 5652SOL     OW17854   0.026   6.200   2.104
 5652SOL    HW117855   0.038   6.278   2.166
 5652SOL    HW217856   6.958   6.160   2.120
 5653SOL     OW17857   6.823   0.477   2.772
 5653SOL    HW117858   6.738   0.431   2.800
 5653SOL    HW217859   6.895   0.408   2.758
 5654SOL     OW17860   3.489   6.077   6.130
 5654SOL    HW117861   3.558   6.015   6.092
 5654SOL    HW217862   3.525   6.121   6.212
 5655SOL     OW17863   6.111   3.171   4.113
 5655SOL    HW117864   6.116   3.260   4.159
 5655SOL    HW217865   6.193   3.158   4.058
 5656SOL     OW17866   0.280   4.987   1.925
 5656SOL    HW117867   0.199   4.928   1.926
 5656SOL    HW217868   0.360   4.934   1.952
 5657SOL     OW17869   6.444   6.107   5.791
 5657SOL    HW117870   6.442   6.073   5.885
 5657SOL    HW217871   6.515   6.176   5.782
 5658SOL     OW17872   3.148   2.323   5.446
 5658SOL    HW117873   3.166   2.358   5.354
 5658SOL    HW217874   3.229   2.335   5.503
 5659SOL     OW17875   2.450   3.642   5.677
 5659SOL    HW117876   2.444   3.545   5.698
 5659SOL    HW217877   2.498   3.690   5.751
 5660SOL     OW17878   4.013   0.877   3.957
 5660SOL    HW117879   4.017   0.903   3.860
 5660SOL    HW217880   4.026   0.778   3.965
 5661SOL     OW17881   0.756   6.052   5.743
 5661SOL    HW117882   0.801   6.091   5.823
 5661SOL    HW217883   0.684   6.113   5.711
 5662SOL     OW17884   2.914   5.589   0.372
 5662SOL    HW117885   2.891   5.646   0.452
 5662SOL    HW217886   2.830   5.549   0.334
 5663SOL     OW17887   3.627   1.616   6.213
 5663SOL    HW117888   3.691   1.638   6.287
 5663SOL    HW217889   3.595   1.522   6.224
 5664SOL     OW17890   4.486   6.037   5.329
 5664SOL    HW117891   4.580   6.024   5.296
 5664SOL    HW217892   4.422   6.014   5.256
 5665SOL     OW17893   2.151   1.056   0.874
 5665SOL    HW117894   2.129   0.960   0.855
 5665SOL    HW217895   2.068   1.104   0.903
 5666SOL     OW17896   5.987   3.956   4.461
 5666SOL    HW117897   5.907   3.916   4.415
 5666SOL    HW217898   6.042   4.006   4.394
 5667SOL     OW17899   2.646   4.643   4.252
 5667SOL    HW117900   2.574   4.616   4.316
 5667SOL    HW217901   2.619   4.620   4.159
 5668SOL     OW17902   4.512   4.511   4.447
 5668SOL    HW117903   4.583   4.440   4.448
 5668SOL    HW217904   4.486   4.534   4.540
 5669SOL     OW17905   5.469   3.127   5.833
 5669SOL    HW117906   5.537   3.054   5.846
 5669SOL    HW217907   5.377   3.087   5.833
 5670SOL     OW17908   0.949   3.370   3.904
 5670SOL    HW117909   0.946   3.470   3.902
 5670SOL    HW217910   0.985   3.339   3.992
 5671SOL     OW17911   5.874   5.847   2.625
 5671SOL    HW117912   5.878   5.759   2.577
 5671SOL    HW217913   5.962   5.893   2.617
 5672SOL     OW17914   5.836   3.405   4.753
 5672SOL    HW117915   5.908   3.392   4.821
 5672SOL    HW217916   5.774   3.327   4.755
 5673SOL     OW17917   0.862   2.531   0.437
 5673SOL    HW117918   0.882   2.462   0.367
 5673SOL    HW217919   0.923   2.519   0.515
 5674SOL     OW17920   2.912   4.949   5.463
 5674SOL    HW117921   2.977   5.025   5.470
 5674SOL    HW217922   2.949   4.879   5.402
 5675SOL     OW17923   3.342   2.003   0.710
 5675SOL    HW117924   3.384   1.917   0.741
 5675SOL    HW217925   3.342   2.069   0.785
 5676SOL     OW17926   3.608   1.775   1.961
 5676SOL    HW117927   3.660   1.842   1.908
 5676SOL    HW217928   3.602   1.806   2.056
 5677SOL     OW17929   1.174   0.777   6.286
 5677SOL    HW117930   1.191   0.851   6.220
 5677SOL    HW217931   1.259   0.726   6.301
 5678SOL     OW17932   3.813   2.118   2.236
 5678SOL    HW117933   3.889   2.069   2.193
 5678SOL    HW217934   3.766   2.173   2.166
 5679SOL     OW17935   1.437   3.472   5.882
 5679SOL    HW117936   1.454   3.564   5.847
 5679SOL    HW217937   1.414   3.477   5.980
 5680SOL     OW17938   0.850   5.743   4.027
 5680SOL    HW117939   0.849   5.710   4.121
 5680SOL    HW217940   0.896   5.832   4.023
 5681SOL     OW17941   1.802   3.509   3.060
 5681SOL    HW117942   1.893   3.541   3.087
 5681SOL    HW217943   1.802   3.488   2.962
 5682SOL     OW17944   1.858   4.321   0.509
 5682SOL    HW117945   1.919   4.330   0.430
 5682SOL    HW217946   1.913   4.307   0.592
 5683SOL     OW17947   0.035   5.615   6.254
 5683SOL    HW117948   7.020   5.522   6.250
 5683SOL    HW217949   0.125   5.617   6.209
 5684SOL     OW17950   2.176   3.328   3.829
 5684SOL    HW117951   2.174   3.397   3.901
 5684SOL    HW217952   2.170   3.372   3.740
 5685SOL     OW17953   1.872   1.978   1.638
 5685SOL    HW117954   1.956   1.978   1.691
 5685SOL    HW217955   1.864   2.065   1.588
 5686SOL     OW17956   5.621   5.248   5.521
 5686SOL    HW117957   5.608   5.316   5.593
 5686SOL    HW217958   5.533   5.225   5.480
 5687SOL     OW17959   1.086   0.174   0.043
 5687SOL    HW117960   1.075   0.263   0.086
 5687SOL    HW217961   1.183   0.159   0.023
 5688SOL     OW17962   1.434   2.720   2.499
 5688SOL    HW117963   1.523   2.684   2.469
 5688SOL    HW217964   1.375   2.644   2.526
 5689SOL     OW17965   6.757   2.151   0.605
 5689SOL    HW117966   6.721   2.123   0.694
 5689SOL    HW217967   6.832   2.090   0.579
 5690SOL     OW17968   3.277   5.483   6.384
 5690SOL    HW117969   3.347   5.502   6.453
 5690SOL    HW217970   3.188   5.476   6.429
 5691SOL     OW17971   5.323   3.158   3.195
 5691SOL    HW117972   5.258   3.138   3.268
 5691SOL    HW217973   5.374   3.241   3.217
 5692SOL     OW17974   6.690   4.746   2.478
 5692SOL    HW117975   6.668   4.651   2.503
 5692SOL    HW217976   6.609   4.803   2.491
 5693SOL     OW17977   2.999   0.775   1.697
 5693SOL    HW117978   2.939   0.711   1.650
 5693SOL    HW217979   3.019   0.853   1.638
 5694SOL     OW17980   6.995   6.930   0.687
 5694SOL    HW117981   0.048   6.902   0.627
 5694SOL    HW217982   6.909   6.925   0.637
 5695SOL     OW17983   1.628   0.992   2.323
 5695SOL    HW117984   1.548   1.010   2.380
 5695SOL    HW217985   1.601   0.993   2.227
 5696SOL     OW17986   6.437   1.502   3.636
 5696SOL    HW117987   6.449   1.547   3.724
 5696SOL    HW217988   6.519   1.449   3.614
 5697SOL     OW17989   5.885   1.691   0.144
 5697SOL    HW117990   5.889   1.639   0.229
 5697SOL    HW217991   5.797   1.737   0.137
 5698SOL     OW17992   3.055   1.990   3.128
 5698SOL    HW117993   3.077   1.969   3.033
 5698SOL    HW217994   3.108   1.931   3.188
 5699SOL     OW17995   2.525   2.488   2.720
 5699SOL    HW117996   2.591   2.421   2.755
 5699SOL    HW217997   2.505   2.556   2.791
 5700SOL     OW17998   5.427   1.090   1.920
 5700SOL    HW117999   5.380   1.122   2.003
 5700SOL    HW218000   5.489   1.015   1.943
 5701SOL     OW18001   2.120   1.788   0.040
 5701SOL    HW118002   2.135   1.878   7.021
 5701SOL    HW218003   2.066   1.731   7.000
 5702SOL     OW18004   1.981   6.515   4.931
 5702SOL    HW118005   1.889   6.491   4.960
 5702SOL    HW218006   1.980   6.605   4.887
 5703SOL     OW18007   1.020   3.370   5.957
 5703SOL    HW118008   0.952   3.344   6.025
 5703SOL    HW218009   1.107   3.327   5.978
 5704SOL     OW18010   5.032   5.787   4.512
 5704SOL    HW118011   5.016   5.842   4.594
 5704SOL    HW218012   5.033   5.690   4.537
 5705SOL     OW18013   5.893   1.747   4.833
 5705SOL    HW118014   5.940   1.828   4.866
 5705SOL    HW218015   5.923   1.667   4.886
 5706SOL     OW18016   5.554   0.379   1.462
 5706SOL    HW118017   5.552   0.341   1.369
 5706SOL    HW218018   5.476   0.440   1.475
 5707SOL     OW18019   5.530   6.135   1.665
 5707SOL    HW118020   5.564   6.046   1.695
 5707SOL    HW218021   5.459   6.121   1.595
 5708SOL     OW18022   4.737   6.755   1.626
 5708SOL    HW118023   4.772   6.741   1.719
 5708SOL    HW218024   4.812   6.782   1.566
 5709SOL     OW18025   6.824   2.882   2.491
 5709SOL    HW118026   6.763   2.812   2.453
 5709SOL    HW218027   6.783   2.920   2.574
 5710SOL     OW18028   5.161   0.976   0.474
 5710SOL    HW118029   5.142   1.008   0.567
 5710SOL    HW218030   5.105   0.896   0.454
 5711SOL     OW18031   4.447   1.651   2.440
 5711SOL    HW118032   4.371   1.676   2.381
 5711SOL    HW218033   4.515   1.725   2.439
 5712SOL     OW18034   6.670   6.019   6.954
 5712SOL    HW118035   6.611   6.036   0.011
 5712SOL    HW218036   6.614   5.989   6.877
 5713SOL     OW18037   1.569   0.923   6.647
 5713SOL    HW118038   1.635   0.902   6.575
 5713SOL    HW218039   1.560   0.843   6.707
 5714SOL     OW18040   5.233   0.392   1.015
 5714SOL    HW118041   5.253   0.300   1.047
 5714SOL    HW218042   5.230   0.393   0.915
 5715SOL     OW18043   0.313   6.138   0.814
 5715SOL    HW118044   0.290   6.192   0.733
 5715SOL    HW218045   0.285   6.188   0.896
 5716SOL     OW18046   6.604   4.750   5.844
 5716SOL    HW118047   6.588   4.832   5.789
 5716SOL    HW218048   6.518   4.700   5.854
 5717SOL     OW18049   6.825   6.035   2.227
 5717SOL    HW118050   6.776   5.954   2.260
 5717SOL    HW218051   6.777   6.117   2.257
 5718SOL     OW18052   1.560   4.690   5.771
 5718SOL    HW118053   1.625   4.640   5.714
 5718SOL    HW218054   1.514   4.626   5.833
 5719SOL     OW18055   3.651   3.884   2.300
 5719SOL    HW118056   3.588   3.833   2.359
 5719SOL    HW218057   3.613   3.974   2.279
 5720SOL     OW18058   2.333   3.733   6.371
 5720SOL    HW118059   2.320   3.831   6.386
 5720SOL    HW218060   2.382   3.719   6.285
 5721SOL     OW18061   0.664   2.920   0.599
 5721SOL    HW118062   0.689   2.883   0.689
 5721SOL    HW218063   0.673   3.019   0.600
 5722SOL     OW18064   1.399   0.340   5.768
 5722SOL    HW118065   1.437   0.425   5.806
 5722SOL    HW218066   1.416   0.339   5.669
 5723SOL     OW18067   4.445   3.666   6.420
 5723SOL    HW118068   4.410   3.627   6.505
 5723SOL    HW218069   4.526   3.616   6.391
 5724SOL     OW18070   6.645   2.220   6.080
 5724SOL    HW118071   6.721   2.269   6.037
 5724SOL    HW218072   6.616   2.144   6.021
 5725SOL     OW18073   0.088   4.246   5.294
 5725SOL    HW118074   0.023   4.262   5.368
 5725SOL    HW218075   0.082   4.151   5.264
 5726SOL     OW18076   4.352   5.260   1.705
 5726SOL    HW118077   4.363   5.316   1.787
 5726SOL    HW218078   4.353   5.319   1.624
 5727SOL     OW18079   0.955   3.073   6.027
 5727SOL    HW118080   0.890   3.126   6.081
 5727SOL    HW218081   1.040   3.124   6.017
 5728SOL     OW18082   2.540   5.872   4.661
 5728SOL    HW118083   2.608   5.820   4.609
 5728SOL    HW218084   2.547   5.969   4.638
 5729SOL     OW18085   2.536   1.812   4.218
 5729SOL    HW118086   2.498   1.831   4.308
 5729SOL    HW218087   2.462   1.792   4.154
 5730SOL     OW18088   6.345   4.870   4.004
 5730SOL    HW118089   6.288   4.894   4.083
 5730SOL    HW218090   6.309   4.786   3.962
 5731SOL     OW18091   6.309   6.991   2.487
 5731SOL    HW118092   6.371   0.003   2.558
 5731SOL    HW218093   6.362   6.943   2.417
 5732SOL     OW18094   5.261   0.268   3.418
 5732SOL    HW118095   5.251   0.233   3.512
 5732SOL    HW218096   5.293   0.195   3.358
 5733SOL     OW18097   2.933   0.929   5.376
 5733SOL    HW118098   2.991   0.989   5.322
 5733SOL    HW218099   2.857   0.897   5.319
 5734SOL     OW18100   2.911   6.112   3.928
 5734SOL    HW118101   2.928   6.127   3.831
 5734SOL    HW218102   2.992   6.072   3.971
 5735SOL     OW18103   2.686   0.935   1.236
 5735SOL    HW118104   2.648   1.013   1.286
 5735SOL    HW218105   2.732   0.967   1.154
 5736SOL     OW18106   1.866   4.339   1.479
 5736SOL    HW118107   1.947   4.306   1.528
 5736SOL    HW218108   1.885   4.429   1.441
 5737SOL     OW18109   5.728   4.045   0.282
 5737SOL    HW118110   5.780   3.972   0.238
 5737SOL    HW218111   5.671   4.091   0.213
 5738SOL     OW18112   0.756   6.116   4.461
 5738SOL    HW118113   0.687   6.187   4.475
 5738SOL    HW218114   0.833   6.154   4.410
 5739SOL     OW18115   0.666   2.645   1.346
 5739SOL    HW118116   0.700   2.718   1.406
 5739SOL    HW218117   0.743   2.590   1.314
 5740SOL     OW18118   4.569   5.315   6.791
 5740SOL    HW118119   4.650   5.356   6.834
 5740SOL    HW218120   4.528   5.249   6.853
 5741SOL     OW18121   0.553   1.948   1.772
 5741SOL    HW118122   0.476   1.997   1.732
 5741SOL    HW218123   0.577   1.989   1.860
 5742SOL     OW18124   6.982   4.910   3.514
 5742SOL    HW118125   0.007   4.888   3.599
 5742SOL    HW218126   6.898   4.961   3.534
 5743SOL     OW18127   0.376   0.477   4.632
 5743SOL    HW118128   0.454   0.528   4.597
 5743SOL    HW218129   0.321   0.536   4.690
 5744SOL     OW18130   5.809   0.890   2.452
 5744SOL    HW118131   5.758   0.808   2.477
 5744SOL    HW218132   5.785   0.964   2.515
 5745SOL     OW18133   0.074   3.459   2.760
 5745SOL    HW118134   0.069   3.359   2.755
 5745SOL    HW218135   0.167   3.489   2.735
 5746SOL     OW18136   0.742   3.282   6.417
 5746SOL    HW118137   0.645   3.271   6.396
 5746SOL    HW218138   0.775   3.200   6.464
 5747SOL     OW18139   6.866   6.497   3.333
 5747SOL    HW118140   6.820   6.584   3.313
 5747SOL    HW218141   6.953   6.515   3.380
 5748SOL     OW18142   1.345   1.060   3.935
 5748SOL    HW118143   1.260   1.031   3.891
 5748SOL    HW218144   1.323   1.108   4.020
 5749SOL     OW18145   0.532   1.286   2.905
 5749SOL    HW118146   0.550   1.227   2.984
 5749SOL    HW218147   0.589   1.258   2.829
 5750SOL     OW18148   4.399   5.467   1.910
 5750SOL    HW118149   4.450   5.424   1.984
 5750SOL    HW218150   4.453   5.541   1.871
 5751SOL     OW18151   1.126   1.689   6.738
 5751SOL    HW118152   1.046   1.637   6.769
 5751SOL    HW218153   1.171   1.639   6.664
 5752SOL     OW18154   2.508   0.471   6.735
 5752SOL    HW118155   2.553   0.512   6.655
 5752SOL    HW218156   2.465   0.384   6.708
 5753SOL     OW18157   4.054   1.386   6.544
 5753SOL    HW118158   4.012   1.306   6.501
 5753SOL    HW218159   4.146   1.362   6.575
 5754SOL     OW18160   5.936   5.973   0.977
 5754SOL    HW118161   6.005   6.029   0.932
 5754SOL    HW218162   5.932   5.997   1.074
 5755SOL     OW18163   3.247   4.003   2.237
 5755SOL    HW118164   3.184   4.018   2.161
 5755SOL    HW218165   3.203   3.945   2.306
 5756SOL     OW18166   6.054   0.868   3.513
 5756SOL    HW118167   6.151   0.868   3.489
 5756SOL    HW218168   6.009   0.949   3.475
 5757SOL     OW18169   6.775   6.791   1.615
 5757SOL    HW118170   6.696   6.733   1.594
 5757SOL    HW218171   6.790   6.854   1.539
 5758SOL     OW18172   2.570   1.261   5.527
 5758SOL    HW118173   2.643   1.246   5.593
 5758SOL    HW218174   2.574   1.355   5.493
 5759SOL     OW18175   0.075   1.162   5.588
 5759SOL    HW118176   0.027   1.082   5.551
 5759SOL    HW218177   0.015   1.242   5.583
 5760SOL     OW18178   6.823   6.036   1.418
 5760SOL    HW118179   6.884   6.072   1.489
 5760SOL    HW218180   6.797   6.110   1.356
 5761SOL     OW18181   3.380   0.355   4.264
 5761SOL    HW118182   3.309   0.319   4.324
 5761SOL    HW218183   3.441   0.415   4.316
 5762SOL     OW18184   4.819   0.180   1.504
 5762SOL    HW118185   4.760   0.112   1.547
 5762SOL    HW218186   4.763   0.247   1.455
 5763SOL     OW18187   3.758   0.847   0.701
 5763SOL    HW118188   3.801   0.894   0.778
 5763SOL    HW218189   3.665   0.882   0.687
 5764SOL     OW18190   3.319   2.837   6.411
 5764SOL    HW118191   3.260   2.795   6.481
 5764SOL    HW218192   3.373   2.766   6.366
 5765SOL     OW18193   6.986   5.109   6.343
 5765SOL    HW118194   0.059   5.112   6.373
 5765SOL    HW218195   6.931   5.064   6.413
 5766SOL     OW18196   2.494   1.732   3.248
 5766SOL    HW118197   2.435   1.734   3.167
 5766SOL    HW218198   2.517   1.825   3.275
 5767SOL     OW18199   4.302   6.383   0.153
 5767SOL    HW118200   4.221   6.329   0.131
 5767SOL    HW218201   4.301   6.467   0.099
 5768SOL     OW18202   5.384   0.493   2.509
 5768SOL    HW118203   5.354   0.589   2.508
 5768SOL    HW218204   5.423   0.471   2.598
 5769SOL     OW18205   0.139   4.733   3.403
 5769SOL    HW118206   0.149   4.694   3.312
 5769SOL    HW218207   0.068   4.804   3.401
 5770SOL     OW18208   4.728   2.637   0.621
 5770SOL    HW118209   4.710   2.730   0.588
 5770SOL    HW218210   4.653   2.608   0.680
 5771SOL     OW18211   0.661   0.282   1.605
 5771SOL    HW118212   0.597   0.226   1.553
 5771SOL    HW218213   0.705   0.349   1.545
 5772SOL     OW18214   6.522   4.945   5.652
 5772SOL    HW118215   6.463   4.993   5.717
 5772SOL    HW218216   6.489   4.961   5.559
 5773SOL     OW18217   4.779   6.574   5.433
 5773SOL    HW118218   4.878   6.574   5.423
 5773SOL    HW218219   4.737   6.617   5.353
 5774SOL     OW18220   1.408   4.372   1.924
 5774SOL    HW118221   1.383   4.466   1.946
 5774SOL    HW218222   1.492   4.348   1.972
 5775SOL     OW18223   1.544   0.871   6.955
 5775SOL    HW118224   1.582   0.898   0.022
 5775SOL    HW218225   1.484   0.943   6.921
 5776SOL     OW18226   5.155   0.017   5.094
 5776SOL    HW118227   5.147   0.116   5.087
 5776SOL    HW218228   5.252   7.014   5.103
 5777SOL     OW18229   4.741   6.516   4.948
 5777SOL    HW118230   4.798   6.504   4.866
 5777SOL    HW218231   4.661   6.456   4.941
 5778SOL     OW18232   2.484   6.421   3.407
 5778SOL    HW118233   2.445   6.482   3.339
 5778SOL    HW218234   2.421   6.344   3.423
 5779SOL     OW18235   3.679   6.509   2.337
 5779SOL    HW118236   3.743   6.460   2.397
 5779SOL    HW218237   3.677   6.464   2.247
 5780SOL     OW18238   0.008   4.197   0.286
 5780SOL    HW118239   6.980   4.254   0.222
 5780SOL    HW218240   0.067   4.255   0.343
 5781SOL     OW18241   4.696   4.701   6.174
 5781SOL    HW118242   4.601   4.681   6.147
 5781SOL    HW218243   4.747   4.615   6.181
 5782SOL     OW18244   4.392   1.684   2.754
 5782SOL    HW118245   4.390   1.585   2.745
 5782SOL    HW218246   4.485   1.713   2.781
 5783SOL     OW18247   2.552   6.059   3.706
 5783SOL    HW118248   2.552   6.002   3.624
 5783SOL    HW218249   2.512   6.148   3.684
 5784SOL     OW18250   0.437   6.912   2.019
 5784SOL    HW118251   0.402   6.912   1.926
 5784SOL    HW218252   0.526   6.866   2.021
 5785SOL     OW18253   2.358   1.382   5.643
 5785SOL    HW118254   2.423   1.335   5.583
 5785SOL    HW218255   2.405   1.456   5.691
 5786SOL     OW18256   2.000   1.308   5.915
 5786SOL    HW118257   1.940   1.325   5.992
 5786SOL    HW218258   1.983   1.375   5.843
 5787SOL     OW18259   0.647   2.429   5.957
 5787SOL    HW118260   0.635   2.527   5.946
 5787SOL    HW218261   0.641   2.384   5.868
 5788SOL     OW18262   0.575   2.034   2.046
 5788SOL    HW118263   0.581   2.131   2.069
 5788SOL    HW218264   0.539   1.983   2.125
 5789SOL     OW18265   3.435   1.416   6.585
 5789SOL    HW118266   3.384   1.357   6.647
 5789SOL    HW218267   3.371   1.469   6.529
 5790SOL     OW18268   6.024   6.358   2.802
 5790SOL    HW118269   6.013   6.365   2.901
 5790SOL    HW218270   6.115   6.392   2.777
 5791SOL     OW18271   3.846   0.864   1.837
 5791SOL    HW118272   3.747   0.874   1.847
 5791SOL    HW218273   3.871   0.878   1.741
 5792SOL     OW18274   4.858   1.816   2.592
 5792SOL    HW118275   4.953   1.842   2.607
 5792SOL    HW218276   4.817   1.878   2.525
 5793SOL     OW18277   4.151   1.404   0.861
 5793SOL    HW118278   4.114   1.420   0.769
 5793SOL    HW218279   4.251   1.413   0.858
 5794SOL     OW18280   3.541   6.411   0.174
 5794SOL    HW118281   3.579   6.319   0.164
 5794SOL    HW218282   3.442   6.406   0.185
 5795SOL     OW18283   0.707   6.579   1.917
 5795SOL    HW118284   0.715   6.658   1.857
 5795SOL    HW218285   0.647   6.602   1.994
 5796SOL     OW18286   5.075   0.862   5.998
 5796SOL    HW118287   5.128   0.835   5.918
 5796SOL    HW218288   5.120   0.940   6.042
 5797SOL     OW18289   5.902   1.313   6.455
 5797SOL    HW118290   5.932   1.218   6.462
 5797SOL    HW218291   5.872   1.345   6.545
 5798SOL     OW18292   1.970   2.640   4.205
 5798SOL    HW118293   2.010   2.709   4.266
 5798SOL    HW218294   2.042   2.577   4.175
 5799SOL     OW18295   2.750   0.875   3.749
 5799SOL    HW118296   2.718   0.969   3.761
 5799SOL    HW218297   2.773   0.859   3.653
 5800SOL     OW18298   1.945   5.823   1.260
 5800SOL    HW118299   2.003   5.761   1.312
 5800SOL    HW218300   1.859   5.837   1.309
 5801SOL     OW18301   2.021   2.110   3.536
 5801SOL    HW118302   1.964   2.029   3.549
 5801SOL    HW218303   1.972   2.177   3.480
 5802SOL     OW18304   0.032   6.774   2.096
 5802SOL    HW118305   0.110   6.714   2.109
 5802SOL    HW218306   6.972   6.720   2.078
 5803SOL     OW18307   0.061   0.239   4.268
 5803SOL    HW118308   0.055   0.338   4.254
 5803SOL    HW218309   7.005   0.194   4.225
 5804SOL     OW18310   6.515   3.168   3.321
 5804SOL    HW118311   6.580   3.185   3.396
 5804SOL    HW218312   6.563   3.177   3.234
 5805SOL     OW18313   0.555   1.461   1.899
 5805SOL    HW118314   0.593   1.539   1.849
 5805SOL    HW218315   0.555   1.380   1.840
 5806SOL     OW18316   7.002   4.207   2.017
 5806SOL    HW118317   7.000   4.108   2.002
 5806SOL    HW218318   6.925   4.250   1.970
 5807SOL     OW18319   0.746   1.297   2.732
 5807SOL    HW118320   0.754   1.384   2.780
 5807SOL    HW218321   0.724   1.314   2.636
 5808SOL     OW18322   6.320   5.490   6.117
 5808SOL    HW118323   6.417   5.471   6.135
 5808SOL    HW218324   6.289   5.563   6.177
 5809SOL     OW18325   6.723   3.665   5.432
 5809SOL    HW118326   6.655   3.687   5.362
 5809SOL    HW218327   6.765   3.577   5.411
 5810SOL     OW18328   0.573   6.568   4.762
 5810SOL    HW118329   0.595   6.662   4.734
 5810SOL    HW218330   0.655   6.526   4.802
 5811SOL     OW18331   2.826   5.806   0.063
 5811SOL    HW118332   2.906   5.749   0.078
 5811SOL    HW218333   2.747   5.748   0.044
 5812SOL     OW18334   6.056   2.564   5.968
 5812SOL    HW118335   6.078   2.659   5.990
 5812SOL    HW218336   5.973   2.536   6.017
 5813SOL     OW18337   6.847   5.091   1.075
 5813SOL    HW118338   6.767   5.033   1.092
 5813SOL    HW218339   6.828   5.151   0.997
 5814SOL     OW18340   5.047   1.554   2.407
 5814SOL    HW118341   5.099   1.620   2.461
 5814SOL    HW218342   5.058   1.575   2.310
 5815SOL     OW18343   1.055   4.518   4.524
 5815SOL    HW118344   0.988   4.481   4.459
 5815SOL    HW218345   1.121   4.447   4.548
 5816SOL     OW18346   6.409   3.558   1.398
 5816SOL    HW118347   6.343   3.621   1.356
 5816SOL    HW218348   6.399   3.562   1.498
 5817SOL     OW18349   0.037   2.103   3.726
 5817SOL    HW118350   6.969   2.073   3.757
 5817SOL    HW218351   0.107   2.057   3.780
 5818SOL     OW18352   2.592   1.849   3.532
 5818SOL    HW118353   2.620   1.753   3.539
 5818SOL    HW218354   2.559   1.881   3.621
 5819SOL     OW18355   4.011   4.444   1.696
 5819SOL    HW118356   4.109   4.429   1.713
 5819SOL    HW218357   3.965   4.355   1.690
 5820SOL     OW18358   0.932   6.422   2.117
 5820SOL    HW118359   0.998   6.351   2.092
 5820SOL    HW218360   0.842   6.381   2.130
 5821SOL     OW18361   5.244   5.667   1.116
 5821SOL    HW118362   5.309   5.742   1.107
 5821SOL    HW218363   5.273   5.606   1.190
 5822SOL     OW18364   1.328   3.942   2.971
 5822SOL    HW118365   1.418   3.906   2.950
 5822SOL    HW218366   1.323   4.038   2.943
 5823SOL     OW18367   2.102   6.878   4.970
 5823SOL    HW118368   2.046   6.847   4.893
 5823SOL    HW218369   2.043   6.890   5.050
 5824SOL     OW18370   1.462   6.106   2.231
 5824SOL    HW118371   1.365   6.110   2.257
 5824SOL    HW218372   1.493   6.011   2.231
 5825SOL     OW18373   2.963   2.156   4.891
 5825SOL    HW118374   2.901   2.231   4.868
 5825SOL    HW218375   3.047   2.192   4.931
 5826SOL     OW18376   1.292   5.950   5.931
 5826SOL    HW118377   1.383   5.986   5.950
 5826SOL    HW218378   1.233   6.022   5.894
 5827SOL     OW18379   1.232   4.528   4.159
 5827SOL    HW118380   1.293   4.490   4.228
 5827SOL    HW218381   1.166   4.458   4.131
 5828SOL     OW18382   5.341   0.123   4.629
 5828SOL    HW118383   5.279   0.194   4.596
 5828SOL    HW218384   5.435   0.150   4.613
 5829SOL     OW18385   1.783   1.114   2.734
 5829SOL    HW118386   1.873   1.138   2.698
 5829SOL    HW218387   1.760   1.021   2.707
 5830SOL     OW18388   4.658   4.748   4.286
 5830SOL    HW118389   4.636   4.659   4.246
 5830SOL    HW218390   4.622   4.751   4.379
 5831SOL     OW18391   2.164   1.804   4.098
 5831SOL    HW118392   2.255   1.767   4.079
 5831SOL    HW218393   2.150   1.889   4.048
 5832SOL     OW18394   2.826   5.246   3.586
 5832SOL    HW118395   2.900   5.197   3.631
 5832SOL    HW218396   2.855   5.340   3.566
 5833SOL     OW18397   2.475   4.597   1.315
 5833SOL    HW118398   2.499   4.693   1.330
 5833SOL    HW218399   2.449   4.583   1.220
 5834SOL     OW18400   0.153   0.624   6.083
 5834SOL    HW118401   0.204   0.560   6.025
 5834SOL    HW218402   0.210   0.653   6.159
 5835SOL     OW18403   3.368   0.832   3.328
 5835SOL    HW118404   3.399   0.800   3.418
 5835SOL    HW218405   3.304   0.908   3.340
 5836SOL     OW18406   5.852   4.899   1.156
 5836SOL    HW118407   5.831   4.951   1.074
 5836SOL    HW218408   5.890   4.810   1.131
 5837SOL     OW18409   2.145   4.157   0.088
 5837SOL    HW118410   2.240   4.156   0.119
 5837SOL    HW218411   2.110   4.064   0.085
 5838SOL     OW18412   3.206   3.451   0.813
 5838SOL    HW118413   3.185   3.543   0.847
 5838SOL    HW218414   3.290   3.455   0.758
 5839SOL     OW18415   1.951   1.734   1.180
 5839SOL    HW118416   2.022   1.800   1.204
 5839SOL    HW218417   1.912   1.758   1.091
 5840SOL     OW18418   6.457   3.598   2.588
 5840SOL    HW118419   6.521   3.573   2.515
 5840SOL    HW218420   6.368   3.619   2.549
 5841SOL     OW18421   4.604   1.420   0.294
 5841SOL    HW118422   4.538   1.375   0.233
 5841SOL    HW218423   4.555   1.483   0.354
 5842SOL     OW18424   2.894   1.829   2.376
 5842SOL    HW118425   2.948   1.756   2.417
 5842SOL    HW218426   2.921   1.917   2.416
 5843SOL     OW18427   2.188   2.620   1.107
 5843SOL    HW118428   2.196   2.532   1.155
 5843SOL    HW218429   2.183   2.694   1.174
 5844SOL     OW18430   6.167   5.574   5.018
 5844SOL    HW118431   6.167   5.500   4.950
 5844SOL    HW218432   6.097   5.555   5.087
 5845SOL     OW18433   2.231   5.925   3.730
 5845SOL    HW118434   2.241   6.017   3.767
 5845SOL    HW218435   2.140   5.889   3.752
 5846SOL     OW18436   0.574   4.340   5.550
 5846SOL    HW118437   0.479   4.316   5.531
 5846SOL    HW218438   0.632   4.305   5.476
 5847SOL     OW18439   2.241   3.801   5.600
 5847SOL    HW118440   2.210   3.760   5.515
 5847SOL    HW218441   2.318   3.749   5.636
 5848SOL     OW18442   2.696   6.194   2.610
 5848SOL    HW118443   2.597   6.178   2.607
 5848SOL    HW218444   2.737   6.139   2.682
 5849SOL     OW18445   3.135   6.608   6.340
 5849SOL    HW118446   3.108   6.555   6.259
 5849SOL    HW218447   3.207   6.559   6.389
 5850SOL     OW18448   6.528   2.346   1.397
 5850SOL    HW118449   6.604   2.283   1.414
 5850SOL    HW218450   6.545   2.432   1.446
 5851SOL     OW18451   1.280   2.643   6.390
 5851SOL    HW118452   1.229   2.674   6.310
 5851SOL    HW218453   1.218   2.634   6.468
 5852SOL     OW18454   4.289   4.742   3.503
 5852SOL    HW118455   4.349   4.662   3.495
 5852SOL    HW218456   4.345   4.825   3.503
 5853SOL     OW18457   4.432   5.094   0.001
 5853SOL    HW118458   4.488   5.158   0.054
 5853SOL    HW218459   4.487   5.013   7.001
 5854SOL     OW18460   2.573   4.262   5.304
 5854SOL    HW118461   2.545   4.173   5.267
 5854SOL    HW218462   2.495   4.325   5.300
 5855SOL     OW18463   0.899   1.905   5.002
 5855SOL    HW118464   0.856   1.876   5.088
 5855SOL    HW218465   0.938   1.826   4.956
 5856SOL     OW18466   6.822   0.879   2.826
 5856SOL    HW118467   6.834   0.793   2.875
 5856SOL    HW218468   6.834   0.956   2.889
 5857SOL     OW18469   6.160   5.637   6.806
 5857SOL    HW118470   6.122   5.725   6.833
 5857SOL    HW218471   6.247   5.622   6.854
 5858SOL     OW18472   3.248   1.698   0.680
 5858SOL    HW118473   3.187   1.776   0.667
 5858SOL    HW218474   3.338   1.719   0.643
 5859SOL     OW18475   6.494   4.846   1.757
 5859SOL    HW118476   6.476   4.748   1.757
 5859SOL    HW218477   6.490   4.881   1.664
 5860SOL     OW18478   1.835   3.394   1.782
 5860SOL    HW118479   1.838   3.295   1.770
 5860SOL    HW218480   1.751   3.430   1.742
 5861SOL     OW18481   5.050   6.412   5.009
 5861SOL    HW118482   4.977   6.395   5.076
 5861SOL    HW218483   5.013   6.466   4.933
 5862SOL     OW18484   0.457   5.245   1.694
 5862SOL    HW118485   0.513   5.269   1.615
 5862SOL    HW218486   0.432   5.328   1.744
 5863SOL     OW18487   3.796   6.965   5.581
 5863SOL    HW118488   3.888   6.955   5.542
 5863SOL    HW218489   3.729   6.930   5.517
 5864SOL     OW18490   4.048   3.231   2.843
 5864SOL    HW118491   4.046   3.255   2.940
 5864SOL    HW218492   3.982   3.157   2.826
 5865SOL     OW18493   6.784   6.148   0.662
 5865SOL    HW118494   6.810   6.227   0.718
 5865SOL    HW218495   6.842   6.144   0.581
 5866SOL     OW18496   3.457   4.163   4.202
 5866SOL    HW118497   3.525   4.099   4.238
 5866SOL    HW218498   3.496   4.214   4.125
 5867SOL     OW18499   5.330   0.418   0.067
 5867SOL    HW118500   5.315   0.428   0.165
 5867SOL    HW218501   5.267   0.477   0.017
 5868SOL     OW18502   1.319   1.186   0.816
 5868SOL    HW118503   1.335   1.252   0.743
 5868SOL    HW218504   1.223   1.156   0.812
 5869SOL     OW18505   1.987   5.275   3.962
 5869SOL    HW118506   1.979   5.368   3.928
 5869SOL    HW218507   1.916   5.258   4.030
 5870SOL     OW18508   4.258   6.796   3.488
 5870SOL    HW118509   4.250   6.704   3.526
 5870SOL    HW218510   4.228   6.795   3.393
 5871SOL     OW18511   4.151   3.283   3.253
 5871SOL    HW118512   4.172   3.351   3.323
 5871SOL    HW218513   4.233   3.265   3.199
 5872SOL     OW18514   3.733   5.262   1.930
 5872SOL    HW118515   3.727   5.326   1.853
 5872SOL    HW218516   3.766   5.173   1.897
 5873SOL     OW18517   3.824   6.724   1.796
 5873SOL    HW118518   3.761   6.763   1.728
 5873SOL    HW218519   3.916   6.758   1.779
 5874SOL     OW18520   0.700   2.748   4.409
 5874SOL    HW118521   0.691   2.827   4.469
 5874SOL    HW218522   0.699   2.664   4.464
 5875SOL     OW18523   3.609   2.302   1.195
 5875SOL    HW118524   3.647   2.379   1.245
 5875SOL    HW218525   3.646   2.216   1.231
 5876SOL     OW18526   4.084   3.645   2.567
 5876SOL    HW118527   4.097   3.690   2.655
 5876SOL    HW218528   4.115   3.551   2.573
 5877SOL     OW18529   4.078   4.691   1.934
 5877SOL    HW118530   4.148   4.619   1.938
 5877SOL    HW218531   4.018   4.673   1.855
 5878SOL     OW18532   0.538   3.509   2.177
 5878SOL    HW118533   0.579   3.420   2.199
 5878SOL    HW218534   0.605   3.564   2.127
 5879SOL     OW18535   1.848   3.836   4.823
 5879SOL    HW118536   1.850   3.770   4.747
 5879SOL    HW218537   1.905   3.802   4.898
 5880SOL     OW18538   2.093   5.642   0.207
 5880SOL    HW118539   2.092   5.696   0.123
 5880SOL    HW218540   2.021   5.674   0.268
 5881SOL     OW18541   1.679   6.235   4.680
 5881SOL    HW118542   1.648   6.287   4.600
 5881SOL    HW218543   1.697   6.140   4.653
 5882SOL     OW18544   5.192   0.750   2.524
 5882SOL    HW118545   5.215   0.832   2.471
 5882SOL    HW218546   5.142   0.686   2.465
 5883SOL     OW18547   0.835   3.310   5.739
 5883SOL    HW118548   0.778   3.392   5.737
 5883SOL    HW218549   0.899   3.316   5.816
 5884SOL     OW18550   6.975   1.324   3.628
 5884SOL    HW118551   6.890   1.342   3.579
 5884SOL    HW218552   0.029   1.367   3.580
 5885SOL     OW18553   6.509   5.163   0.362
 5885SOL    HW118554   6.547   5.141   0.452
 5885SOL    HW218555   6.423   5.213   0.374
 5886SOL     OW18556   6.104   2.831   6.084
 5886SOL    HW118557   6.029   2.849   6.148
 5886SOL    HW218558   6.170   2.906   6.087
 5887SOL     OW18559   4.325   6.775   2.222
 5887SOL    HW118560   4.227   6.758   2.206
 5887SOL    HW218561   4.343   6.873   2.215
 5888SOL     OW18562   0.170   5.795   2.783
 5888SOL    HW118563   0.165   5.762   2.689
 5888SOL    HW218564   0.220   5.730   2.840
 5889SOL     OW18565   3.410   6.822   0.721
 5889SOL    HW118566   3.497   6.844   0.765
 5889SOL    HW218567   3.364   6.749   0.771
 5890SOL     OW18568   4.189   5.217   6.407
 5890SOL    HW118569   4.107   5.176   6.445
 5890SOL    HW218570   4.223   5.160   6.332
 5891SOL     OW18571   2.541   3.009   6.760
 5891SOL    HW118572   2.471   3.079   6.746
 5891SOL    HW218573   2.566   2.968   6.672
 5892SOL     OW18574   3.470   4.821   1.018
 5892SOL    HW118575   3.567   4.840   1.028
 5892SOL    HW218576   3.457   4.741   0.959
 5893SOL     OW18577   0.410   3.047   2.023
 5893SOL    HW118578   0.490   3.062   2.082
 5893SOL    HW218579   0.403   3.123   1.958
 5894SOL     OW18580   2.371   4.658   3.509
 5894SOL    HW118581   2.336   4.712   3.433
 5894SOL    HW218582   2.436   4.590   3.474
 5895SOL     OW18583   4.763   4.713   3.802
 5895SOL    HW118584   4.740   4.779   3.730
 5895SOL    HW218585   4.798   4.763   3.882
 5896SOL     OW18586   5.328   2.268   5.267
 5896SOL    HW118587   5.421   2.240   5.241
 5896SOL    HW218588   5.300   2.346   5.212
 5897SOL     OW18589   4.528   4.627   0.580
 5897SOL    HW118590   4.526   4.661   0.486
 5897SOL    HW218591   4.436   4.629   0.618
 5898SOL     OW18592   1.908   5.475   2.428
 5898SOL    HW118593   1.838   5.406   2.448
 5898SOL    HW218594   1.998   5.437   2.448
 5899SOL     OW18595   4.778   0.406   3.514
 5899SOL    HW118596   4.762   0.419   3.612
 5899SOL    HW218597   4.876   0.403   3.496
 5900SOL     OW18598   3.821   5.119   2.188
 5900SOL    HW118599   3.892   5.123   2.258
 5900SOL    HW218600   3.859   5.151   2.101
 5901SOL     OW18601   2.867   6.078   3.417
 5901SOL    HW118602   2.794   6.014   3.394
 5901SOL    HW218603   2.828   6.169   3.429
 5902SOL     OW18604   6.860   1.953   0.273
 5902SOL    HW118605   6.908   1.875   0.315
 5902SOL    HW218606   6.765   1.955   0.304
 5903SOL     OW18607   0.671   2.025   5.979
 5903SOL    HW118608   0.659   2.107   6.035
 5903SOL    HW218609   0.731   1.961   6.026
 5904SOL     OW18610   0.155   3.351   2.097
 5904SOL    HW118611   0.230   3.375   2.035
 5904SOL    HW218612   0.143   3.251   2.098
 5905SOL     OW18613   6.877   3.499   2.574
 5905SOL    HW118614   6.951   3.452   2.621
 5905SOL    HW218615   6.913   3.581   2.530
 5906SOL     OW18616   5.700   1.985   3.387
 5906SOL    HW118617   5.762   2.061   3.368
 5906SOL    HW218618   5.606   2.014   3.371
 5907SOL     OW18619   1.595   0.494   2.253
 5907SOL    HW118620   1.649   0.445   2.322
 5907SOL    HW218621   1.537   0.561   2.298
 5908SOL     OW18622   0.611   3.094   4.875
 5908SOL    HW118623   0.709   3.084   4.893
 5908SOL    HW218624   0.561   3.023   4.924
 5909SOL     OW18625   6.892   4.386   6.038
 5909SOL    HW118626   6.991   4.371   6.035
 5909SOL    HW218627   6.845   4.300   6.017
 5910SOL     OW18628   0.801   1.425   3.327
 5910SOL    HW118629   0.804   1.519   3.361
 5910SOL    HW218630   0.848   1.420   3.239
 5911SOL     OW18631   5.438   4.900   6.608
 5911SOL    HW118632   5.378   4.925   6.532
 5911SOL    HW218633   5.390   4.838   6.669
 5912SOL     OW18634   0.072   0.950   2.054
 5912SOL    HW118635   0.095   0.970   2.150
 5912SOL    HW218636   0.075   1.034   2.000
 5913SOL     OW18637   0.177   3.133   1.282
 5913SOL    HW118638   0.127   3.060   1.236
 5913SOL    HW218639   0.271   3.104   1.298
 5914SOL     OW18640   1.449   6.122   0.802
 5914SOL    HW118641   1.421   6.214   0.831
 5914SOL    HW218642   1.549   6.116   0.805
 5915SOL     OW18643   5.660   0.949   5.048
 5915SOL    HW118644   5.674   0.852   5.031
 5915SOL    HW218645   5.642   0.963   5.146
 5916SOL     OW18646   0.989   0.689   3.033
 5916SOL    HW118647   1.065   0.649   3.084
 5916SOL    HW218648   0.903   0.667   3.078
 5917SOL     OW18649   3.850   3.022   1.307
 5917SOL    HW118650   3.840   3.079   1.388
 5917SOL    HW218651   3.829   2.927   1.330
 5918SOL     OW18652   3.398   6.654   5.828
 5918SOL    HW118653   3.298   6.649   5.826
 5918SOL    HW218654   3.430   6.702   5.746
 5919SOL     OW18655   2.997   3.565   4.501
 5919SOL    HW118656   2.974   3.478   4.457
 5919SOL    HW218657   2.989   3.556   4.600
 5920SOL     OW18658   1.972   0.562   5.102
 5920SOL    HW118659   2.007   0.552   5.009
 5920SOL    HW218660   1.997   0.652   5.138
 5921SOL     OW18661   3.734   4.704   1.405
 5921SOL    HW118662   3.729   4.731   1.309
 5921SOL    HW218663   3.800   4.761   1.453
 5922SOL     OW18664   5.415   2.647   2.289
 5922SOL    HW118665   5.350   2.621   2.218
 5922SOL    HW218666   5.493   2.694   2.247
 5923SOL     OW18667   5.796   1.300   2.231
 5923SOL    HW118668   5.884   1.292   2.184
 5923SOL    HW218669   5.788   1.391   2.272
 5924SOL     OW18670   0.720   5.944   3.375
 5924SOL    HW118671   0.810   5.977   3.345
 5924SOL    HW218672   0.667   6.020   3.411
 5925SOL     OW18673   4.295   1.293   0.509
 5925SOL    HW118674   4.246   1.209   0.484
 5925SOL    HW218675   4.393   1.274   0.512
 5926SOL     OW18676   4.861   3.339   2.758
 5926SOL    HW118677   4.936   3.402   2.739
 5926SOL    HW218678   4.821   3.309   2.671
 5927SOL     OW18679   1.205   0.515   1.248
 5927SOL    HW118680   1.144   0.437   1.265
 5927SOL    HW218681   1.248   0.543   1.333
 5928SOL     OW18682   3.261   0.150   6.039
 5928SOL    HW118683   3.198   0.175   5.966
 5928SOL    HW218684   3.337   0.215   6.041
 5929SOL     OW18685   1.886   0.984   0.639
 5929SOL    HW118686   1.844   1.072   0.617
 5929SOL    HW218687   1.830   0.935   0.706
 5930SOL     OW18688   0.003   5.137   1.920
 5930SOL    HW118689   6.970   5.094   1.991
 5930SOL    HW218690   7.020   5.084   1.836
 5931SOL     OW18691   5.362   0.915   5.034
 5931SOL    HW118692   5.310   0.982   5.088
 5931SOL    HW218693   5.422   0.863   5.094
 5932SOL     OW18694   2.432   5.580   1.034
 5932SOL    HW118695   2.419   5.648   0.962
 5932SOL    HW218696   2.480   5.621   1.111
 5933SOL     OW18697   6.358   5.257   4.370
 5933SOL    HW118698   6.303   5.339   4.353
 5933SOL    HW218699   6.438   5.281   4.425
 5934SOL     OW18700   2.520   4.536   0.405
 5934SOL    HW118701   2.581   4.571   0.475
 5934SOL    HW218702   2.446   4.602   0.390
 5935SOL     OW18703   1.814   0.276   4.916
 5935SOL    HW118704   1.750   0.200   4.904
 5935SOL    HW218705   1.867   0.262   4.999
 5936SOL     OW18706   3.172   2.857   1.876
 5936SOL    HW118707   3.124   2.782   1.832
 5936SOL    HW218708   3.118   2.940   1.869
 5937SOL     OW18709   0.744   3.242   0.987
 5937SOL    HW118710   0.756   3.145   1.006
 5937SOL    HW218711   0.833   3.283   0.965
 5938SOL     OW18712   1.276   3.527   4.193
 5938SOL    HW118713   1.239   3.584   4.266
 5938SOL    HW218714   1.271   3.430   4.219
 5939SOL     OW18715   5.210   2.301   6.108
 5939SOL    HW118716   5.173   2.286   6.016
 5939SOL    HW218717   5.310   2.307   6.102
 5940SOL     OW18718   4.316   4.950   1.131
 5940SOL    HW118719   4.345   5.029   1.078
 5940SOL    HW218720   4.294   4.874   1.069
 5941SOL     OW18721   1.784   2.110   3.951
 5941SOL    HW118722   1.757   2.168   4.027
 5941SOL    HW218723   1.884   2.099   3.952
 5942SOL     OW18724   4.600   1.984   5.495
 5942SOL    HW118725   4.581   1.901   5.442
 5942SOL    HW218726   4.619   1.959   5.590
 5943SOL     OW18727   2.211   5.081   2.457
 5943SOL    HW118728   2.262   5.075   2.372
 5943SOL    HW218729   2.258   5.142   2.521
 5944SOL     OW18730   0.439   3.847   5.969
 5944SOL    HW118731   0.526   3.861   6.017
 5944SOL    HW218732   0.444   3.763   5.915
 5945SOL     OW18733   0.671   6.582   3.853
 5945SOL    HW118734   0.677   6.577   3.953
 5945SOL    HW218735   0.638   6.495   3.817
 5946SOL     OW18736   2.874   2.671   0.217
 5946SOL    HW118737   2.936   2.710   0.149
 5946SOL    HW218738   2.899   2.576   0.234
 5947SOL     OW18739   3.421   3.808   5.715
 5947SOL    HW118740   3.448   3.828   5.621
 5947SOL    HW218741   3.468   3.871   5.777
 5948SOL     OW18742   5.460   2.959   1.598
 5948SOL    HW118743   5.456   2.880   1.660
 5948SOL    HW218744   5.539   2.949   1.537
 5949SOL     OW18745   1.335   4.798   4.266
 5949SOL    HW118746   1.286   4.716   4.237
 5949SOL    HW218747   1.330   4.807   4.365
 5950SOL     OW18748   2.124   5.863   4.902
 5950SOL    HW118749   2.183   5.829   4.829
 5950SOL    HW218750   2.068   5.939   4.867
 5951SOL     OW18751   6.980   3.563   6.725
 5951SOL    HW118752   6.969   3.539   6.821
 5951SOL    HW218753   6.896   3.604   6.690
 5952SOL     OW18754   3.538   3.611   2.230
 5952SOL    HW118755   3.533   3.562   2.143
 5952SOL    HW218756   3.630   3.604   2.267
 5953SOL     OW18757   0.370   3.540   6.162
 5953SOL    HW118758   0.421   3.609   6.214
 5953SOL    HW218759   0.273   3.565   6.159
 5954SOL     OW18760   2.539   5.577   3.731
 5954SOL    HW118761   2.585   5.656   3.691
 5954SOL    HW218762   2.594   5.495   3.715
 5955SOL     OW18763   4.095   2.717   6.597
 5955SOL    HW118764   4.045   2.691   6.679
 5955SOL    HW218765   4.167   2.782   6.621
 5956SOL     OW18766   3.428   1.839   6.697
 5956SOL    HW118767   3.367   1.759   6.703
 5956SOL    HW218768   3.522   1.809   6.709
 5957SOL     OW18769   0.251   3.391   3.894
 5957SOL    HW118770   0.190   3.469   3.912
 5957SOL    HW218771   0.335   3.402   3.947
 5958SOL     OW18772   2.061   5.697   2.630
 5958SOL    HW118773   2.143   5.754   2.621
 5958SOL    HW218774   2.018   5.684   2.540
 5959SOL     OW18775   5.072   3.830   3.357
 5959SOL    HW118776   5.062   3.917   3.309
 5959SOL    HW218777   5.008   3.763   3.317
 5960SOL     OW18778   6.733   6.253   6.504
 5960SOL    HW118779   6.710   6.223   6.596
 5960SOL    HW218780   6.735   6.353   6.500
 5961SOL     OW18781   1.529   2.053   3.696
 5961SOL    HW118782   1.584   2.115   3.753
 5961SOL    HW218783   1.433   2.060   3.724
 5962SOL     OW18784   5.327   5.597   0.641
 5962SOL    HW118785   5.340   5.506   0.600
 5962SOL    HW218786   5.298   5.586   0.736
 5963SOL     OW18787   1.784   3.491   1.419
 5963SOL    HW118788   1.816   3.578   1.458
 5963SOL    HW218789   1.845   3.418   1.449
 5964SOL     OW18790   1.013   6.265   4.382
 5964SOL    HW118791   1.099   6.315   4.375
 5964SOL    HW218792   0.937   6.330   4.387
 5965SOL     OW18793   1.961   0.477   1.696
 5965SOL    HW118794   1.939   0.563   1.743
 5965SOL    HW218795   1.948   0.488   1.598
 5966SOL     OW18796   2.660   1.513   5.425
 5966SOL    HW118797   2.722   1.573   5.477
 5966SOL    HW218798   2.623   1.564   5.347
 5967SOL     OW18799   5.028   2.325   5.658
 5967SOL    HW118800   4.992   2.302   5.748
 5967SOL    HW218801   5.125   2.350   5.666
 5968SOL     OW18802   6.008   1.710   3.170
 5968SOL    HW118803   6.088   1.730   3.227
 5968SOL    HW218804   5.926   1.707   3.228
 5969SOL     OW18805   5.766   6.312   1.423
 5969SOL    HW118806   5.763   6.410   1.440
 5969SOL    HW218807   5.808   6.295   1.334
 5970SOL     OW18808   6.742   1.285   0.212
 5970SOL    HW118809   6.752   1.207   0.149
 5970SOL    HW218810   6.748   1.370   0.160
 5971SOL     OW18811   6.820   5.364   3.971
 5971SOL    HW118812   6.733   5.412   3.975
 5971SOL    HW218813   6.815   5.293   3.901
 5972SOL     OW18814   6.989   5.552   0.206
 5972SOL    HW118815   6.929   5.553   0.127
 5972SOL    HW218816   6.998   5.459   0.241
 5973SOL     OW18817   3.682   0.521   1.658
 5973SOL    HW118818   3.777   0.492   1.659
 5973SOL    HW218819   3.624   0.442   1.634
 5974SOL     OW18820   5.751   0.883   4.734
 5974SOL    HW118821   5.666   0.924   4.767
 5974SOL    HW218822   5.785   0.934   4.655
 5975SOL     OW18823   3.272   4.400   0.403
 5975SOL    HW118824   3.227   4.383   0.491
 5975SOL    HW218825   3.217   4.464   0.350
 5976SOL     OW18826   0.668   2.302   5.692
 5976SOL    HW118827   0.690   2.206   5.676
 5976SOL    HW218828   0.588   2.328   5.638
 5977SOL     OW18829   0.274   5.981   1.829
 5977SOL    HW118830   0.236   5.976   1.922
 5977SOL    HW218831   0.285   5.889   1.792
 5978SOL     OW18832   3.059   3.648   6.497
 5978SOL    HW118833   3.127   3.722   6.495
 5978SOL    HW218834   3.040   3.623   6.592
 5979SOL     OW18835   5.879   0.575   1.243
 5979SOL    HW118836   5.815   0.589   1.319
 5979SOL    HW218837   5.971   0.603   1.271
 5980SOL     OW18838   3.681   2.532   0.520
 5980SOL    HW118839   3.593   2.578   0.505
 5980SOL    HW218840   3.752   2.580   0.468
 5981SOL     OW18841   4.429   2.194   0.598
 5981SOL    HW118842   4.418   2.112   0.541
 5981SOL    HW218843   4.439   2.166   0.694
 5982SOL     OW18844   5.651   2.654   1.673
 5982SOL    HW118845   5.743   2.629   1.702
 5982SOL    HW218846   5.647   2.659   1.574
 5983SOL     OW18847   0.677   1.145   4.194
 5983SOL    HW118848   0.728   1.088   4.259
 5983SOL    HW218849   0.622   1.086   4.135
 5984SOL     OW18850   6.360   6.525   1.897
 5984SOL    HW118851   6.308   6.492   1.976
 5984SOL    HW218852   6.383   6.448   1.838
 5985SOL     OW18853   6.915   4.155   2.603
 5985SOL    HW118854   6.906   4.165   2.504
 5985SOL    HW218855   7.006   4.120   2.625
 5986SOL     OW18856   3.779   3.842   3.477
 5986SOL    HW118857   3.795   3.846   3.575
 5986SOL    HW218858   3.766   3.935   3.441
 5987SOL     OW18859   0.424   6.081   3.813
 5987SOL    HW118860   0.380   6.026   3.742
 5987SOL    HW218861   0.428   6.027   3.898
 5988SOL     OW18862   1.585   2.180   0.128
 5988SOL    HW118863   1.564   2.221   0.039
 5988SOL    HW218864   1.680   2.150   0.129
 5989SOL     OW18865   2.937   6.800   5.998
 5989SOL    HW118866   2.939   6.705   5.967
 5989SOL    HW218867   2.892   6.856   5.929
 5990SOL     OW18868   2.110   4.297   1.555
 5990SOL    HW118869   2.165   4.352   1.619
 5990SOL    HW218870   2.148   4.306   1.463
 5991SOL     OW18871   4.668   1.244   6.762
 5991SOL    HW118872   4.643   1.269   6.855
 5991SOL    HW218873   4.710   1.323   6.717
 5992SOL     OW18874   2.357   4.417   2.364
 5992SOL    HW118875   2.384   4.347   2.431
 5992SOL    HW218876   2.375   4.508   2.401
 5993SOL     OW18877   5.867   1.012   7.008
 5993SOL    HW118878   5.949   0.953   7.011
 5993SOL    HW218879   5.864   1.061   6.922
 5994SOL     OW18880   0.522   5.221   1.087
 5994SOL    HW118881   0.618   5.235   1.112
 5994SOL    HW218882   0.474   5.176   1.163
 5995SOL     OW18883   5.832   4.709   1.540
 5995SOL    HW118884   5.839   4.745   1.633
 5995SOL    HW218885   5.901   4.753   1.482
 5996SOL     OW18886   2.659   0.706   1.368
 5996SOL    HW118887   2.653   0.801   1.337
 5996SOL    HW218888   2.748   0.691   1.410
 5997SOL     OW18889   6.604   1.003   4.571
 5997SOL    HW118890   6.700   1.023   4.551
 5997SOL    HW218891   6.565   0.948   4.497
 5998SOL     OW18892   5.388   6.236   0.025
 5998SOL    HW118893   5.445   6.317   0.011
 5998SOL    HW218894   5.429   6.177   0.094
 5999SOL     OW18895   5.967   2.616   0.739
 5999SOL    HW118896   5.881   2.601   0.787
 5999SOL    HW218897   5.995   2.532   0.692
 6000SOL     OW18898   0.062   5.702   2.242
 6000SOL    HW118899   0.069   5.772   2.313
 6000SOL    HW218900   0.120   5.624   2.266
 6001SOL     OW18901   0.330   6.641   6.296
 6001SOL    HW118902   0.349   6.576   6.370
 6001SOL    HW218903   0.413   6.691   6.273
 6002SOL     OW18904   5.508   4.506   4.281
 6002SOL    HW118905   5.475   4.599   4.264
 6002SOL    HW218906   5.541   4.499   4.375
 6003SOL     OW18907   2.458   0.658   4.676
 6003SOL    HW118908   2.451   0.758   4.673
 6003SOL    HW218909   2.508   0.626   4.595
 6004SOL     OW18910   5.551   3.456   5.050
 6004SOL    HW118911   5.600   3.455   5.137
 6004SOL    HW218912   5.501   3.370   5.039
 6005SOL     OW18913   3.828   3.949   0.570
 6005SOL    HW118914   3.782   3.966   0.483
 6005SOL    HW218915   3.770   3.892   0.628
 6006SOL     OW18916   3.183   6.913   5.899
 6006SOL    HW118917   3.216   6.886   5.989
 6006SOL    HW218918   3.211   7.007   5.880
 6007SOL     OW18919   2.723   7.002   4.152
 6007SOL    HW118920   2.624   6.998   4.142
 6007SOL    HW218921   2.760   0.050   4.090
 6008SOL     OW18922   2.298   3.135   6.768
 6008SOL    HW118923   2.269   3.181   6.852
 6008SOL    HW218924   2.225   3.075   6.736
 6009SOL     OW18925   2.542   5.722   1.779
 6009SOL    HW118926   2.601   5.752   1.853
 6009SOL    HW218927   2.526   5.623   1.786
 6010SOL     OW18928   0.627   5.605   6.386
 6010SOL    HW118929   0.661   5.650   6.303
 6010SOL    HW218930   0.551   5.544   6.361
 6011SOL     OW18931   4.968   2.191   3.275
 6011SOL    HW118932   4.999   2.118   3.336
 6011SOL    HW218933   4.966   2.158   3.181
 6012SOL     OW18934   6.016   1.612   5.572
 6012SOL    HW118935   6.089   1.618   5.640
 6012SOL    HW218936   5.987   1.516   5.563
 6013SOL     OW18937   5.773   2.558   3.212
 6013SOL    HW118938   5.801   2.648   3.178
 6013SOL    HW218939   5.770   2.493   3.136
 6014SOL     OW18940   3.905   3.287   4.074
 6014SOL    HW118941   3.986   3.335   4.108
 6014SOL    HW218942   3.874   3.330   3.990
 6015SOL     OW18943   6.468   0.169   3.523
 6015SOL    HW118944   6.408   0.207   3.593
 6015SOL    HW218945   6.562   0.169   3.557
 6016SOL     OW18946   4.542   1.975   4.490
 6016SOL    HW118947   4.570   2.071   4.488
 6016SOL    HW218948   4.495   1.955   4.576
 6017SOL     OW18949   1.656   2.594   4.971
 6017SOL    HW118950   1.753   2.620   4.979
 6017SOL    HW218951   1.646   2.497   4.991
 6018SOL     OW18952   2.512   1.197   3.992
 6018SOL    HW118953   2.478   1.260   4.062
 6018SOL    HW218954   2.436   1.163   3.938
 6019SOL     OW18955   6.774   3.550   6.056
 6019SOL    HW118956   6.730   3.541   6.146
 6019SOL    HW218957   6.862   3.597   6.067
 6020SOL     OW18958   0.492   5.731   4.929
 6020SOL    HW118959   0.549   5.672   4.870
 6020SOL    HW218960   0.457   5.807   4.875
 6021SOL     OW18961   5.867   0.468   4.357
 6021SOL    HW118962   5.822   0.490   4.270
 6021SOL    HW218963   5.947   0.527   4.369
 6022SOL     OW18964   6.125   3.469   1.635
 6022SOL    HW118965   6.199   3.467   1.567
 6022SOL    HW218966   6.040   3.438   1.593
 6023SOL     OW18967   4.166   0.120   2.839
 6023SOL    HW118968   4.238   0.172   2.885
 6023SOL    HW218969   4.078   0.138   2.884
 6024SOL     OW18970   0.000   6.745   0.268
 6024SOL    HW118971   0.084   6.756   0.215
 6024SOL    HW218972   6.945   6.731   0.206
 6025SOL     OW18973   3.645   0.685   5.470
 6025SOL    HW118974   3.696   0.618   5.524
 6025SOL    HW218975   3.697   0.771   5.466
 6026SOL     OW18976   5.262   6.523   3.398
 6026SOL    HW118977   5.178   6.490   3.356
 6026SOL    HW218978   5.331   6.538   3.326
 6027SOL     OW18979   5.741   4.335   5.966
 6027SOL    HW118980   5.686   4.405   5.920
 6027SOL    HW218981   5.744   4.354   6.064
 6028SOL     OW18982   6.749   5.783   6.539
 6028SOL    HW118983   6.731   5.697   6.588
 6028SOL    HW218984   6.847   5.801   6.537
 6029SOL     OW18985   2.823   1.323   2.303
 6029SOL    HW118986   2.835   1.411   2.349
 6029SOL    HW218987   2.822   1.337   2.204
 6030SOL     OW18988   6.754   3.063   5.178
 6030SOL    HW118989   6.668   3.090   5.134
 6030SOL    HW218990   6.749   3.085   5.275
 6031SOL     OW18991   0.134   0.350   3.945
 6031SOL    HW118992   0.135   0.449   3.929
 6031SOL    HW218993   0.205   0.306   3.891
 6032SOL     OW18994   3.017   0.123   3.291
 6032SOL    HW118995   2.969   0.098   3.207
 6032SOL    HW218996   2.951   0.130   3.366
 6033SOL     OW18997   0.427   1.620   2.753
 6033SOL    HW118998   0.405   1.581   2.843
 6033SOL    HW218999   0.368   1.698   2.735
 6034SOL     OW19000   0.451   0.652   1.385
 6034SOL    HW119001   0.497   0.604   1.310
 6034SOL    HW219002   0.439   0.748   1.360
 6035SOL     OW19003   2.373   1.559   2.780
 6035SOL    HW119004   2.383   1.462   2.761
 6035SOL    HW219005   2.281   1.577   2.816
 6036SOL     OW19006   6.580   3.295   0.103
 6036SOL    HW119007   6.669   3.283   0.058
 6036SOL    HW219008   6.523   3.355   0.049
 6037SOL     OW19009   4.557   0.758   0.305
 6037SOL    HW119010   4.623   0.700   0.353
 6037SOL    HW219011   4.603   0.807   0.231
 6038SOL     OW19012   2.050   2.105   0.431
 6038SOL    HW119013   2.075   2.146   0.343
 6038SOL    HW219014   2.026   2.009   0.417
 6039SOL     OW19015   3.143   4.060   3.320
 6039SOL    HW119016   3.163   4.053   3.418
 6039SOL    HW219017   3.081   3.987   3.293
 6040SOL     OW19018   6.751   0.494   0.255
 6040SOL    HW119019   6.769   0.411   0.308
 6040SOL    HW219020   6.676   0.477   0.191
 6041SOL     OW19021   0.912   3.407   4.801
 6041SOL    HW119022   0.940   3.311   4.802
 6041SOL    HW219023   0.942   3.452   4.885
 6042SOL     OW19024   2.907   5.922   2.484
 6042SOL    HW119025   2.876   5.936   2.578
 6042SOL    HW219026   2.980   5.986   2.462
 6043SOL     OW19027   1.989   4.796   1.103
 6043SOL    HW119028   1.915   4.861   1.119
 6043SOL    HW219029   2.030   4.770   1.190
 6044SOL     OW19030   6.302   3.633   0.100
 6044SOL    HW119031   6.343   3.678   0.179
 6044SOL    HW219032   6.334   3.676   0.016
 6045SOL     OW19033   4.417   1.583   3.929
 6045SOL    HW119034   4.515   1.588   3.948
 6045SOL    HW219035   4.383   1.674   3.906
 6046SOL     OW19036   3.605   3.797   3.167
 6046SOL    HW119037   3.527   3.792   3.104
 6046SOL    HW219038   3.607   3.714   3.223
 6047SOL     OW19039   6.757   1.123   7.020
 6047SOL    HW119040   6.827   1.052   0.010
 6047SOL    HW219041   6.701   1.100   6.941
 6048SOL     OW19042   6.243   5.844   3.889
 6048SOL    HW119043   6.220   5.765   3.832
 6048SOL    HW219044   6.316   5.897   3.844
 6049SOL     OW19045   6.353   4.947   0.212
 6049SOL    HW119046   6.399   5.026   0.252
 6049SOL    HW219047   6.406   4.864   0.234
 6050SOL     OW19048   1.967   5.743   3.356
 6050SOL    HW119049   1.953   5.649   3.387
 6050SOL    HW219050   2.030   5.744   3.279
 6051SOL     OW19051   0.391   2.265   2.812
 6051SOL    HW119052   0.321   2.324   2.851
 6051SOL    HW219053   0.432   2.208   2.884
 6052SOL     OW19054   5.795   5.405   0.015
 6052SOL    HW119055   5.780   5.496   6.996
 6052SOL    HW219056   5.871   5.410   0.080
 6053SOL     OW19057   3.797   2.027   6.165
 6053SOL    HW119058   3.749   2.047   6.079
 6053SOL    HW219059   3.881   1.977   6.145
 6054SOL     OW19060   4.669   3.527   6.279
 6054SOL    HW119061   4.678   3.574   6.192
 6054SOL    HW219062   4.619   3.441   6.266
 6055SOL     OW19063   3.330   4.883   1.927
 6055SOL    HW119064   3.425   4.856   1.944
 6055SOL    HW219065   3.268   4.819   1.971
 6056SOL     OW19066   5.598   6.935   3.199
 6056SOL    HW119067   5.692   6.909   3.219
 6056SOL    HW219068   5.574   6.904   3.106
 6057SOL     OW19069   5.034   1.306   4.544
 6057SOL    HW119070   4.976   1.385   4.523
 6057SOL    HW219071   5.120   1.338   4.584
 6058SOL     OW19072   6.595   3.982   6.669
 6058SOL    HW119073   6.663   3.942   6.607
 6058SOL    HW219074   6.604   3.941   6.760
 6059SOL     OW19075   4.274   1.655   6.650
 6059SOL    HW119076   4.361   1.606   6.657
 6059SOL    HW219077   4.231   1.634   6.562
 6060SOL     OW19078   2.194   2.090   1.425
 6060SOL    HW119079   2.122   2.132   1.480
 6060SOL    HW219080   2.271   2.153   1.417
 6061SOL     OW19081   2.188   4.760   6.227
 6061SOL    HW119082   2.154   4.690   6.164
 6061SOL    HW219083   2.110   4.808   6.268
 6062SOL     OW19084   1.646   1.479   4.978
 6062SOL    HW119085   1.713   1.445   4.912
 6062SOL    HW219086   1.684   1.558   5.026
 6063SOL     OW19087   4.113   3.850   5.324
 6063SOL    HW119088   4.180   3.790   5.367
 6063SOL    HW219089   4.121   3.845   5.224
 6064SOL     OW19090   5.774   5.358   0.361
 6064SOL    HW119091   5.685   5.343   0.317
 6064SOL    HW219092   5.844   5.305   0.314
 6065SOL     OW19093   1.574   5.563   1.069
 6065SOL    HW119094   1.565   5.482   1.127
 6065SOL    HW219095   1.655   5.615   1.097
 6066SOL     OW19096   4.997   5.568   2.796
 6066SOL    HW119097   4.928   5.572   2.724
 6066SOL    HW219098   5.087   5.586   2.758
 6067SOL     OW19099   6.077   5.264   5.327
 6067SOL    HW119100   6.103   5.355   5.357
 6067SOL    HW219101   6.127   5.196   5.381
 6068SOL     OW19102   4.862   2.553   4.067
 6068SOL    HW119103   4.868   2.543   3.968
 6068SOL    HW219104   4.870   2.462   4.110
 6069SOL     OW19105   0.818   5.495   5.782
 6069SOL    HW119106   0.864   5.531   5.701
 6069SOL    HW219107   0.756   5.422   5.756
 6070SOL     OW19108   2.239   0.224   1.595
 6070SOL    HW119109   2.253   0.188   1.503
 6070SOL    HW219110   2.222   0.149   1.659
 6071SOL     OW19111   6.669   6.779   6.858
 6071SOL    HW119112   6.622   6.716   6.796
 6071SOL    HW219113   6.655   6.872   6.827
 6072SOL     OW19114   0.314   2.124   6.525
 6072SOL    HW119115   0.271   2.160   6.443
 6072SOL    HW219116   0.243   2.088   6.586
 6073SOL     OW19117   4.959   4.590   6.755
 6073SOL    HW119118   4.954   4.503   6.805
 6073SOL    HW219119   4.871   4.637   6.762
 6074SOL     OW19120   1.657   5.757   2.616
 6074SOL    HW119121   1.613   5.847   2.613
 6074SOL    HW219122   1.731   5.754   2.549
 6075SOL     OW19123   6.746   6.024   0.211
 6075SOL    HW119124   6.840   6.033   0.176
 6075SOL    HW219125   6.739   5.941   0.266
 6076SOL     OW19126   6.983   6.090   3.321
 6076SOL    HW119127   0.056   6.118   3.321
 6076SOL    HW219128   6.925   6.167   3.296
 6077SOL     OW19129   4.346   5.178   3.059
 6077SOL    HW119130   4.356   5.154   2.963
 6077SOL    HW219131   4.413   5.128   3.114
 6078SOL     OW19132   5.952   4.070   0.474
 6078SOL    HW119133   5.872   4.068   0.415
 6078SOL    HW219134   6.034   4.084   0.419
 6079SOL     OW19135   3.012   1.947   0.472
 6079SOL    HW119136   3.020   1.922   0.569
 6079SOL    HW219137   2.962   1.875   0.424
 6080SOL     OW19138   5.815   3.368   5.476
 6080SOL    HW119139   5.907   3.380   5.513
 6080SOL    HW219140   5.789   3.271   5.481
 6081SOL     OW19141   2.217   4.896   3.651
 6081SOL    HW119142   2.264   4.837   3.585
 6081SOL    HW219143   2.285   4.939   3.712
 6082SOL     OW19144   4.121   1.120   1.597
 6082SOL    HW119145   4.135   1.156   1.505
 6082SOL    HW219146   4.025   1.130   1.623
 6083SOL     OW19147   5.312   0.891   5.536
 6083SOL    HW119148   5.376   0.964   5.512
 6083SOL    HW219149   5.251   0.873   5.459
 6084SOL     OW19150   6.014   5.281   3.715
 6084SOL    HW119151   6.112   5.273   3.734
 6084SOL    HW219152   5.988   5.216   3.644
 6085SOL     OW19153   1.044   6.174   1.265
 6085SOL    HW119154   0.946   6.195   1.258
 6085SOL    HW219155   1.056   6.087   1.314
 6086SOL     OW19156   4.784   3.086   0.302
 6086SOL    HW119157   4.716   3.099   0.230
 6086SOL    HW219158   4.876   3.092   0.262
 6087SOL     OW19159   3.904   1.039   6.212
 6087SOL    HW119160   3.934   1.084   6.128
 6087SOL    HW219161   3.825   0.982   6.193
 6088SOL     OW19162   3.626   6.067   2.772
 6088SOL    HW119163   3.591   6.099   2.860
 6088SOL    HW219164   3.626   6.143   2.706
 6089SOL     OW19165   6.507   5.186   2.885
 6089SOL    HW119166   6.487   5.092   2.856
 6089SOL    HW219167   6.502   5.247   2.806
 6090SOL     OW19168   3.936   5.931   4.833
 6090SOL    HW119169   3.965   5.854   4.889
 6090SOL    HW219170   3.983   6.014   4.863
 6091SOL     OW19171   0.273   2.979   2.300
 6091SOL    HW119172   0.313   3.061   2.340
 6091SOL    HW219173   0.260   2.993   2.202
 6092SOL     OW19174   1.655   0.099   1.039
 6092SOL    HW119175   1.579   0.041   1.010
 6092SOL    HW219176   1.627   0.195   1.039
 6093SOL     OW19177   3.658   3.295   2.675
 6093SOL    HW119178   3.678   3.371   2.613
 6093SOL    HW219179   3.735   3.231   2.675
 6094SOL     OW19180   0.244   6.717   5.350
 6094SOL    HW119181   0.295   6.799   5.378
 6094SOL    HW219182   0.174   6.743   5.283
 6095SOL     OW19183   5.411   5.014   2.484
 6095SOL    HW119184   5.395   4.926   2.441
 6095SOL    HW219185   5.459   5.001   2.570
 6096SOL     OW19186   4.692   6.125   2.522
 6096SOL    HW119187   4.730   6.217   2.523
 6096SOL    HW219188   4.741   6.068   2.587
 6097SOL     OW19189   2.394   4.873   1.176
 6097SOL    HW119190   2.392   4.858   1.077
 6097SOL    HW219191   2.365   4.967   1.196
 6098SOL     OW19192   6.078   1.950   5.605
 6098SOL    HW119193   6.046   1.946   5.510
 6098SOL    HW219194   6.012   1.904   5.664
 6099SOL     OW19195   3.534   0.107   5.814
 6099SOL    HW119196   3.551   0.023   5.865
 6099SOL    HW219197   3.478   0.169   5.869
 6100SOL     OW19198   6.583   5.215   6.350
 6100SOL    HW119199   6.503   5.202   6.408
 6100SOL    HW219200   6.617   5.126   6.320
 6101SOL     OW19201   0.720   2.789   0.877
 6101SOL    HW119202   0.759   2.702   0.906
 6101SOL    HW219203   0.622   2.779   0.863
 6102SOL     OW19204   2.333   0.180   2.572
 6102SOL    HW119205   2.368   0.189   2.479
 6102SOL    HW219206   2.393   0.229   2.635
 6103SOL     OW19207   5.593   0.294   2.451
 6103SOL    HW119208   5.554   0.244   2.374
 6103SOL    HW219209   5.609   0.231   2.527
 6104SOL     OW19210   6.863   0.086   5.034
 6104SOL    HW119211   6.807   0.020   5.084
 6104SOL    HW219212   6.873   0.169   5.090
 6105SOL     OW19213   3.292   5.355   6.158
 6105SOL    HW119214   3.309   5.257   6.143
 6105SOL    HW219215   3.276   5.371   6.255
 6106SOL     OW19216   5.982   3.925   5.938
 6106SOL    HW119217   5.970   4.024   5.930
 6106SOL    HW219218   5.922   3.879   5.872
 6107SOL     OW19219   6.455   5.158   4.841
 6107SOL    HW119220   6.454   5.193   4.935
 6107SOL    HW219221   6.545   5.174   4.801
 6108SOL     OW19222   3.018   1.050   6.090
 6108SOL    HW119223   2.921   1.066   6.069
 6108SOL    HW219224   3.026   1.009   6.181
 6109SOL     OW19225   6.941   6.153   3.835
 6109SOL    HW119226   6.955   6.177   3.739
 6109SOL    HW219227   0.000   6.176   3.888
 6110SOL     OW19228   0.863   1.840   4.509
 6110SOL    HW119229   0.949   1.789   4.503
 6110SOL    HW219230   0.795   1.797   4.449
 6111SOL     OW19231   3.386   3.142   1.975
 6111SOL    HW119232   3.466   3.141   1.915
 6111SOL    HW219233   3.388   3.062   2.036
 6112SOL     OW19234   4.737   6.251   3.719
 6112SOL    HW119235   4.764   6.346   3.706
 6112SOL    HW219236   4.796   6.208   3.786
 6113SOL     OW19237   3.650   5.660   1.361
 6113SOL    HW119238   3.737   5.706   1.346
 6113SOL    HW219239   3.589   5.722   1.411
 6114SOL     OW19240   5.147   3.718   1.611
 6114SOL    HW119241   5.225   3.704   1.550
 6114SOL    HW219242   5.069   3.665   1.579
 6115SOL     OW19243   5.618   1.286   3.937
 6115SOL    HW119244   5.548   1.256   3.873
 6115SOL    HW219245   5.578   1.299   4.027
 6116SOL     OW19246   6.315   2.517   0.180
 6116SOL    HW119247   6.370   2.577   0.238
 6116SOL    HW219248   6.250   2.466   0.237
 6117SOL     OW19249   2.842   2.259   0.967
 6117SOL    HW119250   2.861   2.356   0.978
 6117SOL    HW219251   2.769   2.232   1.031
 6118SOL     OW19252   6.366   0.520   1.866
 6118SOL    HW119253   6.301   0.567   1.806
 6118SOL    HW219254   6.418   0.588   1.919
 6119SOL     OW19255   0.261   1.460   6.043
 6119SOL    HW119256   0.341   1.519   6.055
 6119SOL    HW219257   0.195   1.478   6.116
 6120SOL     OW19258   3.596   1.044   3.450
 6120SOL    HW119259   3.567   0.986   3.375
 6120SOL    HW219260   3.692   1.027   3.471
 6121SOL     OW19261   4.007   1.135   5.964
 6121SOL    HW119262   4.072   1.174   5.899
 6121SOL    HW219263   3.929   1.197   5.973
 6122SOL     OW19264   4.722   4.140   4.915
 6122SOL    HW119265   4.655   4.171   4.848
 6122SOL    HW219266   4.792   4.085   4.870
 6123SOL     OW19267   5.672   1.737   5.352
 6123SOL    HW119268   5.720   1.781   5.276
 6123SOL    HW219269   5.579   1.773   5.359
 6124SOL     OW19270   1.771   5.958   4.164
 6124SOL    HW119271   1.868   5.951   4.139
 6124SOL    HW219272   1.745   5.877   4.217
 6125SOL     OW19273   2.828   1.294   5.687
 6125SOL    HW119274   2.874   1.272   5.773
 6125SOL    HW219275   2.873   1.372   5.645
 6126SOL     OW19276   6.220   3.324   6.203
 6126SOL    HW119277   6.142   3.282   6.250
 6126SOL    HW219278   6.199   3.420   6.183
 6127SOL     OW19279   4.756   2.112   3.644
 6127SOL    HW119280   4.841   2.132   3.595
 6127SOL    HW219281   4.683   2.090   3.579
 6128SOL     OW19282   6.804   4.886   4.553
 6128SOL    HW119283   6.830   4.980   4.531
 6128SOL    HW219284   6.884   4.827   4.544
 6129SOL     OW19285   1.928   5.917   2.735
 6129SOL    HW119286   1.946   5.826   2.698
 6129SOL    HW219287   1.830   5.936   2.732
 6130SOL     OW19288   6.918   2.200   6.544
 6130SOL    HW119289   6.839   2.152   6.583
 6130SOL    HW219290   6.996   2.138   6.541
 6131SOL     OW19291   6.158   3.043   2.568
 6131SOL    HW119292   6.168   3.073   2.662
 6131SOL    HW219293   6.190   3.114   2.506
 6132SOL     OW19294   4.394   5.847   6.576
 6132SOL    HW119295   4.449   5.764   6.568
 6132SOL    HW219296   4.328   5.837   6.650
 6133SOL     OW19297   0.129   2.286   3.534
 6133SOL    HW119298   0.204   2.328   3.585
 6133SOL    HW219299   0.086   2.215   3.591
 6134SOL     OW19300   0.945   0.071   5.097
 6134SOL    HW119301   0.895   0.114   5.172
 6134SOL    HW219302   1.029   0.123   5.079
 6135SOL     OW19303   5.932   6.539   6.629
 6135SOL    HW119304   5.862   6.606   6.652
 6135SOL    HW219305   5.889   6.455   6.596
 6136SOL     OW19306   1.162   1.951   2.497
 6136SOL    HW119307   1.078   1.943   2.442
 6136SOL    HW219308   1.139   1.974   2.591
 6137SOL     OW19309   6.901   4.577   1.548
 6137SOL    HW119310   6.949   4.543   1.630
 6137SOL    HW219311   6.954   4.553   1.467
 6138SOL     OW19312   4.988   0.572   2.396
 6138SOL    HW119313   4.965   0.631   2.319
 6138SOL    HW219314   4.908   0.520   2.424
 6139SOL     OW19315   1.420   1.717   5.542
 6139SOL    HW119316   1.490   1.689   5.476
 6139SOL    HW219317   1.364   1.638   5.567
 6140SOL     OW19318   2.744   0.891   4.049
 6140SOL    HW119319   2.656   0.853   4.077
 6140SOL    HW219320   2.745   0.906   3.950
 6141SOL     OW19321   0.273   0.695   1.051
 6141SOL    HW119322   0.253   0.763   0.981
 6141SOL    HW219323   0.370   0.695   1.072
 6142SOL     OW19324   0.638   6.928   1.807
 6142SOL    HW119325   0.701   6.934   1.730
 6142SOL    HW219326   0.548   6.897   1.775
 6143SOL     OW19327   2.196   3.330   5.685
 6143SOL    HW119328   2.232   3.362   5.773
 6143SOL    HW219329   2.221   3.234   5.673
 6144SOL     OW19330   3.151   6.049   2.607
 6144SOL    HW119331   3.111   6.008   2.688
 6144SOL    HW219332   3.088   6.116   2.568
 6145SOL     OW19333   5.667   3.623   4.704
 6145SOL    HW119334   5.715   3.538   4.728
 6145SOL    HW219335   5.674   3.639   4.606
 6146SOL     OW19336   6.285   1.762   5.612
 6146SOL    HW119337   6.285   1.739   5.710
 6146SOL    HW219338   6.215   1.831   5.595
 6147SOL     OW19339   1.672   1.942   5.227
 6147SOL    HW119340   1.638   1.908   5.139
 6147SOL    HW219341   1.599   1.990   5.274
 6148SOL     OW19342   3.682   5.414   6.076
 6148SOL    HW119343   3.691   5.442   5.980
 6148SOL    HW219344   3.604   5.461   6.117
 6149SOL     OW19345   4.025   1.947   2.135
 6149SOL    HW119346   3.977   1.878   2.190
 6149SOL    HW219347   4.047   1.909   2.046
 6150SOL     OW19348   0.222   5.503   4.196
 6150SOL    HW119349   0.171   5.524   4.112
 6150SOL    HW219350   0.318   5.526   4.183
 6151SOL     OW19351   3.586   5.825   2.466
 6151SOL    HW119352   3.512   5.861   2.521
 6151SOL    HW219353   3.651   5.776   2.524
 6152SOL     OW19354   0.867   4.199   2.924
 6152SOL    HW119355   0.789   4.261   2.934
 6152SOL    HW219356   0.837   4.104   2.937
 6153SOL     OW19357   6.047   6.270   1.996
 6153SOL    HW119358   6.094   6.184   1.973
 6153SOL    HW219359   6.105   6.323   2.058
 6154SOL     OW19360   3.915   5.630   2.951
 6154SOL    HW119361   3.949   5.570   2.879
 6154SOL    HW219362   3.861   5.577   3.016
 6155SOL     OW19363   1.681   1.112   4.071
 6155SOL    HW119364   1.727   1.188   4.026
 6155SOL    HW219365   1.586   1.136   4.089
 6156SOL     OW19366   4.890   4.126   2.884
 6156SOL    HW119367   4.878   4.180   2.968
 6156SOL    HW219368   4.810   4.137   2.826
 6157SOL     OW19369   0.373   2.588   1.933
 6157SOL    HW119370   0.376   2.584   2.033
 6157SOL    HW219371   0.376   2.495   1.896
 6158SOL     OW19372   3.099   0.646   6.705
 6158SOL    HW119373   3.180   0.591   6.684
 6158SOL    HW219374   3.127   0.741   6.720
 6159SOL     OW19375   6.476   1.405   0.545
 6159SOL    HW119376   6.434   1.344   0.613
 6159SOL    HW219377   6.505   1.490   0.589
 6160SOL     OW19378   1.625   0.356   0.739
 6160SOL    HW119379   1.714   0.384   0.774
 6160SOL    HW219380   1.565   0.436   0.732
 6161SOL     OW19381   6.105   4.188   6.977
 6161SOL    HW119382   6.005   4.177   6.979
 6161SOL    HW219383   6.148   4.099   6.993
 6162SOL     OW19384   5.949   5.631   1.046
 6162SOL    HW119385   5.917   5.567   0.977
 6162SOL    HW219386   5.953   5.723   1.007
 6163SOL     OW19387   5.106   5.778   2.494
 6163SOL    HW119388   5.015   5.759   2.457
 6163SOL    HW219389   5.164   5.813   2.421
 6164SOL     OW19390   3.708   3.318   4.710
 6164SOL    HW119391   3.802   3.350   4.720
 6164SOL    HW219392   3.708   3.223   4.677
 6165SOL     OW19393   3.646   0.718   6.574
 6165SOL    HW119394   3.634   0.619   6.578
 6165SOL    HW219395   3.617   0.759   6.661
 6166SOL     OW19396   2.972   1.268   5.929
 6166SOL    HW119397   2.986   1.341   5.996
 6166SOL    HW219398   2.972   1.179   5.975
 6167SOL     OW19399   1.886   3.290   2.487
 6167SOL    HW119400   1.954   3.236   2.438
 6167SOL    HW219401   1.795   3.251   2.472
 6168SOL     OW19402   1.343   3.932   3.641
 6168SOL    HW119403   1.283   4.012   3.640
 6168SOL    HW219404   1.288   3.850   3.627
 6169SOL     OW19405   2.468   0.627   0.941
 6169SOL    HW119406   2.444   0.698   1.007
 6169SOL    HW219407   2.560   0.645   0.906
 6170SOL     OW19408   2.543   5.001   0.848
 6170SOL    HW119409   2.580   5.093   0.860
 6170SOL    HW219410   2.589   4.955   0.772
 6171SOL     OW19411   2.151   4.076   2.348
 6171SOL    HW119412   2.127   4.166   2.385
 6171SOL    HW219413   2.172   4.014   2.423
 6172SOL     OW19414   2.172   4.679   1.907
 6172SOL    HW119415   2.268   4.665   1.882
 6172SOL    HW219416   2.167   4.709   2.002
 6173SOL     OW19417   1.054   5.655   3.050
 6173SOL    HW119418   1.033   5.632   2.955
 6173SOL    HW219419   1.042   5.754   3.063
 6174SOL     OW19420   5.632   4.469   1.570
 6174SOL    HW119421   5.688   4.549   1.588
 6174SOL    HW219422   5.690   4.395   1.535
 6175SOL     OW19423   5.347   0.552   3.802
 6175SOL    HW119424   5.403   0.545   3.884
 6175SOL    HW219425   5.250   0.551   3.827
 6176SOL     OW19426   6.299   3.430   0.275
 6176SOL    HW119427   6.332   3.494   0.205
 6176SOL    HW219428   6.201   3.415   0.262
 6177SOL     OW19429   5.551   3.070   2.986
 6177SOL    HW119430   5.545   3.052   2.888
 6177SOL    HW219431   5.474   3.128   3.014
 6178SOL     OW19432   0.256   4.460   1.439
 6178SOL    HW119433   0.169   4.472   1.392
 6178SOL    HW219434   0.244   4.401   1.519
 6179SOL     OW19435   6.898   1.383   5.581
 6179SOL    HW119436   6.938   1.352   5.667
 6179SOL    HW219437   6.800   1.396   5.592
 6180SOL     OW19438   2.693   0.889   0.271
 6180SOL    HW119439   2.769   0.848   0.322
 6180SOL    HW219440   2.671   0.833   0.192
 6181SOL     OW19441   4.602   6.778   6.069
 6181SOL    HW119442   4.680   6.801   6.127
 6181SOL    HW219443   4.561   6.861   6.033
 6182SOL     OW19444   4.996   6.820   5.088
 6182SOL    HW119445   4.926   6.850   5.023
 6182SOL    HW219446   5.066   6.892   5.096
 6183SOL     OW19447   2.177   6.587   2.530
 6183SOL    HW119448   2.229   6.502   2.538
 6183SOL    HW219449   2.217   6.645   2.459
 6184SOL     OW19450   6.711   0.055   5.443
 6184SOL    HW119451   6.672   6.986   5.460
 6184SOL    HW219452   6.640   0.124   5.452
 6185SOL     OW19453   2.469   2.726   0.415
 6185SOL    HW119454   2.396   2.792   0.433
 6185SOL    HW219455   2.514   2.749   0.329
 6186SOL     OW19456   3.972   1.458   3.825
 6186SOL    HW119457   3.970   1.449   3.925
 6186SOL    HW219458   4.066   1.471   3.795
 6187SOL     OW19459   3.236   5.053   4.597
 6187SOL    HW119460   3.327   5.059   4.638
 6187SOL    HW219461   3.223   5.131   4.534
 6188SOL     OW19462   2.433   0.214   2.319
 6188SOL    HW119463   2.390   0.195   2.231
 6188SOL    HW219464   2.531   0.201   2.312
 6189SOL     OW19465   5.675   5.088   3.361
 6189SOL    HW119466   5.684   4.988   3.357
 6189SOL    HW219467   5.578   5.112   3.362
 6190SOL     OW19468   5.068   3.558   5.872
 6190SOL    HW119469   5.028   3.571   5.781
 6190SOL    HW219470   5.050   3.464   5.903
 6191SOL     OW19471   0.118   1.071   6.486
 6191SOL    HW119472   0.217   1.075   6.499
 6191SOL    HW219473   0.083   1.163   6.469
 6192SOL     OW19474   3.174   1.680   0.285
 6192SOL    HW119475   3.203   1.772   0.311
 6192SOL    HW219476   3.078   1.667   0.309
 6193SOL     OW19477   0.229   6.486   1.353
 6193SOL    HW119478   0.148   6.430   1.337
 6193SOL    HW219479   0.247   6.543   1.272
 6194SOL     OW19480   3.026   0.588   1.212
 6194SOL    HW119481   3.021   0.688   1.220
 6194SOL    HW219482   2.959   0.557   1.144
 6195SOL     OW19483   2.474   0.257   5.426
 6195SOL    HW119484   2.540   0.302   5.366
 6195SOL    HW219485   2.403   0.213   5.371
 6196SOL     OW19486   1.412   1.997   5.596
 6196SOL    HW119487   1.458   2.001   5.685
 6196SOL    HW219488   1.396   1.901   5.572
 6197SOL     OW19489   2.453   2.502   2.040
 6197SOL    HW119490   2.366   2.526   2.084
 6197SOL    HW219491   2.516   2.465   2.108
 6198SOL     OW19492   3.171   5.267   2.061
 6198SOL    HW119493   3.203   5.352   2.020
 6198SOL    HW219494   3.213   5.190   2.015
 6199SOL     OW19495   0.097   0.618   6.494
 6199SOL    HW119496   0.017   0.677   6.496
 6199SOL    HW219497   0.139   0.616   6.585
 6200SOL     OW19498   4.376   0.635   5.529
 6200SOL    HW119499   4.322   0.617   5.448
 6200SOL    HW219500   4.357   0.565   5.599
 6201SOL     OW19501   2.613   5.300   4.888
 6201SOL    HW119502   2.647   5.394   4.878
 6201SOL    HW219503   2.560   5.293   4.972
 6202SOL     OW19504   1.616   2.435   1.162
 6202SOL    HW119505   1.646   2.531   1.163
 6202SOL    HW219506   1.581   2.410   1.252
 6203SOL     OW19507   6.007   2.513   4.638
 6203SOL    HW119508   5.991   2.520   4.540
 6203SOL    HW219509   6.106   2.515   4.656
 6204SOL     OW19510   1.112   6.770   5.257
 6204SOL    HW119511   1.163   6.855   5.245
 6204SOL    HW219512   1.032   6.770   5.197
 6205SOL     OW19513   4.361   0.111   6.919
 6205SOL    HW119514   4.353   0.124   7.017
 6205SOL    HW219515   4.439   0.051   6.900
 6206SOL     OW19516   4.575   6.863   3.994
 6206SOL    HW119517   4.648   6.845   3.928
 6206SOL    HW219518   4.506   6.922   3.952
 6207SOL     OW19519   2.370   4.884   4.432
 6207SOL    HW119520   2.466   4.904   4.455
 6207SOL    HW219521   2.352   4.911   4.337
 6208SOL     OW19522   5.845   4.448   5.133
 6208SOL    HW119523   5.857   4.354   5.164
 6208SOL    HW219524   5.758   4.456   5.084
 6209SOL     OW19525   0.796   5.946   0.878
 6209SOL    HW119526   0.708   5.898   0.885
 6209SOL    HW219527   0.846   5.910   0.799
 6210SOL     OW19528   0.663   3.951   3.699
 6210SOL    HW119529   0.613   3.876   3.656
 6210SOL    HW219530   0.638   4.038   3.656
 6211SOL     OW19531   2.511   0.424   5.029
 6211SOL    HW119532   2.412   0.429   5.044
 6211SOL    HW219533   2.556   0.396   5.113
 6212SOL     OW19534   6.918   0.976   4.140
 6212SOL    HW119535   6.957   0.888   4.166
 6212SOL    HW219536   6.968   1.050   4.186
 6213SOL     OW19537   6.426   6.924   0.564
 6213SOL    HW119538   6.418   7.002   0.502
 6213SOL    HW219539   6.365   6.851   0.533
 6214SOL     OW19540   4.964   4.329   2.027
 6214SOL    HW119541   4.899   4.289   2.092
 6214SOL    HW219542   4.992   4.260   1.960
 6215SOL     OW19543   3.706   3.917   1.391
 6215SOL    HW119544   3.664   3.839   1.344
 6215SOL    HW219545   3.663   3.929   1.481
 6216SOL     OW19546   6.154   1.693   2.457
 6216SOL    HW119547   6.139   1.596   2.478
 6216SOL    HW219548   6.249   1.716   2.475
 6217SOL     OW19549   3.843   1.333   1.385
 6217SOL    HW119550   3.855   1.297   1.477
 6217SOL    HW219551   3.932   1.363   1.349
 6218SOL     OW19552   4.334   6.206   4.768
 6218SOL    HW119553   4.340   6.268   4.689
 6218SOL    HW219554   4.348   6.112   4.737
 6219SOL     OW19555   0.412   0.827   4.677
 6219SOL    HW119556   0.318   0.863   4.681
 6219SOL    HW219557   0.439   0.795   4.768
 6220SOL     OW19558   1.322   3.690   5.069
 6220SOL    HW119559   1.280   3.641   4.992
 6220SOL    HW219560   1.253   3.707   5.139
 6221SOL     OW19561   4.563   4.483   4.182
 6221SOL    HW119562   4.497   4.489   4.258
 6221SOL    HW219563   4.633   4.415   4.205
 6222SOL     OW19564   7.018   1.846   1.335
 6222SOL    HW119565   6.989   1.829   1.241
 6222SOL    HW219566   6.977   1.777   1.395
 6223SOL     OW19567   5.255   5.030   3.466
 6223SOL    HW119568   5.243   5.037   3.565
 6223SOL    HW219569   5.186   4.968   3.429
 6224SOL     OW19570   2.892   0.099   4.566
 6224SOL    HW119571   2.850   0.122   4.654
 6224SOL    HW219572   2.981   0.143   4.559
 6225SOL     OW19573   3.690   1.954   6.411
 6225SOL    HW119574   3.682   1.860   6.444
 6225SOL    HW219575   3.748   1.957   6.330
 6226SOL     OW19576   0.180   6.165   3.931
 6226SOL    HW119577   0.206   6.182   4.026
 6226SOL    HW219578   0.262   6.148   3.876
 6227SOL     OW19579   2.810   4.387   7.018
 6227SOL    HW119580   2.781   4.407   0.089
 6227SOL    HW219581   2.811   4.288   7.003
 6228SOL     OW19582   6.821   2.658   2.936
 6228SOL    HW119583   6.839   2.744   2.888
 6228SOL    HW219584   6.791   2.589   2.870
 6229SOL     OW19585   1.329   2.158   2.413
 6229SOL    HW119586   1.264   2.103   2.465
 6229SOL    HW219587   1.415   2.109   2.405
 6230SOL     OW19588   1.718   2.536   4.137
 6230SOL    HW119589   1.785   2.581   4.196
 6230SOL    HW219590   1.733   2.563   4.042
 6231SOL     OW19591   6.648   4.512   2.638
 6231SOL    HW119592   6.557   4.476   2.657
 6231SOL    HW219593   6.699   4.525   2.723
 6232SOL     OW19594   0.834   1.027   6.908
 6232SOL    HW119595   0.852   0.934   6.877
 6232SOL    HW219596   0.762   1.025   6.978
 6233SOL     OW19597   4.358   0.754   6.273
 6233SOL    HW119598   4.270   0.789   6.306
 6233SOL    HW219599   4.346   0.719   6.180
 6234SOL     OW19600   2.665   2.061   4.238
 6234SOL    HW119601   2.628   2.117   4.164
 6234SOL    HW219602   2.648   1.964   4.220
 6235SOL     OW19603   1.616   5.090   1.586
 6235SOL    HW119604   1.702   5.091   1.637
 6235SOL    HW219605   1.624   5.148   1.505
 6236SOL     OW19606   6.825   4.161   0.015
 6236SOL    HW119607   6.818   4.145   6.939
 6236SOL    HW219608   6.796   4.254   0.036
 6237SOL     OW19609   3.557   6.483   5.969
 6237SOL    HW119610   3.572   6.519   6.061
 6237SOL    HW219611   3.500   6.548   5.918
 6238SOL     OW19612   5.382   3.202   1.178
 6238SOL    HW119613   5.429   3.290   1.185
 6238SOL    HW219614   5.448   3.130   1.161
 6239SOL     OW19615   3.616   6.034   4.729
 6239SOL    HW119616   3.564   5.962   4.684
 6239SOL    HW219617   3.705   5.998   4.758
 6240SOL     OW19618   2.537   4.245   0.023
 6240SOL    HW119619   2.475   4.301   6.989
 6240SOL    HW219620   2.587   4.181   6.986
 6241SOL     OW19621   3.924   6.497   2.728
 6241SOL    HW119622   3.856   6.488   2.801
 6241SOL    HW219623   3.933   6.410   2.680
 6242SOL     OW19624   3.432   1.789   2.654
 6242SOL    HW119625   3.384   1.712   2.611
 6242SOL    HW219626   3.421   1.783   2.754
 6243SOL     OW19627   5.984   6.001   2.957
 6243SOL    HW119628   5.910   6.069   2.964
 6243SOL    HW219629   5.976   5.937   3.034
 6244SOL     OW19630   1.097   1.759   1.468
 6244SOL    HW119631   1.002   1.776   1.493
 6244SOL    HW219632   1.147   1.845   1.469
 6245SOL     OW19633   2.635   3.252   0.292
 6245SOL    HW119634   2.590   3.175   0.246
 6245SOL    HW219635   2.602   3.258   0.386
 6246SOL     OW19636   3.793   6.301   6.910
 6246SOL    HW119637   3.874   6.346   6.871
 6246SOL    HW219638   3.798   6.303   7.009
 6247SOL     OW19639   6.353   0.256   2.646
 6247SOL    HW119640   6.304   0.322   2.588
 6247SOL    HW219641   6.414   0.201   2.590
 6248SOL     OW19642   1.300   5.503   1.018
 6248SOL    HW119643   1.370   5.568   1.050
 6248SOL    HW219644   1.341   5.440   0.951
 6249SOL     OW19645   6.451   3.463   5.991
 6249SOL    HW119646   6.419   3.507   5.907
 6249SOL    HW219647   6.493   3.532   6.050
 6250SOL     OW19648   6.870   4.386   6.457
 6250SOL    HW119649   6.819   4.412   6.539
 6250SOL    HW219650   6.967   4.408   6.469
 6251SOL     OW19651   5.098   1.106   6.944
 6251SOL    HW119652   4.998   1.102   6.952
 6251SOL    HW219653   5.129   1.200   6.958
 6252SOL     OW19654   2.054   6.832   5.906
 6252SOL    HW119655   1.998   6.898   5.956
 6252SOL    HW219656   2.150   6.855   5.915
 6253SOL     OW19657   2.543   3.314   0.874
 6253SOL    HW119658   2.475   3.386   0.887
 6253SOL    HW219659   2.522   3.237   0.933
 6254SOL     OW19660   5.907   0.246   0.128
 6254SOL    HW119661   5.855   0.196   0.059
 6254SOL    HW219662   5.918   0.341   0.100
 6255SOL     OW19663   1.084   3.237   2.888
 6255SOL    HW119664   1.043   3.221   2.798
 6255SOL    HW219665   1.030   3.305   2.938
 6256SOL     OW19666   4.552   5.191   4.212
 6256SOL    HW119667   4.487   5.116   4.225
 6256SOL    HW219668   4.538   5.259   4.283
 6257SOL     OW19669   3.625   2.822   6.688
 6257SOL    HW119670   3.574   2.908   6.696
 6257SOL    HW219671   3.563   2.749   6.661
 6258SOL     OW19672   4.703   2.167   3.324
 6258SOL    HW119673   4.793   2.192   3.288
 6258SOL    HW219674   4.674   2.079   3.286
 6259SOL     OW19675   3.145   2.415   1.592
 6259SOL    HW119676   3.207   2.379   1.662
 6259SOL    HW219677   3.057   2.367   1.598
 6260SOL     OW19678   4.047   3.794   2.038
 6260SOL    HW119679   4.059   3.764   2.133
 6260SOL    HW219680   3.961   3.844   2.030
 6261SOL     OW19681   4.784   6.722   6.390
 6261SOL    HW119682   4.702   6.696   6.440
 6261SOL    HW219683   4.832   6.640   6.360
 6262SOL     OW19684   0.476   6.010   5.213
 6262SOL    HW119685   0.409   6.060   5.158
 6262SOL    HW219686   0.436   5.984   5.300
 6263SOL     OW19687   6.842   0.368   1.431
 6263SOL    HW119688   6.915   0.350   1.496
 6263SOL    HW219689   6.876   0.428   1.358
 6264SOL     OW19690   2.771   0.738   0.849
 6264SOL    HW119691   2.847   0.715   0.788
 6264SOL    HW219692   2.715   0.809   0.807
 6265SOL     OW19693   6.528   4.274   0.423
 6265SOL    HW119694   6.574   4.210   0.362
 6265SOL    HW219695   6.574   4.363   0.420
 6266SOL     OW19696   2.572   6.891   2.436
 6266SOL    HW119697   2.635   6.858   2.366
 6266SOL    HW219698   2.479   6.864   2.411
 6267SOL     OW19699   3.388   6.538   6.702
 6267SOL    HW119700   3.378   6.564   6.798
 6267SOL    HW219701   3.343   6.450   6.687
 6268SOL     OW19702   2.170   6.130   2.705
 6268SOL    HW119703   2.101   6.077   2.753
 6268SOL    HW219704   2.156   6.228   2.724
 6269SOL     OW19705   0.064   4.732   6.344
 6269SOL    HW119706   0.126   4.776   6.279
 6269SOL    HW219707   0.104   4.646   6.375
 6270SOL     OW19708   1.020   1.470   3.849
 6270SOL    HW119709   0.975   1.538   3.791
 6270SOL    HW219710   1.002   1.491   3.945
 6271SOL     OW19711   5.545   2.379   1.226
 6271SOL    HW119712   5.466   2.412   1.175
 6271SOL    HW219713   5.514   2.328   1.307
 6272SOL     OW19714   3.261   2.061   3.741
 6272SOL    HW119715   3.230   1.974   3.779
 6272SOL    HW219716   3.361   2.058   3.728
 6273SOL     OW19717   4.012   1.617   2.476
 6273SOL    HW119718   3.978   1.584   2.564
 6273SOL    HW219719   4.098   1.666   2.489
 6274SOL     OW19720   3.055   5.684   6.817
 6274SOL    HW119721   3.060   5.739   6.734
 6274SOL    HW219722   3.099   5.734   6.892
 6275SOL     OW19723   3.434   1.231   4.007
 6275SOL    HW119724   3.508   1.167   4.026
 6275SOL    HW219725   3.418   1.289   4.087
 6276SOL     OW19726   0.573   5.668   3.721
 6276SOL    HW119727   0.527   5.642   3.636
 6276SOL    HW219728   0.650   5.728   3.701
 6277SOL     OW19729   6.048   3.495   4.568
 6277SOL    HW119730   5.960   3.472   4.610
 6277SOL    HW219731   6.105   3.413   4.563
 6278SOL     OW19732   4.244   1.026   3.324
 6278SOL    HW119733   4.166   1.069   3.369
 6278SOL    HW219734   4.235   0.927   3.329
 6279SOL     OW19735   3.741   2.244   5.576
 6279SOL    HW119736   3.712   2.289   5.660
 6279SOL    HW219737   3.718   2.301   5.497
 6280SOL     OW19738   1.954   5.307   4.827
 6280SOL    HW119739   2.026   5.303   4.896
 6280SOL    HW219740   1.902   5.392   4.839
 6281SOL     OW19741   3.313   6.293   4.609
 6281SOL    HW119742   3.273   6.203   4.629
 6281SOL    HW219743   3.371   6.286   4.528
 6282SOL     OW19744   0.577   6.651   4.101
 6282SOL    HW119745   0.606   6.627   4.194
 6282SOL    HW219746   0.546   6.746   4.100
 6283SOL     OW19747   1.312   3.308   4.974
 6283SOL    HW119748   1.264   3.288   4.888
 6283SOL    HW219749   1.403   3.345   4.953
 6284SOL     OW19750   3.112   4.775   0.618
 6284SOL    HW119751   3.206   4.809   0.624
 6284SOL    HW219752   3.090   4.724   0.701
 6285SOL     OW19753   2.195   3.167   2.721
 6285SOL    HW119754   2.173   3.166   2.624
 6285SOL    HW219755   2.224   3.075   2.750
 6286SOL     OW19756   0.168   6.272   3.292
 6286SOL    HW119757   0.256   6.226   3.305
 6286SOL    HW219758   0.150   6.331   3.370
 6287SOL     OW19759   3.446   4.923   3.054
 6287SOL    HW119760   3.381   4.941   3.128
 6287SOL    HW219761   3.539   4.929   3.090
 6288SOL     OW19762   6.831   3.830   1.485
 6288SOL    HW119763   6.882   3.880   1.415
 6288SOL    HW219764   6.895   3.799   1.556
 6289SOL     OW19765   0.328   0.031   2.630
 6289SOL    HW119766   0.247   7.013   2.673
 6289SOL    HW219767   0.301   0.113   2.579
 6290SOL     OW19768   5.334   3.082   3.629
 6290SOL    HW119769   5.316   3.180   3.636
 6290SOL    HW219770   5.432   3.067   3.619
 6291SOL     OW19771   3.685   4.011   4.334
 6291SOL    HW119772   3.675   4.083   4.403
 6291SOL    HW219773   3.646   3.926   4.368
 6292SOL     OW19774   6.001   1.528   0.953
 6292SOL    HW119775   5.979   1.495   0.861
 6292SOL    HW219776   5.927   1.588   0.985
 6293SOL     OW19777   5.948   3.983   5.528
 6293SOL    HW119778   6.026   4.015   5.581
 6293SOL    HW219779   5.912   3.898   5.568
 6294SOL     OW19780   3.039   5.842   0.914
 6294SOL    HW119781   2.984   5.774   0.867
 6294SOL    HW219782   2.992   5.870   0.999
 6295SOL     OW19783   6.306   5.350   6.715
 6295SOL    HW119784   6.333   5.445   6.704
 6295SOL    HW219785   6.208   5.344   6.732
 6296SOL     OW19786   5.760   2.327   3.907
 6296SOL    HW119787   5.817   2.250   3.879
 6296SOL    HW219788   5.731   2.378   3.826
 6297SOL     OW19789   5.648   3.150   6.493
 6297SOL    HW119790   5.621   3.158   6.589
 6297SOL    HW219791   5.666   3.241   6.456
 6298SOL     OW19792   6.271   2.885   4.801
 6298SOL    HW119793   6.329   2.876   4.720
 6298SOL    HW219794   6.183   2.842   4.783
 6299SOL     OW19795   0.016   1.717   6.857
 6299SOL    HW119796   0.014   1.694   6.760
 6299SOL    HW219797   6.950   1.758   6.883
 6300SOL     OW19798   5.106   1.671   3.287
 6300SOL    HW119799   5.037   1.618   3.237
 6300SOL    HW219800   5.194   1.623   3.282
 6301SOL     OW19801   2.987   6.638   0.736
 6301SOL    HW119802   2.947   6.664   0.648
 6301SOL    HW219803   2.937   6.560   0.773
 6302SOL     OW19804   6.071   0.848   3.114
 6302SOL    HW119805   6.084   0.946   3.103
 6302SOL    HW219806   6.118   0.799   3.040
 6303SOL     OW19807   1.865   5.534   4.913
 6303SOL    HW119808   1.787   5.536   4.976
 6303SOL    HW219809   1.940   5.589   4.951
 6304SOL     OW19810   4.595   0.397   4.969
 6304SOL    HW119811   4.646   0.482   4.983
 6304SOL    HW219812   4.587   0.379   4.871
 6305SOL     OW19813   4.920   0.059   2.875
 6305SOL    HW119814   4.996   7.019   2.897
 6305SOL    HW219815   4.855   0.012   2.816
 6306SOL     OW19816   6.212   2.192   4.567
 6306SOL    HW119817   6.142   2.250   4.525
 6306SOL    HW219818   6.169   2.126   4.628
 6307SOL     OW19819   2.014   4.169   1.072
 6307SOL    HW119820   1.952   4.243   1.047
 6307SOL    HW219821   2.036   4.114   0.991
 6308SOL     OW19822   3.834   2.453   6.469
 6308SOL    HW119823   3.793   2.544   6.467
 6308SOL    HW219824   3.821   2.413   6.560
 6309SOL     OW19825   6.275   2.428   5.254
 6309SOL    HW119826   6.232   2.442   5.344
 6309SOL    HW219827   6.289   2.330   5.239
 6310SOL     OW19828   0.300   5.600   5.084
 6310SOL    HW119829   0.373   5.644   5.031
 6310SOL    HW219830   0.300   5.638   5.177
 6311SOL     OW19831   6.413   0.025   5.032
 6311SOL    HW119832   6.376   6.987   5.103
 6311SOL    HW219833   6.455   6.992   4.960
 6312SOL     OW19834   5.770   3.663   5.467
 6312SOL    HW119835   5.728   3.596   5.529
 6312SOL    HW219836   5.853   3.699   5.509
 6313SOL     OW19837   3.043   5.734   3.950
 6313SOL    HW119838   3.040   5.719   3.851
 6313SOL    HW219839   2.958   5.702   3.991
 6314SOL     OW19840   0.901   0.085   3.372
 6314SOL    HW119841   0.824   0.138   3.407
 6314SOL    HW219842   0.937   0.128   3.289
 6315SOL     OW19843   1.294   3.735   0.419
 6315SOL    HW119844   1.312   3.645   0.460
 6315SOL    HW219845   1.349   3.804   0.465
 6316SOL     OW19846   4.333   1.079   4.663
 6316SOL    HW119847   4.286   1.017   4.601
 6316SOL    HW219848   4.349   1.033   4.751
 6317SOL     OW19849   6.876   5.838   4.178
 6317SOL    HW119850   6.842   5.928   4.151
 6317SOL    HW219851   6.812   5.768   4.148
 6318SOL     OW19852   1.215   3.099   3.797
 6318SOL    HW119853   1.274   3.034   3.749
 6318SOL    HW219854   1.127   3.055   3.818
 6319SOL     OW19855   1.398   2.224   2.811
 6319SOL    HW119856   1.326   2.290   2.831
 6319SOL    HW219857   1.365   2.131   2.830
 6320SOL     OW19858   0.333   1.772   1.963
 6320SOL    HW119859   0.428   1.801   1.979
 6320SOL    HW219860   0.272   1.828   2.018
 6321SOL     OW19861   2.511   4.021   5.603
 6321SOL    HW119862   2.611   4.020   5.601
 6321SOL    HW219863   2.475   4.030   5.510
 6322SOL     OW19864   2.144   6.672   0.683
 6322SOL    HW119865   2.122   6.587   0.730
 6322SOL    HW219866   2.114   6.750   0.738
 6323SOL     OW19867   4.004   2.011   1.440
 6323SOL    HW119868   3.951   1.926   1.448
 6323SOL    HW219869   4.041   2.036   1.529
 6324SOL     OW19870   3.137   1.861   2.015
 6324SOL    HW119871   3.209   1.793   2.000
 6324SOL    HW219872   3.148   1.936   1.951
 6325SOL     OW19873   2.052   2.862   3.204
 6325SOL    HW119874   2.026   2.830   3.113
 6325SOL    HW219875   2.079   2.958   3.200
 6326SOL     OW19876   4.483   6.010   1.693
 6326SOL    HW119877   4.430   5.944   1.747
 6326SOL    HW219878   4.460   5.999   1.596
 6327SOL     OW19879   4.336   5.093   5.383
 6327SOL    HW119880   4.283   5.146   5.449
 6327SOL    HW219881   4.349   5.147   5.299
 6328SOL     OW19882   2.668   4.299   1.032
 6328SOL    HW119883   2.728   4.360   1.083
 6328SOL    HW219884   2.618   4.240   1.096
 6329SOL     OW19885   0.830   2.164   3.077
 6329SOL    HW119886   0.797   2.256   3.097
 6329SOL    HW219887   0.866   2.160   2.984
 6330SOL     OW19888   3.333   0.489   6.675
 6330SOL    HW119889   3.344   0.391   6.657
 6330SOL    HW219890   3.401   0.518   6.743
 6331SOL     OW19891   6.012   2.310   1.167
 6331SOL    HW119892   6.101   2.286   1.205
 6331SOL    HW219893   5.992   2.406   1.187
 6332SOL     OW19894   3.875   6.363   2.450
 6332SOL    HW119895   3.963   6.406   2.431
 6332SOL    HW219896   3.889   6.278   2.500
 6333SOL     OW19897   2.167   5.421   2.500
 6333SOL    HW119898   2.207   5.485   2.434
 6333SOL    HW219899   2.239   5.391   2.563
 6334SOL     OW19900   2.303   0.024   1.814
 6334SOL    HW119901   2.320   6.973   1.748
 6334SOL    HW219902   2.390   0.069   1.837
 6335SOL     OW19903   6.568   0.442   0.064
 6335SOL    HW119904   6.569   0.532   0.020
 6335SOL    HW219905   6.490   0.438   0.128
 6336SOL     OW19906   1.850   2.930   5.151
 6336SOL    HW119907   1.790   2.894   5.222
 6336SOL    HW219908   1.893   3.014   5.183
 6337SOL     OW19909   1.263   3.964   5.286
 6337SOL    HW119910   1.246   3.870   5.316
 6337SOL    HW219911   1.322   4.010   5.352
 6338SOL     OW19912   4.083   0.904   3.669
 6338SOL    HW119913   4.083   0.823   3.611
 6338SOL    HW219914   4.177   0.932   3.687
 6339SOL     OW19915   6.863   3.251   4.633
 6339SOL    HW119916   6.821   3.165   4.661
 6339SOL    HW219917   6.940   3.233   4.572
 6340SOL     OW19918   3.486   5.126   3.805
 6340SOL    HW119919   3.534   5.069   3.738
 6340SOL    HW219920   3.529   5.117   3.895
 6341SOL     OW19921   5.243   4.732   1.835
 6341SOL    HW119922   5.290   4.812   1.872
 6341SOL    HW219923   5.309   4.657   1.823
 6342SOL     OW19924   0.437   3.569   0.644
 6342SOL    HW119925   0.389   3.639   0.696
 6342SOL    HW219926   0.467   3.497   0.706
 6343SOL     OW19927   3.285   1.391   0.049
 6343SOL    HW119928   3.344   1.399   6.991
 6343SOL    HW219929   3.339   1.409   0.132
 6344SOL     OW19930   5.912   5.389   4.364
 6344SOL    HW119931   5.847   5.380   4.439
 6344SOL    HW219932   6.005   5.374   4.398
 6345SOL     OW19933   1.603   2.228   1.396
 6345SOL    HW119934   1.515   2.223   1.443
 6345SOL    HW219935   1.614   2.147   1.338
 6346SOL     OW19936   1.305   4.482   4.418
 6346SOL    HW119937   1.223   4.536   4.435
 6346SOL    HW219938   1.386   4.535   4.443
 6347SOL     OW19939   3.137   0.315   0.378
 6347SOL    HW119940   3.191   0.363   0.447
 6347SOL    HW219941   3.141   0.217   0.396
 6348SOL     OW19942   6.923   2.352   4.694
 6348SOL    HW119943   6.881   2.268   4.659
 6348SOL    HW219944   6.961   2.335   4.784
 6349SOL     OW19945   0.319   0.927   6.963
 6349SOL    HW119946   0.288   1.020   6.984
 6349SOL    HW219947   0.370   0.891   0.019
 6350SOL     OW19948   0.060   5.425   3.372
 6350SOL    HW119949   0.146   5.475   3.380
 6350SOL    HW219950   0.029   5.426   3.277
 6351SOL     OW19951   6.940   2.085   2.714
 6351SOL    HW119952   6.887   2.161   2.750
 6351SOL    HW219953   6.909   2.000   2.755
 6352SOL     OW19954   6.150   4.420   2.620
 6352SOL    HW119955   6.094   4.501   2.638
 6352SOL    HW219956   6.153   4.403   2.522
 6353SOL     OW19957   6.085   0.330   2.562
 6353SOL    HW119958   6.003   0.321   2.618
 6353SOL    HW219959   6.060   0.332   2.466
 6354SOL     OW19960   6.459   6.656   5.353
 6354SOL    HW119961   6.389   6.677   5.421
 6354SOL    HW219962   6.546   6.637   5.398
 6355SOL     OW19963   0.565   1.625   0.721
 6355SOL    HW119964   0.532   1.700   0.778
 6355SOL    HW219965   0.587   1.659   0.630
 6356SOL     OW19966   3.195   3.622   1.397
 6356SOL    HW119967   3.221   3.578   1.311
 6356SOL    HW219968   3.276   3.660   1.441
 6357SOL     OW19969   4.217   1.841   1.245
 6357SOL    HW119970   4.309   1.802   1.245
 6357SOL    HW219971   4.181   1.840   1.338
 6358SOL     OW19972   1.297   3.185   5.286
 6358SOL    HW119973   1.268   3.092   5.264
 6358SOL    HW219974   1.379   3.207   5.233
 6359SOL     OW19975   0.705   6.419   6.063
 6359SOL    HW119976   0.616   6.405   6.021
 6359SOL    HW219977   0.777   6.386   6.003
 6360SOL     OW19978   2.738   5.175   4.214
 6360SOL    HW119979   2.793   5.191   4.296
 6360SOL    HW219980   2.672   5.101   4.232
 6361SOL     OW19981   3.148   5.687   5.274
 6361SOL    HW119982   3.050   5.684   5.253
 6361SOL    HW219983   3.162   5.670   5.372
 6362SOL     OW19984   6.767   4.490   5.828
 6362SOL    HW119985   6.677   4.457   5.859
 6362SOL    HW219986   6.833   4.478   5.902
 6363SOL     OW19987   0.773   5.686   3.296
 6363SOL    HW119988   0.756   5.780   3.326
 6363SOL    HW219989   0.751   5.679   3.198
 6364SOL     OW19990   2.724   1.522   6.908
 6364SOL    HW119991   2.812   1.549   6.868
 6364SOL    HW219992   2.737   1.496   7.004
 6365SOL     OW19993   3.628   6.050   1.977
 6365SOL    HW119994   3.563   6.099   2.035
 6365SOL    HW219995   3.710   6.028   2.030
 6366SOL     OW19996   0.688   3.556   5.759
 6366SOL    HW119997   0.603   3.534   5.808
 6366SOL    HW219998   0.746   3.612   5.818
 6367SOL     OW19999   5.305   5.238   2.367
 6367SOL    HW120000   5.342   5.163   2.421
 6367SOL    HW220001   5.376   5.272   2.304
 6368SOL     OW20002   2.521   1.394   1.845
 6368SOL    HW120003   2.554   1.485   1.870
 6368SOL    HW220004   2.457   1.402   1.769
 6369SOL     OW20005   2.551   6.047   5.038
 6369SOL    HW120006   2.488   6.083   5.108
 6369SOL    HW220007   2.607   5.975   5.079
 6370SOL     OW20008   5.069   2.427   2.215
 6370SOL    HW120009   5.144   2.361   2.225
 6370SOL    HW220010   5.099   2.502   2.157
 6371SOL     OW20011   4.213   1.940   3.409
 6371SOL    HW120012   4.233   1.844   3.393
 6371SOL    HW220013   4.141   1.948   3.477
 6372SOL     OW20014   2.916   0.653   2.453
 6372SOL    HW120015   2.952   0.560   2.461
 6372SOL    HW220016   2.863   0.662   2.369
 6373SOL     OW20017   3.512   4.659   0.001
 6373SOL    HW120018   3.607   4.661   0.033
 6373SOL    HW220019   3.456   4.715   0.062
 6374SOL     OW20020   3.013   3.617   4.771
 6374SOL    HW120021   2.996   3.706   4.812
 6374SOL    HW220022   3.080   3.567   4.826
 6375SOL     OW20023   2.097   5.712   1.729
 6375SOL    HW120024   2.148   5.642   1.779
 6375SOL    HW220025   2.036   5.759   1.792
 6376SOL     OW20026   1.560   0.714   5.412
 6376SOL    HW120027   1.616   0.634   5.392
 6376SOL    HW220028   1.583   0.788   5.350
 6377SOL     OW20029   0.358   2.389   3.647
 6377SOL    HW120030   0.435   2.407   3.586
 6377SOL    HW220031   0.296   2.467   3.648
 6378SOL     OW20032   4.460   5.698   3.926
 6378SOL    HW120033   4.379   5.754   3.905
 6378SOL    HW220034   4.472   5.629   3.855
 6379SOL     OW20035   2.097   4.039   1.614
 6379SOL    HW120036   2.098   4.133   1.580
 6379SOL    HW220037   2.180   4.022   1.668
 6380SOL     OW20038   0.598   0.474   6.111
 6380SOL    HW120039   0.518   0.414   6.117
 6380SOL    HW220040   0.665   0.435   6.049
 6381SOL     OW20041   3.862   3.254   3.427
 6381SOL    HW120042   3.940   3.277   3.485
 6381SOL    HW220043   3.817   3.171   3.462
 6382SOL     OW20044   1.271   4.482   5.233
 6382SOL    HW120045   1.222   4.568   5.224
 6382SOL    HW220046   1.364   4.493   5.198
 6383SOL     OW20047   4.196   1.778   4.117
 6383SOL    HW120048   4.251   1.813   4.193
 6383SOL    HW220049   4.186   1.849   4.048
 6384SOL     OW20050   6.782   4.642   2.006
 6384SOL    HW120051   6.852   4.660   2.076
 6384SOL    HW220052   6.735   4.727   1.983
 6385SOL     OW20053   1.095   5.354   4.897
 6385SOL    HW120054   1.180   5.384   4.939
 6385SOL    HW220055   1.044   5.434   4.864
 6386SOL     OW20056   2.557   5.621   2.913
 6386SOL    HW120057   2.512   5.660   2.993
 6386SOL    HW220058   2.494   5.620   2.836
 6387SOL     OW20059   5.387   1.773   5.193
 6387SOL    HW120060   5.299   1.727   5.196
 6387SOL    HW220061   5.453   1.716   5.144
 6388SOL     OW20062   2.366   5.310   1.457
 6388SOL    HW120063   2.451   5.322   1.509
 6388SOL    HW220064   2.289   5.302   1.520
 6389SOL     OW20065   1.554   3.837   0.824
 6389SOL    HW120066   1.575   3.793   0.911
 6389SOL    HW220067   1.606   3.922   0.816
 6390SOL     OW20068   0.514   3.768   5.139
 6390SOL    HW120069   0.547   3.679   5.109
 6390SOL    HW220070   0.541   3.784   5.234
 6391SOL     OW20071   4.783   0.615   0.317
 6391SOL    HW120072   4.786   0.522   0.354
 6391SOL    HW220073   4.842   0.621   0.237
 6392SOL     OW20074   1.395   6.234   4.614
 6392SOL    HW120075   1.336   6.302   4.657
 6392SOL    HW220076   1.489   6.246   4.646
 6393SOL     OW20077   5.308   1.639   6.342
 6393SOL    HW120078   5.218   1.617   6.305
 6393SOL    HW220079   5.305   1.730   6.384
 6394SOL     OW20080   3.759   5.375   2.719
 6394SOL    HW120081   3.760   5.431   2.637
 6394SOL    HW220082   3.848   5.331   2.732
 6395SOL     OW20083   5.525   1.443   0.407
 6395SOL    HW120084   5.581   1.522   0.381
 6395SOL    HW220085   5.546   1.367   0.346
 6396SOL     OW20086   6.322   2.299   6.291
 6396SOL    HW120087   6.298   2.332   6.200
 6396SOL    HW220088   6.414   2.330   6.314
 6397SOL     OW20089   0.441   0.216   6.952
 6397SOL    HW120090   0.349   0.241   6.923
 6397SOL    HW220091   0.468   0.130   6.909
 6398SOL     OW20092   4.489   1.083   1.646
 6398SOL    HW120093   4.477   1.167   1.698
 6398SOL    HW220094   4.461   1.005   1.702
 6399SOL     OW20095   0.795   6.866   5.972
 6399SOL    HW120096   0.883   6.848   5.928
 6399SOL    HW220097   0.807   6.871   6.071
 6400SOL     OW20098   3.168   5.219   4.372
 6400SOL    HW120099   3.071   5.209   4.353
 6400SOL    HW220100   3.218   5.235   4.287
 6401SOL     OW20101   6.744   5.138   5.626
 6401SOL    HW120102   6.672   5.069   5.619
 6401SOL    HW220103   6.830   5.100   5.590
 6402SOL     OW20104   1.963   3.754   2.844
 6402SOL    HW120105   1.977   3.697   2.763
 6402SOL    HW220106   2.038   3.820   2.852
 6403SOL     OW20107   0.142   6.489   1.751
 6403SOL    HW120108   0.135   6.403   1.701
 6403SOL    HW220109   0.232   6.529   1.737
 6404SOL     OW20110   5.313   0.796   2.071
 6404SOL    HW120111   5.296   0.722   2.007
 6404SOL    HW220112   5.228   0.848   2.085
 6405SOL     OW20113   3.807   5.838   1.641
 6405SOL    HW120114   3.850   5.766   1.586
 6405SOL    HW220115   3.750   5.797   1.712
 6406SOL     OW20116   2.513   2.477   3.578
 6406SOL    HW120117   2.612   2.488   3.590
 6406SOL    HW220118   2.495   2.446   3.485
 6407SOL     OW20119   5.219   6.085   0.495
 6407SOL    HW120120   5.201   6.021   0.420
 6407SOL    HW220121   5.248   6.033   0.576
 6408SOL     OW20122   6.670   1.815   0.976
 6408SOL    HW120123   6.583   1.779   1.009
 6408SOL    HW220124   6.713   1.748   0.916
 6409SOL     OW20125   0.756   4.835   1.557
 6409SOL    HW120126   0.700   4.836   1.640
 6409SOL    HW220127   0.851   4.815   1.582
 6410SOL     OW20128   6.671   6.565   0.790
 6410SOL    HW120129   6.668   6.579   0.889
 6410SOL    HW220130   6.661   6.653   0.744
 6411SOL     OW20131   1.193   1.642   3.472
 6411SOL    HW120132   1.172   1.546   3.491
 6411SOL    HW220133   1.229   1.651   3.379
 6412SOL     OW20134   5.969   2.755   5.059
 6412SOL    HW120135   5.884   2.715   5.093
 6412SOL    HW220136   5.954   2.852   5.039
 6413SOL     OW20137   0.238   5.698   1.088
 6413SOL    HW120138   0.310   5.629   1.091
 6413SOL    HW220139   0.263   5.775   1.147
 6414SOL     OW20140   6.295   0.302   3.678
 6414SOL    HW120141   6.265   0.383   3.627
 6414SOL    HW220142   6.266   0.310   3.773
 6415SOL     OW20143   1.210   1.494   2.471
 6415SOL    HW120144   1.211   1.547   2.387
 6415SOL    HW220145   1.153   1.412   2.458
 6416SOL     OW20146   3.044   6.275   6.212
 6416SOL    HW120147   3.116   6.206   6.220
 6416SOL    HW220148   3.006   6.295   6.302
 6417SOL     OW20149   0.069   7.015   3.774
 6417SOL    HW120150   0.080   6.966   3.688
 6417SOL    HW220151   0.033   0.085   3.757
 6418SOL     OW20152   6.263   5.339   1.836
 6418SOL    HW120153   6.316   5.394   1.772
 6418SOL    HW220154   6.191   5.396   1.878
 6419SOL     OW20155   3.115   2.072   1.153
 6419SOL    HW120156   3.107   2.167   1.122
 6419SOL    HW220157   3.044   2.017   1.109
 6420SOL     OW20158   0.927   1.562   6.880
 6420SOL    HW120159   0.858   1.617   6.926
 6420SOL    HW220160   0.925   1.468   6.915
 6421SOL     OW20161   6.098   2.035   0.557
 6421SOL    HW120162   6.011   2.081   0.540
 6421SOL    HW220163   6.105   1.953   0.501
 6422SOL     OW20164   5.896   2.868   2.842
 6422SOL    HW120165   5.966   2.811   2.799
 6422SOL    HW220166   5.904   2.962   2.810
 6423SOL     OW20167   5.670   3.706   0.563
 6423SOL    HW120168   5.735   3.631   0.576
 6423SOL    HW220169   5.593   3.675   0.507
 6424SOL     OW20170   6.527   3.753   5.269
 6424SOL    HW120171   6.461   3.694   5.222
 6424SOL    HW220172   6.504   3.849   5.253
 6425SOL     OW20173   1.194   5.621   1.274
 6425SOL    HW120174   1.282   5.580   1.299
 6425SOL    HW220175   1.202   5.666   1.185
 6426SOL     OW20176   6.847   4.508   3.659
 6426SOL    HW120177   6.935   4.542   3.692
 6426SOL    HW220178   6.831   4.416   3.696
 6427SOL     OW20179   1.197   3.400   5.413
 6427SOL    HW120180   1.253   3.327   5.374
 6427SOL    HW220181   1.224   3.415   5.509
 6428SOL     OW20182   6.290   3.803   5.534
 6428SOL    HW120183   6.378   3.849   5.540
 6428SOL    HW220184   6.226   3.842   5.600
 6429SOL     OW20185   2.305   6.710   4.845
 6429SOL    HW120186   2.249   6.787   4.875
 6429SOL    HW220187   2.256   6.624   4.864
 6430SOL     OW20188   6.560   3.606   6.677
 6430SOL    HW120189   6.657   3.611   6.654
 6430SOL    HW220190   6.505   3.630   6.597
 6431SOL     OW20191   5.333   2.048   2.043
 6431SOL    HW120192   5.405   2.021   2.108
 6431SOL    HW220193   5.361   2.024   1.950
 6432SOL     OW20194   6.196   3.438   1.030
 6432SOL    HW120195   6.282   3.488   1.025
 6432SOL    HW220196   6.162   3.439   1.124
 6433SOL     OW20197   2.126   3.422   1.703
 6433SOL    HW120198   2.137   3.470   1.617
 6433SOL    HW220199   2.211   3.430   1.757
 6434SOL     OW20200   1.667   6.350   0.458
 6434SOL    HW120201   1.685   6.427   0.396
 6434SOL    HW220202   1.736   6.348   0.530
 6435SOL     OW20203   5.844   3.474   0.641
 6435SOL    HW120204   5.898   3.462   0.558
 6435SOL    HW220205   5.905   3.494   0.718
 6436SOL     OW20206   2.708   2.061   0.375
 6436SOL    HW120207   2.798   2.100   0.395
 6436SOL    HW220208   2.638   2.130   0.393
 6437SOL     OW20209   6.761   0.697   2.082
 6437SOL    HW120210   6.666   0.666   2.076
 6437SOL    HW220211   6.794   0.721   1.990
 6438SOL     OW20212   0.746   4.174   4.431
 6438SOL    HW120213   0.721   4.157   4.526
 6438SOL    HW220214   0.666   4.204   4.380
 6439SOL     OW20215   0.131   5.727   2.514
 6439SOL    HW120216   0.163   5.642   2.471
 6439SOL    HW220217   0.032   5.732   2.508
 6440SOL     OW20218   0.330   0.315   2.077
 6440SOL    HW120219   0.315   0.294   1.980
 6440SOL    HW220220   0.309   0.234   2.132
 6441SOL     OW20221   5.382   2.346   3.322
 6441SOL    HW120222   5.312   2.413   3.296
 6441SOL    HW220223   5.400   2.354   3.420
 6442SOL     OW20224   1.523   1.866   3.525
 6442SOL    HW120225   1.445   1.885   3.466
 6442SOL    HW220226   1.548   1.948   3.576
 6443SOL     OW20227   2.599   0.925   0.755
 6443SOL    HW120228   2.558   0.959   0.840
 6443SOL    HW220229   2.527   0.894   0.693
 6444SOL     OW20230   0.444   1.724   3.099
 6444SOL    HW120231   0.344   1.729   3.107
 6444SOL    HW220232   0.469   1.640   3.050
 6445SOL     OW20233   3.660   4.018   6.297
 6445SOL    HW120234   3.590   4.069   6.346
 6445SOL    HW220235   3.677   4.063   6.209
 6446SOL     OW20236   6.936   0.907   1.198
 6446SOL    HW120237   6.931   0.854   1.114
 6446SOL    HW220238   6.844   0.915   1.238
 6447SOL     OW20239   1.988   1.603   3.542
 6447SOL    HW120240   2.039   1.678   3.500
 6447SOL    HW220241   1.973   1.622   3.639
 6448SOL     OW20242   6.100   2.041   1.905
 6448SOL    HW120243   6.008   2.048   1.865
 6448SOL    HW220244   6.165   2.091   1.848
 6449SOL     OW20245   4.244   2.331   0.175
 6449SOL    HW120246   4.173   2.379   0.123
 6449SOL    HW220247   4.305   2.283   0.111
 6450SOL     OW20248   0.053   1.797   0.828
 6450SOL    HW120249   0.002   1.792   0.914
 6450SOL    HW220250   0.056   1.706   0.786
 6451SOL     OW20251   3.671   6.566   4.719
 6451SOL    HW120252   3.632   6.474   4.726
 6451SOL    HW220253   3.684   6.589   4.622
 6452SOL     OW20254   3.547   6.244   5.060
 6452SOL    HW120255   3.645   6.243   5.044
 6452SOL    HW220256   3.517   6.154   5.090
 6453SOL     OW20257   2.892   5.022   0.087
 6453SOL    HW120258   2.831   4.977   0.022
 6453SOL    HW220259   2.849   5.105   0.122
 6454SOL     OW20260   3.912   1.022   5.114
 6454SOL    HW120261   3.970   1.024   5.196
 6454SOL    HW220262   3.816   1.032   5.142
 6455SOL     OW20263   5.493   3.589   0.398
 6455SOL    HW120264   5.421   3.520   0.383
 6455SOL    HW220265   5.524   3.623   0.310
 6456SOL     OW20266   6.957   2.096   4.218
 6456SOL    HW120267   6.935   2.026   4.286
 6456SOL    HW220268   6.883   2.104   4.151
 6457SOL     OW20269   5.997   3.833   1.156
 6457SOL    HW120270   6.023   3.928   1.172
 6457SOL    HW220271   5.963   3.793   1.241
 6458SOL     OW20272   0.901   5.574   4.256
 6458SOL    HW120273   0.920   5.488   4.209
 6458SOL    HW220274   0.950   5.576   4.343
 6459SOL     OW20275   6.017   3.959   0.160
 6459SOL    HW120276   6.054   3.945   0.068
 6459SOL    HW220277   6.076   3.914   0.227
 6460SOL     OW20278   3.749   5.542   1.992
 6460SOL    HW120279   3.841   5.561   2.025
 6460SOL    HW220280   3.735   5.443   1.985
 6461SOL     OW20281   3.492   5.708   3.974
 6461SOL    HW120282   3.449   5.712   3.884
 6461SOL    HW220283   3.458   5.783   4.030
 6462SOL     OW20284   2.128   4.734   2.859
 6462SOL    HW120285   2.090   4.670   2.925
 6462SOL    HW220286   2.054   4.777   2.808
 6463SOL     OW20287   2.437   3.394   5.805
 6463SOL    HW120288   2.532   3.365   5.791
 6463SOL    HW220289   2.428   3.431   5.898
 6464SOL     OW20290   0.901   5.738   1.703
 6464SOL    HW120291   0.962   5.783   1.638
 6464SOL    HW220292   0.942   5.653   1.733
 6465SOL     OW20293   5.977   6.758   3.111
 6465SOL    HW120294   5.927   6.843   3.128
 6465SOL    HW220295   5.989   6.745   3.013
 6466SOL     OW20296   6.496   2.996   4.575
 6466SOL    HW120297   6.465   2.952   4.490
 6466SOL    HW220298   6.502   3.095   4.562
 6467SOL     OW20299   3.774   0.491   5.609
 6467SOL    HW120300   3.865   0.531   5.622
 6467SOL    HW220301   3.769   0.403   5.655
 6468SOL     OW20302   6.185   4.877   2.521
 6468SOL    HW120303   6.275   4.901   2.557
 6468SOL    HW220304   6.184   4.889   2.422
 6469SOL     OW20305   6.944   3.330   6.059
 6469SOL    HW120306   6.946   3.300   6.154
 6469SOL    HW220307   6.876   3.402   6.047
 6470SOL     OW20308   6.650   6.506   4.940
 6470SOL    HW120309   6.676   6.509   5.037
 6470SOL    HW220310   6.551   6.514   4.931
 6471SOL     OW20311   6.600   5.934   5.460
 6471SOL    HW120312   6.608   5.834   5.466
 6471SOL    HW220313   6.520   5.964   5.513
 6472SOL     OW20314   1.527   0.087   2.093
 6472SOL    HW120315   1.589   0.121   2.164
 6472SOL    HW220316   1.508   7.012   2.110
 6473SOL     OW20317   1.985   1.496   5.719
 6473SOL    HW120318   2.036   1.464   5.639
 6473SOL    HW220319   1.887   1.495   5.698
 6474SOL     OW20320   1.510   2.575   6.686
 6474SOL    HW120321   1.462   2.654   6.647
 6474SOL    HW220322   1.604   2.600   6.707
 6475SOL     OW20323   4.409   4.918   3.882
 6475SOL    HW120324   4.488   4.902   3.940
 6475SOL    HW220325   4.343   4.844   3.894
 6476SOL     OW20326   5.178   6.420   2.792
 6476SOL    HW120327   5.097   6.361   2.790
 6476SOL    HW220328   5.199   6.451   2.699
 6477SOL     OW20329   6.392   5.618   6.963
 6477SOL    HW120330   6.482   5.575   6.956
 6477SOL    HW220331   6.398   5.699   7.022
 6478SOL     OW20332   4.523   5.963   0.391
 6478SOL    HW120333   4.502   6.041   0.332
 6478SOL    HW220334   4.460   5.962   0.468
 6479SOL     OW20335   2.965   5.927   2.146
 6479SOL    HW120336   3.030   5.972   2.208
 6479SOL    HW220337   2.999   5.835   2.126
 6480SOL     OW20338   2.939   1.481   0.654
 6480SOL    HW120339   3.034   1.462   0.629
 6480SOL    HW220340   2.935   1.509   0.750
 6481SOL     OW20341   4.713   0.374   0.543
 6481SOL    HW120342   4.625   0.364   0.496
 6481SOL    HW220343   4.708   0.327   0.632
 6482SOL     OW20344   0.024   6.869   5.239
 6482SOL    HW120345   6.967   6.863   5.178
 6482SOL    HW220346   0.007   6.937   5.310
 6483SOL     OW20347   1.513   5.261   1.120
 6483SOL    HW120348   1.493   5.300   1.030
 6483SOL    HW220349   1.427   5.242   1.167
 6484SOL     OW20350   3.704   0.340   2.237
 6484SOL    HW120351   3.804   0.332   2.244
 6484SOL    HW220352   3.676   0.322   2.143
 6485SOL     OW20353   6.816   2.232   2.249
 6485SOL    HW120354   6.797   2.134   2.239
 6485SOL    HW220355   6.899   2.243   2.303
 6486SOL     OW20356   1.142   2.548   3.417
 6486SOL    HW120357   1.211   2.621   3.419
 6486SOL    HW220358   1.108   2.533   3.510
 6487SOL     OW20359   6.872   5.152   2.547
 6487SOL    HW120360   6.827   5.241   2.553
 6487SOL    HW220361   6.843   5.096   2.625
 6488SOL     OW20362   3.527   5.438   3.689
 6488SOL    HW120363   3.497   5.380   3.765
 6488SOL    HW220364   3.484   5.528   3.698
 6489SOL     OW20365   2.675   0.907   6.870
 6489SOL    HW120366   2.631   0.838   6.927
 6489SOL    HW220367   2.655   0.998   6.907
 6490SOL     OW20368   4.086   0.797   6.682
 6490SOL    HW120369   4.143   0.768   6.759
 6490SOL    HW220370   4.055   0.890   6.697
 6491SOL     OW20371   4.836   0.900   6.151
 6491SOL    HW120372   4.751   0.940   6.116
 6491SOL    HW220373   4.902   0.892   6.076
 6492SOL     OW20374   5.267   4.978   6.383
 6492SOL    HW120375   5.232   5.070   6.362
 6492SOL    HW220376   5.341   4.955   6.321
 6493SOL     OW20377   6.777   6.078   5.301
 6493SOL    HW120378   6.819   6.013   5.237
 6493SOL    HW220379   6.701   6.034   5.348
 6494SOL     OW20380   0.027   2.575   3.363
 6494SOL    HW120381   7.009   2.484   3.359
 6494SOL    HW220382   0.126   2.567   3.374
 6495SOL     OW20383   5.152   4.728   2.494
 6495SOL    HW120384   5.172   4.773   2.581
 6495SOL    HW220385   5.060   4.752   2.464
 6496SOL     OW20386   7.020   6.759   3.333
 6496SOL    HW120387   0.049   6.837   3.298
 6496SOL    HW220388   0.001   6.684   3.268
 6497SOL     OW20389   0.784   1.075   1.089
 6497SOL    HW120390   0.842   0.996   1.109
 6497SOL    HW220391   0.734   1.101   1.172
 6498SOL     OW20392   1.265   3.366   4.479
 6498SOL    HW120393   1.247   3.273   4.448
 6498SOL    HW220394   1.345   3.402   4.432
 6499SOL     OW20395   5.852   2.190   3.240
 6499SOL    HW120396   5.905   2.120   3.192
 6499SOL    HW220397   5.807   2.249   3.173
 6500SOL     OW20398   5.353   5.058   1.729
 6500SOL    HW120399   5.398   4.990   1.787
 6500SOL    HW220400   5.360   5.030   1.633
 6501SOL     OW20401   6.858   4.261   0.787
 6501SOL    HW120402   6.874   4.335   0.722
 6501SOL    HW220403   6.820   4.298   0.872
 6502SOL     OW20404   0.778   4.482   2.225
 6502SOL    HW120405   0.710   4.456   2.157
 6502SOL    HW220406   0.857   4.421   2.218
 6503SOL     OW20407   4.279   1.092   3.951
 6503SOL    HW120408   4.373   1.108   3.921
 6503SOL    HW220409   4.240   1.016   3.899
 6504SOL     OW20410   2.206   2.195   0.631
 6504SOL    HW120411   2.161   2.271   0.677
 6504SOL    HW220412   2.148   2.161   0.556
 6505SOL     OW20413   5.679   5.346   1.141
 6505SOL    HW120414   5.730   5.352   1.056
 6505SOL    HW220415   5.742   5.331   1.217
 6506SOL     OW20416   1.953   1.494   1.606
 6506SOL    HW120417   2.036   1.456   1.647
 6506SOL    HW220418   1.962   1.497   1.507
 6507SOL     OW20419   2.520   0.293   1.646
 6507SOL    HW120420   2.430   0.261   1.617
 6507SOL    HW220421   2.548   0.369   1.587
 6508SOL     OW20422   1.349   3.001   1.934
 6508SOL    HW120423   1.307   3.035   1.850
 6508SOL    HW220424   1.391   3.077   1.983
 6509SOL     OW20425   0.643   3.047   4.070
 6509SOL    HW120426   0.600   3.136   4.054
 6509SOL    HW220427   0.712   3.056   4.142
 6510SOL     OW20428   6.414   4.025   0.063
 6510SOL    HW120429   6.328   3.998   0.020
 6510SOL    HW220430   6.400   4.038   0.161
 6511SOL     OW20431   0.116   6.553   6.182
 6511SOL    HW120432   0.100   6.455   6.197
 6511SOL    HW220433   0.207   6.577   6.217
 6512SOL     OW20434   5.199   6.797   4.011
 6512SOL    HW120435   5.225   6.877   4.066
 6512SOL    HW220436   5.233   6.714   4.056
 6513SOL     OW20437   1.169   6.965   3.722
 6513SOL    HW120438   1.208   6.931   3.636
 6513SOL    HW220439   1.238   7.020   3.770
 6514SOL     OW20440   2.988   0.803   4.160
 6514SOL    HW120441   2.958   0.711   4.186
 6514SOL    HW220442   2.920   0.844   4.100
 6515SOL     OW20443   1.647   1.657   3.625
 6515SOL    HW120444   1.589   1.729   3.586
 6515SOL    HW220445   1.667   1.589   3.554
 6516SOL     OW20446   2.419   1.982   5.408
 6516SOL    HW120447   2.451   1.951   5.497
 6516SOL    HW220448   2.319   1.975   5.403
 6517SOL     OW20449   2.956   2.075   1.571
 6517SOL    HW120450   3.029   2.093   1.506
 6517SOL    HW220451   2.914   2.162   1.599
 6518SOL     OW20452   4.917   6.222   1.481
 6518SOL    HW120453   4.840   6.268   1.526
 6518SOL    HW220454   4.994   6.285   1.475
 6519SOL     OW20455   0.352   1.763   3.872
 6519SOL    HW120456   0.410   1.748   3.792
 6519SOL    HW220457   0.410   1.778   3.952
 6520SOL     OW20458   6.216   5.031   1.380
 6520SOL    HW120459   6.306   5.024   1.337
 6520SOL    HW220460   6.156   5.087   1.324
 6521SOL     OW20461   1.102   2.370   5.997
 6521SOL    HW120462   1.050   2.290   6.028
 6521SOL    HW220463   1.189   2.339   5.956
 6522SOL     OW20464   2.296   4.871   4.154
 6522SOL    HW120465   2.201   4.876   4.122
 6522SOL    HW220466   2.336   4.784   4.123
 6523SOL     OW20467   2.403   2.265   1.403
 6523SOL    HW120468   2.480   2.319   1.369
 6523SOL    HW220469   2.403   2.264   1.503
 6524SOL     OW20470   4.134   2.010   5.493
 6524SOL    HW120471   4.184   2.086   5.452
 6524SOL    HW220472   4.165   1.997   5.588
 6525SOL     OW20473   0.239   2.445   4.881
 6525SOL    HW120474   0.314   2.439   4.815
 6525SOL    HW220475   0.193   2.533   4.872
 6526SOL     OW20476   1.659   6.651   3.127
 6526SOL    HW120477   1.573   6.671   3.173
 6526SOL    HW220478   1.733   6.700   3.172
 6527SOL     OW20479   2.078   1.207   4.600
 6527SOL    HW120480   2.128   1.166   4.677
 6527SOL    HW220481   2.041   1.296   4.628
 6528SOL     OW20482   6.449   0.519   2.866
 6528SOL    HW120483   6.382   0.517   2.792
 6528SOL    HW220484   6.446   0.608   2.911
 6529SOL     OW20485   6.362   3.360   2.179
 6529SOL    HW120486   6.432   3.292   2.199
 6529SOL    HW220487   6.290   3.355   2.249
 6530SOL     OW20488   6.650   1.165   0.457
 6530SOL    HW120489   6.601   1.221   0.525
 6530SOL    HW220490   6.673   1.221   0.378
 6531SOL     OW20491   5.152   1.948   5.819
 6531SOL    HW120492   5.106   1.865   5.791
 6531SOL    HW220493   5.247   1.947   5.786
 6532SOL     OW20494   2.172   1.064   7.006
 6532SOL    HW120495   2.233   1.129   0.029
 6532SOL    HW220496   2.156   0.986   0.044
 6533SOL     OW20497   5.533   0.880   6.943
 6533SOL    HW120498   5.623   0.869   6.985
 6533SOL    HW220499   5.470   0.920   7.010
 6534SOL     OW20500   4.140   1.954   7.000
 6534SOL    HW120501   4.143   2.044   6.956
 6534SOL    HW220502   4.214   1.948   0.045
 6535SOL     OW20503   1.839   2.074   4.333
 6535SOL    HW120504   1.746   2.072   4.297
 6535SOL    HW220505   1.885   1.987   4.315
 6536SOL     OW20506   0.364   1.487   1.241
 6536SOL    HW120507   0.301   1.553   1.282
 6536SOL    HW220508   0.374   1.507   1.143
 6537SOL     OW20509   6.865   0.940   5.793
 6537SOL    HW120510   6.954   0.905   5.820
 6537SOL    HW220511   6.797   0.866   5.797
 6538SOL     OW20512   3.212   2.175   5.871
 6538SOL    HW120513   3.274   2.171   5.793
 6538SOL    HW220514   3.187   2.270   5.889
 6539SOL     OW20515   3.138   0.958   6.821
 6539SOL    HW120516   3.062   0.999   6.871
 6539SOL    HW220517   3.188   0.895   6.881
 6540SOL     OW20518   3.676   2.145   3.363
 6540SOL    HW120519   3.579   2.130   3.349
 6540SOL    HW220520   3.723   2.145   3.275
 6541SOL     OW20521   3.096   1.959   5.064
 6541SOL    HW120522   3.009   2.002   5.087
 6541SOL    HW220523   3.110   1.879   5.122
 6542SOL     OW20524   4.111   5.105   2.598
 6542SOL    HW120525   4.121   5.008   2.617
 6542SOL    HW220526   4.086   5.119   2.503
 6543SOL     OW20527   1.463   6.479   5.929
 6543SOL    HW120528   1.512   6.465   6.016
 6543SOL    HW220529   1.521   6.532   5.867
 6544SOL     OW20530   1.140   5.038   2.969
 6544SOL    HW120531   1.129   4.973   3.044
 6544SOL    HW220532   1.216   5.009   2.911
 6545SOL     OW20533   6.178   2.707   6.860
 6545SOL    HW120534   6.181   2.612   6.893
 6545SOL    HW220535   6.195   2.708   6.761
 6546SOL     OW20536   3.598   4.764   6.403
 6546SOL    HW120537   3.599   4.703   6.324
 6546SOL    HW220538   3.616   4.712   6.486
 6547SOL     OW20539   4.336   1.087   6.433
 6547SOL    HW120540   4.261   1.024   6.411
 6547SOL    HW220541   4.423   1.048   6.402
 6548SOL     OW20542   4.371   3.815   5.488
 6548SOL    HW120543   4.385   3.758   5.408
 6548SOL    HW220544   4.455   3.820   5.542
 6549SOL     OW20545   2.582   1.783   2.334
 6549SOL    HW120546   2.537   1.863   2.374
 6549SOL    HW220547   2.657   1.813   2.276
 6550SOL     OW20548   0.739   5.953   2.417
 6550SOL    HW120549   0.695   5.863   2.426
 6550SOL    HW220550   0.681   6.023   2.458
 6551SOL     OW20551   3.465   5.384   2.333
 6551SOL    HW120552   3.377   5.387   2.378
 6551SOL    HW220553   3.456   5.337   2.245
 6552SOL     OW20554   4.975   4.933   6.176
 6552SOL    HW120555   5.015   4.872   6.244
 6552SOL    HW220556   5.047   4.982   6.129
 6553SOL     OW20557   6.514   3.694   2.835
 6553SOL    HW120558   6.490   3.642   2.753
 6553SOL    HW220559   6.472   3.784   2.831
 6554SOL     OW20560   6.448   3.250   4.477
 6554SOL    HW120561   6.508   3.232   4.399
 6554SOL    HW220562   6.469   3.340   4.515
 6555SOL     OW20563   0.510   0.874   1.198
 6555SOL    HW120564   0.458   0.951   1.160
 6555SOL    HW220565   0.560   0.904   1.279
 6556SOL     OW20566   2.209   0.416   3.036
 6556SOL    HW120567   2.149   0.339   3.016
 6556SOL    HW220568   2.286   0.416   2.972
 6557SOL     OW20569   4.683   6.525   0.518
 6557SOL    HW120570   4.644   6.564   0.435
 6557SOL    HW220571   4.777   6.497   0.501
 6558SOL     OW20572   5.469   6.685   6.231
 6558SOL    HW120573   5.547   6.678   6.169
 6558SOL    HW220574   5.393   6.731   6.184
 6559SOL     OW20575   3.092   3.706   0.974
 6559SOL    HW120576   3.132   3.796   0.991
 6559SOL    HW220577   3.025   3.685   1.045
 6560SOL     OW20578   4.352   2.122   0.864
 6560SOL    HW120579   4.396   2.051   0.919
 6560SOL    HW220580   4.327   2.199   0.923
 6561SOL     OW20581   3.059   3.117   4.575
 6561SOL    HW120582   3.045   3.104   4.674
 6561SOL    HW220583   3.125   3.049   4.542
 6562SOL     OW20584   6.995   4.566   4.811
 6562SOL    HW120585   0.050   4.578   4.748
 6562SOL    HW220586   6.909   4.576   4.761
 6563SOL     OW20587   0.436   6.038   2.644
 6563SOL    HW120588   0.497   6.110   2.609
 6563SOL    HW220589   0.397   5.988   2.567
 6564SOL     OW20590   1.836   5.229   3.140
 6564SOL    HW120591   1.864   5.134   3.152
 6564SOL    HW220592   1.899   5.274   3.076
 6565SOL     OW20593   0.127   4.038   5.886
 6565SOL    HW120594   0.180   4.116   5.920
 6565SOL    HW220595   0.180   3.954   5.899
 6566SOL     OW20596   4.419   0.635   0.622
 6566SOL    HW120597   4.483   0.558   0.625
 6566SOL    HW220598   4.470   0.720   0.608
 6567SOL     OW20599   6.940   2.336   0.507
 6567SOL    HW120600   6.908   2.427   0.481
 6567SOL    HW220601   6.868   2.289   0.557
 6568SOL     OW20602   5.764   3.228   1.730
 6568SOL    HW120603   5.803   3.223   1.822
 6568SOL    HW220604   5.667   3.207   1.734
 6569SOL     OW20605   0.981   4.984   5.942
 6569SOL    HW120606   0.981   4.896   5.893
 6569SOL    HW220607   1.071   5.027   5.933
 6570SOL     OW20608   1.108   3.822   1.856
 6570SOL    HW120609   1.044   3.833   1.781
 6570SOL    HW220610   1.195   3.786   1.821
 6571SOL     OW20611   2.730   5.537   4.831
 6571SOL    HW120612   2.770   5.558   4.741
 6571SOL    HW220613   2.697   5.622   4.872
 6572SOL     OW20614   1.333   3.039   5.853
 6572SOL    HW120615   1.379   3.094   5.784
 6572SOL    HW220616   1.293   2.957   5.811
 6573SOL     OW20617   1.137   2.245   1.739
 6573SOL    HW120618   1.038   2.232   1.747
 6573SOL    HW220619   1.168   2.307   1.811
 6574SOL     OW20620   2.023   4.800   4.410
 6574SOL    HW120621   1.962   4.871   4.376
 6574SOL    HW220622   2.092   4.841   4.470
 6575SOL     OW20623   0.808   1.418   2.478
 6575SOL    HW120624   0.848   1.377   2.396
 6575SOL    HW220625   0.740   1.486   2.451
 6576SOL     OW20626   0.222   5.380   4.853
 6576SOL    HW120627   0.238   5.472   4.890
 6576SOL    HW220628   0.289   5.362   4.780
 6577SOL     OW20629   1.025   4.299   5.909
 6577SOL    HW120630   1.077   4.277   5.825
 6577SOL    HW220631   0.928   4.306   5.887
 6578SOL     OW20632   5.380   5.961   4.783
 6578SOL    HW120633   5.469   5.976   4.741
 6578SOL    HW220634   5.365   5.863   4.796
 6579SOL     OW20635   1.128   4.222   3.408
 6579SOL    HW120636   1.120   4.177   3.319
 6579SOL    HW220637   1.219   4.262   3.417
 6580SOL     OW20638   4.935   2.783   0.777
 6580SOL    HW120639   4.874   2.707   0.801
 6580SOL    HW220640   4.899   2.830   0.697
 6581SOL     OW20641   2.446   2.276   5.492
 6581SOL    HW120642   2.437   2.207   5.421
 6581SOL    HW220643   2.542   2.306   5.498
 6582SOL     OW20644   5.934   0.933   2.220
 6582SOL    HW120645   5.887   0.935   2.308
 6582SOL    HW220646   6.026   0.972   2.231
 6583SOL     OW20647   6.008   0.738   6.099
 6583SOL    HW120648   5.989   0.682   6.019
 6583SOL    HW220649   5.948   0.818   6.100
 6584SOL     OW20650   6.101   2.095   0.222
 6584SOL    HW120651   6.001   2.103   0.219
 6584SOL    HW220652   6.127   1.999   0.227
 6585SOL     OW20653   1.676   0.906   2.588
 6585SOL    HW120654   1.582   0.904   2.623
 6585SOL    HW220655   1.682   0.969   2.511
 6586SOL     OW20656   6.011   0.693   6.355
 6586SOL    HW120657   6.011   0.685   6.255
 6586SOL    HW220658   6.011   0.601   6.395
 6587SOL     OW20659   1.197   6.428   2.506
 6587SOL    HW120660   1.292   6.452   2.486
 6587SOL    HW220661   1.193   6.377   2.592
 6588SOL     OW20662   3.621   3.660   0.372
 6588SOL    HW120663   3.543   3.717   0.347
 6588SOL    HW220664   3.640   3.595   0.299
 6589SOL     OW20665   4.354   1.981   6.457
 6589SOL    HW120666   4.359   2.063   6.515
 6589SOL    HW220667   4.278   1.990   6.393
 6590SOL     OW20668   6.197   2.099   5.784
 6590SOL    HW120669   6.262   2.038   5.830
 6590SOL    HW220670   6.144   2.048   5.717
 6591SOL     OW20671   4.487   0.405   2.413
 6591SOL    HW120672   4.583   0.396   2.440
 6591SOL    HW220673   4.428   0.371   2.487
 6592SOL     OW20674   6.507   5.238   5.115
 6592SOL    HW120675   6.606   5.245   5.102
 6592SOL    HW220676   6.471   5.328   5.140
 6593SOL     OW20677   5.488   1.842   2.524
 6593SOL    HW120678   5.427   1.897   2.581
 6593SOL    HW220679   5.580   1.883   2.524
 6594SOL     OW20680   6.031   0.239   6.628
 6594SOL    HW120681   5.962   0.174   6.598
 6594SOL    HW220682   6.027   0.321   6.571
 6595SOL     OW20683   3.995   3.074   6.434
 6595SOL    HW120684   3.899   3.087   6.412
 6595SOL    HW220685   4.033   3.000   6.378
 6596SOL     OW20686   1.676   5.826   4.696
 6596SOL    HW120687   1.726   5.741   4.675
 6596SOL    HW220688   1.578   5.807   4.695
 6597SOL     OW20689   0.904   4.245   0.809
 6597SOL    HW120690   0.957   4.327   0.834
 6597SOL    HW220691   0.967   4.174   0.777
 6598SOL     OW20692   3.356   6.306   4.235
 6598SOL    HW120693   3.445   6.293   4.279
 6598SOL    HW220694   3.287   6.325   4.305
 6599SOL     OW20695   4.062   3.404   5.875
 6599SOL    HW120696   4.151   3.444   5.851
 6599SOL    HW220697   4.047   3.322   5.820
 6600SOL     OW20698   4.397   5.065   4.796
 6600SOL    HW120699   4.363   5.059   4.703
 6600SOL    HW220700   4.413   4.973   4.832
 6601SOL     OW20701   0.995   0.867   2.167
 6601SOL    HW120702   0.976   0.916   2.082
 6601SOL    HW220703   0.950   0.778   2.166
 6602SOL     OW20704   5.089   1.407   0.255
 6602SOL    HW120705   5.150   1.478   0.289
 6602SOL    HW220706   5.001   1.447   0.230
 6603SOL     OW20707   3.447   2.084   1.941
 6603SOL    HW120708   3.435   2.015   2.013
 6603SOL    HW220709   3.522   2.145   1.966
 6604SOL     OW20710   4.318   4.798   4.485
 6604SOL    HW120711   4.303   4.733   4.410
 6604SOL    HW220712   4.281   4.760   4.570
 6605SOL     OW20713   4.581   5.575   1.054
 6605SOL    HW120714   4.593   5.664   1.098
 6605SOL    HW220715   4.670   5.537   1.031
 6606SOL     OW20716   0.570   2.924   3.057
 6606SOL    HW120717   0.484   2.964   3.088
 6606SOL    HW220718   0.555   2.877   2.970
 6607SOL     OW20719   2.165   3.883   2.533
 6607SOL    HW120720   2.158   3.904   2.630
 6607SOL    HW220721   2.117   3.797   2.514
 6608SOL     OW20722   4.862   3.959   4.725
 6608SOL    HW120723   4.843   3.901   4.804
 6608SOL    HW220724   4.961   3.974   4.718
 6609SOL     OW20725   5.903   3.098   6.186
 6609SOL    HW120726   5.959   3.104   6.269
 6609SOL    HW220727   5.827   3.036   6.202
 6610SOL     OW20728   3.878   1.171   0.570
 6610SOL    HW120729   3.928   1.084   0.566
 6610SOL    HW220730   3.804   1.163   0.637
 6611SOL     OW20731   5.436   3.508   1.696
 6611SOL    HW120732   5.344   3.489   1.661
 6611SOL    HW220733   5.477   3.423   1.729
 6612SOL     OW20734   0.433   5.356   6.703
 6612SOL    HW120735   0.390   5.437   6.744
 6612SOL    HW220736   0.531   5.358   6.721
 6613SOL     OW20737   6.358   5.057   0.921
 6613SOL    HW120738   6.286   5.012   0.974
 6613SOL    HW220739   6.395   4.994   0.853
 6614SOL     OW20740   5.856   4.785   5.695
 6614SOL    HW120741   5.766   4.775   5.737
 6614SOL    HW220742   5.908   4.856   5.743
 6615SOL     OW20743   0.915   3.862   5.051
 6615SOL    HW120744   0.835   3.920   5.034
 6615SOL    HW220745   0.995   3.921   5.069
 6616SOL     OW20746   4.817   1.464   3.481
 6616SOL    HW120747   4.872   1.467   3.397
 6616SOL    HW220748   4.795   1.557   3.510
 6617SOL     OW20749   3.846   0.505   4.882
 6617SOL    HW120750   3.783   0.582   4.877
 6617SOL    HW220751   3.893   0.505   4.970
 6618SOL     OW20752   6.963   4.499   1.838
 6618SOL    HW120753   0.016   4.468   1.897
 6618SOL    HW220754   6.906   4.564   1.888
 6619SOL     OW20755   6.135   5.914   2.749
 6619SOL    HW120756   6.183   5.999   2.729
 6619SOL    HW220757   6.095   5.919   2.840
 6620SOL     OW20758   5.346   3.420   5.330
 6620SOL    HW120759   5.335   3.454   5.423
 6620SOL    HW220760   5.443   3.410   5.309
 6621SOL     OW20761   4.877   3.164   0.802
 6621SOL    HW120762   4.876   3.123   0.711
 6621SOL    HW220763   4.860   3.093   0.870
 6622SOL     OW20764   5.702   5.351   0.695
 6622SOL    HW120765   5.744   5.435   0.659
 6622SOL    HW220766   5.636   5.316   0.629
 6623SOL     OW20767   3.014   3.399   2.973
 6623SOL    HW120768   3.108   3.426   2.954
 6623SOL    HW220769   3.013   3.312   3.021
 6624SOL     OW20770   4.809   4.834   4.580
 6624SOL    HW120771   4.799   4.920   4.530
 6624SOL    HW220772   4.724   4.814   4.629
 6625SOL     OW20773   5.379   5.946   1.090
 6625SOL    HW120774   5.331   5.988   1.167
 6625SOL    HW220775   5.339   5.978   1.004
 6626SOL     OW20776   3.097   4.960   4.077
 6626SOL    HW120777   3.028   5.020   4.035
 6626SOL    HW220778   3.052   4.895   4.138
 6627SOL     OW20779   6.949   0.603   0.742
 6627SOL    HW120780   6.927   0.507   0.725
 6627SOL    HW220781   0.021   0.621   0.715
 6628SOL     OW20782   3.498   6.461   4.063
 6628SOL    HW120783   3.513   6.545   4.115
 6628SOL    HW220784   3.442   6.398   4.117
 6629SOL     OW20785   2.398   4.532   1.051
 6629SOL    HW120786   2.450   4.602   1.002
 6629SOL    HW220787   2.365   4.463   0.987
 6630SOL     OW20788   3.253   1.319   5.814
 6630SOL    HW120789   3.313   1.370   5.875
 6630SOL    HW220790   3.173   1.287   5.864
 6631SOL     OW20791   3.287   6.350   1.559
 6631SOL    HW120792   3.299   6.409   1.479
 6631SOL    HW220793   3.368   6.355   1.617
 6632SOL     OW20794   6.604   3.561   2.141
 6632SOL    HW120795   6.606   3.656   2.111
 6632SOL    HW220796   6.514   3.522   2.122
 6633SOL     OW20797   0.997   5.968   3.338
 6633SOL    HW120798   1.036   5.878   3.356
 6633SOL    HW220799   1.060   6.039   3.371
 6634SOL     OW20800   6.585   2.488   4.973
 6634SOL    HW120801   6.585   2.552   4.897
 6634SOL    HW220802   6.591   2.394   4.938
 6635SOL     OW20803   4.240   5.456   3.859
 6635SOL    HW120804   4.288   5.377   3.898
 6635SOL    HW220805   4.295   5.495   3.785
 6636SOL     OW20806   2.206   2.901   2.828
 6636SOL    HW120807   2.249   2.866   2.911
 6636SOL    HW220808   2.244   2.854   2.748
 6637SOL     OW20809   0.077   1.997   6.634
 6637SOL    HW120810   0.064   1.900   6.610
 6637SOL    HW220811   0.057   2.009   6.732
 6638SOL     OW20812   1.154   0.615   6.734
 6638SOL    HW120813   1.236   0.603   6.790
 6638SOL    HW220814   1.176   0.669   6.653
 6639SOL     OW20815   4.297   6.176   6.559
 6639SOL    HW120816   4.358   6.116   6.507
 6639SOL    HW220817   4.207   6.133   6.568
 6640SOL     OW20818   5.346   4.425   3.008
 6640SOL    HW120819   5.376   4.510   3.052
 6640SOL    HW220820   5.252   4.436   2.977
 6641SOL     OW20821   2.430   5.529   6.079
 6641SOL    HW120822   2.480   5.447   6.051
 6641SOL    HW220823   2.488   5.585   6.138
 6642SOL     OW20824   5.946   5.722   5.872
 6642SOL    HW120825   5.936   5.683   5.963
 6642SOL    HW220826   5.945   5.648   5.804
 6643SOL     OW20827   4.082   5.424   1.112
 6643SOL    HW120828   4.086   5.335   1.066
 6643SOL    HW220829   4.143   5.489   1.066
 6644SOL     OW20830   1.068   3.136   1.966
 6644SOL    HW120831   1.050   3.168   2.059
 6644SOL    HW220832   1.027   3.045   1.954
 6645SOL     OW20833   0.680   5.099   5.160
 6645SOL    HW120834   0.779   5.110   5.147
 6645SOL    HW220835   0.632   5.167   5.105
 6646SOL     OW20836   1.959   5.614   4.106
 6646SOL    HW120837   1.947   5.567   4.019
 6646SOL    HW220838   2.055   5.610   4.134
 6647SOL     OW20839   4.296   1.635   1.732
 6647SOL    HW120840   4.333   1.617   1.823
 6647SOL    HW220841   4.197   1.620   1.733
 6648SOL     OW20842   3.715   5.472   2.460
 6648SOL    HW120843   3.624   5.506   2.437
 6648SOL    HW220844   3.744   5.405   2.392
 6649SOL     OW20845   4.264   1.762   5.516
 6649SOL    HW120846   4.204   1.842   5.509
 6649SOL    HW220847   4.315   1.752   5.431
 6650SOL     OW20848   3.374   1.590   3.190
 6650SOL    HW120849   3.368   1.523   3.116
 6650SOL    HW220850   3.377   1.543   3.278
 6651SOL     OW20851   0.690   1.868   1.266
 6651SOL    HW120852   0.677   1.937   1.337
 6651SOL    HW220853   0.680   1.911   1.176
 6652SOL     OW20854   0.205   5.067   3.900
 6652SOL    HW120855   0.212   5.095   3.996
 6652SOL    HW220856   0.249   5.135   3.842
 6653SOL     OW20857   3.575   3.716   4.879
 6653SOL    HW120858   3.583   3.762   4.791
 6653SOL    HW220859   3.586   3.783   4.953
 6654SOL     OW20860   1.252   4.022   1.732
 6654SOL    HW120861   1.276   4.030   1.829
 6654SOL    HW220862   1.298   3.942   1.693
 6655SOL     OW20863   1.260   0.244   6.594
 6655SOL    HW120864   1.179   0.288   6.555
 6655SOL    HW220865   1.235   0.152   6.626
 6656SOL     OW20866   6.283   1.600   1.285
 6656SOL    HW120867   6.217   1.661   1.242
 6656SOL    HW220868   6.301   1.631   1.379
 6657SOL     OW20869   3.513   4.826   5.524
 6657SOL    HW120870   3.586   4.771   5.484
 6657SOL    HW220871   3.513   4.815   5.623
 6658SOL     OW20872   5.897   0.100   5.024
 6658SOL    HW120873   5.940   0.189   5.042
 6658SOL    HW220874   5.824   0.085   5.090
 6659SOL     OW20875   2.828   2.864   0.791
 6659SOL    HW120876   2.878   2.911   0.863
 6659SOL    HW220877   2.842   2.766   0.798
 6660SOL     OW20878   0.055   6.652   2.755
 6660SOL    HW120879   0.133   6.592   2.737
 6660SOL    HW220880   6.997   6.597   2.780
 6661SOL     OW20881   6.810   0.553   3.707
 6661SOL    HW120882   6.863   0.511   3.781
 6661SOL    HW220883   6.870   0.569   3.628
 6662SOL     OW20884   1.926   3.916   5.881
 6662SOL    HW120885   1.978   3.971   5.816
 6662SOL    HW220886   1.987   3.888   5.956
 6663SOL     OW20887   1.293   5.527   2.148
 6663SOL    HW120888   1.201   5.564   2.136
 6663SOL    HW220889   1.325   5.546   2.241
 6664SOL     OW20890   6.716   2.254   1.088
 6664SOL    HW120891   6.636   2.314   1.087
 6664SOL    HW220892   6.773   2.276   1.168
 6665SOL     OW20893   1.731   6.845   3.397
 6665SOL    HW120894   1.645   6.894   3.405
 6665SOL    HW220895   1.740   6.782   3.474
 6666SOL     OW20896   5.887   6.851   0.816
 6666SOL    HW120897   5.910   6.876   0.722
 6666SOL    HW220898   5.801   6.801   0.817
 6667SOL     OW20899   5.472   4.732   5.460
 6667SOL    HW120900   5.448   4.779   5.545
 6667SOL    HW220901   5.433   4.639   5.462
 6668SOL     OW20902   6.507   6.266   1.034
 6668SOL    HW120903   6.527   6.183   1.085
 6668SOL    HW220904   6.518   6.249   0.936
 6669SOL     OW20905   0.742   4.688   3.336
 6669SOL    HW120906   0.832   4.671   3.295
 6669SOL    HW220907   0.730   4.630   3.416
 6670SOL     OW20908   5.366   4.522   0.502
 6670SOL    HW120909   5.443   4.459   0.515
 6670SOL    HW220910   5.282   4.479   0.533
 6671SOL     OW20911   1.060   2.122   5.280
 6671SOL    HW120912   1.046   2.094   5.375
 6671SOL    HW220913   0.972   2.144   5.238
 6672SOL     OW20914   0.023   1.430   5.341
 6672SOL    HW120915   0.050   1.338   5.312
 6672SOL    HW220916   7.014   1.427   5.436
 6673SOL     OW20917   3.445   5.780   1.512
 6673SOL    HW120918   3.402   5.868   1.531
 6673SOL    HW220919   3.455   5.729   1.598
 6674SOL     OW20920   0.817   5.948   4.666
 6674SOL    HW120921   0.906   5.987   4.690
 6674SOL    HW220922   0.778   5.999   4.589
 6675SOL     OW20923   6.271   6.527   6.154
 6675SOL    HW120924   6.364   6.565   6.151
 6675SOL    HW220925   6.255   6.472   6.073
 6676SOL     OW20926   0.058   1.572   0.691
 6676SOL    HW120927   7.016   1.534   0.624
 6676SOL    HW220928   0.148   1.530   0.678
 6677SOL     OW20929   0.937   3.843   0.727
 6677SOL    HW120930   0.952   3.867   0.823
 6677SOL    HW220931   0.986   3.908   0.668
 6678SOL     OW20932   0.689   3.651   4.375
 6678SOL    HW120933   0.705   3.738   4.422
 6678SOL    HW220934   0.687   3.577   4.442
 6679SOL     OW20935   2.487   1.218   4.647
 6679SOL    HW120936   2.441   1.306   4.639
 6679SOL    HW220937   2.497   1.178   4.556
 6680SOL     OW20938   2.548   1.162   6.962
 6680SOL    HW120939   2.590   1.205   0.020
 6680SOL    HW220940   2.520   1.232   6.897
 6681SOL     OW20941   6.375   5.181   6.533
 6681SOL    HW120942   6.306   5.113   6.558
 6681SOL    HW220943   6.352   5.269   6.577
 6682SOL     OW20944   5.822   4.745   2.486
 6682SOL    HW120945   5.907   4.712   2.526
 6682SOL    HW220946   5.744   4.706   2.536
 6683SOL     OW20947   5.626   3.498   3.386
 6683SOL    HW120948   5.717   3.462   3.366
 6683SOL    HW220949   5.592   3.548   3.306
 6684SOL     OW20950   1.765   0.886   1.950
 6684SOL    HW120951   1.833   0.956   1.929
 6684SOL    HW220952   1.674   0.928   1.952
 6685SOL     OW20953   6.224   2.463   6.953
 6685SOL    HW120954   6.262   2.510   0.010
 6685SOL    HW220955   6.200   2.369   6.978
 6686SOL     OW20956   5.160   4.367   3.961
 6686SOL    HW120957   5.232   4.358   3.893
 6686SOL    HW220958   5.194   4.338   4.050
 6687SOL     OW20959   0.157   6.929   6.873
 6687SOL    HW120960   0.201   6.891   6.955
 6687SOL    HW220961   0.215   6.912   6.794
 6688SOL     OW20962   0.705   4.945   3.307
 6688SOL    HW120963   0.769   5.002   3.359
 6688SOL    HW220964   0.736   4.850   3.309
 6689SOL     OW20965   5.628   4.030   0.559
 6689SOL    HW120966   5.646   3.935   0.581
 6689SOL    HW220967   5.661   4.050   0.466
 6690SOL     OW20968   0.134   1.009   0.546
 6690SOL    HW120969   0.202   1.028   0.618
 6690SOL    HW220970   0.160   1.058   0.463
 6691SOL     OW20971   0.998   4.853   1.801
 6691SOL    HW120972   0.940   4.801   1.863
 6691SOL    HW220973   0.966   4.947   1.796
 6692SOL     OW20974   5.370   3.552   6.546
 6692SOL    HW120975   5.387   3.649   6.567
 6692SOL    HW220976   5.390   3.534   6.450
 6693SOL     OW20977   3.253   3.198   5.995
 6693SOL    HW120978   3.155   3.178   6.002
 6693SOL    HW220979   3.266   3.282   5.942
 6694SOL     OW20980   2.437   5.642   0.433
 6694SOL    HW120981   2.418   5.677   0.524
 6694SOL    HW220982   2.438   5.717   0.367
 6695SOL     OW20983   0.820   1.350   6.944
 6695SOL    HW120984   0.795   1.362   6.848
 6695SOL    HW220985   0.855   1.257   6.958
 6696SOL     OW20986   1.220   2.100   0.988
 6696SOL    HW120987   1.150   2.077   1.056
 6696SOL    HW220988   1.191   2.181   0.936
 6697SOL     OW20989   5.203   3.053   4.495
 6697SOL    HW120990   5.161   2.982   4.439
 6697SOL    HW220991   5.181   3.143   4.458
 6698SOL     OW20992   2.263   4.328   5.462
 6698SOL    HW120993   2.291   4.267   5.536
 6698SOL    HW220994   2.210   4.277   5.395
 6699SOL     OW20995   1.448   3.212   6.762
 6699SOL    HW120996   1.388   3.155   6.706
 6699SOL    HW220997   1.541   3.177   6.758
 6700SOL     OW20998   0.422   6.412   6.749
 6700SOL    HW120999   0.472   6.473   6.688
 6700SOL    HW221000   0.465   6.413   6.840
 6701SOL     OW21001   1.667   2.354   6.555
 6701SOL    HW121002   1.576   2.342   6.516
 6701SOL    HW221003   1.673   2.444   6.599
 6702SOL     OW21004   3.503   3.775   0.849
 6702SOL    HW121005   3.589   3.766   0.797
 6702SOL    HW221006   3.453   3.855   0.817
 6703SOL     OW21007   0.274   1.758   6.991
 6703SOL    HW121008   0.190   1.751   6.936
 6703SOL    HW221009   0.265   1.835   0.032
 6704SOL     OW21010   5.247   3.259   2.564
 6704SOL    HW121011   5.191   3.285   2.485
 6704SOL    HW221012   5.197   3.277   2.648
 6705SOL     OW21013   4.829   2.992   1.002
 6705SOL    HW121014   4.887   2.924   0.957
 6705SOL    HW221015   4.757   2.945   1.053
 6706SOL     OW21016   1.556   0.059   6.511
 6706SOL    HW121017   1.584   6.987   6.530
 6706SOL    HW221018   1.487   0.059   6.439
 6707SOL     OW21019   1.305   4.990   3.753
 6707SOL    HW121020   1.253   4.989   3.668
 6707SOL    HW221021   1.256   4.937   3.823
 6708SOL     OW21022   2.670   5.932   0.766
 6708SOL    HW121023   2.709   5.899   0.680
 6708SOL    HW221024   2.578   5.968   0.750
 6709SOL     OW21025   4.639   1.879   4.136
 6709SOL    HW121026   4.660   1.816   4.211
 6709SOL    HW221027   4.639   1.830   4.049
 6710SOL     OW21028   2.742   1.906   0.701
 6710SOL    HW121029   2.682   1.985   0.695
 6710SOL    HW221030   2.704   1.840   0.766
 6711SOL     OW21031   5.420   3.416   6.307
 6711SOL    HW121032   5.516   3.390   6.303
 6711SOL    HW221033   5.394   3.460   6.221
 6712SOL     OW21034   3.197   6.424   0.111
 6712SOL    HW121035   3.126   6.495   0.114
 6712SOL    HW221036   3.218   6.394   0.204
 6713SOL     OW21037   0.415   2.278   3.216
 6713SOL    HW121038   0.470   2.218   3.158
 6713SOL    HW221039   0.438   2.374   3.197
 6714SOL     OW21040   6.415   1.297   5.474
 6714SOL    HW121041   6.467   1.280   5.391
 6714SOL    HW221042   6.347   1.369   5.457
 6715SOL     OW21043   4.733   2.491   0.932
 6715SOL    HW121044   4.690   2.475   1.022
 6715SOL    HW221045   4.712   2.414   0.872
 6716SOL     OW21046   3.422   5.550   1.737
 6716SOL    HW121047   3.474   5.616   1.790
 6716SOL    HW221048   3.480   5.470   1.719
 6717SOL     OW21049   3.525   0.585   6.848
 6717SOL    HW121050   3.562   0.526   6.919
 6717SOL    HW221051   3.579   0.669   6.843
 6718SOL     OW21052   4.256   0.345   6.457
 6718SOL    HW121053   4.225   0.421   6.514
 6718SOL    HW221054   4.248   0.371   6.361
 6719SOL     OW21055   1.295   2.639   4.694
 6719SOL    HW121056   1.327   2.564   4.752
 6719SOL    HW221057   1.329   2.626   4.601
 6720SOL     OW21058   2.037   4.299   0.727
 6720SOL    HW121059   2.126   4.342   0.718
 6720SOL    HW221060   1.996   4.327   0.814
 6721SOL     OW21061   5.729   6.128   2.965
 6721SOL    HW121062   5.704   6.174   3.051
 6721SOL    HW221063   5.691   6.036   2.963
 6722SOL     OW21064   3.504   4.250   6.342
 6722SOL    HW121065   3.589   4.301   6.346
 6722SOL    HW221066   3.450   4.280   6.263
 6723SOL     OW21067   3.419   1.505   2.770
 6723SOL    HW121068   3.507   1.540   2.803
 6723SOL    HW221069   3.428   1.481   2.674
 6724SOL     OW21070   3.397   4.786   5.939
 6724SOL    HW121071   3.309   4.765   5.982
 6724SOL    HW221072   3.398   4.750   5.846
 6725SOL     OW21073   0.381   6.308   1.528
 6725SOL    HW121074   0.448   6.251   1.480
 6725SOL    HW221075   0.362   6.390   1.474
 6726SOL     OW21076   2.094   2.458   1.838
 6726SOL    HW121077   2.081   2.421   1.930
 6726SOL    HW221078   2.085   2.558   1.841
 6727SOL     OW21079   2.767   3.346   1.467
 6727SOL    HW121080   2.691   3.307   1.519
 6727SOL    HW221081   2.847   3.353   1.526
 6728SOL     OW21082   4.182   2.033   3.757
 6728SOL    HW121083   4.224   1.947   3.786
 6728SOL    HW221084   4.253   2.098   3.730
 6729SOL     OW21085   4.118   5.798   3.549
 6729SOL    HW121086   4.091   5.706   3.520
 6729SOL    HW221087   4.044   5.862   3.531
 6730SOL     OW21088   0.791   6.945   2.524
 6730SOL    HW121089   0.862   6.898   2.473
 6730SOL    HW221090   0.831   7.020   2.576
 6731SOL     OW21091   1.685   4.077   1.084
 6731SOL    HW121092   1.701   4.163   1.133
 6731SOL    HW221093   1.682   4.001   1.149
 6732SOL     OW21094   3.429   5.914   6.917
 6732SOL    HW121095   3.402   6.006   6.889
 6732SOL    HW221096   3.347   5.861   6.939
 6733SOL     OW21097   6.177   5.716   4.722
 6733SOL    HW121098   6.139   5.649   4.785
 6733SOL    HW221099   6.251   5.674   4.669
 6734SOL     OW21100   2.676   4.045   6.909
 6734SOL    HW121101   2.666   3.957   6.863
 6734SOL    HW221102   2.736   4.104   6.854
 6735SOL     OW21103   0.873   6.620   6.465
 6735SOL    HW121104   0.809   6.574   6.404
 6735SOL    HW221105   0.950   6.559   6.485
 6736SOL     OW21106   2.299   4.216   2.141
 6736SOL    HW121107   2.347   4.287   2.193
 6736SOL    HW221108   2.239   4.164   2.203
 6737SOL     OW21109   1.444   0.108   1.397
 6737SOL    HW121110   1.375   0.037   1.389
 6737SOL    HW221111   1.535   0.066   1.398
 6738SOL     OW21112   5.537   2.076   0.512
 6738SOL    HW121113   5.595   2.041   0.586
 6738SOL    HW221114   5.449   2.103   0.550
 6739SOL     OW21115   3.948   5.663   6.122
 6739SOL    HW121116   3.947   5.746   6.178
 6739SOL    HW221117   3.912   5.683   6.031
 6740SOL     OW21118   5.627   2.785   4.822
 6740SOL    HW121119   5.534   2.818   4.840
 6740SOL    HW221120   5.690   2.862   4.818
 6741SOL     OW21121   6.903   0.631   5.162
 6741SOL    HW121122   7.000   0.617   5.143
 6741SOL    HW221123   6.856   0.659   5.079
 6742SOL     OW21124   6.134   6.504   5.048
 6742SOL    HW121125   6.163   6.429   4.988
 6742SOL    HW221126   6.200   6.579   5.041
 6743SOL     OW21127   5.724   2.243   0.941
 6743SOL    HW121128   5.666   2.191   0.879
 6743SOL    HW221129   5.677   2.257   1.028
 6744SOL     OW21130   4.552   1.067   3.847
 6744SOL    HW121131   4.579   0.991   3.907
 6744SOL    HW221132   4.608   1.147   3.868
 6745SOL     OW21133   0.731   3.253   2.999
 6745SOL    HW121134   0.638   3.255   3.036
 6745SOL    HW221135   0.768   3.160   3.005
 6746SOL     OW21136   6.302   6.473   0.411
 6746SOL    HW121137   6.320   6.514   0.501
 6746SOL    HW221138   6.221   6.414   0.417
 6747SOL     OW21139   5.229   5.159   5.755
 6747SOL    HW121140   5.207   5.256   5.746
 6747SOL    HW221141   5.171   5.118   5.825
 6748SOL     OW21142   6.035   0.309   2.260
 6748SOL    HW121143   6.063   0.344   2.171
 6748SOL    HW221144   5.950   0.353   2.288
 6749SOL     OW21145   3.138   4.966   1.206
 6749SOL    HW121146   3.164   4.928   1.295
 6749SOL    HW221147   3.198   4.928   1.135
 6750SOL     OW21148   2.106   2.959   4.846
 6750SOL    HW121149   2.173   3.001   4.907
 6750SOL    HW221150   2.151   2.893   4.787
 6751SOL     OW21151   5.222   3.045   5.840
 6751SOL    HW121152   5.216   2.988   5.758
 6751SOL    HW221153   5.194   3.138   5.818
 6752SOL     OW21154   5.403   1.157   0.538
 6752SOL    HW121155   5.430   1.176   0.444
 6752SOL    HW221156   5.478   1.110   0.586
 6753SOL     OW21157   5.791   0.298   6.075
 6753SOL    HW121158   5.881   0.321   6.113
 6753SOL    HW221159   5.785   0.333   5.982
 6754SOL     OW21160   4.095   1.074   6.727
 6754SOL    HW121161   4.056   1.090   6.818
 6754SOL    HW221162   4.030   1.103   6.657
 6755SOL     OW21163   4.822   1.747   3.061
 6755SOL    HW121164   4.770   1.662   3.055
 6755SOL    HW221165   4.883   1.754   2.983
 6756SOL     OW21166   4.182   4.911   3.098
 6756SOL    HW121167   4.161   4.911   3.196
 6756SOL    HW221168   4.231   4.995   3.075
 6757SOL     OW21169   6.596   3.835   2.094
 6757SOL    HW121170   6.542   3.847   2.178
 6757SOL    HW221171   6.556   3.890   2.021
 6758SOL     OW21172   0.160   1.987   2.058
 6758SOL    HW121173   0.101   2.034   1.992
 6758SOL    HW221174   0.213   2.055   2.109
 6759SOL     OW21175   6.500   5.810   4.336
 6759SOL    HW121176   6.404   5.816   4.307
 6759SOL    HW221177   6.552   5.757   4.269
 6760SOL     OW21178   1.202   3.690   5.315
 6760SOL    HW121179   1.236   3.598   5.335
 6760SOL    HW221180   1.120   3.707   5.371
 6761SOL     OW21181   6.472   3.147   6.809
 6761SOL    HW121182   6.409   3.211   6.853
 6761SOL    HW221183   6.475   3.062   6.860
 6762SOL     OW21184   6.688   1.863   4.514
 6762SOL    HW121185   6.704   1.819   4.603
 6762SOL    HW221186   6.592   1.893   4.509
 6763SOL     OW21187   5.450   6.689   5.107
 6763SOL    HW121188   5.513   6.620   5.142
 6763SOL    HW221189   5.356   6.655   5.116
 6764SOL     OW21190   1.819   3.662   7.018
 6764SOL    HW121191   1.784   3.572   6.995
 6764SOL    HW221192   1.915   3.655   0.024
 6765SOL     OW21193   5.537   5.469   2.444
 6765SOL    HW121194   5.491   5.533   2.506
 6765SOL    HW221195   5.620   5.434   2.488
 6766SOL     OW21196   2.465   2.378   5.171
 6766SOL    HW121197   2.443   2.346   5.263
 6766SOL    HW221198   2.393   2.441   5.140
 6767SOL     OW21199   0.686   2.704   5.953
 6767SOL    HW121200   0.764   2.707   5.890
 6767SOL    HW221201   0.700   2.771   6.026
 6768SOL     OW21202   6.662   0.351   5.355
 6768SOL    HW121203   6.684   0.378   5.448
 6768SOL    HW221204   6.563   0.353   5.342
 6769SOL     OW21205   1.129   2.797   6.207
 6769SOL    HW121206   1.154   2.793   6.110
 6769SOL    HW221207   1.074   2.717   6.231
 6770SOL     OW21208   0.189   2.655   4.069
 6770SOL    HW121209   0.179   2.590   3.994
 6770SOL    HW221210   0.258   2.622   4.134
 6771SOL     OW21211   6.196   1.983   1.346
 6771SOL    HW121212   6.264   1.976   1.273
 6771SOL    HW221213   6.107   2.007   1.307
 6772SOL     OW21214   2.022   6.724   2.142
 6772SOL    HW121215   1.940   6.776   2.120
 6772SOL    HW221216   2.029   6.645   2.081
 6773SOL     OW21217   1.859   1.694   3.247
 6773SOL    HW121218   1.876   1.740   3.334
 6773SOL    HW221219   1.831   1.761   3.179
 6774SOL     OW21220   3.773   0.933   5.475
 6774SOL    HW121221   3.785   0.992   5.554
 6774SOL    HW221222   3.861   0.917   5.431
 6775SOL     OW21223   1.825   3.445   5.384
 6775SOL    HW121224   1.919   3.454   5.350
 6775SOL    HW221225   1.763   3.498   5.327
 6776SOL     OW21226   3.133   3.160   4.064
 6776SOL    HW121227   3.047   3.194   4.026
 6776SOL    HW221228   3.151   3.205   4.151
 6777SOL     OW21229   6.557   0.368   5.063
 6777SOL    HW121230   6.603   0.343   4.978
 6777SOL    HW221231   6.599   0.319   5.139
 6778SOL     OW21232   6.158   5.973   1.297
 6778SOL    HW121233   6.172   5.912   1.219
 6778SOL    HW221234   6.195   6.064   1.276
 6779SOL     OW21235   5.424   2.996   5.214
 6779SOL    HW121236   5.494   2.987   5.285
 6779SOL    HW221237   5.371   2.911   5.210
 6780SOL     OW21238   4.814   0.923   2.305
 6780SOL    HW121239   4.773   0.950   2.217
 6780SOL    HW221240   4.755   0.955   2.379
 6781SOL     OW21241   5.618   3.864   3.417
 6781SOL    HW121242   5.670   3.793   3.367
 6781SOL    HW221243   5.531   3.826   3.446
 6782SOL     OW21244   6.397   1.801   3.060
 6782SOL    HW121245   6.370   1.768   2.970
 6782SOL    HW221246   6.432   1.895   3.052
 6783SOL     OW21247   0.532   6.723   7.021
 6783SOL    HW121248   0.542   6.627   6.994
 6783SOL    HW221249   0.620   6.769   7.017
 6784SOL     OW21250   1.367   4.830   6.926
 6784SOL    HW121251   1.288   4.832   6.864
 6784SOL    HW221252   1.371   4.915   6.978
 6785SOL     OW21253   5.383   4.368   1.087
 6785SOL    HW121254   5.394   4.370   1.186
 6785SOL    HW221255   5.432   4.445   1.046
 6786SOL     OW21256   6.178   1.628   6.145
 6786SOL    HW121257   6.154   1.539   6.185
 6786SOL    HW221258   6.098   1.688   6.146
 6787SOL     OW21259   3.939   2.262   1.756
 6787SOL    HW121260   3.875   2.287   1.829
 6787SOL    HW221261   3.932   2.328   1.681
 6788SOL     OW21262   1.215   4.978   1.476
 6788SOL    HW121263   1.299   4.925   1.464
 6788SOL    HW221264   1.146   4.920   1.520
 6789SOL     OW21265   6.502   3.035   2.464
 6789SOL    HW121266   6.428   3.102   2.471
 6789SOL    HW221267   6.492   2.983   2.379
 6790SOL     OW21268   1.490   6.030   0.080
 6790SOL    HW121269   1.464   5.934   0.086
 6790SOL    HW221270   1.553   6.052   0.155
 6791SOL     OW21271   2.311   6.524   3.769
 6791SOL    HW121272   2.406   6.546   3.749
 6791SOL    HW221273   2.286   6.558   3.859
 6792SOL     OW21274   2.992   6.125   6.724
 6792SOL    HW121275   2.920   6.134   6.793
 6792SOL    HW221276   3.036   6.036   6.733
 6793SOL     OW21277   1.984   3.128   5.897
 6793SOL    HW121278   2.016   3.222   5.909
 6793SOL    HW221279   2.056   3.074   5.852
 6794SOL     OW21280   4.128   2.076   4.006
 6794SOL    HW121281   4.208   2.114   4.052
 6794SOL    HW221282   4.144   2.077   3.907
 6795SOL     OW21283   0.750   0.262   2.956
 6795SOL    HW121284   0.676   0.198   2.976
 6795SOL    HW221285   0.752   0.281   2.858
 6796SOL     OW21286   5.491   3.070   2.172
 6796SOL    HW121287   5.483   3.169   2.173
 6796SOL    HW221288   5.402   3.028   2.189
 6797SOL     OW21289   2.597   4.220   0.549
 6797SOL    HW121290   2.584   4.256   0.641
 6797SOL    HW221291   2.665   4.275   0.501
 6798SOL     OW21292   5.449   2.241   1.449
 6798SOL    HW121293   5.410   2.200   1.531
 6798SOL    HW221294   5.540   2.201   1.432
 6799SOL     OW21295   4.087   6.874   2.773
 6799SOL    HW121296   4.142   6.792   2.786
 6799SOL    HW221297   4.147   6.954   2.765
 6800SOL     OW21298   6.899   2.071   3.296
 6800SOL    HW121299   6.888   2.162   3.335
 6800SOL    HW221300   6.827   2.011   3.329
 6801SOL     OW21301   1.860   5.636   4.587
 6801SOL    HW121302   1.886   5.573   4.513
 6801SOL    HW221303   1.873   5.590   4.675
 6802SOL     OW21304   2.832   4.772   2.473
 6802SOL    HW121305   2.786   4.727   2.397
 6802SOL    HW221306   2.923   4.731   2.486
 6803SOL     OW21307   5.843   5.133   6.105
 6803SOL    HW121308   5.816   5.188   6.027
 6803SOL    HW221309   5.943   5.128   6.110
 6804SOL     OW21310   3.005   5.974   1.708
 6804SOL    HW121311   3.009   5.879   1.739
 6804SOL    HW221312   2.910   6.006   1.712
 6805SOL     OW21313   1.071   4.077   3.662
 6805SOL    HW121314   1.070   4.145   3.589
 6805SOL    HW221315   1.044   3.988   3.625
 6806SOL     OW21316   6.119   3.383   2.333
 6806SOL    HW121317   6.037   3.366   2.277
 6806SOL    HW221318   6.139   3.481   2.334
 6807SOL     OW21319   4.191   3.442   2.205
 6807SOL    HW121320   4.125   3.497   2.257
 6807SOL    HW221321   4.284   3.465   2.235
 6808SOL     OW21322   3.018   6.074   4.319
 6808SOL    HW121323   3.014   6.020   4.235
 6808SOL    HW221324   2.958   6.033   4.388
 6809SOL     OW21325   6.109   1.836   0.211
 6809SOL    HW121326   6.113   1.827   0.310
 6809SOL    HW221327   6.022   1.800   0.178
 6810SOL     OW21328   3.634   0.100   5.182
 6810SOL    HW121329   3.649   0.189   5.138
 6810SOL    HW221330   3.605   0.116   5.277
 6811SOL     OW21331   6.437   1.706   1.057
 6811SOL    HW121332   6.374   1.672   1.127
 6811SOL    HW221333   6.387   1.759   0.989
 6812SOL     OW21334   4.081   4.442   5.791
 6812SOL    HW121335   4.024   4.369   5.752
 6812SOL    HW221336   4.085   4.431   5.890
 6813SOL     OW21337   1.295   3.674   1.257
 6813SOL    HW121338   1.388   3.641   1.242
 6813SOL    HW221339   1.232   3.621   1.200
 6814SOL     OW21340   5.348   2.536   1.487
 6814SOL    HW121341   5.401   2.452   1.491
 6814SOL    HW221342   5.252   2.515   1.472
 6815SOL     OW21343   1.722   5.767   1.715
 6815SOL    HW121344   1.638   5.739   1.670
 6815SOL    HW221345   1.751   5.695   1.779
 6816SOL     OW21346   4.903   0.818   3.012
 6816SOL    HW121347   4.848   0.874   2.950
 6816SOL    HW221348   4.848   0.742   3.046
 6817SOL     OW21349   6.095   0.755   0.701
 6817SOL    HW121350   6.083   0.686   0.773
 6817SOL    HW221351   6.188   0.751   0.666
 6818SOL     OW21352   0.327   6.247   5.525
 6818SOL    HW121353   0.320   6.306   5.445
 6818SOL    HW221354   0.349   6.154   5.496
 6819SOL     OW21355   6.230   4.324   0.452
 6819SOL    HW121356   6.324   4.313   0.420
 6819SOL    HW221357   6.219   4.282   0.542
 6820SOL     OW21358   2.895   4.441   1.440
 6820SOL    HW121359   2.967   4.504   1.468
 6820SOL    HW221360   2.843   4.412   1.520
 6821SOL     OW21361   2.578   3.930   6.332
 6821SOL    HW121362   2.488   3.962   6.362
 6821SOL    HW221363   2.591   3.835   6.360
 6822SOL     OW21364   1.097   4.304   5.139
 6822SOL    HW121365   1.175   4.351   5.181
 6822SOL    HW221366   1.015   4.360   5.150
 6823SOL     OW21367   6.332   3.308   5.474
 6823SOL    HW121368   6.289   3.226   5.436
 6823SOL    HW221369   6.409   3.335   5.416
 6824SOL     OW21370   1.646   1.169   3.673
 6824SOL    HW121371   1.679   1.084   3.714
 6824SOL    HW221372   1.549   1.182   3.696
 6825SOL     OW21373   5.131   5.836   1.387
 6825SOL    HW121374   5.168   5.807   1.476
 6825SOL    HW221375   5.087   5.758   1.342
 6826SOL     OW21376   5.457   1.073   4.231
 6826SOL    HW121377   5.528   1.050   4.298
 6826SOL    HW221378   5.484   1.037   4.142
 6827SOL     OW21379   5.968   5.519   5.175
 6827SOL    HW121380   5.938   5.437   5.225
 6827SOL    HW221381   5.920   5.599   5.210
 6828SOL     OW21382   2.254   1.325   2.541
 6828SOL    HW121383   2.348   1.333   2.508
 6828SOL    HW221384   2.192   1.314   2.462
 6829SOL     OW21385   5.828   6.525   5.064
 6829SOL    HW121386   5.928   6.529   5.065
 6829SOL    HW221387   5.798   6.431   5.048
 6830SOL     OW21388   3.695   5.868   3.829
 6830SOL    HW121389   3.647   5.952   3.804
 6830SOL    HW221390   3.632   5.805   3.874
 6831SOL     OW21391   2.099   6.887   6.752
 6831SOL    HW121392   2.179   6.906   6.695
 6831SOL    HW221393   2.081   6.966   6.810
 6832SOL     OW21394   3.679   3.733   0.657
 6832SOL    HW121395   3.634   3.702   0.573
 6832SOL    HW221396   3.760   3.677   0.673
 6833SOL     OW21397   3.567   5.525   0.147
 6833SOL    HW121398   3.658   5.483   0.149
 6833SOL    HW221399   3.572   5.616   0.188
 6834SOL     OW21400   6.815   6.054   4.805
 6834SOL    HW121401   6.755   5.984   4.766
 6834SOL    HW221402   6.828   6.036   4.903
 6835SOL     OW21403   3.271   0.065   3.379
 6835SOL    HW121404   3.322   0.011   3.311
 6835SOL    HW221405   3.180   0.085   3.343
 6836SOL     OW21406   1.065   4.547   6.977
 6836SOL    HW121407   0.999   4.564   0.028
 6836SOL    HW221408   1.152   4.518   7.016
 6837SOL     OW21409   6.302   2.563   1.467
 6837SOL    HW121410   6.280   2.466   1.477
 6837SOL    HW221411   6.338   2.580   1.375
 6838SOL     OW21412   2.314   4.917   0.166
 6838SOL    HW121413   2.345   4.946   0.075
 6838SOL    HW221414   2.273   4.994   0.214
 6839SOL     OW21415   6.981   3.208   5.213
 6839SOL    HW121416   6.909   3.139   5.198
 6839SOL    HW221417   0.030   3.169   5.271
 6840SOL     OW21418   3.525   6.671   4.251
 6840SOL    HW121419   3.459   6.698   4.322
 6840SOL    HW221420   3.544   6.749   4.191
 6841SOL     OW21421   4.988   6.109   1.026
 6841SOL    HW121422   4.943   6.073   0.944
 6841SOL    HW221423   4.930   6.093   1.106
 6842SOL     OW21424   6.956   4.265   3.496
 6842SOL    HW121425   0.019   4.316   3.508
 6842SOL    HW221426   6.891   4.292   3.567
 6843SOL     OW21427   4.325   3.122   1.627
 6843SOL    HW121428   4.376   3.037   1.612
 6843SOL    HW221429   4.390   3.196   1.647
 6844SOL     OW21430   3.428   6.492   3.802
 6844SOL    HW121431   3.458   6.499   3.897
 6844SOL    HW221432   3.484   6.552   3.745
 6845SOL     OW21433   3.828   4.203   0.290
 6845SOL    HW121434   3.788   4.224   0.379
 6845SOL    HW221435   3.799   4.112   0.260
 6846SOL     OW21436   3.222   3.229   3.809
 6846SOL    HW121437   3.202   3.224   3.907
 6846SOL    HW221438   3.278   3.310   3.791
 6847SOL     OW21439   4.580   3.796   0.232
 6847SOL    HW121440   4.590   3.697   0.220
 6847SOL    HW221441   4.575   3.817   0.330
 6848SOL     OW21442   0.654   6.675   4.442
 6848SOL    HW121443   0.677   6.751   4.503
 6848SOL    HW221444   0.560   6.646   4.458
 6849SOL     OW21445   2.456   0.937   4.621
 6849SOL    HW121446   2.494   0.979   4.704
 6849SOL    HW221447   2.492   0.985   4.541
 6850SOL     OW21448   0.839   1.743   1.593
 6850SOL    HW121449   0.861   1.652   1.626
 6850SOL    HW221450   0.772   1.786   1.654
 6851SOL     OW21451   1.992   5.706   1.023
 6851SOL    HW121452   1.968   5.757   1.106
 6851SOL    HW221453   2.012   5.611   1.048
 6852SOL     OW21454   4.796   4.825   2.905
 6852SOL    HW121455   4.791   4.726   2.905
 6852SOL    HW221456   4.891   4.855   2.918
 6853SOL     OW21457   6.330   4.566   4.810
 6853SOL    HW121458   6.349   4.520   4.897
 6853SOL    HW221459   6.265   4.641   4.826
 6854SOL     OW21460   6.270   0.838   6.308
 6854SOL    HW121461   6.335   0.819   6.382
 6854SOL    HW221462   6.181   0.798   6.331
 6855SOL     OW21463   2.177   0.015   3.241
 6855SOL    HW121464   2.172   0.033   3.143
 6855SOL    HW221465   2.264   0.050   3.277
 6856SOL     OW21466   0.998   4.734   5.337
 6856SOL    HW121467   1.072   4.707   5.400
 6856SOL    HW221468   1.007   4.831   5.316
 6857SOL     OW21469   5.355   0.581   6.497
 6857SOL    HW121470   5.379   0.611   6.405
 6857SOL    HW221471   5.404   0.637   6.564
 6858SOL     OW21472   3.369   3.516   6.469
 6858SOL    HW121473   3.388   3.536   6.565
 6858SOL    HW221474   3.293   3.451   6.462
 6859SOL     OW21475   4.239   0.411   1.218
 6859SOL    HW121476   4.184   0.366   1.148
 6859SOL    HW221477   4.309   0.348   1.251
 6860SOL     OW21478   4.597   3.165   0.093
 6860SOL    HW121479   4.599   3.073   0.052
 6860SOL    HW221480   4.508   3.181   0.135
 6861SOL     OW21481   6.367   3.410   6.893
 6861SOL    HW121482   6.369   3.508   6.874
 6861SOL    HW221483   6.279   3.372   6.864
 6862SOL     OW21484   3.072   4.856   4.487
 6862SOL    HW121485   3.127   4.924   4.535
 6862SOL    HW221486   2.991   4.834   4.541
 6863SOL     OW21487   1.377   3.620   3.292
 6863SOL    HW121488   1.336   3.599   3.380
 6863SOL    HW221489   1.457   3.563   3.278
 6864SOL     OW21490   2.772   6.269   5.367
 6864SOL    HW121491   2.790   6.177   5.400
 6864SOL    HW221492   2.790   6.335   5.440
 6865SOL     OW21493   0.887   2.512   5.321
 6865SOL    HW121494   0.890   2.609   5.348
 6865SOL    HW221495   0.980   2.475   5.319
 6866SOL     OW21496   0.639   4.334   2.972
 6866SOL    HW121497   0.613   4.291   3.058
 6866SOL    HW221498   0.599   4.425   2.966
 6867SOL     OW21499   2.931   5.802   3.557
 6867SOL    HW121500   2.960   5.867   3.486
 6867SOL    HW221501   3.011   5.756   3.595
 6868SOL     OW21502   2.127   6.012   5.702
 6868SOL    HW121503   2.210   6.066   5.710
 6868SOL    HW221504   2.051   6.059   5.747
 6869SOL     OW21505   6.722   2.536   3.160
 6869SOL    HW121506   6.716   2.586   3.247
 6869SOL    HW221507   6.766   2.593   3.091
 6870SOL     OW21508   5.003   3.868   2.847
 6870SOL    HW121509   4.978   3.965   2.842
 6870SOL    HW221510   5.060   3.844   2.768
 6871SOL     OW21511   3.890   5.775   2.490
 6871SOL    HW121512   3.962   5.829   2.534
 6871SOL    HW221513   3.858   5.704   2.553
 6872SOL     OW21514   3.684   4.094   1.149
 6872SOL    HW121515   3.774   4.100   1.106
 6872SOL    HW221516   3.695   4.068   1.245
 6873SOL     OW21517   4.442   4.907   5.555
 6873SOL    HW121518   4.378   4.839   5.589
 6873SOL    HW221519   4.391   4.984   5.516
 6874SOL     OW21520   1.151   2.094   6.098
 6874SOL    HW121521   1.163   2.009   6.048
 6874SOL    HW221522   1.183   2.082   6.192
 6875SOL     OW21523   3.786   6.297   4.586
 6875SOL    HW121524   3.885   6.310   4.584
 6875SOL    HW221525   3.757   6.282   4.681
 6876SOL     OW21526   3.189   0.035   5.447
 6876SOL    HW121527   3.234   0.034   5.358
 6876SOL    HW221528   3.212   0.120   5.495
 6877SOL     OW21529   2.017   4.034   0.597
 6877SOL    HW121530   2.029   4.119   0.649
 6877SOL    HW221531   1.932   3.990   0.624
 6878SOL     OW21532   2.213   2.418   5.572
 6878SOL    HW121533   2.311   2.414   5.550
 6878SOL    HW221534   2.180   2.327   5.594
 6879SOL     OW21535   6.454   1.098   6.199
 6879SOL    HW121536   6.408   1.013   6.223
 6879SOL    HW221537   6.427   1.127   6.107
 6880SOL     OW21538   1.735   5.276   4.108
 6880SOL    HW121539   1.695   5.360   4.071
 6880SOL    HW221540   1.720   5.272   4.207
 6881SOL     OW21541   5.418   6.978   1.019
 6881SOL    HW121542   5.419   6.878   1.023
 6881SOL    HW221543   5.512   7.013   1.018
 6882SOL     OW21544   2.107   5.969   5.422
 6882SOL    HW121545   2.074   6.027   5.496
 6882SOL    HW221546   2.169   5.899   5.458
 6883SOL     OW21547   2.258   6.860   2.069
 6883SOL    HW121548   2.163   6.830   2.072
 6883SOL    HW221549   2.266   6.936   2.004
 6884SOL     OW21550   1.397   5.236   3.300
 6884SOL    HW121551   1.473   5.264   3.241
 6884SOL    HW221552   1.359   5.317   3.346
 6885SOL     OW21553   4.464   4.498   4.737
 6885SOL    HW121554   4.474   4.399   4.735
 6885SOL    HW221555   4.394   4.524   4.804
 6886SOL     OW21556   5.683   6.258   0.960
 6886SOL    HW121557   5.727   6.172   0.989
 6886SOL    HW221558   5.627   6.292   1.035
 6887SOL     OW21559   6.842   0.627   4.858
 6887SOL    HW121560   6.760   0.613   4.803
 6887SOL    HW221561   6.848   0.724   4.884
 6888SOL     OW21562   6.722   6.941   3.631
 6888SOL    HW121563   6.741   6.927   3.728
 6888SOL    HW221564   6.626   6.920   3.613
 6889SOL     OW21565   2.301   4.314   6.342
 6889SOL    HW121566   2.364   4.305   6.266
 6889SOL    HW221567   2.287   4.410   6.364
 6890SOL     OW21568   1.648   0.353   1.084
 6890SOL    HW121569   1.737   0.323   1.118
 6890SOL    HW221570   1.642   0.453   1.092
 6891SOL     OW21571   5.528   5.770   5.330
 6891SOL    HW121572   5.517   5.869   5.320
 6891SOL    HW221573   5.438   5.726   5.336
 6892SOL     OW21574   2.807   2.149   4.453
 6892SOL    HW121575   2.760   2.110   4.374
 6892SOL    HW221576   2.755   2.227   4.488
 6893SOL     OW21577   5.343   0.014   0.370
 6893SOL    HW121578   5.368   0.111   0.368
 6893SOL    HW221579   5.383   6.990   0.291
 6894SOL     OW21580   5.834   4.308   4.657
 6894SOL    HW121581   5.806   4.321   4.752
 6894SOL    HW221582   5.832   4.395   4.609
 6895SOL     OW21583   5.262   4.699   3.988
 6895SOL    HW121584   5.355   4.707   4.024
 6895SOL    HW221585   5.198   4.679   4.062
 6896SOL     OW21586   5.545   2.312   2.279
 6896SOL    HW121587   5.562   2.349   2.187
 6896SOL    HW221588   5.565   2.382   2.347
 6897SOL     OW21589   4.134   1.362   1.421
 6897SOL    HW121590   4.229   1.333   1.433
 6897SOL    HW221591   4.122   1.395   1.327
 6898SOL     OW21592   4.399   1.248   1.428
 6898SOL    HW121593   4.419   1.188   1.506
 6898SOL    HW221594   4.484   1.282   1.390
 6899SOL     OW21595   5.376   4.210   5.359
 6899SOL    HW121596   5.385   4.146   5.282
 6899SOL    HW221597   5.336   4.162   5.437
 6900SOL     OW21598   4.352   0.433   5.690
 6900SOL    HW121599   4.374   0.352   5.635
 6900SOL    HW221600   4.263   0.421   5.733
 6901SOL     OW21601   1.351   0.648   6.910
 6901SOL    HW121602   1.409   0.729   6.919
 6901SOL    HW221603   1.388   0.587   6.841
 6902SOL     OW21604   6.467   5.056   2.200
 6902SOL    HW121605   6.405   5.108   2.142
 6902SOL    HW221606   6.414   4.997   2.261
 6903SOL     OW21607   6.288   4.635   6.773
 6903SOL    HW121608   6.290   4.537   6.794
 6903SOL    HW221609   6.258   4.648   6.679
 6904SOL     OW21610   6.822   0.875   2.505
 6904SOL    HW121611   6.747   0.811   2.520
 6904SOL    HW221612   6.812   0.954   2.566
 6905SOL     OW21613   3.536   4.988   0.761
 6905SOL    HW121614   3.515   5.028   0.849
 6905SOL    HW221615   3.633   4.962   0.758
 6906SOL     OW21616   5.920   6.516   2.233
 6906SOL    HW121617   5.830   6.531   2.274
 6906SOL    HW221618   5.911   6.518   2.133
 6907SOL     OW21619   3.527   1.551   1.785
 6907SOL    HW121620   3.552   1.610   1.861
 6907SOL    HW221621   3.484   1.605   1.713
 6908SOL     OW21622   5.762   6.751   6.670
 6908SOL    HW121623   5.682   6.777   6.615
 6908SOL    HW221624   5.790   6.828   6.728
 6909SOL     OW21625   2.500   2.198   0.220
 6909SOL    HW121626   2.521   2.250   0.303
 6909SOL    HW221627   2.449   2.116   0.244
 6910SOL     OW21628   4.002   1.445   0.648
 6910SOL    HW121629   3.976   1.513   0.579
 6910SOL    HW221630   3.968   1.355   0.621
 6911SOL     OW21631   3.903   5.911   5.672
 6911SOL    HW121632   3.836   5.984   5.656
 6911SOL    HW221633   3.974   5.915   5.602
 6912SOL     OW21634   3.329   5.644   2.155
 6912SOL    HW121635   3.334   5.592   2.069
 6912SOL    HW221636   3.418   5.685   2.174
 6913SOL     OW21637   4.117   6.454   5.488
 6913SOL    HW121638   4.038   6.515   5.497
 6913SOL    HW221639   4.091   6.363   5.519
 6914SOL     OW21640   0.334   4.886   0.209
 6914SOL    HW121641   0.325   4.984   0.191
 6914SOL    HW221642   0.319   4.868   0.306
 6915SOL     OW21643   0.779   0.014   6.781
 6915SOL    HW121644   0.780   0.112   6.765
 6915SOL    HW221645   0.866   7.007   6.819
 6916SOL     OW21646   6.117   0.428   6.028
 6916SOL    HW121647   6.190   0.497   6.029
 6916SOL    HW221648   6.050   0.452   5.959
 6917SOL     OW21649   3.972   6.507   5.955
 6917SOL    HW121650   4.055   6.561   5.942
 6917SOL    HW221651   3.991   6.411   5.936
 6918SOL     OW21652   1.456   2.737   3.945
 6918SOL    HW121653   1.452   2.837   3.939
 6918SOL    HW221654   1.384   2.697   3.888
 6919SOL     OW21655   1.652   6.107   3.600
 6919SOL    HW121656   1.701   6.032   3.555
 6919SOL    HW221657   1.625   6.079   3.692
 6920SOL     OW21658   5.608   6.151   3.973
 6920SOL    HW121659   5.621   6.177   3.877
 6920SOL    HW221660   5.514   6.120   3.986
 6921SOL     OW21661   2.105   4.548   2.581
 6921SOL    HW121662   2.059   4.612   2.642
 6921SOL    HW221663   2.063   4.552   2.491
 6922SOL     OW21664   2.016   6.623   1.811
 6922SOL    HW121665   2.099   6.583   1.849
 6922SOL    HW221666   2.025   6.723   1.808
 6923SOL     OW21667   4.735   6.041   5.182
 6923SOL    HW121668   4.777   6.127   5.153
 6923SOL    HW221669   4.670   6.011   5.112
 6924SOL     OW21670   5.081   5.935   2.704
 6924SOL    HW121671   5.056   6.025   2.668
 6924SOL    HW221672   5.094   5.871   2.628
 6925SOL     OW21673   4.088   5.642   1.315
 6925SOL    HW121674   4.148   5.720   1.302
 6925SOL    HW221675   4.108   5.572   1.246
 6926SOL     OW21676   2.762   4.562   5.347
 6926SOL    HW121677   2.852   4.571   5.304
 6926SOL    HW221678   2.760   4.477   5.399
 6927SOL     OW21679   4.303   3.816   6.944
 6927SOL    HW121680   4.385   3.862   6.909
 6927SOL    HW221681   4.300   3.825   0.022
 6928SOL     OW21682   6.691   0.088   6.434
 6928SOL    HW121683   6.680   7.010   6.433
 6928SOL    HW221684   6.648   0.125   6.516
 6929SOL     OW21685   4.278   6.725   0.875
 6929SOL    HW121686   4.360   6.752   0.925
 6929SOL    HW221687   4.299   6.715   0.778
 6930SOL     OW21688   0.016   0.827   3.296
 6930SOL    HW121689   6.950   0.858   3.331
 6930SOL    HW221690   0.077   0.906   3.287
 6931SOL     OW21691   2.976   6.928   1.086
 6931SOL    HW121692   2.995   6.987   1.165
 6931SOL    HW221693   2.880   6.936   1.060
 6932SOL     OW21694   3.219   2.633   0.694
 6932SOL    HW121695   3.304   2.674   0.659
 6932SOL    HW221696   3.239   2.542   0.731
 6933SOL     OW21697   3.094   6.182   5.306
 6933SOL    HW121698   3.045   6.125   5.240
 6933SOL    HW221699   3.100   6.134   5.393
 6934SOL     OW21700   5.516   5.027   6.952
 6934SOL    HW121701   5.569   4.947   6.923
 6934SOL    HW221702   5.538   5.105   6.894
 6935SOL     OW21703   4.901   4.994   3.521
 6935SOL    HW121704   4.974   5.008   3.588
 6935SOL    HW221705   4.878   5.081   3.477
 6936SOL     OW21706   1.235   4.822   0.489
 6936SOL    HW121707   1.276   4.809   0.398
 6936SOL    HW221708   1.151   4.876   0.480
 6937SOL     OW21709   4.889   6.449   6.928
 6937SOL    HW121710   4.901   6.380   7.000
 6937SOL    HW221711   4.811   6.508   6.951
 6938SOL     OW21712   6.536   2.497   5.448
 6938SOL    HW121713   6.626   2.481   5.490
 6938SOL    HW221714   6.492   2.574   5.492
 6939SOL     OW21715   6.048   4.577   1.890
 6939SOL    HW121716   5.985   4.621   1.953
 6939SOL    HW221717   6.102   4.646   1.842
 6940SOL     OW21718   4.233   1.454   3.774
 6940SOL    HW121719   4.311   1.477   3.833
 6940SOL    HW221720   4.266   1.402   3.696
 6941SOL     OW21721   3.509   2.706   5.426
 6941SOL    HW121722   3.451   2.637   5.382
 6941SOL    HW221723   3.581   2.734   5.364
 6942SOL     OW21724   6.582   1.378   6.690
 6942SOL    HW121725   6.504   1.440   6.702
 6942SOL    HW221726   6.611   1.379   6.595
 6943SOL     OW21727   5.787   4.328   0.371
 6943SOL    HW121728   5.853   4.322   0.446
 6943SOL    HW221729   5.827   4.287   0.289
 6944SOL     OW21730   2.678   0.188   0.296
 6944SOL    HW121731   2.606   0.194   0.366
 6944SOL    HW221732   2.730   0.273   0.294
 6945SOL     OW21733   3.008   1.509   6.095
 6945SOL    HW121734   2.933   1.520   6.029
 6945SOL    HW221735   3.036   1.599   6.128
 6946SOL     OW21736   6.051   4.470   2.988
 6946SOL    HW121737   6.059   4.568   3.003
 6946SOL    HW221738   6.142   4.430   2.977
 6947SOL     OW21739   3.690   6.707   0.982
 6947SOL    HW121740   3.666   6.773   1.053
 6947SOL    HW221741   3.729   6.626   1.024
 6948SOL     OW21742   3.261   1.361   6.212
 6948SOL    HW121743   3.183   1.355   6.274
 6948SOL    HW221744   3.345   1.342   6.263
 6949SOL     OW21745   4.997   0.224   2.514
 6949SOL    HW121746   4.978   0.249   2.608
 6949SOL    HW221747   5.096   0.222   2.499
 6950SOL     OW21748   3.489   2.034   3.585
 6950SOL    HW121749   3.546   2.116   3.576
 6950SOL    HW221750   3.459   2.004   3.494
 6951SOL     OW21751   3.766   4.036   5.627
 6951SOL    HW121752   3.811   4.018   5.540
 6951SOL    HW221753   3.669   4.055   5.612
 6952SOL     OW21754   0.619   3.472   6.692
 6952SOL    HW121755   0.520   3.478   6.705
 6952SOL    HW221756   0.651   3.551   6.640
 6953SOL     OW21757   5.752   2.054   4.936
 6953SOL    HW121758   5.729   2.136   4.988
 6953SOL    HW221759   5.675   1.990   4.938
 6954SOL     OW21760   0.683   4.426   1.980
 6954SOL    HW121761   0.735   4.349   1.944
 6954SOL    HW221762   0.615   4.455   1.912
 6955SOL     OW21763   6.763   1.744   3.788
 6955SOL    HW121764   6.720   1.656   3.810
 6955SOL    HW221765   6.788   1.791   3.872
 6956SOL     OW21766   3.566   3.649   1.317
 6956SOL    HW121767   3.632   3.586   1.358
 6956SOL    HW221768   3.514   3.694   1.389
 6957SOL     OW21769   1.315   4.208   0.266
 6957SOL    HW121770   1.358   4.174   0.182
 6957SOL    HW221771   1.385   4.221   0.336
 6958SOL     OW21772   2.291   3.156   6.042
 6958SOL    HW121773   2.368   3.110   6.087
 6958SOL    HW221774   2.252   3.096   5.972
 6959SOL     OW21775   4.127   1.084   5.623
 6959SOL    HW121776   4.226   1.097   5.625
 6959SOL    HW221777   4.082   1.161   5.669
 6960SOL     OW21778   1.170   6.114   0.248
 6960SOL    HW121779   1.264   6.147   0.253
 6960SOL    HW221780   1.111   6.185   0.211
 6961SOL     OW21781   5.988   0.613   3.578
 6961SOL    HW121782   6.002   0.708   3.549
 6961SOL    HW221783   5.958   0.559   3.499
 6962SOL     OW21784   3.102   2.839   0.570
 6962SOL    HW121785   3.160   2.760   0.589
 6962SOL    HW221786   3.011   2.808   0.544
 6963SOL     OW21787   6.929   6.175   1.634
 6963SOL    HW121788   7.016   6.198   1.678
 6963SOL    HW221789   6.855   6.227   1.677
 6964SOL     OW21790   4.137   5.097   5.618
 6964SOL    HW121791   4.189   5.104   5.703
 6964SOL    HW221792   4.039   5.105   5.638
 6965SOL     OW21793   5.967   0.433   6.433
 6965SOL    HW121794   5.867   0.435   6.435
 6965SOL    HW221795   5.998   0.357   6.376
 6966SOL     OW21796   3.802   2.086   3.596
 6966SOL    HW121797   3.869   2.158   3.578
 6966SOL    HW221798   3.753   2.065   3.512
 6967SOL     OW21799   2.614   2.707   0.171
 6967SOL    HW121800   2.610   2.770   0.093
 6967SOL    HW221801   2.707   2.673   0.182
 6968SOL     OW21802   2.823   0.370   3.476
 6968SOL    HW121803   2.833   0.277   3.511
 6968SOL    HW221804   2.757   0.420   3.532
 6969SOL     OW21805   3.639   3.212   1.828
 6969SOL    HW121806   3.669   3.125   1.867
 6969SOL    HW221807   3.645   3.283   1.898
 6970SOL     OW21808   4.578   4.004   0.039
 6970SOL    HW121809   4.649   4.068   0.011
 6970SOL    HW221810   4.615   3.940   0.106
 6971SOL     OW21811   5.887   2.462   2.066
 6971SOL    HW121812   5.955   2.468   1.992
 6971SOL    HW221813   5.796   2.448   2.026
 6972SOL     OW21814   5.199   6.490   4.086
 6972SOL    HW121815   5.231   6.407   4.131
 6972SOL    HW221816   5.103   6.480   4.061
 6973SOL     OW21817   2.075   4.431   2.916
 6973SOL    HW121818   2.163   4.439   2.869
 6973SOL    HW221819   2.086   4.454   3.013
 6974SOL     OW21820   2.796   3.464   5.244
 6974SOL    HW121821   2.708   3.425   5.272
 6974SOL    HW221822   2.810   3.551   5.291
 6975SOL     OW21823   1.638   0.183   6.036
 6975SOL    HW121824   1.650   0.214   6.131
 6975SOL    HW221825   1.632   0.263   5.976
 6976SOL     OW21826   1.145   6.036   1.844
 6976SOL    HW121827   1.068   5.986   1.882
 6976SOL    HW221828   1.230   5.987   1.865
 6977SOL     OW21829   5.940   2.240   0.790
 6977SOL    HW121830   5.870   2.219   0.859
 6977SOL    HW221831   5.904   2.308   0.726
 6978SOL     OW21832   4.865   3.402   3.908
 6978SOL    HW121833   4.857   3.413   3.809
 6978SOL    HW221834   4.847   3.307   3.933
 6979SOL     OW21835   0.519   3.694   4.167
 6979SOL    HW121836   0.593   3.711   4.232
 6979SOL    HW221837   0.541   3.615   4.111
 6980SOL     OW21838   4.861   2.022   5.299
 6980SOL    HW121839   4.921   2.099   5.276
 6980SOL    HW221840   4.839   2.025   5.397
 6981SOL     OW21841   2.996   3.429   6.306
 6981SOL    HW121842   3.016   3.472   6.395
 6981SOL    HW221843   3.029   3.488   6.233
 6982SOL     OW21844   1.352   0.021   4.424
 6982SOL    HW121845   1.259   7.012   4.405
 6982SOL    HW221846   1.396   6.981   4.490
 6983SOL     OW21847   5.631   1.131   3.019
 6983SOL    HW121848   5.589   1.079   2.945
 6983SOL    HW221849   5.675   1.213   2.982
 6984SOL     OW21850   2.192   1.269   6.788
 6984SOL    HW121851   2.255   1.278   6.866
 6984SOL    HW221852   2.152   1.178   6.788
 6985SOL     OW21853   4.383   0.028   3.893
 6985SOL    HW121854   4.304   0.004   3.838
 6985SOL    HW221855   4.430   0.107   3.852
 6986SOL     OW21856   2.603   6.325   5.826
 6986SOL    HW121857   2.686   6.319   5.772
 6986SOL    HW221858   2.619   6.284   5.916
 6987SOL     OW21859   6.591   4.241   6.487
 6987SOL    HW121860   6.516   4.292   6.528
 6987SOL    HW221861   6.618   4.166   6.548
 6988SOL     OW21862   4.946   2.105   6.731
 6988SOL    HW121863   4.879   2.132   6.799
 6988SOL    HW221864   4.930   2.156   6.646
 6989SOL     OW21865   2.161   3.630   4.306
 6989SOL    HW121866   2.180   3.624   4.403
 6989SOL    HW221867   2.183   3.722   4.273
 6990SOL     OW21868   3.991   3.638   1.794
 6990SOL    HW121869   4.016   3.708   1.861
 6990SOL    HW221870   3.895   3.613   1.806
 6991SOL     OW21871   4.289   4.834   5.844
 6991SOL    HW121872   4.335   4.753   5.807
 6991SOL    HW221873   4.192   4.831   5.820
 6992SOL     OW21874   6.981   6.272   4.937
 6992SOL    HW121875   7.015   6.179   4.949
 6992SOL    HW221876   7.015   6.330   5.012
 6993SOL     OW21877   0.094   0.779   2.740
 6993SOL    HW121878   0.020   0.838   2.709
 6993SOL    HW221879   0.055   0.696   2.781
 6994SOL     OW21880   1.760   2.206   0.498
 6994SOL    HW121881   1.789   2.252   0.582
 6994SOL    HW221882   1.808   2.119   0.490
 6995SOL     OW21883   0.904   5.466   3.886
 6995SOL    HW121884   0.976   5.426   3.943
 6995SOL    HW221885   0.850   5.529   3.941
 6996SOL     OW21886   1.470   6.673   5.129
 6996SOL    HW121887   1.521   6.633   5.205
 6996SOL    HW221888   1.534   6.710   5.062
 6997SOL     OW21889   5.014   4.575   4.970
 6997SOL    HW121890   4.973   4.666   4.983
 6997SOL    HW221891   5.095   4.584   4.912
 6998SOL     OW21892   2.114   1.658   2.220
 6998SOL    HW121893   2.073   1.683   2.132
 6998SOL    HW221894   2.107   1.559   2.233
 6999SOL     OW21895   5.604   2.888   6.991
 6999SOL    HW121896   5.647   2.885   0.059
 6999SOL    HW221897   5.643   2.962   6.937
 7000SOL     OW21898   0.050   0.293   2.324
 7000SOL    HW121899   6.997   0.227   2.323
 7000SOL    HW221900   0.015   0.384   2.303
 7001SOL     OW21901   3.295   1.231   6.727
 7001SOL    HW121902   3.208   1.280   6.733
 7001SOL    HW221903   3.280   1.141   6.685
 7002SOL     OW21904   3.055   5.499   1.413
 7002SOL    HW121905   2.964   5.463   1.431
 7002SOL    HW221906   3.094   5.455   1.333
 7003SOL     OW21907   1.567   6.531   6.197
 7003SOL    HW121908   1.483   6.543   6.250
 7003SOL    HW221909   1.605   6.621   6.176
 7004SOL     OW21910   2.345   4.057   6.468
 7004SOL    HW121911   2.362   4.019   6.559
 7004SOL    HW221912   2.323   4.154   6.477
 7005SOL     OW21913   6.835   6.979   5.798
 7005SOL    HW121914   6.883   6.892   5.810
 7005SOL    HW221915   6.901   0.028   5.771
 7006SOL     OW21916   5.222   5.115   4.511
 7006SOL    HW121917   5.138   5.162   4.535
 7006SOL    HW221918   5.267   5.163   4.436
 7007SOL     OW21919   5.778   4.948   1.428
 7007SOL    HW121920   5.746   4.865   1.474
 7007SOL    HW221921   5.792   4.929   1.330
 7008SOL     OW21922   0.262   6.849   4.256
 7008SOL    HW121923   0.314   6.883   4.177
 7008SOL    HW221924   0.246   6.924   4.320
 7009SOL     OW21925   6.449   4.038   1.900
 7009SOL    HW121926   6.362   3.991   1.888
 7009SOL    HW221927   6.511   4.014   1.824
 7010SOL     OW21928   5.033   4.235   5.699
 7010SOL    HW121929   5.107   4.196   5.644
 7010SOL    HW221930   4.955   4.171   5.699
 7011SOL     OW21931   1.926   0.439   6.173
 7011SOL    HW121932   1.959   0.498   6.099
 7011SOL    HW221933   1.958   0.346   6.159
 7012SOL     OW21934   6.943   0.782   1.881
 7012SOL    HW121935   6.986   0.696   1.852
 7012SOL    HW221936   7.009   0.836   1.932
 7013SOL     OW21937   6.128   1.751   1.469
 7013SOL    HW121938   6.147   1.847   1.448
 7013SOL    HW221939   6.129   1.738   1.568
 7014SOL     OW21940   2.732   5.238   1.257
 7014SOL    HW121941   2.666   5.263   1.186
 7014SOL    HW221942   2.816   5.205   1.215
 7015SOL     OW21943   4.643   1.858   2.825
 7015SOL    HW121944   4.640   1.897   2.733
 7015SOL    HW221945   4.725   1.803   2.835
 7016SOL     OW21946   5.600   4.509   6.982
 7016SOL    HW121947   5.682   4.456   7.002
 7016SOL    HW221948   5.547   4.521   0.045
 7017SOL     OW21949   5.097   2.455   5.387
 7017SOL    HW121950   5.005   2.426   5.411
 7017SOL    HW221951   5.135   2.395   5.317
 7018SOL     OW21952   0.576   4.673   3.609
 7018SOL    HW121953   0.571   4.773   3.613
 7018SOL    HW221954   0.670   4.643   3.625
 7019SOL     OW21955   6.507   6.223   2.284
 7019SOL    HW121956   6.587   6.273   2.317
 7019SOL    HW221957   6.441   6.286   2.244
 7020SOL     OW21958   6.964   6.019   0.501
 7020SOL    HW121959   6.964   5.950   0.429
 7020SOL    HW221960   7.004   5.982   0.584
 7021SOL     OW21961   2.991   6.888   5.565
 7021SOL    HW121962   3.067   6.924   5.511
 7021SOL    HW221963   3.008   6.792   5.588
 7022SOL     OW21964   3.637   4.797   5.777
 7022SOL    HW121965   3.725   4.817   5.733
 7022SOL    HW221966   3.635   4.838   5.868
 7023SOL     OW21967   4.973   5.129   2.495
 7023SOL    HW121968   5.017   5.103   2.581
 7023SOL    HW221969   5.019   5.083   2.419
 7024SOL     OW21970   6.431   6.806   1.816
 7024SOL    HW121971   6.375   6.833   1.894
 7024SOL    HW221972   6.457   6.710   1.825
 7025SOL     OW21973   2.798   0.303   1.529
 7025SOL    HW121974   2.737   0.311   1.451
 7025SOL    HW221975   2.855   0.385   1.535
 7026SOL     OW21976   4.527   2.666   0.294
 7026SOL    HW121977   4.494   2.579   0.330
 7026SOL    HW221978   4.549   2.727   0.370
 7027SOL     OW21979   5.738   6.260   5.054
 7027SOL    HW121980   5.804   6.187   5.075
 7027SOL    HW221981   5.660   6.222   5.005
 7028SOL     OW21982   3.506   0.559   5.045
 7028SOL    HW121983   3.475   0.471   5.008
 7028SOL    HW221984   3.465   0.574   5.135
 7029SOL     OW21985   3.555   6.906   4.114
 7029SOL    HW121986   3.584   6.885   4.020
 7029SOL    HW221987   3.489   6.980   4.113
 7030SOL     OW21988   1.224   3.852   3.226
 7030SOL    HW121989   1.259   3.758   3.230
 7030SOL    HW221990   1.235   3.888   3.133
 7031SOL     OW21991   2.403   0.908   3.709
 7031SOL    HW121992   2.449   0.922   3.621
 7031SOL    HW221993   2.318   0.856   3.694
 7032SOL     OW21994   6.165   2.743   3.440
 7032SOL    HW121995   6.161   2.773   3.345
 7032SOL    HW221996   6.087   2.684   3.460
 7033SOL     OW21997   0.189   0.594   5.068
 7033SOL    HW121998   0.286   0.572   5.056
 7033SOL    HW221999   0.137   0.562   4.989
 7034SOL     OW22000   6.914   4.964   4.161
 7034SOL    HW122001   6.968   4.924   4.235
 7034SOL    HW222002   6.860   5.041   4.197
 7035SOL     OW22003   0.009   4.518   1.331
 7035SOL    HW122004   0.034   4.610   1.300
 7035SOL    HW222005   6.953   4.485   1.277
 7036SOL     OW22006   6.093   5.408   0.854
 7036SOL    HW122007   6.180   5.428   0.899
 7036SOL    HW222008   6.103   5.327   0.797
 7037SOL     OW22009   1.410   0.147   7.020
 7037SOL    HW122010   1.455   0.060   0.020
 7037SOL    HW222011   1.431   0.172   6.925
 7038SOL     OW22012   2.470   2.160   3.512
 7038SOL    HW122013   2.398   2.130   3.574
 7038SOL    HW222014   2.486   2.090   3.442
 7039SOL     OW22015   4.403   1.583   6.309
 7039SOL    HW122016   4.308   1.604   6.332
 7039SOL    HW222017   4.409   1.565   6.211
 7040SOL     OW22018   6.321   2.375   6.555
 7040SOL    HW122019   6.316   2.334   6.465
 7040SOL    HW222020   6.305   2.306   6.625
 7041SOL     OW22021   1.923   0.916   3.070
 7041SOL    HW122022   1.937   0.938   3.166
 7041SOL    HW222023   1.833   0.948   3.041
 7042SOL     OW22024   2.465   0.712   6.908
 7042SOL    HW122025   2.380   0.758   6.882
 7042SOL    HW222026   2.495   0.652   6.834
 7043SOL     OW22027   1.782   2.969   1.307
 7043SOL    HW122028   1.719   3.020   1.365
 7043SOL    HW222029   1.764   2.992   1.211
 7044SOL     OW22030   6.707   5.524   0.807
 7044SOL    HW122031   6.609   5.522   0.788
 7044SOL    HW222032   6.754   5.573   0.733
 7045SOL     OW22033   1.252   4.460   0.129
 7045SOL    HW122034   1.323   4.400   0.093
 7045SOL    HW222035   1.226   4.429   0.221
 7046SOL     OW22036   2.276   2.032   3.680
 7046SOL    HW122037   2.197   2.052   3.621
 7046SOL    HW222038   2.304   1.937   3.667
 7047SOL     OW22039   1.199   6.215   3.371
 7047SOL    HW122040   1.265   6.250   3.305
 7047SOL    HW222041   1.219   6.253   3.461
 7048SOL     OW22042   0.685   5.185   6.834
 7048SOL    HW122043   0.672   5.088   6.853
 7048SOL    HW222044   0.754   5.197   6.763
 7049SOL     OW22045   2.649   1.457   6.491
 7049SOL    HW122046   2.567   1.457   6.435
 7049SOL    HW222047   2.633   1.402   6.573
 7050SOL     OW22048   3.484   3.364   6.109
 7050SOL    HW122049   3.531   3.376   6.021
 7050SOL    HW222050   3.440   3.274   6.110
 7051SOL     OW22051   5.400   6.225   2.209
 7051SOL    HW122052   5.460   6.303   2.196
 7051SOL    HW222053   5.451   6.140   2.194
 7052SOL     OW22054   6.325   0.926   4.756
 7052SOL    HW122055   6.313   0.971   4.668
 7052SOL    HW222056   6.264   0.968   4.824
 7053SOL     OW22057   6.642   3.558   6.313
 7053SOL    HW122058   6.594   3.477   6.346
 7053SOL    HW222059   6.598   3.641   6.347
 7054SOL     OW22060   5.643   2.696   2.156
 7054SOL    HW122061   5.685   2.745   2.233
 7054SOL    HW222062   5.683   2.727   2.070
 7055SOL     OW22063   3.903   1.444   3.148
 7055SOL    HW122064   3.805   1.445   3.130
 7055SOL    HW222065   3.937   1.351   3.143
 7056SOL     OW22066   4.844   6.481   4.368
 7056SOL    HW122067   4.923   6.517   4.417
 7056SOL    HW222068   4.760   6.510   4.414
 7057SOL     OW22069   5.077   6.127   3.029
 7057SOL    HW122070   5.147   6.187   3.066
 7057SOL    HW222071   5.031   6.172   2.952
 7058SOL     OW22072   0.525   3.940   4.937
 7058SOL    HW122073   0.514   3.871   5.009
 7058SOL    HW222074   0.608   3.993   4.954
 7059SOL     OW22075   1.397   0.017   2.641
 7059SOL    HW122076   1.338   0.003   2.561
 7059SOL    HW222077   1.421   6.951   2.681
 7060SOL     OW22078   3.877   0.036   0.950
 7060SOL    HW122079   3.855   0.001   1.041
 7060SOL    HW222080   3.947   7.000   0.908
 7061SOL     OW22081   0.861   1.456   3.063
 7061SOL    HW122082   0.784   1.489   3.008
 7061SOL    HW222083   0.879   1.360   3.040
 7062SOL     OW22084   6.322   0.865   5.482
 7062SOL    HW122085   6.351   0.773   5.506
 7062SOL    HW222086   6.372   0.931   5.537
 7063SOL     OW22087   1.858   7.016   2.025
 7063SOL    HW122088   1.829   7.002   1.931
 7063SOL    HW222089   1.815   6.948   2.084
 7064SOL     OW22090   3.382   2.950   0.845
 7064SOL    HW122091   3.358   2.968   0.941
 7064SOL    HW222092   3.311   2.987   0.786
 7065SOL     OW22093   2.887   3.472   2.741
 7065SOL    HW122094   2.787   3.473   2.750
 7065SOL    HW222095   2.927   3.438   2.826
 7066SOL     OW22096   2.542   4.848   1.404
 7066SOL    HW122097   2.490   4.872   1.321
 7066SOL    HW222098   2.487   4.867   1.485
 7067SOL     OW22099   1.682   3.798   4.530
 7067SOL    HW122100   1.596   3.780   4.483
 7067SOL    HW222101   1.718   3.887   4.499
 7068SOL     OW22102   0.393   0.594   3.234
 7068SOL    HW122103   0.303   0.556   3.256
 7068SOL    HW222104   0.442   0.531   3.174
 7069SOL     OW22105   1.503   3.227   5.735
 7069SOL    HW122106   1.471   3.285   5.810
 7069SOL    HW222107   1.559   3.282   5.673
 7070SOL     OW22108   5.456   5.756   2.980
 7070SOL    HW122109   5.375   5.814   2.976
 7070SOL    HW222110   5.518   5.789   3.051
 7071SOL     OW22111   1.713   0.045   5.657
 7071SOL    HW122112   1.681   0.017   5.747
 7071SOL    HW222113   1.714   0.145   5.651
 7072SOL     OW22114   0.127   0.056   6.501
 7072SOL    HW122115   0.066   7.007   6.537
 7072SOL    HW222116   0.097   0.146   6.532
 7073SOL     OW22117   1.504   2.155   0.639
 7073SOL    HW122118   1.513   2.142   0.738
 7073SOL    HW222119   1.579   2.212   0.606
 7074SOL     OW22120   4.142   1.606   6.421
 7074SOL    HW122121   4.063   1.665   6.403
 7074SOL    HW222122   4.111   1.515   6.447
 7075SOL     OW22123   0.442   6.220   3.285
 7075SOL    HW122124   0.495   6.304   3.299
 7075SOL    HW222125   0.483   6.146   3.338
 7076SOL     OW22126   2.832   1.558   5.890
 7076SOL    HW122127   2.891   1.575   5.811
 7076SOL    HW222128   2.787   1.470   5.879
 7077SOL     OW22129   1.153   5.600   6.547
 7077SOL    HW122130   1.203   5.526   6.502
 7077SOL    HW222131   1.057   5.574   6.559
 7078SOL     OW22132   0.269   0.371   1.303
 7078SOL    HW122133   0.360   0.350   1.340
 7078SOL    HW222134   0.203   0.305   1.339
 7079SOL     OW22135   4.647   6.648   4.128
 7079SOL    HW122136   4.737   6.614   4.101
 7079SOL    HW222137   4.620   6.723   4.068
 7080SOL     OW22138   6.007   0.970   3.826
 7080SOL    HW122139   5.919   0.924   3.814
 7080SOL    HW222140   6.060   0.964   3.741
 7081SOL     OW22141   4.542   0.744   4.892
 7081SOL    HW122142   4.588   0.719   4.978
 7081SOL    HW222143   4.604   0.730   4.815
 7082SOL     OW22144   5.951   1.507   6.972
 7082SOL    HW122145   5.943   1.568   0.028
 7082SOL    HW222146   5.990   1.557   6.894
 7083SOL     OW22147   4.825   0.089   4.794
 7083SOL    HW122148   4.827   0.167   4.857
 7083SOL    HW222149   4.917   0.071   4.760
 7084SOL     OW22150   6.628   5.489   6.952
 7084SOL    HW122151   6.586   5.399   6.954
 7084SOL    HW222152   6.727   5.480   6.943
 7085SOL     OW22153   5.440   1.669   0.618
 7085SOL    HW122154   5.446   1.573   0.647
 7085SOL    HW222155   5.361   1.681   0.559
 7086SOL     OW22156   1.453   0.654   6.379
 7086SOL    HW122157   1.452   0.556   6.397
 7086SOL    HW222158   1.512   0.673   6.300
 7087SOL     OW22159   2.501   2.594   4.393
 7087SOL    HW122160   2.487   2.674   4.335
 7087SOL    HW222161   2.444   2.602   4.475
 7088SOL     OW22162   6.587   1.157   4.808
 7088SOL    HW122163   6.677   1.202   4.814
 7088SOL    HW222164   6.594   1.076   4.751
 7089SOL     OW22165   2.654   2.018   2.121
 7089SOL    HW122166   2.649   2.112   2.087
 7089SOL    HW222167   2.664   1.955   2.044
 7090SOL     OW22168   3.688   0.719   4.870
 7090SOL    HW122169   3.639   0.671   4.943
 7090SOL    HW222170   3.656   0.814   4.866
 7091SOL     OW22171   0.054   5.146   0.071
 7091SOL    HW122172   0.152   5.161   0.053
 7091SOL    HW222173   0.027   5.199   0.152
 7092SOL     OW22174   3.054   2.166   0.810
 7092SOL    HW122175   3.059   2.070   0.781
 7092SOL    HW222176   2.983   2.176   0.880
 7093SOL     OW22177   4.100   3.890   5.856
 7093SOL    HW122178   4.006   3.920   5.871
 7093SOL    HW222179   4.135   3.848   5.939
 7094SOL     OW22180   6.119   1.405   6.338
 7094SOL    HW122181   6.032   1.411   6.387
 7094SOL    HW222182   6.193   1.394   6.404
 7095SOL     OW22183   1.136   4.597   1.235
 7095SOL    HW122184   1.061   4.664   1.243
 7095SOL    HW222185   1.103   4.507   1.261
 7096SOL     OW22186   3.408   0.090   3.624
 7096SOL    HW122187   3.375   0.106   3.531
 7096SOL    HW222188   3.330   0.085   3.687
 7097SOL     OW22189   1.870   1.257   1.227
 7097SOL    HW122190   1.903   1.340   1.273
 7097SOL    HW222191   1.813   1.204   1.290
 7098SOL     OW22192   0.984   0.455   6.972
 7098SOL    HW122193   1.039   0.482   0.029
 7098SOL    HW222194   1.042   0.449   6.891
 7099SOL     OW22195   0.854   1.614   4.117
 7099SOL    HW122196   0.820   1.678   4.186
 7099SOL    HW222197   0.779   1.588   4.056
 7100SOL     OW22198   5.605   2.750   0.849
 7100SOL    HW122199   5.519   2.712   0.815
 7100SOL    HW222200   5.665   2.675   0.879
 7101SOL     OW22201   1.621   0.486   4.999
 7101SOL    HW122202   1.644   0.389   4.994
 7101SOL    HW222203   1.682   0.538   4.939
 7102SOL     OW22204   4.473   2.621   0.031
 7102SOL    HW122205   4.403   2.676   7.008
 7102SOL    HW222206   4.480   2.648   0.127
 7103SOL     OW22207   2.619   6.482   6.725
 7103SOL    HW122208   2.601   6.555   6.791
 7103SOL    HW222209   2.713   6.449   6.737
 7104SOL     OW22210   6.634   3.473   1.755
 7104SOL    HW122211   6.660   3.516   1.842
 7104SOL    HW222212   6.679   3.384   1.749
 7105SOL     OW22213   2.243   2.288   4.625
 7105SOL    HW122214   2.323   2.249   4.579
 7105SOL    HW222215   2.198   2.352   4.564
 7106SOL     OW22216   2.980   2.622   5.505
 7106SOL    HW122217   2.947   2.551   5.443
 7106SOL    HW222218   2.904   2.683   5.530
 7107SOL     OW22219   1.841   2.067   0.129
 7107SOL    HW122220   1.842   2.021   0.041
 7107SOL    HW222221   1.883   2.008   0.198
 7108SOL     OW22222   3.713   6.487   1.900
 7108SOL    HW122223   3.745   6.577   1.870
 7108SOL    HW222224   3.782   6.446   1.960
 7109SOL     OW22225   4.921   6.187   0.074
 7109SOL    HW122226   4.908   6.128   0.154
 7109SOL    HW222227   4.899   6.136   7.013
 7110SOL     OW22228   4.148   5.147   4.226
 7110SOL    HW122229   4.062   5.103   4.199
 7110SOL    HW222230   4.145   5.244   4.203
 7111SOL     OW22231   1.059   2.820   3.221
 7111SOL    HW122232   1.094   2.780   3.307
 7111SOL    HW222233   1.024   2.912   3.239
 7112SOL     OW22234   2.017   6.112   3.320
 7112SOL    HW122235   2.092   6.149   3.264
 7112SOL    HW222236   1.941   6.088   3.260
 7113SOL     OW22237   3.389   4.204   5.950
 7113SOL    HW122238   3.421   4.111   5.934
 7113SOL    HW222239   3.289   4.204   5.962
 7114SOL     OW22240   3.461   6.776   0.414
 7114SOL    HW122241   3.384   6.712   0.420
 7114SOL    HW222242   3.464   6.832   0.496
 7115SOL     OW22243   3.549   2.152   0.943
 7115SOL    HW122244   3.495   2.088   0.998
 7115SOL    HW222245   3.558   2.239   0.993
 7116SOL     OW22246   5.963   4.403   3.918
 7116SOL    HW122247   6.041   4.392   3.979
 7116SOL    HW222248   5.993   4.396   3.823
 7117SOL     OW22249   5.081   0.669   2.751
 7117SOL    HW122250   5.148   0.649   2.823
 7117SOL    HW222251   5.127   0.715   2.675
 7118SOL     OW22252   6.653   3.989   4.017
 7118SOL    HW122253   6.744   3.969   3.982
 7118SOL    HW222254   6.611   3.905   4.050
 7119SOL     OW22255   6.936   1.306   2.507
 7119SOL    HW122256   6.875   1.339   2.435
 7119SOL    HW222257   0.006   1.295   2.470
 7120SOL     OW22258   4.775   6.839   4.356
 7120SOL    HW122259   4.736   6.754   4.320
 7120SOL    HW222260   4.720   6.871   4.433
 7121SOL     OW22261   1.730   6.185   0.833
 7121SOL    HW122262   1.780   6.138   0.906
 7121SOL    HW222263   1.794   6.234   0.775
 7122SOL     OW22264   6.959   6.286   0.421
 7122SOL    HW122265   6.928   6.317   0.511
 7122SOL    HW222266   6.986   6.190   0.426
 7123SOL     OW22267   3.464   4.650   0.419
 7123SOL    HW122268   3.501   4.677   0.508
 7123SOL    HW222269   3.480   4.553   0.405
 7124SOL     OW22270   0.853   4.759   0.083
 7124SOL    HW122271   0.900   4.830   0.030
 7124SOL    HW222272   0.769   4.796   0.122
 7125SOL     OW22273   1.427   5.610   3.619
 7125SOL    HW122274   1.429   5.701   3.659
 7125SOL    HW222275   1.509   5.559   3.646
 7126SOL     OW22276   1.554   4.394   0.870
 7126SOL    HW122277   1.634   4.338   0.891
 7126SOL    HW222278   1.583   4.484   0.838
 7127SOL     OW22279   2.692   0.383   5.263
 7127SOL    HW122280   2.713   0.411   5.357
 7127SOL    HW222281   2.746   0.439   5.199
 7128SOL     OW22282   3.275   4.059   2.543
 7128SOL    HW122283   3.215   3.984   2.514
 7128SOL    HW222284   3.283   4.125   2.468
 7129SOL     OW22285   3.450   2.150   0.255
 7129SOL    HW122286   3.400   2.204   0.322
 7129SOL    HW222287   3.529   2.107   0.298
 7130SOL     OW22288   1.234   0.810   2.653
 7130SOL    HW122289   1.177   0.729   2.637
 7130SOL    HW222290   1.270   0.807   2.746
 7131SOL     OW22291   2.937   0.836   2.886
 7131SOL    HW122292   2.895   0.871   2.802
 7131SOL    HW222293   2.875   0.852   2.963
 7132SOL     OW22294   3.489   4.110   2.246
 7132SOL    HW122295   3.502   4.148   2.155
 7132SOL    HW222296   3.405   4.056   2.249
 7133SOL     OW22297   6.089   4.145   2.180
 7133SOL    HW122298   6.079   4.242   2.205
 7133SOL    HW222299   6.182   4.128   2.150
 7134SOL     OW22300   4.580   4.413   2.981
 7134SOL    HW122301   4.544   4.347   2.915
 7134SOL    HW222302   4.504   4.456   3.030
 7135SOL     OW22303   6.767   1.990   5.939
 7135SOL    HW122304   6.809   1.953   5.856
 7135SOL    HW222305   6.669   2.002   5.924
 7136SOL     OW22306   1.902   2.384   6.416
 7136SOL    HW122307   1.955   2.302   6.395
 7136SOL    HW222308   1.826   2.360   6.477
 7137SOL     OW22309   5.155   2.090   5.476
 7137SOL    HW122310   5.102   2.155   5.531
 7137SOL    HW222311   5.246   2.129   5.458
 7138SOL     OW22312   1.841   2.620   6.276
 7138SOL    HW122313   1.855   2.524   6.301
 7138SOL    HW222314   1.767   2.627   6.209
 7139SOL     OW22315   1.942   1.213   0.212
 7139SOL    HW122316   2.015   1.267   0.171
 7139SOL    HW222317   1.873   1.274   0.251
 7140SOL     OW22318   6.680   4.477   4.481
 7140SOL    HW122319   6.737   4.509   4.404
 7140SOL    HW222320   6.600   4.535   4.489
 7141SOL     OW22321   1.050   0.750   1.691
 7141SOL    HW122322   1.142   0.733   1.727
 7141SOL    HW222323   0.996   0.667   1.698
 7142SOL     OW22324   3.734   6.399   3.809
 7142SOL    HW122325   3.800   6.472   3.791
 7142SOL    HW222326   3.643   6.439   3.820
 7143SOL     OW22327   1.852   2.842   4.041
 7143SOL    HW122328   1.897   2.771   4.095
 7143SOL    HW222329   1.889   2.843   3.948
 7144SOL     OW22330   1.906   3.159   3.194
 7144SOL    HW122331   1.842   3.133   3.266
 7144SOL    HW222332   1.930   3.256   3.203
 7145SOL     OW22333   3.395   5.532   6.675
 7145SOL    HW122334   3.492   5.508   6.674
 7145SOL    HW222335   3.385   5.631   6.664
 7146SOL     OW22336   3.800   5.135   1.106
 7146SOL    HW122337   3.898   5.118   1.099
 7146SOL    HW222338   3.774   5.208   1.042
 7147SOL     OW22339   0.608   0.703   3.988
 7147SOL    HW122340   0.613   0.682   3.891
 7147SOL    HW222341   0.700   0.713   4.025
 7148SOL     OW22342   6.544   1.890   0.654
 7148SOL    HW122343   6.496   1.948   0.589
 7148SOL    HW222344   6.608   1.945   0.708
 7149SOL     OW22345   1.524   1.018   4.684
 7149SOL    HW122346   1.550   1.078   4.609
 7149SOL    HW222347   1.426   1.026   4.701
 7150SOL     OW22348   6.785   3.915   6.356
 7150SOL    HW122349   6.695   3.903   6.314
 7150SOL    HW222350   6.821   4.005   6.334
 7151SOL     OW22351   1.564   6.761   0.945
 7151SOL    HW122352   1.485   6.822   0.950
 7151SOL    HW222353   1.598   6.759   0.851
 7152SOL     OW22354   0.392   2.411   4.583
 7152SOL    HW122355   0.369   2.329   4.531
 7152SOL    HW222356   0.310   2.468   4.592
 7153SOL     OW22357   4.484   1.955   3.265
 7153SOL    HW122358   4.396   1.947   3.312
 7153SOL    HW222359   4.470   1.949   3.166
 7154SOL     OW22360   4.088   0.431   4.417
 7154SOL    HW122361   4.108   0.483   4.334
 7154SOL    HW222362   3.996   0.453   4.449
 7155SOL     OW22363   2.007   1.845   4.313
 7155SOL    HW122364   2.066   1.816   4.237
 7155SOL    HW222365   1.986   1.766   4.370
 7156SOL     OW22366   1.976   5.315   5.279
 7156SOL    HW122367   2.016   5.295   5.369
 7156SOL    HW222368   1.906   5.246   5.259
 7157SOL     OW22369   5.870   4.657   0.869
 7157SOL    HW122370   5.854   4.705   0.783
 7157SOL    HW222371   5.843   4.561   0.860
 7158SOL     OW22372   3.841   0.459   2.806
 7158SOL    HW122373   3.755   0.500   2.775
 7158SOL    HW222374   3.824   0.405   2.889
 7159SOL     OW22375   1.545   6.523   0.077
 7159SOL    HW122376   1.618   6.464   0.112
 7159SOL    HW222377   1.477   6.537   0.149
 7160SOL     OW22378   0.754   0.350   2.698
 7160SOL    HW122379   0.760   0.449   2.710
 7160SOL    HW222380   0.689   0.330   2.625
 7161SOL     OW22381   2.859   3.766   5.079
 7161SOL    HW122382   2.872   3.764   5.178
 7161SOL    HW222383   2.770   3.728   5.056
 7162SOL     OW22384   3.622   5.080   4.048
 7162SOL    HW122385   3.587   4.992   4.081
 7162SOL    HW222386   3.598   5.152   4.112
 7163SOL     OW22387   0.986   6.492   4.194
 7163SOL    HW122388   1.065   6.444   4.232
 7163SOL    HW222389   0.991   6.490   4.094
 7164SOL     OW22390   3.670   1.211   4.380
 7164SOL    HW122391   3.574   1.224   4.407
 7164SOL    HW222392   3.689   1.268   4.300
 7165SOL     OW22393   4.518   5.038   1.871
 7165SOL    HW122394   4.519   5.137   1.858
 7165SOL    HW222395   4.424   5.004   1.870
 7166SOL     OW22396   3.239   6.917   2.712
 7166SOL    HW122397   3.201   7.005   2.683
 7166SOL    HW222398   3.317   6.934   2.772
 7167SOL     OW22399   5.467   2.379   0.636
 7167SOL    HW122400   5.420   2.458   0.674
 7167SOL    HW222401   5.548   2.409   0.585
 7168SOL     OW22402   0.193   1.571   4.005
 7168SOL    HW122403   0.230   1.492   3.956
 7168SOL    HW222404   0.211   1.654   3.952
 7169SOL     OW22405   1.767   2.525   0.332
 7169SOL    HW122406   1.751   2.452   0.265
 7169SOL    HW222407   1.769   2.486   0.424
 7170SOL     OW22408   4.853   3.939   4.461
 7170SOL    HW122409   4.838   3.930   4.560
 7170SOL    HW222410   4.903   3.860   4.428
 7171SOL     OW22411   3.857   3.543   5.567
 7171SOL    HW122412   3.781   3.607   5.555
 7171SOL    HW222413   3.935   3.592   5.605
 7172SOL     OW22414   5.191   5.521   1.841
 7172SOL    HW122415   5.232   5.459   1.774
 7172SOL    HW222416   5.243   5.518   1.926
 7173SOL     OW22417   6.490   6.587   4.041
 7173SOL    HW122418   6.581   6.629   4.047
 7173SOL    HW222419   6.477   6.547   3.950
 7174SOL     OW22420   1.052   6.514   5.698
 7174SOL    HW122421   1.102   6.544   5.616
 7174SOL    HW222422   1.110   6.523   5.778
 7175SOL     OW22423   5.765   3.837   5.736
 7175SOL    HW122424   5.728   3.745   5.726
 7175SOL    HW222425   5.704   3.903   5.691
 7176SOL     OW22426   1.548   3.434   1.319
 7176SOL    HW122427   1.633   3.467   1.360
 7176SOL    HW222428   1.565   3.345   1.276
 7177SOL     OW22429   0.024   5.070   1.485
 7177SOL    HW122430   0.078   5.128   1.546
 7177SOL    HW222431   7.004   5.126   1.414
 7178SOL     OW22432   6.748   0.532   6.505
 7178SOL    HW122433   6.815   0.597   6.471
 7178SOL    HW222434   6.793   0.445   6.527
 7179SOL     OW22435   1.410   4.017   6.112
 7179SOL    HW122436   1.481   3.958   6.149
 7179SOL    HW222437   1.386   4.087   6.179
 7180SOL     OW22438   7.018   0.280   1.920
 7180SOL    HW122439   0.082   0.276   1.868
 7180SOL    HW222440   7.000   0.190   1.959
 7181SOL     OW22441   5.469   6.851   2.379
 7181SOL    HW122442   5.395   6.908   2.415
 7181SOL    HW222443   5.493   6.781   2.446
 7182SOL     OW22444   3.466   3.945   5.960
 7182SOL    HW122445   3.542   3.882   5.978
 7182SOL    HW222446   3.390   3.924   6.021
 7183SOL     OW22447   2.214   2.388   2.684
 7183SOL    HW122448   2.299   2.434   2.658
 7183SOL    HW222449   2.163   2.446   2.748
 7184SOL     OW22450   2.705   5.464   3.050
 7184SOL    HW122451   2.723   5.377   3.005
 7184SOL    HW222452   2.653   5.524   2.989
 7185SOL     OW22453   5.477   2.019   6.099
 7185SOL    HW122454   5.515   2.108   6.074
 7185SOL    HW222455   5.481   2.008   6.198
 7186SOL     OW22456   1.511   6.864   4.571
 7186SOL    HW122457   1.607   6.884   4.591
 7186SOL    HW222458   1.498   6.861   4.472
 7187SOL     OW22459   1.718   4.586   1.150
 7187SOL    HW122460   1.699   4.635   1.065
 7187SOL    HW222461   1.644   4.602   1.215
 7188SOL     OW22462   4.014   0.157   1.736
 7188SOL    HW122463   4.095   0.144   1.793
 7188SOL    HW222464   3.940   0.194   1.792
 7189SOL     OW22465   6.459   0.475   5.799
 7189SOL    HW122466   6.428   0.546   5.862
 7189SOL    HW222467   6.462   0.387   5.847
 7190SOL     OW22468   4.495   4.789   2.414
 7190SOL    HW122469   4.485   4.882   2.449
 7190SOL    HW222470   4.519   4.727   2.489
 7191SOL     OW22471   0.469   3.662   1.621
 7191SOL    HW122472   0.501   3.721   1.548
 7191SOL    HW222473   0.383   3.697   1.658
 7192SOL     OW22474   3.459   4.420   6.087
 7192SOL    HW122475   3.431   4.336   6.040
 7192SOL    HW222476   3.382   4.453   6.143
 7193SOL     OW22477   6.161   2.089   5.135
 7193SOL    HW122478   6.110   2.174   5.144
 7193SOL    HW222479   6.259   2.108   5.147
 7194SOL     OW22480   3.040   1.105   1.702
 7194SOL    HW122481   3.118   1.097   1.763
 7194SOL    HW222482   3.069   1.147   1.616
 7195SOL     OW22483   1.238   0.329   4.049
 7195SOL    HW122484   1.298   0.295   3.976
 7195SOL    HW222485   1.152   0.361   4.008
 7196SOL     OW22486   3.993   4.177   1.596
 7196SOL    HW122487   3.968   4.151   1.503
 7196SOL    HW222488   4.090   4.159   1.611
 7197SOL     OW22489   1.978   0.681   3.599
 7197SOL    HW122490   1.916   0.693   3.522
 7197SOL    HW222491   2.068   0.652   3.566
 7198SOL     OW22492   0.394   6.946   5.358
 7198SOL    HW122493   0.480   6.923   5.312
 7198SOL    HW222494   0.411   7.012   5.430
 7199SOL     OW22495   6.679   5.851   1.550
 7199SOL    HW122496   6.597   5.899   1.582
 7199SOL    HW222497   6.740   5.916   1.505
 7200SOL     OW22498   0.919   1.931   2.304
 7200SOL    HW122499   0.928   1.933   2.205
 7200SOL    HW222500   0.893   2.022   2.338
 7201SOL     OW22501   1.573   5.119   2.963
 7201SOL    HW122502   1.629   5.127   2.880
 7201SOL    HW222503   1.574   5.206   3.012
 7202SOL     OW22504   1.975   0.305   5.164
 7202SOL    HW122505   2.071   0.281   5.154
 7202SOL    HW222506   1.963   0.404   5.152
 7203SOL     OW22507   6.110   0.401   6.819
 7203SOL    HW122508   6.126   0.353   6.905
 7203SOL    HW222509   6.070   0.337   6.753
 7204SOL     OW22510   1.066   3.193   2.231
 7204SOL    HW122511   1.162   3.203   2.257
 7204SOL    HW222512   1.008   3.237   2.299
 7205SOL     OW22513   1.478   4.580   1.499
 7205SOL    HW122514   1.538   4.510   1.539
 7205SOL    HW222515   1.383   4.559   1.523
 7206SOL     OW22516   0.007   0.559   1.769
 7206SOL    HW122517   6.959   0.492   1.794
 7206SOL    HW222518   0.034   0.545   1.673
 7207SOL     OW22519   4.417   0.186   1.273
 7207SOL    HW122520   4.339   0.125   1.261
 7207SOL    HW222521   4.499   0.142   1.237
 7208SOL     OW22522   3.113   6.667   5.195
 7208SOL    HW122523   3.035   6.727   5.208
 7208SOL    HW222524   3.128   6.652   5.097
 7209SOL     OW22525   2.336   3.587   5.284
 7209SOL    HW122526   2.283   3.509   5.318
 7209SOL    HW222527   2.274   3.649   5.234
 7210SOL     OW22528   4.276   1.076   4.394
 7210SOL    HW122529   4.346   1.144   4.373
 7210SOL    HW222530   4.193   1.098   4.343
 7211SOL     OW22531   0.243   5.586   2.968
 7211SOL    HW122532   0.303   5.637   3.028
 7211SOL    HW222533   0.151   5.582   3.007
 7212SOL     OW22534   5.188   6.566   2.533
 7212SOL    HW122535   5.140   6.509   2.466
 7212SOL    HW222536   5.285   6.572   2.508
 7213SOL     OW22537   5.923   6.196   5.291
 7213SOL    HW122538   5.956   6.288   5.310
 7213SOL    HW222539   5.828   6.187   5.319
 7214SOL     OW22540   1.717   5.016   6.041
 7214SOL    HW122541   1.703   5.096   6.100
 7214SOL    HW222542   1.629   4.988   6.002
 7215SOL     OW22543   1.196   2.953   1.607
 7215SOL    HW122544   1.194   2.873   1.666
 7215SOL    HW222545   1.259   2.937   1.530
 7216SOL     OW22546   2.490   1.804   2.834
 7216SOL    HW122547   2.443   1.716   2.824
 7216SOL    HW222548   2.570   1.806   2.774
 7217SOL     OW22549   1.576   3.838   2.026
 7217SOL    HW122550   1.656   3.897   2.014
 7217SOL    HW222551   1.494   3.890   2.001
 7218SOL     OW22552   6.817   3.214   3.720
 7218SOL    HW122553   6.853   3.122   3.735
 7218SOL    HW222554   6.823   3.266   3.806
 7219SOL     OW22555   2.077   1.037   1.727
 7219SOL    HW122556   2.018   1.083   1.793
 7219SOL    HW222557   2.168   1.024   1.768
 7220SOL     OW22558   6.884   1.721   3.543
 7220SOL    HW122559   6.850   1.710   3.637
 7220SOL    HW222560   6.950   1.796   3.541
 7221SOL     OW22561   6.770   3.705   4.616
 7221SOL    HW122562   6.844   3.764   4.649
 7221SOL    HW222563   6.691   3.713   4.678
 7222SOL     OW22564   6.237   0.564   2.637
 7222SOL    HW122565   6.167   0.635   2.627
 7222SOL    HW222566   6.193   0.474   2.639
 7223SOL     OW22567   5.050   0.942   4.732
 7223SOL    HW122568   5.122   1.011   4.743
 7223SOL    HW222569   4.964   0.987   4.709
 7224SOL     OW22570   4.963   0.856   3.574
 7224SOL    HW122571   5.036   0.878   3.509
 7224SOL    HW222572   4.948   0.934   3.634
 7225SOL     OW22573   2.744   0.440   1.798
 7225SOL    HW122574   2.755   0.374   1.724
 7225SOL    HW222575   2.647   0.465   1.807
 7226SOL     OW22576   5.889   6.392   4.596
 7226SOL    HW122577   5.805   6.338   4.595
 7226SOL    HW222578   5.882   6.463   4.666
 7227SOL     OW22579   1.069   2.733   5.100
 7227SOL    HW122580   0.977   2.764   5.124
 7227SOL    HW222581   1.071   2.704   5.004
 7228SOL     OW22582   1.958   6.826   3.235
 7228SOL    HW122583   1.884   6.824   3.302
 7228SOL    HW222584   2.007   6.913   3.242
 7229SOL     OW22585   6.253   0.512   3.479
 7229SOL    HW122586   6.166   0.551   3.509
 7229SOL    HW222587   6.237   0.450   3.403
 7230SOL     OW22588   6.133   5.582   1.228
 7230SOL    HW122589   6.176   5.498   1.194
 7230SOL    HW222590   6.060   5.610   1.166
 7231SOL     OW22591   6.297   1.248   7.012
 7231SOL    HW122592   6.278   1.295   0.076
 7231SOL    HW222593   6.371   1.183   0.003
 7232SOL     OW22594   2.962   3.135   1.024
 7232SOL    HW122595   2.961   3.039   1.049
 7232SOL    HW222596   2.925   3.190   1.099
 7233SOL     OW22597   0.914   1.866   6.676
 7233SOL    HW122598   0.943   1.962   6.673
 7233SOL    HW222599   0.994   1.807   6.686
 7234SOL     OW22600   5.180   2.406   3.571
 7234SOL    HW122601   5.168   2.457   3.486
 7234SOL    HW222602   5.277   2.381   3.581
 7235SOL     OW22603   5.674   2.927   4.412
 7235SOL    HW122604   5.656   2.933   4.313
 7235SOL    HW222605   5.709   2.836   4.434
 7236SOL     OW22606   0.534   1.718   3.671
 7236SOL    HW122607   0.573   1.756   3.587
 7236SOL    HW222608   0.565   1.623   3.682
 7237SOL     OW22609   6.655   5.083   5.904
 7237SOL    HW122610   6.695   5.137   5.830
 7237SOL    HW222611   6.696   5.110   5.991
 7238SOL     OW22612   1.114   6.859   2.683
 7238SOL    HW122613   1.114   6.818   2.592
 7238SOL    HW222614   1.020   6.881   2.710
 7239SOL     OW22615   4.640   1.726   2.236
 7239SOL    HW122616   4.580   1.760   2.164
 7239SOL    HW222617   4.715   1.791   2.250
 7240SOL     OW22618   2.942   3.340   3.332
 7240SOL    HW122619   2.976   3.403   3.402
 7240SOL    HW222620   2.986   3.251   3.343
 7241SOL     OW22621   5.120   0.008   4.780
 7241SOL    HW122622   5.122   7.022   4.879
 7241SOL    HW222623   5.207   0.044   4.747
 7242SOL     OW22624   6.244   5.699   0.547
 7242SOL    HW122625   6.270   5.676   0.453
 7242SOL    HW222626   6.284   5.787   0.572
 7243SOL     OW22627   0.561   6.148   1.406
 7243SOL    HW122628   0.577   6.125   1.311
 7243SOL    HW222629   0.537   6.065   1.457
 7244SOL     OW22630   4.534   2.226   1.551
 7244SOL    HW122631   4.605   2.215   1.481
 7244SOL    HW222632   4.464   2.155   1.539
 7245SOL     OW22633   5.477   2.277   3.935
 7245SOL    HW122634   5.435   2.319   3.854
 7245SOL    HW222635   5.576   2.271   3.921
 7246SOL     OW22636   1.222   5.674   5.744
 7246SOL    HW122637   1.215   5.758   5.797
 7246SOL    HW222638   1.319   5.652   5.730
 7247SOL     OW22639   5.036   5.284   3.388
 7247SOL    HW122640   5.018   5.344   3.466
 7247SOL    HW222641   5.132   5.293   3.361
 7248SOL     OW22642   3.136   0.775   5.506
 7248SOL    HW122643   3.068   0.834   5.463
 7248SOL    HW222644   3.228   0.805   5.478
 7249SOL     OW22645   5.101   2.243   6.482
 7249SOL    HW122646   5.062   2.305   6.413
 7249SOL    HW222647   5.069   2.150   6.464
 7250SOL     OW22648   3.472   3.274   0.348
 7250SOL    HW122649   3.386   3.295   0.395
 7250SOL    HW222650   3.461   3.189   0.297
 7251SOL     OW22651   6.261   1.687   5.859
 7251SOL    HW122652   6.180   1.629   5.853
 7251SOL    HW222653   6.261   1.735   5.947
 7252SOL     OW22654   4.415   3.642   5.281
 7252SOL    HW122655   4.499   3.614   5.237
 7252SOL    HW222656   4.342   3.578   5.259
 7253SOL     OW22657   5.192   4.910   0.403
 7253SOL    HW122658   5.095   4.918   0.426
 7253SOL    HW222659   5.213   4.816   0.375
 7254SOL     OW22660   4.958   5.947   5.341
 7254SOL    HW122661   4.875   5.966   5.290
 7254SOL    HW222662   4.992   5.856   5.317
 7255SOL     OW22663   3.496   3.750   4.183
 7255SOL    HW122664   3.548   3.775   4.265
 7255SOL    HW222665   3.398   3.759   4.201
 7256SOL     OW22666   3.965   6.039   3.911
 7256SOL    HW122667   4.015   6.048   3.998
 7256SOL    HW222668   3.872   6.009   3.930
 7257SOL     OW22669   6.340   5.166   2.541
 7257SOL    HW122670   6.243   5.156   2.561
 7257SOL    HW222671   6.354   5.245   2.482
 7258SOL     OW22672   2.252   0.882   5.823
 7258SOL    HW122673   2.339   0.854   5.864
 7258SOL    HW222674   2.243   0.982   5.831
 7259SOL     OW22675   3.847   3.944   5.896
 7259SOL    HW122676   3.803   3.981   5.814
 7259SOL    HW222677   3.779   3.899   5.953
 7260SOL     OW22678   4.542   2.130   2.725
 7260SOL    HW122679   4.633   2.170   2.712
 7260SOL    HW222680   4.513   2.143   2.820
 7261SOL     OW22681   2.746   4.782   1.198
 7261SOL    HW122682   2.837   4.782   1.239
 7261SOL    HW222683   2.679   4.810   1.266
 7262SOL     OW22684   6.162   0.894   4.468
 7262SOL    HW122685   6.155   0.878   4.370
 7262SOL    HW222686   6.113   0.822   4.517
 7263SOL     OW22687   4.632   4.429   1.007
 7263SOL    HW122688   4.722   4.418   1.047
 7263SOL    HW222689   4.562   4.402   1.073
 7264SOL     OW22690   6.386   6.751   5.101
 7264SOL    HW122691   6.467   6.755   5.042
 7264SOL    HW222692   6.414   6.729   5.194
 7265SOL     OW22693   4.929   2.774   6.532
 7265SOL    HW122694   4.984   2.693   6.555
 7265SOL    HW222695   4.862   2.750   6.462
 7266SOL     OW22696   3.976   1.546   2.743
 7266SOL    HW122697   3.975   1.584   2.836
 7266SOL    HW222698   4.054   1.484   2.733
 7267SOL     OW22699   4.438   2.398   4.348
 7267SOL    HW122700   4.361   2.420   4.409
 7267SOL    HW222701   4.475   2.482   4.309
 7268SOL     OW22702   4.203   6.242   6.263
 7268SOL    HW122703   4.257   6.245   6.347
 7268SOL    HW222704   4.110   6.271   6.281
 7269SOL     OW22705   1.520   6.863   4.074
 7269SOL    HW122706   1.568   6.848   3.988
 7269SOL    HW222707   1.466   6.948   4.068
 7270SOL     OW22708   3.910   2.456   1.546
 7270SOL    HW122709   3.831   2.486   1.599
 7270SOL    HW222710   3.991   2.508   1.574
 7271SOL     OW22711   4.582   6.100   3.505
 7271SOL    HW122712   4.540   6.149   3.428
 7271SOL    HW222713   4.628   6.166   3.564
 7272SOL     OW22714   5.293   1.438   1.828
 7272SOL    HW122715   5.385   1.444   1.789
 7272SOL    HW222716   5.225   1.433   1.755
 7273SOL     OW22717   6.160   4.598   4.195
 7273SOL    HW122718   6.084   4.640   4.147
 7273SOL    HW222719   6.131   4.511   4.234
 7274SOL     OW22720   5.804   4.994   3.771
 7274SOL    HW122721   5.820   5.055   3.694
 7274SOL    HW222722   5.743   4.920   3.744
 7275SOL     OW22723   6.145   0.381   1.998
 7275SOL    HW122724   6.223   0.421   1.950
 7275SOL    HW222725   6.060   0.419   1.961
 7276SOL     OW22726   4.015   1.631   2.998
 7276SOL    HW122727   3.982   1.552   3.051
 7276SOL    HW222728   3.959   1.711   3.020
 7277SOL     OW22729   6.600   2.776   3.771
 7277SOL    HW122730   6.688   2.760   3.726
 7277SOL    HW222731   6.554   2.854   3.728
 7278SOL     OW22732   3.732   1.384   2.745
 7278SOL    HW122733   3.803   1.435   2.696
 7278SOL    HW222734   3.680   1.446   2.804
 7279SOL     OW22735   3.393   3.565   2.446
 7279SOL    HW122736   3.457   3.595   2.375
 7279SOL    HW222737   3.445   3.531   2.525
 7280SOL     OW22738   5.966   1.757   5.951
 7280SOL    HW122739   5.933   1.787   5.861
 7280SOL    HW222740   5.970   1.657   5.953
 7281SOL     OW22741   3.419   0.112   4.097
 7281SOL    HW122742   3.476   0.147   4.023
 7281SOL    HW222743   3.420   0.177   4.173
 7282SOL     OW22744   0.879   4.119   1.332
 7282SOL    HW122745   0.827   4.078   1.407
 7282SOL    HW222746   0.823   4.117   1.249
 7283SOL     OW22747   2.718   5.867   3.261
 7283SOL    HW122748   2.781   5.916   3.201
 7283SOL    HW222749   2.716   5.770   3.235
 7284SOL     OW22750   0.366   1.050   4.219
 7284SOL    HW122751   0.382   1.029   4.122
 7284SOL    HW222752   0.289   1.112   4.228
 7285SOL     OW22753   4.872   2.388   2.397
 7285SOL    HW122754   4.791   2.435   2.364
 7285SOL    HW222755   4.946   2.397   2.330
 7286SOL     OW22756   6.449   1.492   5.088
 7286SOL    HW122757   6.392   1.556   5.140
 7286SOL    HW222758   6.491   1.427   5.150
 7287SOL     OW22759   3.647   0.999   4.843
 7287SOL    HW122760   3.744   1.019   4.831
 7287SOL    HW222761   3.595   1.084   4.836
 7288SOL     OW22762   2.894   2.542   1.026
 7288SOL    HW122763   2.955   2.616   0.999
 7288SOL    HW222764   2.891   2.537   1.126
 7289SOL     OW22765   7.009   2.754   0.176
 7289SOL    HW122766   7.002   2.823   0.105
 7289SOL    HW222767   0.082   2.748   0.207
 7290SOL     OW22768   3.269   2.043   4.896
 7290SOL    HW122769   3.219   1.972   4.945
 7290SOL    HW222770   3.287   2.120   4.957
 7291SOL     OW22771   1.095   0.923   7.016
 7291SOL    HW122772   1.126   0.833   0.022
 7291SOL    HW222773   1.034   0.915   6.938
 7292SOL     OW22774   2.881   1.138   1.902
 7292SOL    HW122775   2.918   1.126   1.810
 7292SOL    HW222776   2.942   1.093   1.968
 7293SOL     OW22777   5.746   1.431   4.337
 7293SOL    HW122778   5.686   1.395   4.266
 7293SOL    HW222779   5.734   1.530   4.344
 7294SOL     OW22780   2.098   1.362   2.322
 7294SOL    HW122781   2.122   1.377   2.226
 7294SOL    HW222782   2.012   1.311   2.327
 7295SOL     OW22783   5.331   4.497   1.595
 7295SOL    HW122784   5.323   4.584   1.545
 7295SOL    HW222785   5.427   4.469   1.596
 7296SOL     OW22786   3.355   6.976   3.143
 7296SOL    HW122787   3.391   7.000   3.053
 7296SOL    HW222788   3.281   6.909   3.133
 7297SOL     OW22789   5.147   0.115   6.574
 7297SOL    HW122790   5.084   0.190   6.596
 7297SOL    HW222791   5.096   0.031   6.560
 7298SOL     OW22792   3.967   4.112   0.735
 7298SOL    HW122793   4.046   4.152   0.688
 7298SOL    HW222794   3.925   4.043   0.676
 7299SOL     OW22795   6.973   2.974   0.390
 7299SOL    HW122796   6.878   2.993   0.416
 7299SOL    HW222797   6.978   2.885   0.346
 7300SOL     OW22798   0.789   3.928   2.932
 7300SOL    HW122799   0.830   3.837   2.934
 7300SOL    HW222800   0.747   3.944   2.842
 7301SOL     OW22801   4.180   1.913   0.632
 7301SOL    HW122802   4.145   1.994   0.680
 7301SOL    HW222803   4.121   1.893   0.554
 7302SOL     OW22804   5.746   1.452   6.682
 7302SOL    HW122805   5.759   1.546   6.715
 7302SOL    HW222806   5.676   1.451   6.611
 7303SOL     OW22807   3.563   2.074   0.547
 7303SOL    HW122808   3.592   2.093   0.640
 7303SOL    HW222809   3.465   2.054   0.546
 7304SOL     OW22810   2.740   6.805   0.288
 7304SOL    HW122811   2.731   6.748   0.206
 7304SOL    HW222812   2.690   6.890   0.275
 7305SOL     OW22813   6.945   6.727   6.051
 7305SOL    HW122814   6.946   6.715   5.952
 7305SOL    HW222815   7.016   6.671   6.092
 7306SOL     OW22816   2.078   3.458   0.708
 7306SOL    HW122817   2.031   3.536   0.666
 7306SOL    HW222818   2.122   3.488   0.792
 7307SOL     OW22819   4.631   6.908   0.667
 7307SOL    HW122820   4.569   6.932   0.593
 7307SOL    HW222821   4.597   6.946   0.753
 7308SOL     OW22822   3.780   1.997   2.869
 7308SOL    HW122823   3.808   2.047   2.787
 7308SOL    HW222824   3.846   1.923   2.887
 7309SOL     OW22825   1.940   5.469   3.242
 7309SOL    HW122826   1.910   5.383   3.200
 7309SOL    HW222827   2.036   5.462   3.268
 7310SOL     OW22828   5.212   3.605   6.975
 7310SOL    HW122829   5.198   3.703   6.988
 7310SOL    HW222830   5.130   3.565   6.934
 7311SOL     OW22831   1.309   6.815   5.843
 7311SOL    HW122832   1.344   6.909   5.843
 7311SOL    HW222833   1.385   6.752   5.858
 7312SOL     OW22834   5.087   1.962   4.860
 7312SOL    HW122835   5.119   1.916   4.777
 7312SOL    HW222836   5.164   1.980   4.920
 7313SOL     OW22837   3.656   1.291   2.489
 7313SOL    HW122838   3.713   1.301   2.571
 7313SOL    HW222839   3.703   1.233   2.423
 7314SOL     OW22840   3.132   5.599   4.718
 7314SOL    HW122841   3.086   5.529   4.772
 7314SOL    HW222842   3.163   5.559   4.631
 7315SOL     OW22843   2.747   4.742   2.186
 7315SOL    HW122844   2.839   4.766   2.218
 7315SOL    HW222845   2.753   4.687   2.103
 7316SOL     OW22846   2.639   1.045   2.867
 7316SOL    HW122847   2.674   1.085   2.952
 7316SOL    HW222848   2.699   1.072   2.791
 7317SOL     OW22849   4.716   1.481   0.694
 7317SOL    HW122850   4.787   1.546   0.669
 7317SOL    HW222851   4.689   1.495   0.789
 7318SOL     OW22852   4.799   6.780   1.007
 7318SOL    HW122853   4.845   6.716   1.068
 7318SOL    HW222854   4.795   6.741   0.914
 7319SOL     OW22855   4.259   5.075   6.185
 7319SOL    HW122856   4.228   5.073   6.090
 7319SOL    HW222857   4.251   4.983   6.224
 7320SOL     OW22858   1.640   3.064   0.679
 7320SOL    HW122859   1.737   3.077   0.661
 7320SOL    HW222860   1.600   3.151   0.711
 7321SOL     OW22861   2.200   2.464   5.104
 7321SOL    HW122862   2.126   2.444   5.039
 7321SOL    HW222863   2.195   2.400   5.181
 7322SOL     OW22864   3.180   1.832   3.838
 7322SOL    HW122865   3.093   1.823   3.887
 7322SOL    HW222866   3.242   1.760   3.869
 7323SOL     OW22867   2.198   2.269   6.888
 7323SOL    HW122868   2.113   2.216   6.883
 7323SOL    HW222869   2.177   2.366   6.896
 7324SOL     OW22870   6.023   3.697   5.536
 7324SOL    HW122871   6.039   3.602   5.508
 7324SOL    HW222872   6.099   3.754   5.508
 7325SOL     OW22873   2.903   0.822   0.423
 7325SOL    HW122874   2.887   0.777   0.511
 7325SOL    HW222875   2.956   0.761   0.364
 7326SOL     OW22876   3.985   0.201   0.434
 7326SOL    HW122877   3.932   0.283   0.454
 7326SOL    HW222878   3.974   0.136   0.509
 7327SOL     OW22879   1.456   4.795   3.559
 7327SOL    HW122880   1.475   4.852   3.639
 7327SOL    HW222881   1.429   4.852   3.482
 7328SOL     OW22882   3.952   6.515   0.262
 7328SOL    HW122883   3.911   6.598   0.301
 7328SOL    HW222884   4.042   6.536   0.226
 7329SOL     OW22885   2.756   4.215   6.719
 7329SOL    HW122886   2.761   4.156   6.638
 7329SOL    HW222887   2.676   4.273   6.713
 7330SOL     OW22888   2.784   3.246   1.769
 7330SOL    HW122889   2.710   3.178   1.773
 7330SOL    HW222890   2.746   3.337   1.786
 7331SOL     OW22891   5.145   1.754   2.574
 7331SOL    HW122892   5.197   1.771   2.658
 7331SOL    HW222893   5.144   1.838   2.518
 7332SOL     OW22894   1.585   0.131   4.889
 7332SOL    HW122895   1.593   0.078   4.973
 7332SOL    HW222896   1.489   0.139   4.863
 7333SOL     OW22897   5.999   1.417   1.254
 7333SOL    HW122898   6.020   1.454   1.164
 7333SOL    HW222899   6.079   1.423   1.313
 7334SOL     OW22900   0.628   4.763   5.319
 7334SOL    HW122901   0.670   4.803   5.237
 7334SOL    HW222902   0.692   4.770   5.396
 7335SOL     OW22903   6.879   2.625   0.960
 7335SOL    HW122904   6.832   2.579   0.884
 7335SOL    HW222905   6.824   2.618   1.043
 7336SOL     OW22906   2.310   0.137   1.300
 7336SOL    HW122907   2.306   0.181   1.210
 7336SOL    HW222908   2.257   0.052   1.298
 7337SOL     OW22909   2.945   1.874   1.733
 7337SOL    HW122910   2.910   1.958   1.693
 7337SOL    HW222911   3.045   1.872   1.724
 7338SOL     OW22912   5.181   2.145   6.994
 7338SOL    HW122913   5.272   2.146   0.014
 7338SOL    HW222914   5.184   2.092   6.909
 7339SOL     OW22915   6.746   6.556   3.632
 7339SOL    HW122916   6.810   6.539   3.557
 7339SOL    HW222917   6.745   6.477   3.693
 7340SOL     OW22918   2.746   6.900   0.603
 7340SOL    HW122919   2.804   6.841   0.547
 7340SOL    HW222920   2.673   6.938   0.546
 7341SOL     OW22921   5.534   5.485   2.940
 7341SOL    HW122922   5.469   5.561   2.936
 7341SOL    HW222923   5.560   5.469   3.035
 7342SOL     OW22924   6.961   4.919   6.920
 7342SOL    HW122925   6.872   4.951   6.887
 7342SOL    HW222926   7.002   4.989   6.978
 7343SOL     OW22927   0.185   1.493   3.482
 7343SOL    HW122928   0.251   1.455   3.416
 7343SOL    HW222929   0.154   1.583   3.450
 7344SOL     OW22930   1.526   1.270   5.819
 7344SOL    HW122931   1.445   1.287   5.874
 7344SOL    HW222932   1.530   1.173   5.793
 7345SOL     OW22933   1.754   6.690   6.952
 7345SOL    HW122934   1.823   6.638   6.901
 7345SOL    HW222935   1.699   6.627   7.007
 7346SOL     OW22936   2.844   5.499   3.533
 7346SOL    HW122937   2.922   5.531   3.587
 7346SOL    HW222938   2.806   5.576   3.481
 7347SOL     OW22939   6.122   3.006   3.566
 7347SOL    HW122940   6.056   3.024   3.639
 7347SOL    HW222941   6.123   2.908   3.545
 7348SOL     OW22942   5.301   0.125   6.139
 7348SOL    HW122943   5.336   0.065   6.211
 7348SOL    HW222944   5.377   0.174   6.097
 7349SOL     OW22945   3.478   1.677   1.296
 7349SOL    HW122946   3.561   1.712   1.339
 7349SOL    HW222947   3.487   1.683   1.196
 7350SOL     OW22948   1.904   1.158   2.323
 7350SOL    HW122949   1.986   1.100   2.319
 7350SOL    HW222950   1.823   1.101   2.327
 7351SOL     OW22951   6.517   4.809   0.446
 7351SOL    HW122952   6.524   4.827   0.544
 7351SOL    HW222953   6.595   4.850   0.399
 7352SOL     OW22954   6.390   1.713   2.770
 7352SOL    HW122955   6.444   1.776   2.714
 7352SOL    HW222956   6.429   1.621   2.763
 7353SOL     OW22957   5.559   1.840   4.224
 7353SOL    HW122958   5.504   1.762   4.196
 7353SOL    HW222959   5.604   1.820   4.311
 7354SOL     OW22960   6.078   4.612   5.074
 7354SOL    HW122961   6.001   4.553   5.093
 7354SOL    HW222962   6.059   4.705   5.107
 7355SOL     OW22963   0.067   5.652   0.885
 7355SOL    HW122964   0.080   5.560   0.847
 7355SOL    HW222965   0.118   5.661   0.970
 7356SOL     OW22966   6.976   2.314   6.177
 7356SOL    HW122967   6.970   2.362   6.265
 7356SOL    HW222968   0.023   2.359   6.119
 7357SOL     OW22969   1.487   0.894   1.347
 7357SOL    HW122970   1.497   0.907   1.446
 7357SOL    HW222971   1.436   0.970   1.308
 7358SOL     OW22972   3.808   1.283   3.689
 7358SOL    HW122973   3.860   1.352   3.739
 7358SOL    HW222974   3.759   1.225   3.754
 7359SOL     OW22975   3.223   3.836   4.182
 7359SOL    HW122976   3.203   3.933   4.188
 7359SOL    HW222977   3.158   3.785   4.239
 7360SOL     OW22978   1.955   4.937   6.071
 7360SOL    HW122979   1.860   4.954   6.045
 7360SOL    HW222980   1.963   4.937   6.171
 7361SOL     OW22981   4.499   6.644   1.551
 7361SOL    HW122982   4.584   6.673   1.596
 7361SOL    HW222983   4.515   6.638   1.452
 7362SOL     OW22984   1.978   4.689   0.862
 7362SOL    HW122985   2.067   4.657   0.831
 7362SOL    HW222986   1.984   4.714   0.959
 7363SOL     OW22987   4.979   2.340   6.263
 7363SOL    HW122988   4.908   2.270   6.253
 7363SOL    HW222989   5.056   2.319   6.203
 7364SOL     OW22990   4.637   6.281   6.844
 7364SOL    HW122991   4.732   6.251   6.836
 7364SOL    HW222992   4.623   6.324   6.934
 7365SOL     OW22993   5.505   6.838   2.043
 7365SOL    HW122994   5.523   6.743   2.067
 7365SOL    HW222995   5.407   6.856   2.044
 7366SOL     OW22996   3.336   0.109   0.618
 7366SOL    HW122997   3.375   0.176   0.680
 7366SOL    HW222998   3.312   0.026   0.669
 7367SOL     OW22999   4.913   3.411   6.317
 7367SOL    HW123000   4.828   3.463   6.309
 7367SOL    HW223001   4.947   3.390   6.225
 7368SOL     OW23002   3.450   3.109   5.579
 7368SOL    HW123003   3.362   3.137   5.617
 7368SOL    HW223004   3.436   3.065   5.490
 7369SOL     OW23005   0.687   6.472   6.322
 7369SOL    HW123006   0.688   6.383   6.367
 7369SOL    HW223007   0.682   6.460   6.223
 7370SOL     OW23008   0.040   5.782   1.762
 7370SOL    HW123009   0.070   5.848   1.831
 7370SOL    HW223010   6.997   5.718   1.802
 7371SOL     OW23011   2.044   5.001   3.397
 7371SOL    HW123012   2.133   4.985   3.439
 7371SOL    HW223013   1.980   4.930   3.426
 7372SOL     OW23014   2.074   6.963   5.374
 7372SOL    HW123015   2.028   6.901   5.438
 7372SOL    HW223016   2.025   6.962   5.287
 7373SOL     OW23017   4.645   1.053   0.724
 7373SOL    HW123018   4.598   1.061   0.636
 7373SOL    HW223019   4.728   1.109   0.723
 7374SOL     OW23020   2.594   3.788   0.474
 7374SOL    HW123021   2.650   3.856   0.521
 7374SOL    HW223022   2.647   3.703   0.464
 7375SOL     OW23023   2.375   5.276   1.999
 7375SOL    HW123024   2.352   5.189   1.954
 7375SOL    HW223025   2.382   5.261   2.098
 7376SOL     OW23026   2.975   4.694   0.874
 7376SOL    HW123027   2.883   4.721   0.902
 7376SOL    HW223028   3.038   4.702   0.952
 7377SOL     OW23029   4.871   6.057   1.256
 7377SOL    HW123030   4.835   5.964   1.260
 7377SOL    HW223031   4.900   6.086   1.348
 7378SOL     OW23032   0.993   1.255   6.185
 7378SOL    HW123033   1.038   1.313   6.253
 7378SOL    HW223034   0.897   1.282   6.176
 7379SOL     OW23035   4.655   0.841   0.065
 7379SOL    HW123036   4.724   0.787   0.016
 7379SOL    HW223037   4.565   0.827   0.023
 7380SOL     OW23038   0.602   3.026   6.644
 7380SOL    HW123039   0.581   3.017   6.741
 7380SOL    HW223040   0.561   2.949   6.594
 7381SOL     OW23041   5.743   2.991   0.877
 7381SOL    HW123042   5.696   2.905   0.893
 7381SOL    HW223043   5.815   2.979   0.809
 7382SOL     OW23044   0.585   5.729   3.980
 7382SOL    HW123045   0.577   5.701   3.884
 7382SOL    HW223046   0.681   5.746   4.002
 7383SOL     OW23047   1.510   5.216   1.843
 7383SOL    HW123048   1.550   5.179   1.759
 7383SOL    HW223049   1.435   5.157   1.873
 7384SOL     OW23050   6.026   0.695   1.928
 7384SOL    HW123051   6.085   0.689   1.848
 7384SOL    HW223052   5.941   0.645   1.911
 7385SOL     OW23053   5.140   0.284   2.076
 7385SOL    HW123054   5.166   0.346   2.150
 7385SOL    HW223055   5.159   0.190   2.103
 7386SOL     OW23056   5.534   1.637   5.021
 7386SOL    HW123057   5.623   1.681   5.031
 7386SOL    HW223058   5.539   1.567   4.950
 7387SOL     OW23059   5.535   5.772   4.561
 7387SOL    HW123060   5.484   5.722   4.630
 7387SOL    HW223061   5.612   5.716   4.529
 7388SOL     OW23062   4.932   3.816   4.065
 7388SOL    HW123063   4.851   3.863   4.100
 7388SOL    HW223064   5.010   3.879   4.067
 7389SOL     OW23065   2.452   3.595   6.033
 7389SOL    HW123066   2.356   3.611   6.055
 7389SOL    HW223067   2.492   3.679   5.995
 7390SOL     OW23068   3.792   6.012   0.572
 7390SOL    HW123069   3.825   5.954   0.497
 7390SOL    HW223070   3.693   6.024   0.563
 7391SOL     OW23071   6.991   4.841   1.090
 7391SOL    HW123072   0.004   4.835   1.183
 7391SOL    HW223073   6.972   4.936   1.067
 7392SOL     OW23074   1.363   4.848   1.801
 7392SOL    HW123075   1.410   4.870   1.716
 7392SOL    HW223076   1.314   4.762   1.790
 7393SOL     OW23077   1.745   3.710   0.477
 7393SOL    HW123078   1.670   3.743   0.419
 7393SOL    HW223079   1.706   3.661   0.555
 7394SOL     OW23080   3.329   4.582   6.829
 7394SOL    HW123081   3.273   4.531   6.894
 7394SOL    HW223082   3.395   4.638   6.880
 7395SOL     OW23083   2.706   6.707   1.172
 7395SOL    HW123084   2.704   6.626   1.114
 7395SOL    HW223085   2.800   6.724   1.203
 7396SOL     OW23086   6.511   0.183   2.103
 7396SOL    HW123087   6.437   0.211   2.164
 7396SOL    HW223088   6.512   0.243   2.023
 7397SOL     OW23089   5.996   3.953   3.246
 7397SOL    HW123090   5.964   3.902   3.325
 7397SOL    HW223091   5.932   3.941   3.170
 7398SOL     OW23092   4.468   4.924   3.443
 7398SOL    HW123093   4.484   4.942   3.346
 7398SOL    HW223094   4.540   4.865   3.479
 7399SOL     OW23095   4.664   6.682   3.670
 7399SOL    HW123096   4.716   6.598   3.682
 7399SOL    HW223097   4.712   6.757   3.715
 7400SOL     OW23098   1.523   4.729   6.689
 7400SOL    HW123099   1.505   4.775   6.776
 7400SOL    HW223100   1.591   4.781   6.637
 7401SOL     OW23101   6.343   3.094   3.925
 7401SOL    HW123102   6.383   3.090   3.834
 7401SOL    HW223103   6.415   3.078   3.993
 7402SOL     OW23104   1.980   6.162   4.969
 7402SOL    HW123105   1.910   6.091   4.966
 7402SOL    HW223106   2.001   6.191   4.876
 7403SOL     OW23107   1.940   2.775   1.692
 7403SOL    HW123108   1.939   2.841   1.617
 7403SOL    HW223109   2.033   2.738   1.703
 7404SOL     OW23110   0.894   2.736   2.711
 7404SOL    HW123111   0.922   2.678   2.787
 7404SOL    HW223112   0.943   2.823   2.714
 7405SOL     OW23113   3.467   5.820   5.722
 7405SOL    HW123114   3.560   5.784   5.720
 7405SOL    HW223115   3.454   5.882   5.645
 7406SOL     OW23116   6.014   5.712   3.084
 7406SOL    HW123117   6.112   5.711   3.103
 7406SOL    HW223118   5.963   5.718   3.170
 7407SOL     OW23119   4.439   1.495   6.045
 7407SOL    HW123120   4.521   1.526   5.997
 7407SOL    HW223121   4.406   1.410   6.004
 7408SOL     OW23122   0.630   3.520   5.071
 7408SOL    HW123123   0.595   3.481   4.986
 7408SOL    HW223124   0.722   3.557   5.056
 7409SOL     OW23125   2.210   6.990   4.267
 7409SOL    HW123126   2.173   0.043   4.322
 7409SOL    HW223127   2.287   6.949   4.315
 7410SOL     OW23128   3.883   5.127   5.656
 7410SOL    HW123129   3.813   5.127   5.729
 7410SOL    HW223130   3.864   5.201   5.593
 7411SOL     OW23131   5.782   3.088   5.505
 7411SOL    HW123132   5.693   3.045   5.522
 7411SOL    HW223133   5.854   3.032   5.546
 7412SOL     OW23134   0.577   1.255   0.904
 7412SOL    HW123135   0.587   1.213   0.994
 7412SOL    HW223136   0.650   1.224   0.844
 7413SOL     OW23137   6.830   3.657   3.794
 7413SOL    HW123138   6.922   3.619   3.800
 7413SOL    HW223139   6.823   3.714   3.712
 7414SOL     OW23140   0.709   5.091   2.087
 7414SOL    HW123141   0.795   5.079   2.137
 7414SOL    HW223142   0.727   5.087   1.989
 7415SOL     OW23143   2.694   1.539   3.230
 7415SOL    HW123144   2.613   1.598   3.226
 7415SOL    HW223145   2.776   1.594   3.221
 7416SOL     OW23146   6.800   0.395   1.804
 7416SOL    HW123147   6.870   0.343   1.853
 7416SOL    HW223148   6.713   0.346   1.809
 7417SOL     OW23149   0.349   5.741   1.708
 7417SOL    HW123150   0.445   5.717   1.701
 7417SOL    HW223151   0.294   5.658   1.720
 7418SOL     OW23152   2.167   2.866   0.855
 7418SOL    HW123153   2.207   2.946   0.900
 7418SOL    HW223154   2.114   2.895   0.776
 7419SOL     OW23155   5.898   2.068   5.969
 7419SOL    HW123156   5.928   2.126   5.893
 7419SOL    HW223157   5.821   2.012   5.940
 7420SOL     OW23158   0.932   6.537   1.752
 7420SOL    HW123159   0.885   6.519   1.838
 7420SOL    HW223160   1.016   6.483   1.747
 7421SOL     OW23161   4.571   2.050   1.146
 7421SOL    HW123162   4.587   1.973   1.208
 7421SOL    HW223163   4.481   2.089   1.164
 7422SOL     OW23164   0.846   2.074   0.537
 7422SOL    HW123165   0.822   2.000   0.600
 7422SOL    HW223166   0.932   2.052   0.491
 7423SOL     OW23167   2.955   3.823   0.632
 7423SOL    HW123168   2.902   3.888   0.578
 7423SOL    HW223169   2.907   3.736   0.637
 7424SOL     OW23170   5.556   6.428   3.768
 7424SOL    HW123171   5.634   6.488   3.748
 7424SOL    HW223172   5.538   6.428   3.866
 7425SOL     OW23173   4.402   6.961   4.867
 7425SOL    HW123174   4.394   0.032   4.902
 7425SOL    HW223175   4.392   6.962   4.767
 7426SOL     OW23176   0.078   6.981   6.194
 7426SOL    HW123177   0.063   6.987   6.293
 7426SOL    HW223178   0.000   6.934   6.152
 7427SOL     OW23179   5.405   4.584   6.089
 7427SOL    HW123180   5.454   4.514   6.037
 7427SOL    HW223181   5.311   4.592   6.054
 7428SOL     OW23182   5.317   2.055   4.999
 7428SOL    HW123183   5.298   2.080   5.094
 7428SOL    HW223184   5.378   2.123   4.958
 7429SOL     OW23185   5.389   6.552   3.168
 7429SOL    HW123186   5.406   6.456   3.144
 7429SOL    HW223187   5.335   6.596   3.096
 7430SOL     OW23188   0.543   4.430   4.862
 7430SOL    HW123189   0.592   4.416   4.776
 7430SOL    HW223190   0.503   4.343   4.891
 7431SOL     OW23191   0.348   3.988   3.453
 7431SOL    HW123192   0.319   3.984   3.358
 7431SOL    HW223193   0.383   3.898   3.481
 7432SOL     OW23194   1.866   6.641   5.971
 7432SOL    HW123195   1.809   6.671   6.048
 7432SOL    HW223196   1.940   6.706   5.957
 7433SOL     OW23197   1.165   6.353   1.479
 7433SOL    HW123198   1.107   6.301   1.416
 7433SOL    HW223199   1.223   6.289   1.531
 7434SOL     OW23200   4.575   6.636   0.208
 7434SOL    HW123201   4.615   6.728   0.218
 7434SOL    HW223202   4.475   6.644   0.202
 7435SOL     OW23203   0.715   3.844   6.900
 7435SOL    HW123204   0.718   3.782   6.979
 7435SOL    HW223205   0.673   3.931   6.928
 7436SOL     OW23206   5.327   3.178   6.490
 7436SOL    HW123207   5.365   3.249   6.431
 7436SOL    HW223208   5.241   3.210   6.530
 7437SOL     OW23209   6.985   6.521   5.370
 7437SOL    HW123210   6.973   6.604   5.316
 7437SOL    HW223211   0.022   6.541   5.449
 7438SOL     OW23212   6.382   3.996   1.211
 7438SOL    HW123213   6.404   4.059   1.285
 7438SOL    HW223214   6.464   3.948   1.181
 7439SOL     OW23215   1.645   6.455   2.912
 7439SOL    HW123216   1.646   6.508   2.997
 7439SOL    HW223217   1.575   6.385   2.918
 7440SOL     OW23218   1.726   0.749   4.512
 7440SOL    HW123219   1.750   0.689   4.589
 7440SOL    HW223220   1.775   0.835   4.520
 7441SOL     OW23221   6.751   1.836   3.333
 7441SOL    HW123222   6.792   1.785   3.409
 7441SOL    HW223223   6.770   1.789   3.247
 7442SOL     OW23224   1.579   1.205   0.438
 7442SOL    HW123225   1.624   1.210   0.349
 7442SOL    HW223226   1.508   1.274   0.444
 7443SOL     OW23227   5.944   1.130   0.928
 7443SOL    HW123228   5.953   1.165   0.835
 7443SOL    HW223229   5.860   1.164   0.969
 7444SOL     OW23230   2.675   2.391   4.525
 7444SOL    HW123231   2.588   2.441   4.525
 7444SOL    HW223232   2.725   2.413   4.442
 7445SOL     OW23233   6.241   2.467   2.582
 7445SOL    HW123234   6.199   2.380   2.560
 7445SOL    HW223235   6.242   2.480   2.681
 7446SOL     OW23236   4.277   4.648   2.273
 7446SOL    HW123237   4.308   4.601   2.191
 7446SOL    HW223238   4.348   4.642   2.343
 7447SOL     OW23239   1.840   2.880   6.740
 7447SOL    HW123240   1.809   2.790   6.772
 7447SOL    HW223241   1.876   2.871   6.647
 7448SOL     OW23242   6.992   0.526   5.401
 7448SOL    HW123243   6.993   0.552   5.305
 7448SOL    HW223244   6.898   0.512   5.431
 7449SOL     OW23245   3.163   1.158   2.820
 7449SOL    HW123246   3.101   1.232   2.846
 7449SOL    HW223247   3.202   1.177   2.730
 7450SOL     OW23248   3.750   1.995   1.837
 7450SOL    HW123249   3.715   2.068   1.896
 7450SOL    HW223250   3.766   2.031   1.745
 7451SOL     OW23251   1.269   0.364   1.644
 7451SOL    HW123252   1.222   0.359   1.732
 7451SOL    HW223253   1.208   0.330   1.572
 7452SOL     OW23254   2.137   5.714   3.110
 7452SOL    HW123255   2.213   5.776   3.130
 7452SOL    HW223256   2.148   5.630   3.163
 7453SOL     OW23257   6.711   3.928   4.934
 7453SOL    HW123258   6.730   4.004   4.872
 7453SOL    HW223259   6.651   3.862   4.888
 7454SOL     OW23260   2.734   1.600   0.491
 7454SOL    HW123261   2.650   1.602   0.545
 7454SOL    HW223262   2.799   1.535   0.531
 7455SOL     OW23263   5.387   6.678   0.071
 7455SOL    HW123264   5.298   6.678   0.116
 7455SOL    HW223265   5.405   6.587   0.033
 7456SOL     OW23266   1.374   2.380   6.548
 7456SOL    HW123267   1.424   2.462   6.574
 7456SOL    HW223268   1.372   2.372   6.448
 7457SOL     OW23269   0.457   6.565   5.082
 7457SOL    HW123270   0.377   6.529   5.131
 7457SOL    HW223271   0.539   6.517   5.112
 7458SOL     OW23272   3.339   0.432   1.892
 7458SOL    HW123273   3.263   0.370   1.873
 7458SOL    HW223274   3.306   0.527   1.888
 7459SOL     OW23275   4.082   4.874   3.817
 7459SOL    HW123276   4.151   4.803   3.815
 7459SOL    HW223277   4.104   4.944   3.749
 7460SOL     OW23278   1.429   5.053   6.200
 7460SOL    HW123279   1.367   5.128   6.180
 7460SOL    HW223280   1.438   4.994   6.119
 7461SOL     OW23281   3.435   1.494   3.563
 7461SOL    HW123282   3.499   1.427   3.526
 7461SOL    HW223283   3.466   1.521   3.654
 7462SOL     OW23284   0.912   2.576   3.981
 7462SOL    HW123285   0.851   2.598   4.058
 7462SOL    HW223286   0.916   2.476   3.970
 7463SOL     OW23287   3.838   3.726   2.533
 7463SOL    HW123288   3.838   3.826   2.526
 7463SOL    HW223289   3.932   3.692   2.532
 7464SOL     OW23290   4.543   5.562   0.470
 7464SOL    HW123291   4.619   5.572   0.405
 7464SOL    HW223292   4.507   5.469   0.463
 7465SOL     OW23293   2.862   0.970   2.656
 7465SOL    HW123294   2.866   1.069   2.653
 7465SOL    HW223295   2.928   0.932   2.592
 7466SOL     OW23296   0.070   6.507   0.998
 7466SOL    HW123297   7.009   6.457   0.977
 7466SOL    HW223298   0.048   6.602   1.020
 7467SOL     OW23299   3.718   2.462   0.786
 7467SOL    HW123300   3.692   2.464   0.689
 7467SOL    HW223301   3.653   2.517   0.839
 7468SOL     OW23302   5.233   5.163   4.848
 7468SOL    HW123303   5.136   5.158   4.824
 7468SOL    HW223304   5.276   5.239   4.798
 7469SOL     OW23305   5.145   2.088   0.934
 7469SOL    HW123306   5.191   2.171   0.904
 7469SOL    HW223307   5.048   2.107   0.950
 7470SOL     OW23308   1.035   3.378   3.122
 7470SOL    HW123309   1.121   3.361   3.171
 7470SOL    HW223310   0.976   3.436   3.177
 7471SOL     OW23311   0.189   4.394   5.667
 7471SOL    HW123312   0.230   4.319   5.616
 7471SOL    HW223313   0.200   4.379   5.765
 7472SOL     OW23314   3.342   5.831   2.939
 7472SOL    HW123315   3.388   5.827   2.850
 7472SOL    HW223316   3.405   5.869   3.007
 7473SOL     OW23317   1.553   2.212   6.210
 7473SOL    HW123318   1.539   2.304   6.246
 7473SOL    HW223319   1.646   2.202   6.176
 7474SOL     OW23320   2.619   1.127   1.885
 7474SOL    HW123321   2.581   1.214   1.853
 7474SOL    HW223322   2.718   1.136   1.893
 7475SOL     OW23323   5.789   0.942   6.161
 7475SOL    HW123324   5.727   0.864   6.164
 7475SOL    HW223325   5.821   0.963   6.254
 7476SOL     OW23326   1.956   6.749   4.758
 7476SOL    HW123327   2.008   6.751   4.673
 7476SOL    HW223328   1.884   6.818   4.756
 7477SOL     OW23329   4.783   4.026   5.172
 7477SOL    HW123330   4.783   4.078   5.087
 7477SOL    HW223331   4.732   4.077   5.241
 7478SOL     OW23332   6.438   4.119   1.438
 7478SOL    HW123333   6.490   4.034   1.441
 7478SOL    HW223334   6.501   4.197   1.434
 7479SOL     OW23335   4.234   6.866   4.580
 7479SOL    HW123336   4.281   6.781   4.606
 7479SOL    HW223337   4.163   6.845   4.513
 7480SOL     OW23338   6.357   4.953   6.844
 7480SOL    HW123339   6.441   4.905   6.867
 7480SOL    HW223340   6.283   4.921   6.902
 7481SOL     OW23341   5.876   6.821   0.508
 7481SOL    HW123342   5.854   6.726   0.529
 7481SOL    HW223343   5.816   6.854   0.435
 7482SOL     OW23344   5.416   0.157   5.029
 7482SOL    HW123345   5.492   0.216   5.001
 7482SOL    HW223346   5.337   0.214   5.055
 7483SOL     OW23347   3.556   6.966   6.047
 7483SOL    HW123348   3.465   6.928   6.067
 7483SOL    HW223349   3.617   6.893   6.017
 7484SOL     OW23350   3.063   6.128   1.482
 7484SOL    HW123351   3.054   6.107   1.580
 7484SOL    HW223352   3.117   6.211   1.472
 7485SOL     OW23353   1.207   0.186   4.984
 7485SOL    HW123354   1.269   0.256   4.948
 7485SOL    HW223355   1.233   0.097   4.947
 7486SOL     OW23356   1.949   1.934   4.796
 7486SOL    HW123357   1.872   1.870   4.799
 7486SOL    HW223358   1.944   1.989   4.713
 7487SOL     OW23359   1.734   6.431   2.622
 7487SOL    HW123360   1.820   6.475   2.647
 7487SOL    HW223361   1.660   6.469   2.678
 7488SOL     OW23362   4.933   2.393   4.552
 7488SOL    HW123363   4.901   2.476   4.506
 7488SOL    HW223364   4.870   2.369   4.626
 7489SOL     OW23365   1.232   3.188   3.350
 7489SOL    HW123366   1.188   3.244   3.421
 7489SOL    HW223367   1.165   3.164   3.280
 7490SOL     OW23368   5.733   1.145   2.475
 7490SOL    HW123369   5.760   1.192   2.391
 7490SOL    HW223370   5.634   1.129   2.474
 7491SOL     OW23371   0.986   6.929   0.967
 7491SOL    HW123372   1.064   6.868   0.958
 7491SOL    HW223373   0.987   6.996   0.892
 7492SOL     OW23374   1.791   1.932   3.127
 7492SOL    HW123375   1.775   1.979   3.214
 7492SOL    HW223376   1.727   1.967   3.059
 7493SOL     OW23377   5.705   4.338   6.739
 7493SOL    HW123378   5.747   4.270   6.799
 7493SOL    HW223379   5.746   4.427   6.755
 7494SOL     OW23380   4.972   2.341   0.931
 7494SOL    HW123381   4.922   2.268   0.978
 7494SOL    HW223382   4.925   2.428   0.946
 7495SOL     OW23383   1.425   2.166   3.437
 7495SOL    HW123384   1.456   2.232   3.369
 7495SOL    HW223385   1.377   2.091   3.391
 7496SOL     OW23386   0.271   5.208   5.841
 7496SOL    HW123387   0.353   5.189   5.788
 7496SOL    HW223388   0.266   5.306   5.862
 7497SOL     OW23389   0.559   4.639   3.137
 7497SOL    HW123390   0.507   4.564   3.178
 7497SOL    HW223391   0.641   4.657   3.192
 7498SOL     OW23392   5.154   1.837   4.648
 7498SOL    HW123393   5.231   1.829   4.585
 7498SOL    HW223394   5.069   1.843   4.596
 7499SOL     OW23395   3.614   4.958   3.643
 7499SOL    HW123396   3.608   5.037   3.582
 7499SOL    HW223397   3.706   4.919   3.640
 7500SOL     OW23398   4.733   3.723   1.082
 7500SOL    HW123399   4.686   3.799   1.037
 7500SOL    HW223400   4.723   3.640   1.026
 7501SOL     OW23401   1.252   4.538   3.231
 7501SOL    HW123402   1.255   4.481   3.313
 7501SOL    HW223403   1.295   4.490   3.155
 7502SOL     OW23404   1.638   1.827   4.982
 7502SOL    HW123405   1.549   1.820   4.938
 7502SOL    HW223406   1.707   1.779   4.927
 7503SOL     OW23407   2.326   2.111   1.052
 7503SOL    HW123408   2.328   2.090   0.954
 7503SOL    HW223409   2.293   2.031   1.103
 7504SOL     OW23410   5.377   5.254   6.114
 7504SOL    HW123411   5.453   5.239   6.177
 7504SOL    HW223412   5.366   5.352   6.098
 7505SOL     OW23413   1.168   1.812   3.183
 7505SOL    HW123414   1.159   1.720   3.146
 7505SOL    HW223415   1.197   1.874   3.110
 7506SOL     OW23416   3.503   0.317   3.204
 7506SOL    HW123417   3.488   0.332   3.302
 7506SOL    HW223418   3.600   0.296   3.189
 7507SOL     OW23419   2.264   6.192   4.944
 7507SOL    HW123420   2.284   6.146   4.857
 7507SOL    HW223421   2.173   6.165   4.976
 7508SOL     OW23422   4.957   6.208   3.551
 7508SOL    HW123423   4.946   6.215   3.452
 7508SOL    HW223424   4.867   6.210   3.594
 7509SOL     OW23425   2.212   4.687   6.734
 7509SOL    HW123426   2.165   4.698   6.822
 7509SOL    HW223427   2.301   4.644   6.749
 7510SOL     OW23428   3.853   3.013   4.115
 7510SOL    HW123429   3.776   2.989   4.056
 7510SOL    HW223430   3.882   3.107   4.095
 7511SOL     OW23431   1.567   0.685   1.903
 7511SOL    HW123432   1.619   0.767   1.925
 7511SOL    HW223433   1.597   0.610   1.963
 7512SOL     OW23434   1.518   3.019   2.442
 7512SOL    HW123435   1.510   2.920   2.457
 7512SOL    HW223436   1.608   3.039   2.402
 7513SOL     OW23437   2.434   3.185   0.120
 7513SOL    HW123438   2.342   3.152   0.140
 7513SOL    HW223439   2.428   3.268   0.064
 7514SOL     OW23440   2.861   5.191   3.009
 7514SOL    HW123441   2.881   5.142   3.094
 7514SOL    HW223442   2.777   5.153   2.969
 7515SOL     OW23443   6.276   5.215   3.734
 7515SOL    HW123444   6.368   5.256   3.735
 7515SOL    HW223445   6.283   5.118   3.713
 7516SOL     OW23446   1.627   3.184   1.141
 7516SOL    HW123447   1.660   3.253   1.077
 7516SOL    HW223448   1.559   3.126   1.095
 7517SOL     OW23449   1.111   5.848   2.138
 7517SOL    HW123450   1.066   5.768   2.177
 7517SOL    HW223451   1.050   5.893   2.074
 7518SOL     OW23452   5.302   3.886   2.281
 7518SOL    HW123453   5.340   3.963   2.332
 7518SOL    HW223454   5.202   3.892   2.282
 7519SOL     OW23455   1.879   0.973   4.541
 7519SOL    HW123456   1.886   1.028   4.623
 7519SOL    HW223457   1.969   0.934   4.519
 7520SOL     OW23458   1.755   0.543   4.309
 7520SOL    HW123459   1.675   0.499   4.268
 7520SOL    HW223460   1.726   0.598   4.388
 7521SOL     OW23461   3.869   2.548   5.792
 7521SOL    HW123462   3.789   2.490   5.809
 7521SOL    HW223463   3.934   2.538   5.867
 7522SOL     OW23464   1.817   6.629   2.375
 7522SOL    HW123465   1.845   6.672   2.461
 7522SOL    HW223466   1.756   6.552   2.394
 7523SOL     OW23467   6.747   6.007   6.368
 7523SOL    HW123468   6.731   6.103   6.391
 7523SOL    HW223469   6.733   5.951   6.449
 7524SOL     OW23470   6.110   3.105   6.415
 7524SOL    HW123471   6.079   3.019   6.456
 7524SOL    HW223472   6.191   3.138   6.463
 7525SOL     OW23473   0.463   0.424   0.474
 7525SOL    HW123474   0.467   0.504   0.415
 7525SOL    HW223475   0.458   0.454   0.570
 7526SOL     OW23476   3.600   3.397   5.871
 7526SOL    HW123477   3.663   3.365   5.801
 7526SOL    HW223478   3.529   3.454   5.828
 7527SOL     OW23479   2.580   6.409   1.319
 7527SOL    HW123480   2.510   6.343   1.347
 7527SOL    HW223481   2.544   6.502   1.329
 7528SOL     OW23482   5.832   2.030   0.282
 7528SOL    HW123483   5.746   1.981   0.287
 7528SOL    HW223484   5.856   2.067   0.372
 7529SOL     OW23485   1.170   0.319   4.303
 7529SOL    HW123486   1.178   0.323   4.203
 7529SOL    HW223487   1.259   0.334   4.345
 7530SOL     OW23488   0.418   3.583   2.421
 7530SOL    HW123489   0.461   3.544   2.340
 7530SOL    HW223490   0.470   3.556   2.502
 7531SOL     OW23491   1.858   2.330   4.435
 7531SOL    HW123492   1.836   2.233   4.429
 7531SOL    HW223493   1.955   2.344   4.414
 7532SOL     OW23494   4.570   4.446   2.247
 7532SOL    HW123495   4.667   4.436   2.271
 7532SOL    HW223496   4.553   4.403   2.159
 7533SOL     OW23497   3.626   0.193   5.440
 7533SOL    HW123498   3.669   0.209   5.529
 7533SOL    HW223499   3.534   0.157   5.454
 7534SOL     OW23500   4.281   0.199   4.082
 7534SOL    HW123501   4.295   0.118   4.025
 7534SOL    HW223502   4.220   0.263   4.034
 7535SOL     OW23503   3.352   4.417   6.622
 7535SOL    HW123504   3.335   4.490   6.688
 7535SOL    HW223505   3.266   4.372   6.598
 7536SOL     OW23506   4.595   4.850   6.985
 7536SOL    HW123507   4.582   4.756   6.956
 7536SOL    HW223508   4.656   4.896   6.920
 7537SOL     OW23509   1.960   4.576   4.751
 7537SOL    HW123510   1.891   4.504   4.751
 7537SOL    HW223511   1.914   4.665   4.750
 7538SOL     OW23512   3.494   3.910   5.478
 7538SOL    HW123513   3.442   3.892   5.394
 7538SOL    HW223514   3.553   3.989   5.464
 7539SOL     OW23515   1.284   2.946   4.195
 7539SOL    HW123516   1.244   3.036   4.176
 7539SOL    HW223517   1.352   2.924   4.124
 7540SOL     OW23518   2.916   0.663   0.657
 7540SOL    HW123519   2.858   0.620   0.588
 7540SOL    HW223520   3.006   0.618   0.657
 7541SOL     OW23521   0.427   1.916   5.898
 7541SOL    HW123522   0.361   1.941   5.969
 7541SOL    HW223523   0.519   1.943   5.927
 7542SOL     OW23524   1.983   0.615   4.158
 7542SOL    HW123525   1.895   0.602   4.204
 7542SOL    HW223526   2.002   0.536   4.100
 7543SOL     OW23527   2.147   2.050   2.098
 7543SOL    HW123528   2.111   1.996   2.174
 7543SOL    HW223529   2.246   2.033   2.090
 7544SOL     OW23530   1.071   2.165   2.750
 7544SOL    HW123531   0.973   2.149   2.764
 7544SOL    HW223532   1.091   2.263   2.757
 7545SOL     OW23533   3.934   0.129   3.917
 7545SOL    HW123534   3.996   0.204   3.940
 7545SOL    HW223535   3.893   0.094   4.001
 7546SOL     OW23536   4.747   6.210   4.889
 7546SOL    HW123537   4.802   6.260   4.956
 7546SOL    HW223538   4.726   6.269   4.812
 7547SOL     OW23539   1.526   6.690   1.311
 7547SOL    HW123540   1.561   6.672   1.403
 7547SOL    HW223541   1.563   6.622   1.248
 7548SOL     OW23542   2.698   4.092   0.842
 7548SOL    HW123543   2.767   4.116   0.774
 7548SOL    HW223544   2.693   4.164   0.911
 7549SOL     OW23545   5.891   7.020   2.198
 7549SOL    HW123546   5.964   0.045   2.248
 7549SOL    HW223547   5.930   6.946   2.144
 7550SOL     OW23548   0.942   5.541   0.863
 7550SOL    HW123549   0.863   5.578   0.815
 7550SOL    HW223550   1.003   5.496   0.798
 7551SOL     OW23551   4.798   3.823   5.776
 7551SOL    HW123552   4.829   3.786   5.864
 7551SOL    HW223553   4.700   3.841   5.780
 7552SOL     OW23554   3.963   5.403   4.441
 7552SOL    HW123555   3.886   5.340   4.432
 7552SOL    HW223556   3.991   5.434   4.350
 7553SOL     OW23557   4.536   4.618   5.571
 7553SOL    HW123558   4.507   4.566   5.652
 7553SOL    HW223559   4.632   4.598   5.552
 7554SOL     OW23560   6.664   0.679   0.808
 7554SOL    HW123561   6.640   0.737   0.730
 7554SOL    HW223562   6.720   0.730   0.872
 7555SOL     OW23563   3.231   6.313   6.662
 7555SOL    HW123564   3.270   6.243   6.603
 7555SOL    HW223565   3.169   6.270   6.728
 7556SOL     OW23566   0.153   4.062   3.152
 7556SOL    HW123567   0.100   4.015   3.081
 7556SOL    HW223568   0.248   4.031   3.149
 7557SOL     OW23569   4.570   4.138   0.792
 7557SOL    HW123570   4.636   4.097   0.854
 7557SOL    HW223571   4.529   4.218   0.835
 7558SOL     OW23572   1.573   3.927   3.447
 7558SOL    HW123573   1.573   3.830   3.469
 7558SOL    HW223574   1.500   3.973   3.498
 7559SOL     OW23575   1.218   5.247   0.575
 7559SOL    HW123576   1.273   5.194   0.639
 7559SOL    HW223577   1.126   5.210   0.570
 7560SOL     OW23578   4.527   0.165   6.106
 7560SOL    HW123579   4.498   0.094   6.041
 7560SOL    HW223580   4.606   0.132   6.158
 7561SOL     OW23581   1.566   2.936   0.412
 7561SOL    HW123582   1.568   2.977   0.503
 7561SOL    HW223583   1.554   3.008   0.343
 7562SOL     OW23584   4.508   6.333   5.270
 7562SOL    HW123585   4.578   6.274   5.310
 7562SOL    HW223586   4.521   6.336   5.171
 7563SOL     OW23587   2.538   1.270   3.254
 7563SOL    HW123588   2.600   1.348   3.255
 7563SOL    HW223589   2.443   1.303   3.248
 7564SOL     OW23590   6.493   5.568   3.753
 7564SOL    HW123591   6.531   5.656   3.781
 7564SOL    HW223592   6.395   5.566   3.770
 7565SOL     OW23593   4.531   5.012   6.694
 7565SOL    HW123594   4.544   4.916   6.669
 7565SOL    HW223595   4.615   5.063   6.679
 7566SOL     OW23596   1.748   5.714   4.258
 7566SOL    HW123597   1.806   5.655   4.201
 7566SOL    HW223598   1.685   5.658   4.312
 7567SOL     OW23599   2.670   4.391   0.238
 7567SOL    HW123600   2.626   4.447   0.308
 7567SOL    HW223601   2.602   4.330   0.197
 7568SOL     OW23602   4.042   4.845   4.301
 7568SOL    HW123603   3.945   4.855   4.279
 7568SOL    HW223604   4.078   4.932   4.336
 7569SOL     OW23605   3.485   6.944   2.831
 7569SOL    HW123606   3.545   7.011   2.787
 7569SOL    HW223607   3.538   6.885   2.891
 7570SOL     OW23608   6.224   5.149   5.108
 7570SOL    HW123609   6.151   5.166   5.173
 7570SOL    HW223610   6.303   5.206   5.131
 7571SOL     OW23611   6.713   4.589   0.704
 7571SOL    HW123612   6.755   4.571   0.793
 7571SOL    HW223613   6.617   4.559   0.706
 7572SOL     OW23614   6.224   1.464   3.403
 7572SOL    HW123615   6.301   1.401   3.393
 7572SOL    HW223616   6.138   1.413   3.393
 7573SOL     OW23617   3.237   5.140   3.892
 7573SOL    HW123618   3.228   5.100   3.983
 7573SOL    HW223619   3.328   5.121   3.856
 7574SOL     OW23620   4.201   6.062   1.581
 7574SOL    HW123621   4.264   6.036   1.508
 7574SOL    HW223622   4.206   5.995   1.655
 7575SOL     OW23623   5.282   3.628   3.854
 7575SOL    HW123624   5.225   3.550   3.877
 7575SOL    HW223625   5.230   3.693   3.799
 7576SOL     OW23626   0.183   4.685   2.094
 7576SOL    HW123627   0.241   4.757   2.133
 7576SOL    HW223628   0.214   4.665   2.001
 7577SOL     OW23629   3.848   1.728   3.706
 7577SOL    HW123630   3.902   1.676   3.772
 7577SOL    HW223631   3.910   1.778   3.645
 7578SOL     OW23632   2.216   5.184   5.734
 7578SOL    HW123633   2.187   5.217   5.644
 7578SOL    HW223634   2.155   5.111   5.765
 7579SOL     OW23635   4.112   2.087   4.665
 7579SOL    HW123636   4.019   2.116   4.689
 7579SOL    HW223637   4.126   2.099   4.567
 7580SOL     OW23638   1.646   3.014   2.833
 7580SOL    HW123639   1.738   3.029   2.797
 7580SOL    HW223640   1.579   3.064   2.777
 7581SOL     OW23641   5.433   1.161   0.968
 7581SOL    HW123642   5.343   1.180   0.929
 7581SOL    HW223643   5.442   1.062   0.984
 7582SOL     OW23644   3.739   3.383   1.402
 7582SOL    HW123645   3.701   3.386   1.494
 7582SOL    HW223646   3.677   3.334   1.341
 7583SOL     OW23647   6.178   4.800   2.917
 7583SOL    HW123648   6.244   4.827   2.987
 7583SOL    HW223649   6.103   4.866   2.916
 7584SOL     OW23650   1.571   2.455   2.267
 7584SOL    HW123651   1.477   2.475   2.297
 7584SOL    HW223652   1.620   2.540   2.251
 7585SOL     OW23653   3.272   3.882   0.466
 7585SOL    HW123654   3.203   3.880   0.393
 7585SOL    HW223655   3.230   3.919   0.550
 7586SOL     OW23656   1.217   2.406   2.932
 7586SOL    HW123657   1.293   2.391   2.995
 7586SOL    HW223658   1.131   2.396   2.981
 7587SOL     OW23659   2.606   0.761   5.528
 7587SOL    HW123660   2.644   0.853   5.534
 7587SOL    HW223661   2.624   0.712   5.613
 7588SOL     OW23662   0.654   4.009   1.780
 7588SOL    HW123663   0.707   4.092   1.798
 7588SOL    HW223664   0.600   3.985   1.861
 7589SOL     OW23665   4.492   6.057   6.350
 7589SOL    HW123666   4.588   6.066   6.376
 7589SOL    HW223667   4.456   5.969   6.381
 7590SOL     OW23668   2.114   1.203   5.131
 7590SOL    HW123669   2.175   1.261   5.076
 7590SOL    HW223670   2.160   1.116   5.150
 7591SOL     OW23671   0.305   5.645   6.187
 7591SOL    HW123672   0.361   5.570   6.225
 7591SOL    HW223673   0.358   5.695   6.119
 7592SOL     OW23674   4.937   4.426   6.545
 7592SOL    HW123675   4.969   4.503   6.600
 7592SOL    HW223676   5.015   4.374   6.511
 7593SOL     OW23677   6.753   4.924   0.375
 7593SOL    HW123678   6.844   4.897   0.346
 7593SOL    HW223679   6.711   4.983   0.305
 7594SOL     OW23680   1.358   0.672   4.705
 7594SOL    HW123681   1.442   0.722   4.726
 7594SOL    HW223682   1.356   0.651   4.607
 7595SOL     OW23683   0.313   4.011   6.906
 7595SOL    HW123684   0.275   3.962   6.828
 7595SOL    HW223685   0.285   3.965   6.990
 7596SOL     OW23686   5.745   5.175   2.163
 7596SOL    HW123687   5.671   5.164   2.097
 7596SOL    HW223688   5.757   5.090   2.215
 7597SOL     OW23689   2.629   4.635   2.681
 7597SOL    HW123690   2.694   4.589   2.740
 7597SOL    HW223691   2.653   4.732   2.673
 7598SOL     OW23692   6.131   1.618   2.867
 7598SOL    HW123693   6.204   1.665   2.817
 7598SOL    HW223694   6.161   1.598   2.960
 7599SOL     OW23695   5.252   3.955   1.378
 7599SOL    HW123696   5.188   4.032   1.369
 7599SOL    HW223697   5.344   3.984   1.353
 7600SOL     OW23698   1.862   2.708   2.916
 7600SOL    HW123699   1.807   2.721   2.833
 7600SOL    HW223700   1.841   2.781   2.981
 7601SOL     OW23701   1.554   0.757   5.686
 7601SOL    HW123702   1.498   0.701   5.748
 7601SOL    HW223703   1.519   0.749   5.593
 7602SOL     OW23704   2.304   2.923   5.363
 7602SOL    HW123705   2.222   2.915   5.307
 7602SOL    HW223706   2.376   2.969   5.311
 7603SOL     OW23707   5.466   1.487   1.405
 7603SOL    HW123708   5.451   1.538   1.319
 7603SOL    HW223709   5.513   1.401   1.385
 7604SOL     OW23710   5.875   5.348   6.342
 7604SOL    HW123711   5.890   5.290   6.423
 7604SOL    HW223712   5.961   5.356   6.291
 7605SOL     OW23713   4.843   3.104   5.384
 7605SOL    HW123714   4.922   3.146   5.429
 7605SOL    HW223715   4.802   3.170   5.320
 7606SOL     OW23716   5.031   1.309   3.586
 7606SOL    HW123717   5.060   1.257   3.506
 7606SOL    HW223718   4.966   1.380   3.558
 7607SOL     OW23719   4.758   6.085   6.275
 7607SOL    HW123720   4.844   6.092   6.223
 7607SOL    HW223721   4.769   6.131   6.363
 7608SOL     OW23722   3.616   2.915   5.124
 7608SOL    HW123723   3.679   2.921   5.046
 7608SOL    HW223724   3.536   2.861   5.098
 7609SOL     OW23725   0.728   2.738   3.200
 7609SOL    HW123726   0.664   2.803   3.160
 7609SOL    HW223727   0.821   2.774   3.193
 7610SOL     OW23728   6.026   6.933   2.466
 7610SOL    HW123729   5.986   6.907   2.554
 7610SOL    HW223730   6.125   6.939   2.475
 7611SOL     OW23731   1.369   1.912   1.614
 7611SOL    HW123732   1.282   1.904   1.664
 7611SOL    HW223733   1.426   1.833   1.636
 7612SOL     OW23734   3.487   0.969   2.544
 7612SOL    HW123735   3.447   0.994   2.456
 7612SOL    HW223736   3.414   0.946   2.608
 7613SOL     OW23737   6.627   1.081   2.032
 7613SOL    HW123738   6.700   1.041   2.087
 7613SOL    HW223739   6.628   1.039   1.941
 7614SOL     OW23740   4.399   1.244   0.205
 7614SOL    HW123741   4.321   1.181   0.205
 7614SOL    HW223742   4.416   1.277   0.112
 7615SOL     OW23743   4.733   4.780   6.449
 7615SOL    HW123744   4.696   4.749   6.362
 7615SOL    HW223745   4.666   4.766   6.521
 7616SOL     OW23746   0.088   5.600   3.806
 7616SOL    HW123747   0.009   5.622   3.749
 7616SOL    HW223748   0.057   5.548   3.886
 7617SOL     OW23749   4.053   5.302   3.668
 7617SOL    HW123750   4.140   5.343   3.640
 7617SOL    HW223751   4.007   5.362   3.733
 7618SOL     OW23752   3.528   1.239   0.301
 7618SOL    HW123753   3.471   1.321   0.290
 7618SOL    HW223754   3.618   1.266   0.334
 7619SOL     OW23755   5.760   3.530   6.006
 7619SOL    HW123756   5.759   3.431   6.021
 7619SOL    HW223757   5.830   3.572   6.064
 7620SOL     OW23758   2.557   5.438   1.859
 7620SOL    HW123759   2.634   5.488   1.899
 7620SOL    HW223760   2.514   5.382   1.930
 7621SOL     OW23761   2.251   3.208   1.456
 7621SOL    HW123762   2.211   3.296   1.429
 7621SOL    HW223763   2.180   3.138   1.455
 7622SOL     OW23764   4.882   1.691   0.626
 7622SOL    HW123765   4.962   1.734   0.666
 7622SOL    HW223766   4.876   1.715   0.529
 7623SOL     OW23767   6.879   6.847   5.541
 7623SOL    HW123768   6.895   6.934   5.493
 7623SOL    HW223769   6.967   6.805   5.562
 7624SOL     OW23770   6.714   1.761   4.755
 7624SOL    HW123771   6.652   1.694   4.796
 7624SOL    HW223772   6.808   1.727   4.760
 7625SOL     OW23773   2.298   4.328   0.405
 7625SOL    HW123774   2.354   4.255   0.367
 7625SOL    HW223775   2.354   4.410   0.420
 7626SOL     OW23776   2.547   3.798   5.339
 7626SOL    HW123777   2.502   3.709   5.337
 7626SOL    HW223778   2.497   3.864   5.283
 7627SOL     OW23779   6.938   6.840   6.529
 7627SOL    HW123780   6.934   6.759   6.587
 7627SOL    HW223781   6.921   6.813   6.434
 7628SOL     OW23782   4.450   1.540   0.747
 7628SOL    HW123783   4.532   1.518   0.694
 7628SOL    HW223784   4.444   1.477   0.825
 7629SOL     OW23785   6.066   5.479   1.989
 7629SOL    HW123786   6.111   5.492   2.078
 7629SOL    HW223787   6.005   5.399   1.995
 7630SOL     OW23788   5.687   2.407   2.577
 7630SOL    HW123789   5.617   2.479   2.580
 7630SOL    HW223790   5.758   2.432   2.511
 7631SOL     OW23791   0.901   0.407   4.170
 7631SOL    HW123792   0.981   0.385   4.227
 7631SOL    HW223793   0.832   0.452   4.227
 7632SOL     OW23794   5.241   1.113   4.834
 7632SOL    HW123795   5.243   1.050   4.912
 7632SOL    HW223796   5.293   1.195   4.856
 7633SOL     OW23797   5.848   3.589   6.354
 7633SOL    HW123798   5.872   3.649   6.278
 7633SOL    HW223799   5.788   3.637   6.418
 7634SOL     OW23800   0.655   1.572   2.114
 7634SOL    HW123801   0.603   1.540   2.035
 7634SOL    HW223802   0.686   1.666   2.097
 7635SOL     OW23803   2.068   4.622   5.729
 7635SOL    HW123804   1.999   4.654   5.794
 7635SOL    HW223805   2.121   4.548   5.769
 7636SOL     OW23806   0.746   1.665   3.408
 7636SOL    HW123807   0.824   1.711   3.450
 7636SOL    HW223808   0.699   1.729   3.347
 7637SOL     OW23809   3.593   6.654   3.636
 7637SOL    HW123810   3.642   6.626   3.553
 7637SOL    HW223811   3.589   6.754   3.639
 7638SOL     OW23812   4.520   5.437   1.535
 7638SOL    HW123813   4.571   5.371   1.480
 7638SOL    HW223814   4.426   5.442   1.501
 7639SOL     OW23815   0.761   2.141   4.117
 7639SOL    HW123816   0.839   2.082   4.099
 7639SOL    HW223817   0.748   2.203   4.039
 7640SOL     OW23818   2.324   2.820   6.812
 7640SOL    HW123819   2.367   2.905   6.843
 7640SOL    HW223820   2.396   2.755   6.785
 7641SOL     OW23821   6.425   2.645   1.233
 7641SOL    HW123822   6.389   2.732   1.268
 7641SOL    HW223823   6.460   2.658   1.140
 7642SOL     OW23824   0.998   3.105   3.196
 7642SOL    HW123825   1.014   3.198   3.162
 7642SOL    HW223826   0.938   3.056   3.133
 7643SOL     OW23827   5.923   3.772   3.448
 7643SOL    HW123828   5.918   3.722   3.534
 7643SOL    HW223829   5.936   3.708   3.372
 7644SOL     OW23830   6.907   3.008   3.999
 7644SOL    HW123831   6.961   3.072   4.053
 7644SOL    HW223832   6.969   2.945   3.951
 7645SOL     OW23833   3.462   2.753   0.688
 7645SOL    HW123834   3.488   2.777   0.594
 7645SOL    HW223835   3.451   2.837   0.741
 7646SOL     OW23836   0.397   0.538   2.253
 7646SOL    HW123837   0.309   0.542   2.302
 7646SOL    HW223838   0.404   0.452   2.203
 7647SOL     OW23839   2.420   4.918   6.929
 7647SOL    HW123840   2.440   4.831   6.974
 7647SOL    HW223841   2.467   4.921   6.841
 7648SOL     OW23842   2.645   0.523   3.652
 7648SOL    HW123843   2.563   0.513   3.708
 7648SOL    HW223844   2.716   0.569   3.705
 7649SOL     OW23845   3.375   2.002   1.127
 7649SOL    HW123846   3.279   2.023   1.144
 7649SOL    HW223847   3.428   2.017   1.211
 7650SOL     OW23848   0.338   4.574   1.068
 7650SOL    HW123849   0.304   4.651   1.015
 7650SOL    HW223850   0.427   4.596   1.108
 7651SOL     OW23851   5.570   2.789   5.876
 7651SOL    HW123852   5.505   2.757   5.807
 7651SOL    HW223853   5.545   2.752   5.965
 7652SOL     OW23854   0.343   2.523   2.213
 7652SOL    HW123855   0.425   2.487   2.258
 7652SOL    HW223856   0.328   2.618   2.241
 7653SOL     OW23857   5.112   2.519   1.360
 7653SOL    HW123858   5.021   2.504   1.400
 7653SOL    HW223859   5.104   2.530   1.261
 7654SOL     OW23860   5.949   3.914   4.927
 7654SOL    HW123861   5.915   3.955   4.843
 7654SOL    HW223862   5.872   3.883   4.983
 7655SOL     OW23863   5.093   3.767   6.263
 7655SOL    HW123864   5.037   3.766   6.346
 7655SOL    HW223865   5.130   3.675   6.247
 7656SOL     OW23866   6.879   0.282   5.212
 7656SOL    HW123867   6.958   0.332   5.246
 7656SOL    HW223868   6.797   0.309   5.264
 7657SOL     OW23869   3.814   2.165   3.114
 7657SOL    HW123870   3.913   2.170   3.114
 7657SOL    HW223871   3.781   2.128   3.028
 7658SOL     OW23872   4.593   1.228   5.483
 7658SOL    HW123873   4.628   1.174   5.406
 7658SOL    HW223874   4.596   1.325   5.459
 7659SOL     OW23875   5.011   5.798   6.634
 7659SOL    HW123876   4.934   5.850   6.596
 7659SOL    HW223877   5.060   5.752   6.560
 7660SOL     OW23878   5.461   5.498   3.988
 7660SOL    HW123879   5.409   5.580   3.966
 7660SOL    HW223880   5.514   5.514   4.072
 7661SOL     OW23881   5.896   3.424   3.428
 7661SOL    HW123882   5.912   3.454   3.522
 7661SOL    HW223883   5.965   3.464   3.368
 7662SOL     OW23884   6.102   5.423   3.355
 7662SOL    HW123885   6.193   5.459   3.377
 7662SOL    HW223886   6.111   5.329   3.322
 7663SOL     OW23887   1.021   6.325   0.157
 7663SOL    HW123888   1.024   6.355   0.252
 7663SOL    HW223889   1.004   6.404   0.098
 7664SOL     OW23890   5.293   4.965   5.015
 7664SOL    HW123891   5.276   5.040   4.951
 7664SOL    HW223892   5.353   4.898   4.972
 7665SOL     OW23893   2.282   6.034   4.347
 7665SOL    HW123894   2.246   5.940   4.349
 7665SOL    HW223895   2.295   6.062   4.252
 7666SOL     OW23896   2.097   0.113   2.299
 7666SOL    HW123897   2.185   0.153   2.324
 7666SOL    HW223898   2.102   0.080   2.205
 7667SOL     OW23899   5.863   0.289   5.417
 7667SOL    HW123900   5.880   0.208   5.474
 7667SOL    HW223901   5.776   0.278   5.369
 7668SOL     OW23902   3.758   4.029   3.120
 7668SOL    HW123903   3.704   3.948   3.144
 7668SOL    HW223904   3.709   4.082   3.050
 7669SOL     OW23905   4.085   6.145   4.893
 7669SOL    HW123906   4.153   6.146   4.818
 7669SOL    HW223907   4.026   6.225   4.884
 7670SOL     OW23908   1.196   5.913   0.574
 7670SOL    HW123909   1.205   6.008   0.606
 7670SOL    HW223910   1.195   5.852   0.653
 7671SOL     OW23911   4.839   2.677   4.848
 7671SOL    HW123912   4.889   2.592   4.867
 7671SOL    HW223913   4.898   2.741   4.799
 7672SOL     OW23914   5.372   0.000   1.661
 7672SOL    HW123915   5.453   0.057   1.673
 7672SOL    HW223916   5.290   0.052   1.687
 7673SOL     OW23917   2.075   3.894   6.555
 7673SOL    HW123918   2.049   3.989   6.575
 7673SOL    HW223919   2.119   3.854   6.635
 7674SOL     OW23920   6.433   1.619   6.497
 7674SOL    HW123921   6.447   1.622   6.595
 7674SOL    HW223922   6.510   1.661   6.450
 7675SOL     OW23923   5.659   6.730   3.400
 7675SOL    HW123924   5.631   6.823   3.374
 7675SOL    HW223925   5.599   6.696   3.473
 7676SOL     OW23926   2.308   0.542   0.043
 7676SOL    HW123927   2.378   0.604   0.007
 7676SOL    HW223928   2.304   0.552   0.143
 7677SOL     OW23929   1.402   1.897   2.596
 7677SOL    HW123930   1.308   1.909   2.564
 7677SOL    HW223931   1.465   1.935   2.528
 7678SOL     OW23932   4.734   6.963   5.456
 7678SOL    HW123933   4.798   6.898   5.499
 7678SOL    HW223934   4.700   0.004   5.525
 7679SOL     OW23935   1.951   5.052   4.339
 7679SOL    HW123936   2.004   5.128   4.375
 7679SOL    HW223937   1.989   5.025   4.250
 7680SOL     OW23938   4.944   0.540   0.823
 7680SOL    HW123939   4.856   0.585   0.815
 7680SOL    HW223940   4.939   0.468   0.892
 7681SOL     OW23941   4.457   2.387   5.362
 7681SOL    HW123942   4.451   2.485   5.381
 7681SOL    HW223943   4.520   2.345   5.428
 7682SOL     OW23944   3.477   1.053   6.836
 7682SOL    HW123945   3.433   1.117   6.774
 7682SOL    HW223946   3.425   1.048   6.922
 7683SOL     OW23947   6.364   3.731   3.374
 7683SOL    HW123948   6.463   3.720   3.383
 7683SOL    HW223949   6.318   3.650   3.411
 7684SOL     OW23950   3.713   2.381   6.732
 7684SOL    HW123951   3.702   2.412   6.826
 7684SOL    HW223952   3.697   2.283   6.726
 7685SOL     OW23953   4.656   4.139   1.764
 7685SOL    HW123954   4.733   4.196   1.793
 7685SOL    HW223955   4.572   4.173   1.807
 7686SOL     OW23956   2.227   0.546   2.135
 7686SOL    HW123957   2.290   0.557   2.212
 7686SOL    HW223958   2.279   0.544   2.049
 7687SOL     OW23959   4.915   4.511   5.418
 7687SOL    HW123960   4.847   4.469   5.477
 7687SOL    HW223961   4.886   4.503   5.322
 7688SOL     OW23962   6.964   0.240   3.778
 7688SOL    HW123963   7.005   0.247   3.869
 7688SOL    HW223964   7.015   0.297   3.713
 7689SOL     OW23965   3.514   0.030   4.832
 7689SOL    HW123966   3.418   0.058   4.827
 7689SOL    HW223967   3.524   6.981   4.902
 7690SOL     OW23968   0.976   5.485   3.249
 7690SOL    HW123969   1.037   5.406   3.240
 7690SOL    HW223970   1.002   5.554   3.182
 7691SOL     OW23971   0.339   4.242   5.489
 7691SOL    HW123972   0.271   4.242   5.416
 7691SOL    HW223973   0.372   4.149   5.505
 7692SOL     OW23974   1.348   6.196   1.634
 7692SOL    HW123975   1.325   6.099   1.620
 7692SOL    HW223976   1.440   6.203   1.671
 7693SOL     OW23977   3.933   1.620   0.029
 7693SOL    HW123978   3.956   1.537   0.079
 7693SOL    HW223979   3.961   1.611   6.955
 7694SOL     OW23980   5.526   5.665   4.247
 7694SOL    HW123981   5.593   5.650   4.320
 7694SOL    HW223982   5.494   5.759   4.250
 7695SOL     OW23983   5.102   6.647   6.213
 7695SOL    HW123984   5.058   6.734   6.188
 7695SOL    HW223985   5.032   6.583   6.244
 7696SOL     OW23986   1.404   4.051   5.526
 7696SOL    HW123987   1.501   4.074   5.516
 7696SOL    HW223988   1.380   4.047   5.623
 7697SOL     OW23989   4.217   0.140   1.924
 7697SOL    HW123990   4.284   0.118   1.853
 7697SOL    HW223991   4.186   0.056   1.968
 7698SOL     OW23992   0.146   2.448   6.430
 7698SOL    HW123993   0.089   2.526   6.453
 7698SOL    HW223994   0.237   2.480   6.401
 7699SOL     OW23995   3.037   3.463   1.808
 7699SOL    HW123996   3.032   3.560   1.828
 7699SOL    HW223997   2.994   3.411   1.881
 7700SOL     OW23998   5.777   1.219   5.749
 7700SOL    HW123999   5.695   1.262   5.711
 7700SOL    HW224000   5.800   1.263   5.836
 7701SOL     OW24001   6.593   2.710   5.181
 7701SOL    HW124002   6.550   2.763   5.108
 7701SOL    HW224003   6.670   2.761   5.218
 7702SOL     OW24004   0.939   6.119   0.426
 7702SOL    HW124005   1.019   6.077   0.384
 7702SOL    HW224006   0.950   6.219   0.427
 7703SOL     OW24007   1.242   2.915   0.397
 7703SOL    HW124008   1.175   2.986   0.417
 7703SOL    HW224009   1.278   2.927   0.304
 7704SOL     OW24010   4.134   3.411   1.931
 7704SOL    HW124011   4.096   3.493   1.888
 7704SOL    HW224012   4.150   3.428   2.028
 7705SOL     OW24013   3.962   2.905   5.453
 7705SOL    HW124014   4.056   2.891   5.423
 7705SOL    HW224015   3.947   2.857   5.540
 7706SOL     OW24016   5.941   1.345   5.560
 7706SOL    HW124017   5.883   1.310   5.633
 7706SOL    HW224018   5.972   1.269   5.503
 7707SOL     OW24019   0.566   5.121   6.492
 7707SOL    HW124020   0.597   5.216   6.495
 7707SOL    HW224021   0.507   5.103   6.571
 7708SOL     OW24022   5.135   1.468   5.673
 7708SOL    HW124023   5.144   1.438   5.578
 7708SOL    HW224024   5.090   1.397   5.726
 7709SOL     OW24025   4.227   2.404   1.818
 7709SOL    HW124026   4.321   2.416   1.786
 7709SOL    HW224027   4.167   2.387   1.739
 7710SOL     OW24028   3.339   1.128   6.063
 7710SOL    HW124029   3.301   1.210   6.107
 7710SOL    HW224030   3.268   1.060   6.051
 7711SOL     OW24031   5.451   6.640   4.475
 7711SOL    HW124032   5.526   6.574   4.481
 7711SOL    HW224033   5.436   6.681   4.565
 7712SOL     OW24034   6.400   4.363   6.023
 7712SOL    HW124035   6.333   4.298   5.988
 7712SOL    HW224036   6.367   4.456   6.008
 7713SOL     OW24037   1.197   5.036   6.381
 7713SOL    HW124038   1.275   5.007   6.326
 7713SOL    HW224039   1.119   5.054   6.321
 7714SOL     OW24040   6.537   4.650   5.187
 7714SOL    HW124041   6.598   4.572   5.201
 7714SOL    HW224042   6.554   4.717   5.260
 7715SOL     OW24043   3.005   1.417   1.448
 7715SOL    HW124044   3.090   1.431   1.398
 7715SOL    HW224045   2.986   1.498   1.505
 7716SOL     OW24046   3.831   2.032   4.309
 7716SOL    HW124047   3.761   2.099   4.334
 7716SOL    HW224048   3.835   2.024   4.209
 7717SOL     OW24049   3.256   6.340   0.360
 7717SOL    HW124050   3.324   6.402   0.398
 7717SOL    HW224051   3.258   6.253   0.411
 7718SOL     OW24052   1.418   5.964   3.171
 7718SOL    HW124053   1.467   6.046   3.200
 7718SOL    HW224054   1.379   5.919   3.252
 7719SOL     OW24055   5.330   2.635   6.019
 7719SOL    HW124056   5.272   2.697   6.071
 7719SOL    HW224057   5.371   2.568   6.081
 7720SOL     OW24058   4.593   6.328   1.313
 7720SOL    HW124059   4.517   6.370   1.265
 7720SOL    HW224060   4.560   6.283   1.396
 7721SOL     OW24061   0.520   4.922   3.682
 7721SOL    HW124062   0.589   4.993   3.687
 7721SOL    HW224063   0.503   4.886   3.774
 7722SOL     OW24064   0.442   5.828   3.404
 7722SOL    HW124065   0.412   5.896   3.471
 7722SOL    HW224066   0.541   5.830   3.396
 7723SOL     OW24067   0.045   2.355   5.745
 7723SOL    HW124068   0.078   2.277   5.691
 7723SOL    HW224069   0.018   2.429   5.684
 7724SOL     OW24070   2.794   6.038   6.919
 7724SOL    HW124071   2.821   5.954   6.965
 7724SOL    HW224072   2.700   6.031   6.886
 7725SOL     OW24073   5.060   4.175   3.503
 7725SOL    HW124074   5.085   4.126   3.587
 7725SOL    HW224075   5.137   4.229   3.471
 7726SOL     OW24076   5.238   6.145   3.314
 7726SOL    HW124077   5.315   6.086   3.289
 7726SOL    HW224078   5.251   6.180   3.406
 7727SOL     OW24079   5.853   3.781   2.509
 7727SOL    HW124080   5.816   3.789   2.602
 7727SOL    HW224081   5.911   3.860   2.490
 7728SOL     OW24082   2.146   3.411   2.819
 7728SOL    HW124083   2.047   3.419   2.810
 7728SOL    HW224084   2.177   3.328   2.772
 7729SOL     OW24085   5.632   1.168   6.127
 7729SOL    HW124086   5.700   1.241   6.123
 7729SOL    HW224087   5.678   1.080   6.145
 7730SOL     OW24088   4.426   5.981   3.291
 7730SOL    HW124089   4.421   5.901   3.351
 7730SOL    HW224090   4.337   5.996   3.248
 7731SOL     OW24091   6.426   1.308   3.318
 7731SOL    HW124092   6.380   1.222   3.297
 7731SOL    HW224093   6.471   1.343   3.235
 7732SOL     OW24094   4.022   4.905   0.876
 7732SOL    HW124095   4.053   4.972   0.944
 7732SOL    HW224096   4.101   4.867   0.828
 7733SOL     OW24097   3.794   5.480   1.509
 7733SOL    HW124098   3.779   5.399   1.453
 7733SOL    HW224099   3.740   5.556   1.473
 7734SOL     OW24100   0.959   2.940   2.296
 7734SOL    HW124101   1.023   2.913   2.368
 7734SOL    HW224102   0.989   3.025   2.253
 7735SOL     OW24103   5.938   4.341   0.650
 7735SOL    HW124104   6.028   4.325   0.691
 7735SOL    HW224105   5.874   4.370   0.721
 7736SOL     OW24106   5.977   4.481   6.708
 7736SOL    HW124107   6.018   4.516   6.624
 7736SOL    HW224108   6.007   4.536   6.786
 7737SOL     OW24109   5.166   3.459   6.685
 7737SOL    HW124110   5.123   3.383   6.635
 7737SOL    HW224111   5.227   3.509   6.624
 7738SOL     OW24112   1.597   4.612   6.217
 7738SOL    HW124113   1.545   4.625   6.302
 7738SOL    HW224114   1.537   4.575   6.147
 7739SOL     OW24115   6.043   4.896   2.262
 7739SOL    HW124116   6.074   4.911   2.168
 7739SOL    HW224117   5.944   4.888   2.264
 7740SOL     OW24118   6.613   6.023   3.326
 7740SOL    HW124119   6.606   5.979   3.415
 7740SOL    HW224120   6.681   6.096   3.330
 7741SOL     OW24121   1.944   5.520   3.571
 7741SOL    HW124122   1.932   5.421   3.565
 7741SOL    HW224123   2.034   5.540   3.608
 7742SOL     OW24124   6.795   0.686   4.412
 7742SOL    HW124125   6.744   0.752   4.356
 7742SOL    HW224126   6.891   0.686   4.384
 7743SOL     OW24127   4.866   3.700   2.240
 7743SOL    HW124128   4.961   3.720   2.263
 7743SOL    HW224129   4.813   3.684   2.323
 7744SOL     OW24130   0.124   6.466   3.471
 7744SOL    HW124131   0.166   6.514   3.394
 7744SOL    HW224132   0.146   6.512   3.556
 7745SOL     OW24133   6.414   2.681   5.597
 7745SOL    HW124134   6.374   2.614   5.660
 7745SOL    HW224135   6.359   2.764   5.598
 7746SOL     OW24136   2.025   0.329   6.465
 7746SOL    HW124137   2.055   0.305   6.557
 7746SOL    HW224138   1.936   0.288   6.447
 7747SOL     OW24139   4.405   4.886   0.783
 7747SOL    HW124140   4.363   4.805   0.741
 7747SOL    HW224141   4.490   4.860   0.827
 7748SOL     OW24142   1.279   4.042   7.013
 7748SOL    HW124143   1.336   3.973   6.970
 7748SOL    HW224144   1.188   4.003   0.010
 7749SOL     OW24145   5.927   3.132   5.833
 7749SOL    HW124146   5.889   3.053   5.786
 7749SOL    HW224147   5.980   3.102   5.912
 7750SOL     OW24148   3.859   5.903   2.874
 7750SOL    HW124149   3.879   5.809   2.902
 7750SOL    HW224150   3.764   5.910   2.843
 7751SOL     OW24151   1.028   2.460   1.377
 7751SOL    HW124152   1.113   2.473   1.326
 7751SOL    HW224153   1.016   2.536   1.441
 7752SOL     OW24154   2.721   1.265   2.697
 7752SOL    HW124155   2.654   1.251   2.624
 7752SOL    HW224156   2.813   1.269   2.658
 7753SOL     OW24157   5.223   0.532   4.985
 7753SOL    HW124158   5.311   0.575   4.967
 7753SOL    HW224159   5.153   0.571   4.925
 7754SOL     OW24160   4.263   6.233   1.199
 7754SOL    HW124161   4.281   6.281   1.113
 7754SOL    HW224162   4.193   6.163   1.184
 7755SOL     OW24163   1.557   2.975   6.077
 7755SOL    HW124164   1.508   3.038   6.137
 7755SOL    HW224165   1.596   3.026   6.000
 7756SOL     OW24166   1.488   4.524   2.201
 7756SOL    HW124167   1.556   4.454   2.180
 7756SOL    HW224168   1.473   4.581   2.120
 7757SOL     OW24169   0.330   4.253   0.618
 7757SOL    HW124170   0.369   4.163   0.602
 7757SOL    HW224171   0.400   4.314   0.654
 7758SOL     OW24172   6.724   1.404   4.942
 7758SOL    HW124173   6.661   1.472   4.904
 7758SOL    HW224174   6.764   1.439   5.027
 7759SOL     OW24175   3.297   1.179   2.558
 7759SOL    HW124176   3.306   1.127   2.474
 7759SOL    HW224177   3.348   1.265   2.550
 7760SOL     OW24178   5.351   3.161   0.582
 7760SOL    HW124179   5.363   3.215   0.665
 7760SOL    HW224180   5.432   3.105   0.566
 7761SOL     OW24181   4.722   5.124   3.003
 7761SOL    HW124182   4.789   5.195   2.982
 7761SOL    HW224183   4.752   5.037   2.965
 7762SOL     OW24184   4.803   1.091   6.973
 7762SOL    HW124185   4.745   1.043   0.017
 7762SOL    HW224186   4.775   1.066   6.880
 7763SOL     OW24187   1.402   0.664   3.072
 7763SOL    HW124188   1.493   0.629   3.094
 7763SOL    HW224189   1.339   0.642   3.147
 7764SOL     OW24190   3.713   4.366   5.224
 7764SOL    HW124191   3.810   4.342   5.221
 7764SOL    HW224192   3.701   4.457   5.264
 7765SOL     OW24193   6.171   4.338   4.096
 7765SOL    HW124194   6.258   4.288   4.096
 7765SOL    HW224195   6.143   4.357   4.190
 7766SOL     OW24196   0.455   3.057   5.580
 7766SOL    HW124197   0.487   2.985   5.519
 7766SOL    HW224198   0.520   3.068   5.656
 7767SOL     OW24199   4.064   0.633   2.879
 7767SOL    HW124200   3.983   0.585   2.844
 7767SOL    HW224201   4.081   0.714   2.824
 7768SOL     OW24202   3.222   6.184   4.046
 7768SOL    HW124203   3.231   6.084   4.045
 7768SOL    HW224204   3.286   6.222   4.112
 7769SOL     OW24205   3.992   1.845   6.061
 7769SOL    HW124206   3.944   1.854   5.973
 7769SOL    HW224207   4.091   1.838   6.044
 7770SOL     OW24208   1.406   2.953   3.640
 7770SOL    HW124209   1.431   2.992   3.551
 7770SOL    HW224210   1.469   2.879   3.663
 7771SOL     OW24211   1.161   2.951   5.243
 7771SOL    HW124212   1.081   3.003   5.212
 7771SOL    HW224213   1.161   2.862   5.197
 7772SOL     OW24214   5.236   6.865   2.046
 7772SOL    HW124215   5.229   6.801   2.123
 7772SOL    HW224216   5.201   6.821   1.963
 7773SOL     OW24217   2.520   0.035   5.928
 7773SOL    HW124218   2.479   0.123   5.954
 7773SOL    HW224219   2.489   6.986   5.992
 7774SOL     OW24220   5.227   1.271   2.333
 7774SOL    HW124221   5.271   1.355   2.364
 7774SOL    HW224222   5.207   1.278   2.235
 7775SOL     OW24223   3.977   2.274   1.343
 7775SOL    HW124224   3.974   2.175   1.356
 7775SOL    HW224225   3.939   2.319   1.424
 7776SOL     OW24226   2.753   1.654   3.667
 7776SOL    HW124227   2.740   1.703   3.753
 7776SOL    HW224228   2.782   1.561   3.686
 7777SOL     OW24229   4.832   4.560   2.941
 7777SOL    HW124230   4.868   4.512   2.862
 7777SOL    HW224231   4.758   4.507   2.982
 7778SOL     OW24232   1.035   3.472   1.784
 7778SOL    HW124233   0.981   3.556   1.781
 7778SOL    HW224234   1.004   3.410   1.711
 7779SOL     OW24235   2.433   1.379   4.185
 7779SOL    HW124236   2.458   1.459   4.240
 7779SOL    HW224237   2.333   1.371   4.183
 7780SOL     OW24238   6.576   5.807   3.867
 7780SOL    HW124239   6.535   5.898   3.873
 7780SOL    HW224240   6.675   5.816   3.854
 7781SOL     OW24241   3.482   3.158   1.617
 7781SOL    HW124242   3.440   3.235   1.570
 7781SOL    HW224243   3.535   3.191   1.695
 7782SOL     OW24244   5.196   5.250   2.988
 7782SOL    HW124245   5.226   5.264   2.893
 7782SOL    HW224246   5.208   5.334   3.040
 7783SOL     OW24247   0.411   6.514   3.587
 7783SOL    HW124248   0.418   6.454   3.667
 7783SOL    HW224249   0.372   6.602   3.616
 7784SOL     OW24250   0.372   2.813   2.543
 7784SOL    HW124251   0.296   2.793   2.481
 7784SOL    HW224252   0.336   2.843   2.632
 7785SOL     OW24253   6.018   0.767   2.612
 7785SOL    HW124254   6.022   0.867   2.604
 7785SOL    HW224255   5.979   0.728   2.529
 7786SOL     OW24256   5.663   0.684   6.141
 7786SOL    HW124257   5.660   0.619   6.065
 7786SOL    HW224258   5.686   0.636   6.225
 7787SOL     OW24259   0.914   2.005   0.883
 7787SOL    HW124260   0.962   2.006   0.971
 7787SOL    HW224261   0.883   2.097   0.860
 7788SOL     OW24262   0.879   4.105   2.544
 7788SOL    HW124263   0.838   4.139   2.460
 7788SOL    HW224264   0.904   4.183   2.602
 7789SOL     OW24265   4.161   6.920   6.539
 7789SOL    HW124266   4.133   6.974   6.460
 7789SOL    HW224267   4.148   6.973   6.623
 7790SOL     OW24268   4.005   4.865   4.856
 7790SOL    HW124269   3.915   4.872   4.900
 7790SOL    HW224270   4.066   4.936   4.891
 7791SOL     OW24271   2.056   6.307   1.576
 7791SOL    HW124272   2.108   6.242   1.519
 7791SOL    HW224273   2.018   6.378   1.518
 7792SOL     OW24274   1.297   1.631   1.781
 7792SOL    HW124275   1.219   1.686   1.751
 7792SOL    HW224276   1.382   1.680   1.761
 7793SOL     OW24277   4.899   1.220   0.689
 7793SOL    HW124278   4.972   1.237   0.623
 7793SOL    HW224279   4.825   1.286   0.673
 7794SOL     OW24280   1.180   1.730   2.857
 7794SOL    HW124281   1.268   1.685   2.868
 7794SOL    HW224282   1.116   1.668   2.811
 7795SOL     OW24283   4.569   3.132   1.255
 7795SOL    HW124284   4.640   3.189   1.296
 7795SOL    HW224285   4.608   3.042   1.233
 7796SOL     OW24286   3.825   1.798   0.246
 7796SOL    HW124287   3.754   1.861   0.215
 7796SOL    HW224288   3.869   1.756   0.167
 7797SOL     OW24289   1.629   6.029   2.717
 7797SOL    HW124290   1.587   6.085   2.645
 7797SOL    HW224291   1.557   5.991   2.775
 7798SOL     OW24292   2.166   2.607   0.739
 7798SOL    HW124293   2.170   2.542   0.815
 7798SOL    HW224294   2.165   2.700   0.774
 7799SOL     OW24295   2.519   6.100   4.519
 7799SOL    HW124296   2.472   6.128   4.603
 7799SOL    HW224297   2.458   6.112   4.441
 7800SOL     OW24298   0.517   1.227   1.721
 7800SOL    HW124299   0.509   1.274   1.633
 7800SOL    HW224300   0.455   1.148   1.723
 7801SOL     OW24301   2.570   2.467   1.039
 7801SOL    HW124302   2.657   2.485   0.994
 7801SOL    HW224303   2.504   2.432   0.972
 7802SOL     OW24304   0.053   4.464   4.509
 7802SOL    HW124305   0.099   4.394   4.564
 7802SOL    HW224306   0.038   4.428   4.416
 7803SOL     OW24307   3.174   1.990   6.174
 7803SOL    HW124308   3.092   2.047   6.181
 7803SOL    HW224309   3.251   2.045   6.143
 7804SOL     OW24310   3.453   1.808   5.332
 7804SOL    HW124311   3.469   1.784   5.236
 7804SOL    HW224312   3.381   1.877   5.337
 7805SOL     OW24313   6.866   1.811   6.367
 7805SOL    HW124314   6.917   1.870   6.304
 7805SOL    HW224315   6.769   1.838   6.366
 7806SOL     OW24316   6.286   2.921   5.239
 7806SOL    HW124317   6.342   2.881   5.166
 7806SOL    HW224318   6.220   2.853   5.271
 7807SOL     OW24319   2.299   6.677   5.595
 7807SOL    HW124320   2.376   6.636   5.643
 7807SOL    HW224321   2.324   6.694   5.499
 7808SOL     OW24322   0.480   3.168   4.620
 7808SOL    HW124323   0.545   3.155   4.695
 7808SOL    HW224324   0.443   3.261   4.624
 7809SOL     OW24325   2.799   0.290   3.166
 7809SOL    HW124326   2.728   0.351   3.131
 7809SOL    HW224327   2.850   0.335   3.239
 7810SOL     OW24328   2.710   6.759   5.641
 7810SOL    HW124329   2.632   6.822   5.643
 7810SOL    HW224330   2.785   6.802   5.590
 7811SOL     OW24331   1.324   5.831   3.398
 7811SOL    HW124332   1.330   5.880   3.485
 7811SOL    HW224333   1.324   5.733   3.415
 7812SOL     OW24334   3.097   0.343   5.601
 7812SOL    HW124335   3.055   0.380   5.518
 7812SOL    HW224336   3.195   0.362   5.600
 7813SOL     OW24337   5.141   1.277   0.520
 7813SOL    HW124338   5.227   1.234   0.546
 7813SOL    HW224339   5.129   1.272   0.421
 7814SOL     OW24340   6.721   1.992   1.537
 7814SOL    HW124341   6.667   2.008   1.455
 7814SOL    HW224342   6.675   1.925   1.595
 7815SOL     OW24343   4.825   5.724   3.679
 7815SOL    HW124344   4.835   5.625   3.672
 7815SOL    HW224345   4.797   5.762   3.591
 7816SOL     OW24346   1.354   1.314   5.436
 7816SOL    HW124347   1.386   1.336   5.344
 7816SOL    HW224348   1.265   1.267   5.429
 7817SOL     OW24349   5.134   0.984   5.715
 7817SOL    HW124350   5.102   0.890   5.702
 7817SOL    HW224351   5.223   0.995   5.670
 7818SOL     OW24352   3.772   6.929   3.312
 7818SOL    HW124353   3.690   6.873   3.322
 7818SOL    HW224354   3.842   6.877   3.263
 7819SOL     OW24355   2.987   2.200   4.170
 7819SOL    HW124356   3.060   2.178   4.106
 7819SOL    HW224357   3.023   2.199   4.263
 7820SOL     OW24358   1.885   0.811   6.964
 7820SOL    HW124359   1.934   0.799   0.028
 7820SOL    HW224360   1.942   0.777   6.889
 7821SOL     OW24361   2.832   6.064   5.602
 7821SOL    HW124362   2.923   6.023   5.592
 7821SOL    HW224363   2.763   5.991   5.606
 7822SOL     OW24364   0.760   1.440   4.505
 7822SOL    HW124365   0.849   1.410   4.540
 7822SOL    HW224366   0.701   1.465   4.581
 7823SOL     OW24367   1.972   2.286   5.067
 7823SOL    HW124368   1.880   2.308   5.099
 7823SOL    HW224369   1.968   2.252   4.973
 7824SOL     OW24370   6.506   4.206   2.857
 7824SOL    HW124371   6.421   4.172   2.896
 7824SOL    HW224372   6.583   4.155   2.897
 7825SOL     OW24373   3.037   3.967   3.809
 7825SOL    HW124374   2.970   4.019   3.861
 7825SOL    HW224375   3.103   3.925   3.872
 7826SOL     OW24376   6.228   6.888   0.998
 7826SOL    HW124377   6.208   6.825   1.073
 7826SOL    HW224378   6.154   6.955   0.990
 7827SOL     OW24379   4.572   3.526   0.164
 7827SOL    HW124380   4.658   3.482   0.136
 7827SOL    HW224381   4.503   3.512   0.094
 7828SOL     OW24382   0.942   5.400   0.262
 7828SOL    HW124383   0.934   5.392   0.361
 7828SOL    HW224384   0.868   5.458   0.227
 7829SOL     OW24385   3.284   4.091   2.806
 7829SOL    HW124386   3.299   4.057   2.713
 7829SOL    HW224387   3.192   4.064   2.837
 7830SOL     OW24388   0.003   4.893   0.310
 7830SOL    HW124389   0.010   4.793   0.311
 7830SOL    HW224390   0.016   4.926   0.216
 7831SOL     OW24391   3.299   3.606   0.459
 7831SOL    HW124392   3.278   3.699   0.488
 7831SOL    HW224393   3.321   3.550   0.538
 7832SOL     OW24394   4.117   2.715   5.754
 7832SOL    HW124395   4.135   2.731   5.851
 7832SOL    HW224396   4.072   2.626   5.743
 7833SOL     OW24397   6.820   6.737   1.900
 7833SOL    HW124398   6.800   6.789   1.817
 7833SOL    HW224399   6.854   6.646   1.874
 7834SOL     OW24400   4.532   0.993   1.183
 7834SOL    HW124401   4.584   0.958   1.262
 7834SOL    HW224402   4.483   0.918   1.140
 7835SOL     OW24403   2.135   2.322   4.365
 7835SOL    HW124404   2.173   2.230   4.358
 7835SOL    HW224405   2.162   2.376   4.285
 7836SOL     OW24406   2.335   6.914   0.253
 7836SOL    HW124407   2.421   6.956   0.225
 7836SOL    HW224408   2.309   6.843   0.187
 7837SOL     OW24409   5.288   6.775   1.575
 7837SOL    HW124410   5.329   6.761   1.484
 7837SOL    HW224411   5.314   6.865   1.609
 7838SOL     OW24412   3.378   5.393   3.950
 7838SOL    HW124413   3.406   5.345   4.033
 7838SOL    HW224414   3.311   5.338   3.900
 7839SOL     OW24415   0.005   5.541   3.084
 7839SOL    HW124416   6.998   5.447   3.064
 7839SOL    HW224417   6.949   5.593   3.120
 7840SOL     OW24418   4.099   2.846   6.294
 7840SOL    HW124419   4.125   2.771   6.355
 7840SOL    HW224420   4.169   2.857   6.223
 7841SOL     OW24421   1.022   1.369   5.579
 7841SOL    HW124422   1.060   1.387   5.488
 7841SOL    HW224423   1.019   1.454   5.631
 7842SOL     OW24424   0.791   0.924   2.330
 7842SOL    HW124425   0.749   0.835   2.318
 7842SOL    HW224426   0.880   0.925   2.284
 7843SOL     OW24427   6.464   2.007   2.117
 7843SOL    HW124428   6.437   1.933   2.055
 7843SOL    HW224429   6.390   2.074   2.122
 7844SOL     OW24430   3.654   1.559   2.940
 7844SOL    HW124431   3.706   1.633   2.983
 7844SOL    HW224432   3.640   1.486   3.007
 7845SOL     OW24433   1.153   0.993   4.578
 7845SOL    HW124434   1.210   0.943   4.513
 7845SOL    HW224435   1.211   1.039   4.645
 7846SOL     OW24436   5.328   0.179   2.881
 7846SOL    HW124437   5.251   0.117   2.866
 7846SOL    HW224438   5.318   0.223   2.971
 7847SOL     OW24439   0.769   6.468   5.596
 7847SOL    HW124440   0.693   6.532   5.606
 7847SOL    HW224441   0.852   6.509   5.634
 7848SOL     OW24442   4.136   2.993   1.246
 7848SOL    HW124443   4.177   2.903   1.258
 7848SOL    HW224444   4.045   2.994   1.287
 7849SOL     OW24445   6.842   4.755   5.972
 7849SOL    HW124446   6.832   4.724   6.067
 7849SOL    HW224447   6.756   4.740   5.923
 7850SOL     OW24448   1.488   2.759   5.111
 7850SOL    HW124449   1.535   2.695   5.050
 7850SOL    HW224450   1.537   2.763   5.198
 7851SOL     OW24451   2.684   6.161   0.322
 7851SOL    HW124452   2.721   6.072   0.294
 7851SOL    HW224453   2.680   6.166   0.422
 7852SOL     OW24454   2.632   6.466   0.565
 7852SOL    HW124455   2.598   6.432   0.477
 7852SOL    HW224456   2.562   6.523   0.607
 7853SOL     OW24457   2.714   2.093   6.663
 7853SOL    HW124458   2.811   2.070   6.666
 7853SOL    HW224459   2.662   2.025   6.715
 7854SOL     OW24460   3.871   3.916   4.656
 7854SOL    HW124461   3.930   3.841   4.687
 7854SOL    HW224462   3.901   3.947   4.566
 7855SOL     OW24463   3.185   0.098   5.102
 7855SOL    HW124464   3.234   0.027   5.154
 7855SOL    HW224465   3.105   0.128   5.154
 7856SOL     OW24466   2.600   2.357   5.912
 7856SOL    HW124467   2.620   2.304   5.994
 7856SOL    HW224468   2.526   2.422   5.932
 7857SOL     OW24469   0.339   3.551   4.858
 7857SOL    HW124470   0.360   3.462   4.898
 7857SOL    HW224471   0.262   3.593   4.907
 7858SOL     OW24472   5.232   2.845   3.349
 7858SOL    HW124473   5.280   2.788   3.416
 7858SOL    HW224474   5.215   2.935   3.387
 7859SOL     OW24475   6.997   6.371   0.181
 7859SOL    HW124476   6.927   6.340   0.116
 7859SOL    HW224477   6.976   6.334   0.271
 7860SOL     OW24478   4.282   6.984   0.133
 7860SOL    HW124479   4.319   6.921   0.201
 7860SOL    HW224480   4.311   6.956   0.042
 7861SOL     OW24481   6.304   4.049   0.309
 7861SOL    HW124482   6.272   3.955   0.323
 7861SOL    HW224483   6.335   4.087   0.396
 7862SOL     OW24484   3.064   4.542   1.678
 7862SOL    HW124485   2.992   4.507   1.737
 7862SOL    HW224486   3.078   4.639   1.696
 7863SOL     OW24487   4.624   5.762   2.248
 7863SOL    HW124488   4.689   5.739   2.320
 7863SOL    HW224489   4.636   5.858   2.222
 7864SOL     OW24490   2.241   5.713   5.490
 7864SOL    HW124491   2.221   5.685   5.396
 7864SOL    HW224492   2.155   5.721   5.540
 7865SOL     OW24493   4.619   0.412   3.147
 7865SOL    HW124494   4.578   0.394   3.057
 7865SOL    HW224495   4.608   0.331   3.205
 7866SOL     OW24496   2.787   0.534   5.492
 7866SOL    HW124497   2.742   0.622   5.477
 7866SOL    HW224498   2.880   0.537   5.455
 7867SOL     OW24499   0.008   2.360   0.074
 7867SOL    HW124500   6.935   2.390   0.077
 7867SOL    HW224501   0.018   2.276   0.126
 7868SOL     OW24502   5.597   0.163   1.627
 7868SOL    HW124503   5.572   0.243   1.573
 7868SOL    HW224504   5.657   0.104   1.573
 7869SOL     OW24505   5.951   1.806   4.570
 7869SOL    HW124506   5.938   1.745   4.648
 7869SOL    HW224507   6.042   1.792   4.532
 7870SOL     OW24508   5.958   0.385   3.367
 7870SOL    HW124509   5.990   0.306   3.314
 7870SOL    HW224510   5.982   0.469   3.319
 7871SOL     OW24511   5.702   2.675   2.877
 7871SOL    HW124512   5.703   2.639   2.784
 7871SOL    HW224513   5.758   2.757   2.882
 7872SOL     OW24514   5.344   4.270   3.763
 7872SOL    HW124515   5.362   4.206   3.688
 7872SOL    HW224516   5.403   4.351   3.752
 7873SOL     OW24517   7.004   6.377   4.527
 7873SOL    HW124518   0.006   6.452   4.465
 7873SOL    HW224519   0.055   6.309   4.527
 7874SOL     OW24520   5.859   6.385   0.381
 7874SOL    HW124521   5.837   6.288   0.370
 7874SOL    HW224522   5.955   6.394   0.409
 7875SOL     OW24523   5.365   2.625   0.708
 7875SOL    HW124524   5.318   2.673   0.781
 7875SOL    HW224525   5.319   2.642   0.621
 7876SOL     OW24526   6.865   2.807   5.210
 7876SOL    HW124527   6.959   2.792   5.242
 7876SOL    HW224528   6.846   2.905   5.209
 7877SOL     OW24529   6.010   3.502   1.250
 7877SOL    HW124530   5.946   3.568   1.290
 7877SOL    HW224531   6.032   3.432   1.317
 7878SOL     OW24532   4.025   3.641   2.294
 7878SOL    HW124533   3.962   3.709   2.258
 7878SOL    HW224534   4.039   3.657   2.392
 7879SOL     OW24535   6.649   1.470   5.621
 7879SOL    HW124536   6.591   1.455   5.701
 7879SOL    HW224537   6.593   1.507   5.546
 7880SOL     OW24538   2.217   6.132   6.475
 7880SOL    HW124539   2.265   6.048   6.504
 7880SOL    HW224540   2.155   6.110   6.400
 7881SOL     OW24541   0.089   4.849   5.513
 7881SOL    HW124542   0.065   4.920   5.579
 7881SOL    HW224543   0.150   4.783   5.556
 7882SOL     OW24544   0.902   4.899   0.772
 7882SOL    HW124545   0.965   4.877   0.846
 7882SOL    HW224546   0.926   4.846   0.690
 7883SOL     OW24547   3.133   2.178   2.757
 7883SOL    HW124548   3.102   2.172   2.662
 7883SOL    HW224549   3.082   2.250   2.804
 7884SOL     OW24550   6.457   2.251   5.742
 7884SOL    HW124551   6.400   2.333   5.732
 7884SOL    HW224552   6.451   2.196   5.659
 7885SOL     OW24553   4.698   4.876   2.249
 7885SOL    HW124554   4.703   4.858   2.151
 7885SOL    HW224555   4.623   4.823   2.289
 7886SOL     OW24556   3.808   5.306   3.351
 7886SOL    HW124557   3.756   5.255   3.283
 7886SOL    HW224558   3.905   5.282   3.345
 7887SOL     OW24559   0.130   3.472   0.757
 7887SOL    HW124560   0.102   3.444   0.665
 7887SOL    HW224561   0.222   3.436   0.776
 7888SOL     OW24562   0.478   1.207   5.476
 7888SOL    HW124563   0.424   1.233   5.396
 7888SOL    HW224564   0.526   1.287   5.511
 7889SOL     OW24565   6.129   4.592   0.514
 7889SOL    HW124566   6.125   4.638   0.425
 7889SOL    HW224567   6.127   4.493   0.500
 7890SOL     OW24568   1.227   2.747   1.802
 7890SOL    HW124569   1.307   2.693   1.827
 7890SOL    HW224570   1.215   2.821   1.868
 7891SOL     OW24571   0.070   1.152   5.269
 7891SOL    HW124572   0.169   1.164   5.278
 7891SOL    HW224573   0.040   1.075   5.326
 7892SOL     OW24574   0.529   2.002   4.514
 7892SOL    HW124575   0.629   2.011   4.519
 7892SOL    HW224576   0.487   2.044   4.594
 7893SOL     OW24577   5.929   6.058   0.654
 7893SOL    HW124578   6.001   6.074   0.723
 7893SOL    HW224579   5.959   5.986   0.591
 7894SOL     OW24580   3.023   6.985   6.201
 7894SOL    HW124581   3.115   7.012   6.172
 7894SOL    HW224582   2.982   6.926   6.131
 7895SOL     OW24583   4.816   0.049   2.350
 7895SOL    HW124584   4.865   0.116   2.406
 7895SOL    HW224585   4.731   0.089   2.316
 7896SOL     OW24586   2.605   1.923   1.484
 7896SOL    HW124587   2.507   1.900   1.488
 7896SOL    HW224588   2.636   1.952   1.574
 7897SOL     OW24589   4.927   1.057   1.555
 7897SOL    HW124590   5.020   1.058   1.517
 7897SOL    HW224591   4.878   1.139   1.525
 7898SOL     OW24592   3.737   6.088   3.362
 7898SOL    HW124593   3.639   6.071   3.348
 7898SOL    HW224594   3.758   6.080   3.460
 7899SOL     OW24595   5.588   4.690   2.607
 7899SOL    HW124596   5.550   4.713   2.697
 7899SOL    HW224597   5.590   4.591   2.596
 7900SOL     OW24598   0.182   4.075   0.783
 7900SOL    HW124599   0.231   4.150   0.739
 7900SOL    HW224600   0.193   4.082   0.882
 7901SOL     OW24601   0.011   3.357   6.358
 7901SOL    HW124602   0.043   3.442   6.317
 7901SOL    HW224603   0.061   3.339   6.443
 7902SOL     OW24604   1.471   0.966   1.597
 7902SOL    HW124605   1.411   0.913   1.658
 7902SOL    HW224606   1.439   1.060   1.592
 7903SOL     OW24607   3.447   2.139   5.678
 7903SOL    HW124608   3.399   2.222   5.649
 7903SOL    HW224609   3.423   2.063   5.617
 7904SOL     OW24610   5.700   3.480   2.893
 7904SOL    HW124611   5.738   3.549   2.831
 7904SOL    HW224612   5.769   3.409   2.910
 7905SOL     OW24613   6.657   2.081   0.841
 7905SOL    HW124614   6.637   2.020   0.918
 7905SOL    HW224615   6.704   2.162   0.874
 7906SOL     OW24616   6.867   5.830   6.163
 7906SOL    HW124617   6.921   5.762   6.212
 7906SOL    HW224618   6.832   5.898   6.228
 7907SOL     OW24619   4.950   5.718   3.031
 7907SOL    HW124620   4.885   5.651   3.068
 7907SOL    HW224621   4.970   5.696   2.936
 7908SOL     OW24622   1.762   0.216   6.566
 7908SOL    HW124623   1.678   0.163   6.551
 7908SOL    HW224624   1.753   0.267   6.652
 7909SOL     OW24625   0.087   3.745   3.321
 7909SOL    HW124626   0.085   3.844   3.330
 7909SOL    HW224627   0.107   3.720   3.226
 7910SOL     OW24628   1.531   3.813   4.167
 7910SOL    HW124629   1.504   3.784   4.075
 7910SOL    HW224630   1.584   3.898   4.162
 7911SOL     OW24631   5.903   4.027   6.360
 7911SOL    HW124632   5.944   4.100   6.304
 7911SOL    HW224633   5.852   3.965   6.301
 7912SOL     OW24634   5.702   5.619   1.780
 7912SOL    HW124635   5.604   5.633   1.797
 7912SOL    HW224636   5.754   5.642   1.862
 7913SOL     OW24637   0.662   3.756   6.613
 7913SOL    HW124638   0.739   3.696   6.594
 7913SOL    HW224639   0.656   3.772   6.711
 7914SOL     OW24640   1.355   0.371   4.821
 7914SOL    HW124641   1.390   0.464   4.807
 7914SOL    HW224642   1.377   0.315   4.741
 7915SOL     OW24643   2.677   6.266   1.577
 7915SOL    HW124644   2.598   6.289   1.520
 7915SOL    HW224645   2.733   6.347   1.589
 7916SOL     OW24646   2.114   0.121   2.729
 7916SOL    HW124647   2.184   0.141   2.661
 7916SOL    HW224648   2.023   0.136   2.689
 7917SOL     OW24649   4.406   1.241   2.863
 7917SOL    HW124650   4.424   1.197   2.775
 7917SOL    HW224651   4.491   1.273   2.904
 7918SOL     OW24652   1.635   2.712   2.706
 7918SOL    HW124653   1.629   2.612   2.715
 7918SOL    HW224654   1.544   2.751   2.706
 7919SOL     OW24655   1.091   0.286   4.660
 7919SOL    HW124656   1.056   0.369   4.617
 7919SOL    HW224657   1.191   0.285   4.656
 7920SOL     OW24658   5.171   6.908   1.231
 7920SOL    HW124659   5.210   6.996   1.257
 7920SOL    HW224660   5.133   6.914   1.138
 7921SOL     OW24661   6.531   3.341   1.198
 7921SOL    HW124662   6.564   3.398   1.122
 7921SOL    HW224663   6.475   3.397   1.259
 7922SOL     OW24664   2.149   6.614   3.200
 7922SOL    HW124665   2.146   6.544   3.271
 7922SOL    HW224666   2.100   6.696   3.232
 7923SOL     OW24667   5.801   0.281   6.862
 7923SOL    HW124668   5.827   0.185   6.857
 7923SOL    HW224669   5.882   0.338   6.848
 7924SOL     OW24670   5.422   5.713   6.770
 7924SOL    HW124671   5.518   5.714   6.745
 7924SOL    HW224672   5.410   5.663   6.856
 7925SOL     OW24673   2.618   4.343   6.424
 7925SOL    HW124674   2.524   4.338   6.390
 7925SOL    HW224675   2.618   4.374   6.519
 7926SOL     OW24676   4.795   5.564   0.332
 7926SOL    HW124677   4.776   5.466   0.340
 7926SOL    HW224678   4.761   5.598   0.245
 7927SOL     OW24679   4.783   6.882   3.829
 7927SOL    HW124680   4.817   6.975   3.813
 7927SOL    HW224681   4.860   6.818   3.833
 7928SOL     OW24682   5.598   2.994   3.970
 7928SOL    HW124683   5.532   2.958   4.036
 7928SOL    HW224684   5.582   3.092   3.957
 7929SOL     OW24685   4.327   4.227   5.672
 7929SOL    HW124686   4.254   4.160   5.669
 7929SOL    HW224687   4.358   4.246   5.578
 7930SOL     OW24688   3.530   5.142   0.986
 7930SOL    HW124689   3.591   5.081   1.037
 7930SOL    HW224690   3.569   5.234   0.983
 7931SOL     OW24691   5.649   0.672   0.156
 7931SOL    HW124692   5.562   0.648   0.113
 7931SOL    HW224693   5.632   0.710   0.247
 7932SOL     OW24694   1.023   3.619   0.835
 7932SOL    HW124695   0.977   3.695   0.788
 7932SOL    HW224696   1.087   3.575   0.773
 7933SOL     OW24697   2.352   1.420   0.021
 7933SOL    HW124698   2.410   1.414   6.962
 7933SOL    HW224699   2.338   1.517   0.045
 7934SOL     OW24700   6.614   5.128   0.608
 7934SOL    HW124701   6.710   5.150   0.621
 7934SOL    HW224702   6.558   5.186   0.667
 7935SOL     OW24703   6.102   4.355   3.669
 7935SOL    HW124704   6.043   4.337   3.590
 7935SOL    HW224705   6.176   4.416   3.641
 7936SOL     OW24706   2.222   5.503   4.147
 7936SOL    HW124707   2.310   5.482   4.191
 7936SOL    HW224708   2.231   5.490   4.048
 7937SOL     OW24709   4.101   0.647   1.731
 7937SOL    HW124710   4.037   0.705   1.680
 7937SOL    HW224711   4.193   0.657   1.693
 7938SOL     OW24712   1.675   0.102   3.685
 7938SOL    HW124713   1.649   0.150   3.768
 7938SOL    HW224714   1.615   0.128   3.610
 7939SOL     OW24715   1.879   0.302   3.588
 7939SOL    HW124716   1.923   0.296   3.498
 7939SOL    HW224717   1.783   0.276   3.580
 7940SOL     OW24718   6.691   1.233   5.849
 7940SOL    HW124719   6.592   1.236   5.864
 7940SOL    HW224720   6.710   1.208   5.754
 7941SOL     OW24721   2.830   0.494   1.024
 7941SOL    HW124722   2.821   0.410   0.972
 7941SOL    HW224723   2.825   0.573   0.962
 7942SOL     OW24724   1.581   3.579   0.683
 7942SOL    HW124725   1.503   3.569   0.620
 7942SOL    HW224726   1.580   3.671   0.722
 7943SOL     OW24727   1.685   5.740   6.432
 7943SOL    HW124728   1.591   5.711   6.450
 7943SOL    HW224729   1.717   5.798   6.507
 7944SOL     OW24730   1.158   2.120   0.681
 7944SOL    HW124731   1.244   2.100   0.727
 7944SOL    HW224732   1.176   2.148   0.586
 7945SOL     OW24733   6.264   4.543   3.532
 7945SOL    HW124734   6.256   4.588   3.443
 7945SOL    HW224735   6.317   4.460   3.522
 7946SOL     OW24736   5.500   1.282   5.725
 7946SOL    HW124737   5.471   1.375   5.702
 7946SOL    HW224738   5.445   1.248   5.802
 7947SOL     OW24739   0.861   4.353   0.368
 7947SOL    HW124740   0.954   4.322   0.392
 7947SOL    HW224741   0.807   4.274   0.339
 7948SOL     OW24742   1.476   5.750   0.832
 7948SOL    HW124743   1.515   5.670   0.879
 7948SOL    HW224744   1.378   5.738   0.821
 7949SOL     OW24745   3.820   5.290   5.410
 7949SOL    HW124746   3.749   5.248   5.353
 7949SOL    HW224747   3.910   5.265   5.374
 7950SOL     OW24748   5.951   2.406   6.266
 7950SOL    HW124749   5.992   2.315   6.275
 7950SOL    HW224750   6.024   2.475   6.270
 7951SOL     OW24751   2.806   0.340   2.857
 7951SOL    HW124752   2.839   0.288   2.936
 7951SOL    HW224753   2.766   0.426   2.887
 7952SOL     OW24754   0.303   3.340   5.493
 7952SOL    HW124755   0.367   3.302   5.426
 7952SOL    HW224756   0.275   3.432   5.464
 7953SOL     OW24757   0.543   0.892   6.817
 7953SOL    HW124758   0.595   0.976   6.829
 7953SOL    HW224759   0.458   0.897   6.869
 7954SOL     OW24760   3.759   2.188   0.803
 7954SOL    HW124761   3.742   2.280   0.767
 7954SOL    HW224762   3.699   2.172   0.881
 7955SOL     OW24763   6.722   6.416   6.948
 7955SOL    HW124764   6.691   6.386   0.016
 7955SOL    HW224765   6.721   6.516   6.944
 7956SOL     OW24766   0.462   6.712   1.394
 7956SOL    HW124767   0.485   6.804   1.425
 7956SOL    HW224768   0.482   6.646   1.467
 7957SOL     OW24769   5.959   1.993   6.435
 7957SOL    HW124770   5.909   2.049   6.369
 7957SOL    HW224771   5.957   2.038   6.524
 7958SOL     OW24772   5.049   2.207   5.909
 7958SOL    HW124773   5.098   2.127   5.875
 7958SOL    HW224774   4.956   2.181   5.935
 7959SOL     OW24775   5.529   2.764   0.403
 7959SOL    HW124776   5.449   2.794   0.350
 7959SOL    HW224777   5.534   2.817   0.488
 7960SOL     OW24778   0.859   3.012   4.936
 7960SOL    HW124779   0.911   2.957   4.872
 7960SOL    HW224780   0.918   3.039   5.012
 7961SOL     OW24781   6.133   0.143   5.973
 7961SOL    HW124782   6.161   0.092   6.054
 7961SOL    HW224783   6.112   0.238   5.998
 7962SOL     OW24784   5.996   0.710   4.578
 7962SOL    HW124785   5.976   0.631   4.635
 7962SOL    HW224786   5.939   0.787   4.607
 7963SOL     OW24787   5.852   6.135   2.682
 7963SOL    HW124788   5.880   6.178   2.768
 7963SOL    HW224789   5.854   6.035   2.693
 7964SOL     OW24790   1.338   5.048   1.987
 7964SOL    HW124791   1.273   5.040   2.063
 7964SOL    HW224792   1.324   4.972   1.924
 7965SOL     OW24793   4.761   1.862   6.568
 7965SOL    HW124794   4.746   1.946   6.621
 7965SOL    HW224795   4.695   1.857   6.494
 7966SOL     OW24796   5.821   3.948   5.272
 7966SOL    HW124797   5.879   3.879   5.228
 7966SOL    HW224798   5.856   3.966   5.364
 7967SOL     OW24799   2.007   4.458   1.850
 7967SOL    HW124800   2.024   4.443   1.753
 7967SOL    HW224801   2.078   4.517   1.888
 7968SOL     OW24802   2.161   2.280   3.200
 7968SOL    HW124803   2.253   2.244   3.180
 7968SOL    HW224804   2.101   2.263   3.122
 7969SOL     OW24805   2.763   4.111   6.466
 7969SOL    HW124806   2.764   4.197   6.415
 7969SOL    HW224807   2.699   4.047   6.423
 7970SOL     OW24808   6.367   2.453   2.832
 7970SOL    HW124809   6.406   2.365   2.804
 7970SOL    HW224810   6.365   2.458   2.932
 7971SOL     OW24811   2.582   0.005   0.123
 7971SOL    HW124812   2.602   0.006   0.025
 7971SOL    HW224813   2.637   0.074   0.169
 7972SOL     OW24814   3.284   2.906   4.140
 7972SOL    HW124815   3.306   2.863   4.053
 7972SOL    HW224816   3.208   2.970   4.127
 7973SOL     OW24817   1.263   5.569   2.428
 7973SOL    HW124818   1.324   5.572   2.507
 7973SOL    HW224819   1.168   5.569   2.458
 7974SOL     OW24820   0.322   3.035   3.940
 7974SOL    HW124821   0.336   3.106   4.009
 7974SOL    HW224822   0.305   3.078   3.851
 7975SOL     OW24823   3.629   0.452   6.578
 7975SOL    HW124824   3.651   0.416   6.488
 7975SOL    HW224825   3.559   0.395   6.621
 7976SOL     OW24826   6.420   0.345   0.669
 7976SOL    HW124827   6.515   0.375   0.666
 7976SOL    HW224828   6.389   0.339   0.764
 7977SOL     OW24829   5.482   4.955   3.091
 7977SOL    HW124830   5.513   5.015   3.017
 7977SOL    HW224831   5.474   5.008   3.175
 7978SOL     OW24832   0.355   3.958   1.584
 7978SOL    HW124833   0.327   3.948   1.489
 7978SOL    HW224834   0.437   4.016   1.589
 7979SOL     OW24835   3.784   2.866   5.760
 7979SOL    HW124836   3.833   2.950   5.785
 7979SOL    HW224837   3.837   2.787   5.789
 7980SOL     OW24838   3.871   6.114   2.593
 7980SOL    HW124839   3.956   6.064   2.608
 7980SOL    HW224840   3.811   6.103   2.673
 7981SOL     OW24841   0.983   2.963   3.842
 7981SOL    HW124842   0.961   2.876   3.797
 7981SOL    HW224843   0.966   2.955   3.940
 7982SOL     OW24844   6.639   6.817   0.707
 7982SOL    HW124845   6.557   6.858   0.666
 7982SOL    HW224846   6.712   6.814   0.640
 7983SOL     OW24847   3.803   1.847   0.760
 7983SOL    HW124848   3.871   1.920   0.750
 7983SOL    HW224849   3.778   1.837   0.857
 7984SOL     OW24850   5.621   1.305   1.883
 7984SOL    HW124851   5.559   1.228   1.895
 7984SOL    HW224852   5.583   1.367   1.814
 7985SOL     OW24853   2.995   3.640   5.914
 7985SOL    HW124854   2.931   3.710   5.947
 7985SOL    HW224855   3.060   3.617   5.987
 7986SOL     OW24856   2.124   1.347   3.529
 7986SOL    HW124857   2.071   1.431   3.515
 7986SOL    HW224858   2.202   1.367   3.589
 7987SOL     OW24859   0.346   2.701   6.980
 7987SOL    HW124860   0.414   2.745   0.018
 7987SOL    HW224861   0.360   2.734   6.886
 7988SOL     OW24862   6.233   0.090   1.909
 7988SOL    HW124863   6.198   0.175   1.949
 7988SOL    HW224864   6.269   0.032   1.982
 7989SOL     OW24865   0.893   5.094   1.837
 7989SOL    HW124866   0.801   5.107   1.799
 7989SOL    HW224867   0.926   5.181   1.874
 7990SOL     OW24868   4.170   4.889   5.255
 7990SOL    HW124869   4.167   4.928   5.347
 7990SOL    HW224870   4.084   4.908   5.207
 7991SOL     OW24871   5.147   0.633   4.266
 7991SOL    HW124872   5.111   0.561   4.206
 7991SOL    HW224873   5.140   0.721   4.220
 7992SOL     OW24874   3.251   0.408   0.643
 7992SOL    HW124875   3.184   0.371   0.708
 7992SOL    HW224876   3.248   0.508   0.646
 7993SOL     OW24877   6.061   4.795   1.380
 7993SOL    HW124878   6.043   4.769   1.285
 7993SOL    HW224879   6.107   4.883   1.383
 7994SOL     OW24880   0.720   0.825   4.922
 7994SOL    HW124881   0.766   0.859   5.004
 7994SOL    HW224882   0.628   0.865   4.916
 7995SOL     OW24883   0.685   5.765   0.434
 7995SOL    HW124884   0.672   5.863   0.443
 7995SOL    HW224885   0.777   5.740   0.467
 7996SOL     OW24886   1.667   6.213   4.163
 7996SOL    HW124887   1.709   6.123   4.178
 7996SOL    HW224888   1.673   6.237   4.066
 7997SOL     OW24889   2.348   0.691   6.065
 7997SOL    HW124890   2.414   0.624   6.099
 7997SOL    HW224891   2.394   0.777   6.043
 7998SOL     OW24892   1.933   1.927   1.935
 7998SOL    HW124893   2.011   1.964   1.985
 7998SOL    HW224894   1.963   1.848   1.881
 7999SOL     OW24895   6.729   0.534   2.495
 7999SOL    HW124896   6.637   0.567   2.512
 7999SOL    HW224897   6.774   0.515   2.582
 8000SOL     OW24898   4.771   5.742   0.108
 8000SOL    HW124899   4.732   5.809   0.171
 8000SOL    HW224900   4.724   5.749   0.019
 8001SOL     OW24901   5.132   5.050   2.245
 8001SOL    HW124902   5.185   5.124   2.287
 8001SOL    HW224903   5.187   4.966   2.244
 8002SOL     OW24904   1.395   0.597   5.132
 8002SOL    HW124905   1.479   0.555   5.097
 8002SOL    HW224906   1.409   0.696   5.141
 8003SOL     OW24907   2.208   5.457   3.205
 8003SOL    HW124908   2.223   5.427   3.111
 8003SOL    HW224909   2.296   5.461   3.253
 8004SOL     OW24910   2.076   3.886   3.696
 8004SOL    HW124911   2.061   3.983   3.677
 8004SOL    HW224912   2.155   3.876   3.757
 8005SOL     OW24913   2.793   0.207   4.798
 8005SOL    HW124914   2.826   0.174   4.886
 8005SOL    HW224915   2.792   0.307   4.797
 8006SOL     OW24916   4.572   5.372   6.363
 8006SOL    HW124917   4.580   5.316   6.280
 8006SOL    HW224918   4.483   5.418   6.364
 8007SOL     OW24919   0.731   0.229   1.089
 8007SOL    HW124920   0.801   0.195   1.026
 8007SOL    HW224921   0.759   0.317   1.128
 8008SOL     OW24922   4.824   5.136   1.220
 8008SOL    HW124923   4.921   5.118   1.239
 8008SOL    HW224924   4.813   5.229   1.185
 8009SOL     OW24925   5.690   0.249   1.911
 8009SOL    HW124926   5.690   0.234   1.812
 8009SOL    HW224927   5.656   0.167   1.956
 8010SOL     OW24928   3.061   6.901   0.679
 8010SOL    HW124929   3.089   6.875   0.587
 8010SOL    HW224930   3.076   6.824   0.741
 8011SOL     OW24931   3.800   1.398   1.829
 8011SOL    HW124932   3.869   1.451   1.878
 8011SOL    HW224933   3.713   1.402   1.878
 8012SOL     OW24934   5.926   0.777   5.190
 8012SOL    HW124935   6.002   0.713   5.185
 8012SOL    HW224936   5.934   0.844   5.116
 8013SOL     OW24937   3.496   0.688   3.540
 8013SOL    HW124938   3.568   0.720   3.601
 8013SOL    HW224939   3.414   0.668   3.593
 8014SOL     OW24940   1.952   2.345   3.370
 8014SOL    HW124941   2.034   2.321   3.319
 8014SOL    HW224942   1.908   2.424   3.327
 8015SOL     OW24943   4.021   5.443   5.157
 8015SOL    HW124944   4.056   5.512   5.093
 8015SOL    HW224945   3.923   5.457   5.171
 8016SOL     OW24946   2.872   3.529   5.595
 8016SOL    HW124947   2.933   3.454   5.568
 8016SOL    HW224948   2.901   3.613   5.550
 8017SOL     OW24949   5.598   6.413   1.881
 8017SOL    HW124950   5.575   6.450   1.791
 8017SOL    HW224951   5.689   6.446   1.907
 8018SOL     OW24952   3.290   2.739   1.090
 8018SOL    HW124953   3.288   2.838   1.100
 8018SOL    HW224954   3.344   2.715   1.009
 8019SOL     OW24955   3.215   3.084   0.672
 8019SOL    HW124956   3.157   3.006   0.645
 8019SOL    HW224957   3.157   3.159   0.704
 8020SOL     OW24958   0.790   6.802   0.030
 8020SOL    HW124959   0.841   6.788   0.115
 8020SOL    HW224960   0.854   6.821   6.978
 8021SOL     OW24961   1.070   2.076   0.343
 8021SOL    HW124962   1.157   2.070   0.393
 8021SOL    HW224963   1.054   1.992   0.293
 8022SOL     OW24964   4.001   6.697   2.458
 8022SOL    HW124965   3.979   6.708   2.555
 8022SOL    HW224966   3.997   6.600   2.433
 8023SOL     OW24967   3.523   4.997   2.590
 8023SOL    HW124968   3.583   4.984   2.669
 8023SOL    HW224969   3.554   5.077   2.538
 8024SOL     OW24970   2.497   0.953   6.672
 8024SOL    HW124971   2.407   0.935   6.712
 8024SOL    HW224972   2.567   0.912   6.730
 8025SOL     OW24973   1.384   6.502   1.576
 8025SOL    HW124974   1.308   6.475   1.517
 8025SOL    HW224975   1.349   6.530   1.665
 8026SOL     OW24976   0.552   6.319   5.254
 8026SOL    HW124977   0.605   6.241   5.222
 8026SOL    HW224978   0.612   6.398   5.265
 8027SOL     OW24979   3.916   0.233   6.304
 8027SOL    HW124980   3.950   0.322   6.272
 8027SOL    HW224981   3.919   0.230   6.404
 8028SOL     OW24982   3.310   5.710   5.918
 8028SOL    HW124983   3.241   5.675   5.855
 8028SOL    HW224984   3.388   5.745   5.866
 8029SOL     OW24985   1.765   6.889   1.132
 8029SOL    HW124986   1.693   6.825   1.104
 8029SOL    HW224987   1.737   6.982   1.109
 8030SOL     OW24988   0.745   3.481   0.515
 8030SOL    HW124989   0.669   3.529   0.559
 8030SOL    HW224990   0.806   3.547   0.471
 8031SOL     OW24991   0.558   0.654   4.517
 8031SOL    HW124992   0.655   0.681   4.517
 8031SOL    HW224993   0.501   0.731   4.543
 8032SOL     OW24994   0.894   3.335   1.573
 8032SOL    HW124995   0.893   3.337   1.473
 8032SOL    HW224996   0.821   3.393   1.608
 8033SOL     OW24997   3.552   5.069   0.437
 8033SOL    HW124998   3.561   5.062   0.537
 8033SOL    HW224999   3.633   5.114   0.400
 8034SOL     OW25000   1.277   1.839   5.034
 8034SOL    HW125001   1.269   1.933   5.066
 8034SOL    HW225002   1.265   1.836   4.935
 8035SOL     OW25003   5.057   0.454   3.465
 8035SOL    HW125004   5.109   0.382   3.419
 8035SOL    HW225005   5.059   0.537   3.410
 8036SOL     OW25006   5.357   5.167   5.458
 8036SOL    HW125007   5.288   5.135   5.522
 8036SOL    HW225008   5.394   5.089   5.407
 8037SOL     OW25009   3.690   1.011   6.513
 8037SOL    HW125010   3.648   0.922   6.497
 8037SOL    HW225011   3.661   1.074   6.440
 8038SOL     OW25012   5.631   5.915   2.459
 8038SOL    HW125013   5.533   5.925   2.478
 8038SOL    HW225014   5.682   5.914   2.545
 8039SOL     OW25015   1.896   2.767   4.950
 8039SOL    HW125016   1.869   2.831   5.021
 8039SOL    HW225017   1.911   2.816   4.864
 8040SOL     OW25018   0.716   0.031   4.909
 8040SOL    HW125019   0.663   6.968   4.913
 8040SOL    HW225020   0.779   0.034   4.986
 8041SOL     OW25021   3.093   1.940   2.874
 8041SOL    HW125022   3.117   2.030   2.837
 8041SOL    HW225023   3.163   1.873   2.849
 8042SOL     OW25024   5.299   4.557   6.625
 8042SOL    HW125025   5.305   4.591   6.531
 8042SOL    HW225026   5.336   4.626   6.687
 8043SOL     OW25027   6.035   5.132   6.961
 8043SOL    HW125028   5.953   5.145   6.905
 8043SOL    HW225029   6.076   5.221   6.981
 8044SOL     OW25030   1.165   3.207   1.384
 8044SOL    HW125031   1.153   3.302   1.412
 8044SOL    HW225032   1.259   3.178   1.406
 8045SOL     OW25033   5.787   2.991   4.807
 8045SOL    HW125034   5.738   3.030   4.884
 8045SOL    HW225035   5.790   3.058   4.732
 8046SOL     OW25036   0.309   4.432   1.797
 8046SOL    HW125037   0.281   4.354   1.740
 8046SOL    HW225038   0.263   4.425   1.886
 8047SOL     OW25039   2.912   5.950   0.280
 8047SOL    HW125040   2.967   6.025   0.244
 8047SOL    HW225041   2.882   5.891   0.205
 8048SOL     OW25042   4.769   2.295   6.845
 8048SOL    HW125043   4.732   2.383   6.814
 8048SOL    HW225044   4.858   2.308   6.888
 8049SOL     OW25045   2.343   1.646   0.412
 8049SOL    HW125046   2.360   1.548   0.401
 8049SOL    HW225047   2.395   1.681   0.490
 8050SOL     OW25048   0.057   4.672   5.874
 8050SOL    HW125049   6.979   4.673   5.878
 8050SOL    HW225050   0.087   4.683   5.780
 8051SOL     OW25051   4.416   6.259   3.330
 8051SOL    HW125052   4.395   6.263   3.233
 8051SOL    HW225053   4.341   6.215   3.379
 8052SOL     OW25054   2.021   1.471   3.184
 8052SOL    HW125055   1.969   1.552   3.210
 8052SOL    HW225056   1.964   1.411   3.128
 8053SOL     OW25057   2.000   1.049   6.757
 8053SOL    HW125058   2.032   1.046   6.852
 8053SOL    HW225059   1.903   1.072   6.755
 8054SOL     OW25060   4.900   3.837   4.974
 8054SOL    HW125061   4.870   3.744   4.996
 8054SOL    HW225062   4.856   3.902   5.036
 8055SOL     OW25063   6.967   1.269   6.136
 8055SOL    HW125064   7.021   1.228   6.062
 8055SOL    HW225065   6.981   1.218   6.221
 8056SOL     OW25066   1.600   2.463   2.555
 8056SOL    HW125067   1.638   2.394   2.616
 8056SOL    HW225068   1.550   2.419   2.481
 8057SOL     OW25069   2.917   1.720   2.096
 8057SOL    HW125070   3.005   1.764   2.078
 8057SOL    HW225071   2.880   1.752   2.183
 8058SOL     OW25072   3.021   5.875   1.380
 8058SOL    HW125073   3.040   5.972   1.397
 8058SOL    HW225074   3.039   5.823   1.464
 8059SOL     OW25075   4.671   4.347   5.084
 8059SOL    HW125076   4.698   4.277   5.018
 8059SOL    HW225077   4.624   4.303   5.161
 8060SOL     OW25078   0.349   1.536   4.575
 8060SOL    HW125079   0.298   1.465   4.525
 8060SOL    HW225080   0.362   1.507   4.670
 8061SOL     OW25081   6.936   0.352   0.623
 8061SOL    HW125082   6.992   0.312   0.696
 8061SOL    HW225083   6.991   0.360   0.540
 8062SOL     OW25084   4.816   4.259   6.838
 8062SOL    HW125085   4.737   4.312   6.808
 8062SOL    HW225086   4.879   4.318   6.889
 8063SOL     OW25087   2.524   4.569   1.939
 8063SOL    HW125088   2.624   4.560   1.935
 8063SOL    HW225089   2.486   4.495   1.994
 8064SOL     OW25090   6.864   1.905   6.997
 8064SOL    HW125091   6.861   1.884   0.073
 8064SOL    HW225092   6.790   1.858   6.950
 8065SOL     OW25093   5.821   0.063   6.530
 8065SOL    HW125094   5.870   7.008   6.489
 8065SOL    HW225095   5.758   0.029   6.600
 8066SOL     OW25096   6.724   1.102   5.619
 8066SOL    HW125097   6.714   1.103   5.519
 8066SOL    HW225098   6.777   1.022   5.646
 8067SOL     OW25099   5.702   0.872   4.275
 8067SOL    HW125100   5.736   0.802   4.212
 8067SOL    HW225101   5.608   0.851   4.300
 8068SOL     OW25102   6.744   4.106   1.514
 8068SOL    HW125103   6.685   4.181   1.483
 8068SOL    HW225104   6.784   4.060   1.435
 8069SOL     OW25105   0.757   2.459   1.547
 8069SOL    HW125106   0.839   2.459   1.490
 8069SOL    HW225107   0.749   2.547   1.593
 8070SOL     OW25108   5.350   4.222   0.863
 8070SOL    HW125109   5.367   4.128   0.891
 8070SOL    HW225110   5.377   4.284   0.936
 8071SOL     OW25111   1.934   7.010   6.514
 8071SOL    HW125112   1.993   6.978   6.588
 8071SOL    HW225113   1.892   0.075   6.540
 8072SOL     OW25114   2.470   1.658   5.645
 8072SOL    HW125115   2.518   1.635   5.560
 8072SOL    HW225116   2.468   1.757   5.656
 8073SOL     OW25117   5.329   5.218   0.192
 8073SOL    HW125118   5.380   5.134   0.174
 8073SOL    HW225119   5.326   5.274   0.109
 8074SOL     OW25120   6.383   0.811   0.996
 8074SOL    HW125121   6.436   0.842   0.917
 8074SOL    HW225122   6.296   0.859   0.998
 8075SOL     OW25123   0.319   6.683   1.171
 8075SOL    HW125124   0.358   6.711   1.258
 8075SOL    HW225125   0.242   6.742   1.148
 8076SOL     OW25126   6.678   5.782   0.346
 8076SOL    HW125127   6.665   5.817   0.439
 8076SOL    HW225128   6.608   5.714   0.326
 8077SOL     OW25129   5.943   4.308   1.439
 8077SOL    HW125130   5.935   4.374   1.514
 8077SOL    HW225131   6.029   4.258   1.448
 8078SOL     OW25132   4.886   1.572   1.597
 8078SOL    HW125133   4.980   1.547   1.618
 8078SOL    HW225134   4.854   1.519   1.518
 8079SOL     OW25135   6.958   1.237   5.822
 8079SOL    HW125136   6.864   1.219   5.850
 8079SOL    HW225137   6.989   1.164   5.761
 8080SOL     OW25138   6.999   4.005   3.618
 8080SOL    HW125139   6.974   4.092   3.576
 8080SOL    HW225140   6.954   3.930   3.568
 8081SOL     OW25141   5.652   1.220   5.041
 8081SOL    HW125142   5.607   1.244   4.955
 8081SOL    HW225143   5.648   1.121   5.053
 8082SOL     OW25144   5.010   2.650   5.136
 8082SOL    HW125145   4.982   2.718   5.203
 8082SOL    HW225146   4.931   2.595   5.108
 8083SOL     OW25147   0.214   3.254   3.661
 8083SOL    HW125148   0.258   3.164   3.656
 8083SOL    HW225149   0.242   3.299   3.746
 8084SOL     OW25150   5.694   1.436   6.958
 8084SOL    HW125151   5.788   1.468   6.954
 8084SOL    HW225152   5.657   1.433   6.865
 8085SOL     OW25153   1.593   6.300   4.404
 8085SOL    HW125154   1.501   6.290   4.442
 8085SOL    HW225155   1.591   6.279   4.306
 8086SOL     OW25156   0.098   1.841   1.751
 8086SOL    HW125157   0.059   1.934   1.744
 8086SOL    HW225158   0.197   1.847   1.759
 8087SOL     OW25159   6.295   1.058   6.606
 8087SOL    HW125160   6.346   0.980   6.571
 8087SOL    HW225161   6.234   1.029   6.680
 8088SOL     OW25162   6.385   6.972   5.627
 8088SOL    HW125163   6.480   6.944   5.642
 8088SOL    HW225164   6.373   0.044   5.658
 8089SOL     OW25165   6.461   1.343   0.258
 8089SOL    HW125166   6.490   1.373   0.349
 8089SOL    HW225167   6.542   1.324   0.202
 8090SOL     OW25168   3.586   2.115   4.767
 8090SOL    HW125169   3.526   2.047   4.724
 8090SOL    HW225170   3.553   2.207   4.746
 8091SOL     OW25171   0.921   3.370   5.425
 8091SOL    HW125172   0.874   3.309   5.489
 8091SOL    HW225173   1.020   3.353   5.429
 8092SOL     OW25174   4.772   6.013   5.582
 8092SOL    HW125175   4.858   6.019   5.531
 8092SOL    HW225176   4.720   6.098   5.570
 8093SOL     OW25177   3.775   0.512   3.571
 8093SOL    HW125178   3.682   0.476   3.561
 8093SOL    HW225179   3.838   0.438   3.590
 8094SOL     OW25180   2.472   5.192   3.173
 8094SOL    HW125181   2.511   5.256   3.239
 8094SOL    HW225182   2.497   5.099   3.198
 8095SOL     OW25183   0.333   4.973   5.015
 8095SOL    HW125184   0.264   4.903   4.994
 8095SOL    HW225185   0.379   4.950   5.101
 8096SOL     OW25186   1.359   5.118   0.751
 8096SOL    HW125187   1.402   5.038   0.710
 8096SOL    HW225188   1.328   5.095   0.844
 8097SOL     OW25189   5.454   0.435   6.798
 8097SOL    HW125190   5.443   0.431   6.897
 8097SOL    HW225191   5.363   0.440   6.755
 8098SOL     OW25192   3.027   6.310   5.024
 8098SOL    HW125193   3.111   6.333   5.073
 8098SOL    HW225194   2.980   6.236   5.072
 8099SOL     OW25195   2.583   4.969   3.301
 8099SOL    HW125196   2.598   4.907   3.223
 8099SOL    HW225197   2.645   4.944   3.375
 8100SOL     OW25198   0.060   6.601   0.589
 8100SOL    HW125199   0.115   6.670   0.636
 8100SOL    HW225200   0.080   6.603   0.491
 8101SOL     OW25201   3.367   4.885   6.334
 8101SOL    HW125202   3.462   4.856   6.329
 8101SOL    HW225203   3.327   4.854   6.421
 8102SOL     OW25204   1.083   4.428   3.611
 8102SOL    HW125205   1.085   4.359   3.539
 8102SOL    HW225206   1.177   4.449   3.639
 8103SOL     OW25207   5.361   0.603   1.442
 8103SOL    HW125208   5.366   0.669   1.517
 8103SOL    HW225209   5.268   0.600   1.406
 8104SOL     OW25210   1.699   6.113   0.308
 8104SOL    HW125211   1.711   6.032   0.366
 8104SOL    HW225212   1.705   6.195   0.363
 8105SOL     OW25213   6.812   6.919   2.943
 8105SOL    HW125214   6.899   6.897   2.986
 8105SOL    HW225215   6.798   6.859   2.864
 8106SOL     OW25216   4.116   0.055   6.760
 8106SOL    HW125217   4.190   0.088   6.818
 8106SOL    HW225218   4.035   0.037   6.817
 8107SOL     OW25219   0.495   6.212   0.125
 8107SOL    HW125220   0.518   6.123   0.165
 8107SOL    HW225221   0.417   6.201   0.064
 8108SOL     OW25222   1.949   1.191   0.980
 8108SOL    HW125223   1.921   1.215   1.073
 8108SOL    HW225224   1.942   1.272   0.922
 8109SOL     OW25225   0.477   3.851   2.488
 8109SOL    HW125226   0.444   3.758   2.472
 8109SOL    HW225227   0.489   3.897   2.400
 8110SOL     OW25228   5.367   3.836   6.637
 8110SOL    HW125229   5.377   3.860   6.734
 8110SOL    HW225230   5.292   3.889   6.597
 8111SOL     OW25231   5.343   2.064   2.604
 8111SOL    HW125232   5.308   2.082   2.696
 8111SOL    HW225233   5.274   2.088   2.536
 8112SOL     OW25234   1.913   4.491   6.491
 8112SOL    HW125235   1.868   4.485   6.580
 8112SOL    HW225236   1.856   4.447   6.422
 8113SOL     OW25237   6.146   4.896   0.033
 8113SOL    HW125238   6.112   4.985   0.003
 8113SOL    HW225239   6.225   4.909   0.092
 8114SOL     OW25240   1.820   2.399   2.822
 8114SOL    HW125241   1.871   2.472   2.776
 8114SOL    HW225242   1.804   2.324   2.758
 8115SOL     OW25243   2.255   2.156   5.975
 8115SOL    HW125244   2.345   2.169   5.934
 8115SOL    HW225245   2.262   2.092   6.051
 8116SOL     OW25246   4.024   2.887   1.726
 8116SOL    HW125247   4.067   2.956   1.785
 8116SOL    HW225248   3.928   2.878   1.750
 8117SOL     OW25249   1.011   1.206   2.472
 8117SOL    HW125250   0.951   1.242   2.543
 8117SOL    HW225251   0.959   1.145   2.412
 8118SOL     OW25252   5.805   1.881   6.754
 8118SOL    HW125253   5.770   1.974   6.766
 8118SOL    HW225254   5.779   1.846   6.664
 8119SOL     OW25255   5.541   5.149   6.705
 8119SOL    HW125256   5.515   5.061   6.664
 8119SOL    HW225257   5.548   5.218   6.633
 8120SOL     OW25258   1.901   6.680   2.623
 8120SOL    HW125259   1.890   6.754   2.689
 8120SOL    HW225260   1.997   6.669   2.600
 8121SOL     OW25261   1.770   2.112   3.341
 8121SOL    HW125262   1.839   2.184   3.329
 8121SOL    HW225263   1.678   2.153   3.336
 8122SOL     OW25264   0.600   5.435   1.454
 8122SOL    HW125265   0.697   5.454   1.434
 8122SOL    HW225266   0.575   5.347   1.414
 8123SOL     OW25267   6.901   0.278   6.179
 8123SOL    HW125268   6.846   0.218   6.120
 8123SOL    HW225269   6.850   0.361   6.198
 8124SOL     OW25270   6.609   5.532   5.879
 8124SOL    HW125271   6.615   5.499   5.973
 8124SOL    HW225272   6.690   5.505   5.828
 8125SOL     OW25273   1.175   6.016   1.456
 8125SOL    HW125274   1.186   5.969   1.543
 8125SOL    HW225275   1.264   6.027   1.412
 8126SOL     OW25276   3.425   5.367   5.167
 8126SOL    HW125277   3.409   5.332   5.259
 8126SOL    HW225278   3.338   5.386   5.123
 8127SOL     OW25279   4.602   1.752   5.342
 8127SOL    HW125280   4.517   1.773   5.294
 8127SOL    HW225281   4.597   1.660   5.379
 8128SOL     OW25282   3.666   2.888   0.510
 8128SOL    HW125283   3.646   2.851   0.419
 8128SOL    HW225284   3.666   2.988   0.506
 8129SOL     OW25285   6.330   3.405   3.690
 8129SOL    HW125286   6.342   3.321   3.636
 8129SOL    HW225287   6.238   3.407   3.728
 8130SOL     OW25288   0.186   6.467   0.053
 8130SOL    HW125289   0.250   6.482   0.128
 8130SOL    HW225290   0.098   6.437   0.090
 8131SOL     OW25291   2.745   1.884   0.166
 8131SOL    HW125292   2.713   1.963   0.219
 8131SOL    HW225293   2.676   1.861   0.097
 8132SOL     OW25294   6.421   1.911   4.500
 8132SOL    HW125295   6.366   1.899   4.418
 8132SOL    HW225296   6.362   1.914   4.580
 8133SOL     OW25297   4.168   5.825   0.941
 8133SOL    HW125298   4.224   5.908   0.945
 8133SOL    HW225299   4.099   5.834   0.870
 8134SOL     OW25300   6.297   1.728   7.004
 8134SOL    HW125301   6.201   1.743   6.977
 8134SOL    HW225302   6.300   1.662   0.058
 8135SOL     OW25303   2.755   6.041   1.698
 8135SOL    HW125304   2.716   6.047   1.790
 8135SOL    HW225305   2.736   6.126   1.648
 8136SOL     OW25306   4.200   4.918   2.196
 8136SOL    HW125307   4.221   4.844   2.259
 8136SOL    HW225308   4.281   4.941   2.142
 8137SOL     OW25309   3.540   1.372   6.314
 8137SOL    HW125310   3.552   1.280   6.278
 8137SOL    HW225311   3.510   1.368   6.409
 8138SOL     OW25312   6.433   1.192   2.487
 8138SOL    HW125313   6.352   1.249   2.471
 8138SOL    HW225314   6.458   1.147   2.401
 8139SOL     OW25315   1.316   1.603   5.187
 8139SOL    HW125316   1.311   1.664   5.108
 8139SOL    HW225317   1.268   1.646   5.264
 8140SOL     OW25318   4.814   2.560   3.374
 8140SOL    HW125319   4.852   2.492   3.436
 8140SOL    HW225320   4.822   2.651   3.414
 8141SOL     OW25321   6.404   4.181   4.192
 8141SOL    HW125322   6.380   4.238   4.271
 8141SOL    HW225323   6.484   4.220   4.146
 8142SOL     OW25324   0.258   6.251   0.587
 8142SOL    HW125325   0.181   6.300   0.546
 8142SOL    HW225326   0.329   6.238   0.518
 8143SOL     OW25327   6.923   2.966   6.045
 8143SOL    HW125328   6.961   3.006   5.962
 8143SOL    HW225329   6.917   3.036   6.116
 8144SOL     OW25330   4.196   5.974   0.383
 8144SOL    HW125331   4.251   5.942   0.460
 8144SOL    HW225332   4.138   6.050   0.414
 8145SOL     OW25333   4.451   0.416   4.441
 8145SOL    HW125334   4.475   0.401   4.345
 8145SOL    HW225335   4.365   0.368   4.461
 8146SOL     OW25336   3.145   1.450   2.799
 8146SOL    HW125337   3.244   1.465   2.801
 8146SOL    HW225338   3.106   1.477   2.888
 8147SOL     OW25339   4.713   1.838   3.780
 8147SOL    HW125340   4.657   1.805   3.704
 8147SOL    HW225341   4.681   1.928   3.809
 8148SOL     OW25342   0.718   3.227   3.343
 8148SOL    HW125343   0.758   3.243   3.253
 8148SOL    HW225344   0.762   3.288   3.410
 8149SOL     OW25345   4.293   5.473   4.516
 8149SOL    HW125346   4.276   5.432   4.427
 8149SOL    HW225347   4.253   5.416   4.588
 8150SOL     OW25348   1.695   5.851   0.425
 8150SOL    HW125349   1.603   5.847   0.464
 8150SOL    HW225350   1.713   5.767   0.373
 8151SOL     OW25351   0.972   1.621   4.841
 8151SOL    HW125352   0.982   1.532   4.886
 8151SOL    HW225353   1.060   1.649   4.801
 8152SOL     OW25354   0.443   0.869   3.159
 8152SOL    HW125355   0.366   0.924   3.190
 8152SOL    HW225356   0.430   0.774   3.188
 8153SOL     OW25357   1.813   6.486   6.672
 8153SOL    HW125358   1.775   6.542   6.598
 8153SOL    HW225359   1.888   6.535   6.716
 8154SOL     OW25360   2.066   6.879   3.858
 8154SOL    HW125361   2.011   6.906   3.937
 8154SOL    HW225362   2.091   6.961   3.806
 8155SOL     OW25363   4.183   3.482   5.234
 8155SOL    HW125364   4.096   3.517   5.270
 8155SOL    HW225365   4.198   3.390   5.269
 8156SOL     OW25366   1.146   6.350   4.782
 8156SOL    HW125367   1.154   6.316   4.876
 8156SOL    HW225368   1.188   6.441   4.776
 8157SOL     OW25369   5.730   2.751   6.478
 8157SOL    HW125370   5.663   2.814   6.440
 8157SOL    HW225371   5.699   2.657   6.463
 8158SOL     OW25372   1.027   5.580   2.221
 8158SOL    HW125373   0.930   5.562   2.202
 8158SOL    HW225374   1.049   5.547   2.313
 8159SOL     OW25375   0.448   6.758   0.445
 8159SOL    HW125376   0.455   6.832   0.378
 8159SOL    HW225377   0.374   6.779   0.509
 8160SOL     OW25378   6.293   2.176   0.696
 8160SOL    HW125379   6.370   2.180   0.633
 8160SOL    HW225380   6.217   2.126   0.654
 8161SOL     OW25381   3.623   3.924   1.672
 8161SOL    HW125382   3.662   4.014   1.691
 8161SOL    HW225383   3.528   3.921   1.703
 8162SOL     OW25384   5.560   0.251   1.221
 8162SOL    HW125385   5.501   0.184   1.267
 8162SOL    HW225386   5.631   0.203   1.170
 8163SOL     OW25387   2.717   3.066   5.327
 8163SOL    HW125388   2.695   3.094   5.420
 8163SOL    HW225389   2.634   3.069   5.271
 8164SOL     OW25390   5.418   4.330   1.351
 8164SOL    HW125391   5.462   4.241   1.339
 8164SOL    HW225392   5.427   4.359   1.446
 8165SOL     OW25393   1.623   3.761   1.694
 8165SOL    HW125394   1.558   3.823   1.651
 8165SOL    HW225395   1.716   3.793   1.677
 8166SOL     OW25396   2.744   0.172   2.609
 8166SOL    HW125397   2.805   0.227   2.666
 8166SOL    HW225398   2.741   0.078   2.643
 8167SOL     OW25399   5.197   3.195   4.093
 8167SOL    HW125400   5.286   3.212   4.137
 8167SOL    HW225401   5.186   3.097   4.076
 8168SOL     OW25402   2.941   1.208   2.554
 8168SOL    HW125403   2.914   1.231   2.461
 8168SOL    HW225404   3.027   1.157   2.552
 8169SOL     OW25405   5.630   4.037   5.586
 8169SOL    HW125406   5.649   4.109   5.518
 8169SOL    HW225407   5.643   4.074   5.678
 8170SOL     OW25408   0.881   4.717   4.356
 8170SOL    HW125409   0.942   4.751   4.427
 8170SOL    HW225410   0.909   4.624   4.331
 8171SOL     OW25411   2.203   0.502   6.824
 8171SOL    HW125412   2.232   0.504   6.919
 8171SOL    HW225413   2.267   0.447   6.770
 8172SOL     OW25414   0.064   5.148   2.384
 8172SOL    HW125415   7.010   5.154   2.449
 8172SOL    HW225416   0.075   5.054   2.355
 8173SOL     OW25417   0.206   3.690   6.718
 8173SOL    HW125418   0.116   3.647   6.705
 8173SOL    HW225419   0.247   3.710   6.629
 8174SOL     OW25420   5.242   6.664   2.251
 8174SOL    HW125421   5.286   6.742   2.295
 8174SOL    HW225422   5.153   6.648   2.294
 8175SOL     OW25423   1.081   2.171   3.316
 8175SOL    HW125424   1.101   2.171   3.414
 8175SOL    HW225425   0.982   2.161   3.303
 8176SOL     OW25426   4.787   4.236   3.153
 8176SOL    HW125427   4.698   4.279   3.140
 8176SOL    HW225428   4.858   4.306   3.158
 8177SOL     OW25429   2.115   0.587   5.944
 8177SOL    HW125430   2.197   0.615   5.993
 8177SOL    HW225431   2.064   0.668   5.916
 8178SOL     OW25432   1.777   6.218   7.005
 8178SOL    HW125433   1.755   6.123   0.002
 8178SOL    HW225434   1.783   6.233   6.906
 8179SOL     OW25435   4.092   0.111   4.823
 8179SOL    HW125436   4.016   0.066   4.776
 8179SOL    HW225437   4.125   0.187   4.767
 8180SOL     OW25438   4.705   4.331   4.445
 8180SOL    HW125439   4.698   4.294   4.353
 8180SOL    HW225440   4.798   4.366   4.460
 8181SOL     OW25441   2.250   1.679   3.107
 8181SOL    HW125442   2.167   1.624   3.106
 8181SOL    HW225443   2.227   1.776   3.092
 8182SOL     OW25444   5.750   3.073   5.088
 8182SOL    HW125445   5.829   3.129   5.110
 8182SOL    HW225446   5.666   3.116   5.122
 8183SOL     OW25447   2.187   3.939   3.984
 8183SOL    HW125448   2.110   3.879   4.004
 8183SOL    HW225449   2.243   3.951   4.066
 8184SOL     OW25450   6.315   6.237   5.483
 8184SOL    HW125451   6.246   6.164   5.479
 8184SOL    HW225452   6.387   6.211   5.547
 8185SOL     OW25453   0.196   2.102   3.294
 8185SOL    HW125454   0.150   2.179   3.338
 8185SOL    HW225455   0.273   2.135   3.240
 8186SOL     OW25456   4.160   3.218   6.588
 8186SOL    HW125457   4.113   3.175   6.510
 8186SOL    HW225458   4.096   3.279   6.635
 8187SOL     OW25459   2.523   1.816   6.583
 8187SOL    HW125460   2.507   1.865   6.668
 8187SOL    HW225461   2.440   1.768   6.556
 8188SOL     OW25462   4.915   3.327   3.046
 8188SOL    HW125463   5.010   3.323   3.016
 8188SOL    HW225464   4.856   3.347   2.967
 8189SOL     OW25465   0.455   5.715   3.069
 8189SOL    HW125466   0.447   5.781   3.144
 8189SOL    HW225467   0.552   5.699   3.050
 8190SOL     OW25468   5.266   3.592   2.856
 8190SOL    HW125469   5.280   3.505   2.904
 8190SOL    HW225470   5.236   3.661   2.921
 8191SOL     OW25471   5.898   4.394   1.193
 8191SOL    HW125472   5.923   4.349   1.279
 8191SOL    HW225473   5.811   4.357   1.160
 8192SOL     OW25474   2.253   1.534   0.688
 8192SOL    HW125475   2.212   1.449   0.719
 8192SOL    HW225476   2.223   1.554   0.594
 8193SOL     OW25477   3.759   6.547   5.808
 8193SOL    HW125478   3.844   6.530   5.858
 8193SOL    HW225479   3.682   6.513   5.862
 8194SOL     OW25480   0.097   1.007   2.333
 8194SOL    HW125481   0.121   0.945   2.408
 8194SOL    HW225482   0.004   0.988   2.303
 8195SOL     OW25483   6.200   1.046   0.675
 8195SOL    HW125484   6.106   1.028   0.704
 8195SOL    HW225485   6.204   1.051   0.575
 8196SOL     OW25486   2.247   0.554   0.806
 8196SOL    HW125487   2.184   0.632   0.803
 8196SOL    HW225488   2.334   0.583   0.846
 8197SOL     OW25489   0.792   6.905   0.663
 8197SOL    HW125490   0.787   6.969   0.586
 8197SOL    HW225491   0.715   6.921   0.725
 8198SOL     OW25492   2.403   0.614   2.588
 8198SOL    HW125493   2.343   0.646   2.662
 8198SOL    HW225494   2.485   0.671   2.584
 8199SOL     OW25495   5.956   4.631   1.118
 8199SOL    HW125496   5.930   4.541   1.152
 8199SOL    HW225497   5.930   4.639   1.021
 8200SOL     OW25498   3.437   4.652   1.282
 8200SOL    HW125499   3.398   4.683   1.196
 8200SOL    HW225500   3.416   4.554   1.295
 8201SOL     OW25501   0.826   1.025   4.384
 8201SOL    HW125502   0.879   1.019   4.468
 8201SOL    HW225503   0.729   1.007   4.405
 8202SOL     OW25504   2.023   3.327   4.319
 8202SOL    HW125505   2.064   3.279   4.241
 8202SOL    HW225506   2.034   3.426   4.306
 8203SOL     OW25507   6.353   4.342   6.606
 8203SOL    HW125508   6.366   4.374   6.700
 8203SOL    HW225509   6.290   4.264   6.605
 8204SOL     OW25510   2.651   6.482   1.864
 8204SOL    HW125511   2.605   6.548   1.923
 8204SOL    HW225512   2.593   6.401   1.852
 8205SOL     OW25513   3.626   6.633   3.109
 8205SOL    HW125514   3.572   6.694   3.167
 8205SOL    HW225515   3.568   6.595   3.037
 8206SOL     OW25516   3.854   1.890   4.559
 8206SOL    HW125517   3.763   1.858   4.585
 8206SOL    HW225518   3.845   1.965   4.494
 8207SOL     OW25519   2.612   6.415   0.086
 8207SOL    HW125520   2.539   6.479   0.105
 8207SOL    HW225521   2.578   6.321   0.097
 8208SOL     OW25522   1.191   5.789   1.045
 8208SOL    HW125523   1.105   5.804   1.094
 8208SOL    HW225524   1.254   5.864   1.064
 8209SOL     OW25525   0.625   6.034   4.148
 8209SOL    HW125526   0.534   6.060   4.115
 8209SOL    HW225527   0.620   5.945   4.193
 8210SOL     OW25528   2.398   0.101   0.967
 8210SOL    HW125529   2.408   0.197   0.991
 8210SOL    HW225530   2.489   0.062   0.948
 8211SOL     OW25531   3.165   4.042   4.487
 8211SOL    HW125532   3.151   4.069   4.392
 8211SOL    HW225533   3.093   3.977   4.514
 8212SOL     OW25534   3.648   5.180   6.587
 8212SOL    HW125535   3.669   5.277   6.590
 8212SOL    HW225536   3.551   5.167   6.566
 8213SOL     OW25537   4.768   3.906   1.820
 8213SOL    HW125538   4.713   3.984   1.792
 8213SOL    HW225539   4.818   3.870   1.742
 8214SOL     OW25540   4.106   4.897   3.372
 8214SOL    HW125541   4.133   4.966   3.440
 8214SOL    HW225542   4.171   4.821   3.373
 8215SOL     OW25543   2.879   6.104   5.141
 8215SOL    HW125544   2.842   6.161   5.214
 8215SOL    HW225545   2.840   6.012   5.147
 8216SOL     OW25546   6.587   4.827   0.070
 8216SOL    HW125547   6.631   4.912   0.099
 8216SOL    HW225548   6.629   4.795   7.007
 8217SOL     OW25549   3.873   5.933   3.593
 8217SOL    HW125550   3.900   6.024   3.625
 8217SOL    HW225551   3.865   5.872   3.672
 8218SOL     OW25552   1.990   5.773   3.726
 8218SOL    HW125553   1.938   5.753   3.642
 8218SOL    HW225554   1.940   5.840   3.781
 8219SOL     OW25555   3.837   3.435   5.006
 8219SOL    HW125556   3.880   3.427   4.917
 8219SOL    HW225557   3.801   3.527   5.019
 8220SOL     OW25558   4.523   3.924   5.821
 8220SOL    HW125559   4.458   3.999   5.822
 8220SOL    HW225560   4.483   3.845   5.868
 8221SOL     OW25561   6.523   3.521   4.170
 8221SOL    HW125562   6.443   3.573   4.141
 8221SOL    HW225563   6.561   3.561   4.254
 8222SOL     OW25564   5.466   1.373   6.099
 8222SOL    HW125565   5.490   1.277   6.117
 8222SOL    HW225566   5.370   1.379   6.071
 8223SOL     OW25567   1.517   6.686   5.690
 8223SOL    HW125568   1.617   6.677   5.700
 8223SOL    HW225569   1.477   6.595   5.677
 8224SOL     OW25570   4.846   1.147   4.669
 8224SOL    HW125571   4.796   1.229   4.697
 8224SOL    HW225572   4.914   1.171   4.600
 8225SOL     OW25573   6.186   1.395   6.766
 8225SOL    HW125574   6.222   1.362   6.853
 8225SOL    HW225575   6.086   1.398   6.770
 8226SOL     OW25576   3.925   0.663   6.461
 8226SOL    HW125577   3.965   0.706   6.541
 8226SOL    HW225578   3.827   0.685   6.456
 8227SOL     OW25579   5.865   3.425   2.564
 8227SOL    HW125580   5.940   3.415   2.499
 8227SOL    HW225581   5.795   3.486   2.526
 8228SOL     OW25582   3.102   1.734   5.224
 8228SOL    HW125583   3.102   1.733   5.324
 8228SOL    HW225584   3.072   1.645   5.190
 8229SOL     OW25585   4.613   3.621   0.656
 8229SOL    HW125586   4.673   3.553   0.614
 8229SOL    HW225587   4.578   3.586   0.742
 8230SOL     OW25588   6.295   1.317   6.519
 8230SOL    HW125589   6.293   1.341   6.616
 8230SOL    HW225590   6.303   1.218   6.509
 8231SOL     OW25591   3.028   0.924   1.424
 8231SOL    HW125592   2.938   0.928   1.467
 8231SOL    HW225593   3.070   1.015   1.427
 8232SOL     OW25594   4.221   6.105   4.469
 8232SOL    HW125595   4.279   6.124   4.390
 8232SOL    HW225596   4.227   6.008   4.493
 8233SOL     OW25597   2.922   0.479   0.029
 8233SOL    HW125598   2.969   0.421   6.985
 8233SOL    HW225599   2.824   0.476   0.014
 8234SOL     OW25600   0.022   2.760   5.737
 8234SOL    HW125601   7.003   2.695   5.674
 8234SOL    HW225602   0.080   2.711   5.802
 8235SOL     OW25603   1.495   6.293   6.910
 8235SOL    HW125604   1.520   6.371   6.968
 8235SOL    HW225605   1.486   6.211   6.967
 8236SOL     OW25606   0.609   0.921   0.829
 8236SOL    HW125607   0.626   0.832   0.785
 8236SOL    HW225608   0.665   0.928   0.911
 8237SOL     OW25609   5.120   4.102   6.019
 8237SOL    HW125610   5.149   4.191   5.984
 8237SOL    HW225611   5.020   4.097   6.021
 8238SOL     OW25612   0.279   5.404   0.299
 8238SOL    HW125613   0.329   5.463   0.362
 8238SOL    HW225614   0.268   5.451   0.211
 8239SOL     OW25615   5.000   2.782   3.521
 8239SOL    HW125616   5.048   2.784   3.434
 8239SOL    HW225617   5.059   2.820   3.593
 8240SOL     OW25618   3.165   3.477   5.183
 8240SOL    HW125619   3.164   3.479   5.283
 8240SOL    HW225620   3.088   3.423   5.149
 8241SOL     OW25621   0.836   2.820   5.185
 8241SOL    HW125622   0.823   2.870   5.271
 8241SOL    HW225623   0.791   2.870   5.111
 8242SOL     OW25624   0.838   4.046   3.434
 8242SOL    HW125625   0.871   3.992   3.511
 8242SOL    HW225626   0.910   4.054   3.365
 8243SOL     OW25627   2.308   5.828   4.114
 8243SOL    HW125628   2.381   5.809   4.048
 8243SOL    HW225629   2.318   5.768   4.193
 8244SOL     OW25630   5.854   0.093   4.701
 8244SOL    HW125631   5.850   7.020   4.670
 8244SOL    HW225632   5.948   0.116   4.726
 8245SOL     OW25633   4.971   4.202   1.762
 8245SOL    HW125634   4.944   4.292   1.728
 8245SOL    HW225635   4.945   4.132   1.695
 8246SOL     OW25636   1.874   3.945   0.312
 8246SOL    HW125637   1.961   3.964   0.359
 8246SOL    HW225638   1.799   3.990   0.361
 8247SOL     OW25639   1.885   4.803   3.613
 8247SOL    HW125640   1.922   4.831   3.701
 8247SOL    HW225641   1.809   4.740   3.627
 8248SOL     OW25642   5.981   1.071   2.834
 8248SOL    HW125643   5.983   1.130   2.915
 8248SOL    HW225644   6.073   1.063   2.796
 8249SOL     OW25645   3.472   6.767   5.578
 8249SOL    HW125646   3.544   6.825   5.541
 8249SOL    HW225647   3.398   6.758   5.512
 8250SOL     OW25648   2.185   1.133   0.322
 8250SOL    HW125649   2.088   1.135   0.298
 8250SOL    HW225650   2.236   1.078   0.256
 8251SOL     OW25651   1.776   1.671   6.492
 8251SOL    HW125652   1.721   1.639   6.416
 8251SOL    HW225653   1.873   1.667   6.467
 8252SOL     OW25654   0.738   0.809   6.187
 8252SOL    HW125655   0.815   0.831   6.248
 8252SOL    HW225656   0.681   0.738   6.230
 8253SOL     OW25657   6.901   3.562   4.366
 8253SOL    HW125658   6.959   3.634   4.328
 8253SOL    HW225659   6.841   3.600   4.437
 8254SOL     OW25660   4.578   4.180   0.440
 8254SOL    HW125661   4.557   4.084   0.462
 8254SOL    HW225662   4.510   4.239   0.484
 8255SOL     OW25663   1.444   6.201   5.691
 8255SOL    HW125664   1.477   6.139   5.620
 8255SOL    HW225665   1.344   6.202   5.691
 8256SOL     OW25666   1.772   5.897   3.474
 8256SOL    HW125667   1.709   5.827   3.442
 8256SOL    HW225668   1.851   5.902   3.413
 8257SOL     OW25669   5.101   4.615   3.512
 8257SOL    HW125670   5.007   4.593   3.485
 8257SOL    HW225671   5.107   4.619   3.611
 8258SOL     OW25672   0.433   2.784   4.318
 8258SOL    HW125673   0.358   2.772   4.384
 8258SOL    HW225674   0.520   2.776   4.366
 8259SOL     OW25675   5.179   3.968   4.039
 8259SOL    HW125676   5.266   3.920   4.038
 8259SOL    HW225677   5.179   4.035   4.113
 8260SOL     OW25678   4.815   2.138   6.014
 8260SOL    HW125679   4.817   2.132   6.114
 8260SOL    HW225680   4.721   2.152   5.983
 8261SOL     OW25681   4.834   2.445   3.114
 8261SOL    HW125682   4.930   2.463   3.093
 8261SOL    HW225683   4.809   2.489   3.200
 8262SOL     OW25684   5.033   4.049   2.262
 8262SOL    HW125685   4.990   4.011   2.180
 8262SOL    HW225686   5.105   4.113   2.236
 8263SOL     OW25687   0.024   1.484   0.068
 8263SOL    HW125688   0.055   1.500   6.997
 8263SOL    HW225689   6.948   1.504   0.074
 8264SOL     OW25690   3.425   1.897   1.710
 8264SOL    HW125691   3.346   1.920   1.653
 8264SOL    HW225692   3.421   1.949   1.795
 8265SOL     OW25693   6.457   5.231   6.938
 8265SOL    HW125694   6.417   5.143   6.964
 8265SOL    HW225695   6.411   5.265   6.856
 8266SOL     OW25696   4.451   2.456   2.738
 8266SOL    HW125697   4.442   2.362   2.769
 8266SOL    HW225698   4.461   2.458   2.638
 8267SOL     OW25699   1.663   3.568   2.476
 8267SOL    HW125700   1.726   3.532   2.407
 8267SOL    HW225701   1.633   3.660   2.449
 8268SOL     OW25702   2.287   5.151   1.235
 8268SOL    HW125703   2.304   5.176   1.330
 8268SOL    HW225704   2.334   5.216   1.175
 8269SOL     OW25705   6.053   2.425   3.119
 8269SOL    HW125706   5.979   2.426   3.187
 8269SOL    HW225707   6.107   2.341   3.131
 8270SOL     OW25708   4.517   5.158   0.413
 8270SOL    HW125709   4.573   5.091   0.364
 8270SOL    HW225710   4.572   5.201   0.485
 8271SOL     OW25711   2.583   0.460   6.107
 8271SOL    HW125712   2.610   0.451   6.203
 8271SOL    HW225713   2.652   0.418   6.048
 8272SOL     OW25714   6.856   1.184   2.211
 8272SOL    HW125715   6.936   1.202   2.154
 8272SOL    HW225716   6.848   1.086   2.228
 8273SOL     OW25717   5.932   0.574   5.865
 8273SOL    HW125718   5.832   0.576   5.875
 8273SOL    HW225719   5.956   0.521   5.783
 8274SOL     OW25720   5.136   0.337   4.128
 8274SOL    HW125721   5.057   0.312   4.184
 8274SOL    HW225722   5.220   0.308   4.175
 8275SOL     OW25723   5.042   0.951   4.419
 8275SOL    HW125724   4.995   1.032   4.385
 8275SOL    HW225725   5.104   0.915   4.349
 8276SOL     OW25726   4.468   2.412   6.675
 8276SOL    HW125727   4.368   2.416   6.679
 8276SOL    HW225728   4.496   2.342   6.609
 8277SOL     OW25729   1.189   0.026   1.686
 8277SOL    HW125730   1.115   7.011   1.742
 8277SOL    HW225731   1.224   0.109   1.729
 8278SOL     OW25732   1.571   1.538   1.503
 8278SOL    HW125733   1.609   1.629   1.485
 8278SOL    HW225734   1.478   1.533   1.467
 8279SOL     OW25735   5.786   4.694   6.284
 8279SOL    HW125736   5.715   4.665   6.348
 8279SOL    HW225737   5.823   4.614   6.237
 8280SOL     OW25738   6.980   5.070   0.744
 8280SOL    HW125739   6.930   4.984   0.753
 8280SOL    HW225740   0.002   5.093   0.830
 8281SOL     OW25741   2.024   4.326   0.295
 8281SOL    HW125742   2.024   4.255   0.225
 8281SOL    HW225743   2.107   4.318   0.351
 8282SOL     OW25744   4.402   3.006   0.555
 8282SOL    HW125745   4.318   2.953   0.552
 8282SOL    HW225746   4.386   3.097   0.517
 8283SOL     OW25747   0.617   1.964   2.718
 8283SOL    HW125748   0.518   1.979   2.716
 8283SOL    HW225749   0.642   1.912   2.799
 8284SOL     OW25750   3.912   2.646   0.834
 8284SOL    HW125751   3.838   2.581   0.821
 8284SOL    HW225752   3.944   2.679   0.745
 8285SOL     OW25753   0.664   4.548   0.315
 8285SOL    HW125754   0.564   4.549   0.319
 8285SOL    HW225755   0.698   4.460   0.348
 8286SOL     OW25756   6.615   1.904   6.502
 8286SOL    HW125757   6.564   1.906   6.416
 8286SOL    HW225758   6.632   1.998   6.532
 8287SOL     OW25759   0.921   1.705   2.420
 8287SOL    HW125760   0.837   1.652   2.427
 8287SOL    HW225761   0.902   1.793   2.377
 8288SOL     OW25762   2.079   6.205   2.458
 8288SOL    HW125763   2.109   6.189   2.552
 8288SOL    HW225764   1.988   6.246   2.459
 8289SOL     OW25765   5.434   6.035   0.213
 8289SOL    HW125766   5.341   6.005   0.235
 8289SOL    HW225767   5.490   6.034   0.296
 8290SOL     OW25768   4.507   2.917   1.684
 8290SOL    HW125769   4.587   2.919   1.623
 8290SOL    HW225770   4.525   2.975   1.763
 8291SOL     OW25771   5.924   5.964   5.133
 8291SOL    HW125772   6.011   5.916   5.128
 8291SOL    HW225773   5.931   6.037   5.202
 8292SOL     OW25774   1.025   4.182   6.170
 8292SOL    HW125775   1.015   4.203   6.073
 8292SOL    HW225776   1.110   4.221   6.204
 8293SOL     OW25777   3.772   5.500   3.568
 8293SOL    HW125778   3.677   5.489   3.597
 8293SOL    HW225779   3.792   5.432   3.497
 8294SOL     OW25780   6.206   3.639   5.759
 8294SOL    HW125781   6.284   3.624   5.698
 8294SOL    HW225782   6.123   3.649   5.705
 8295SOL     OW25783   3.735   4.993   1.868
 8295SOL    HW125784   3.739   5.031   1.775
 8295SOL    HW225785   3.689   4.904   1.865
 8296SOL     OW25786   3.595   0.386   1.978
 8296SOL    HW125787   3.639   0.476   1.988
 8296SOL    HW225788   3.504   0.398   1.939
 8297SOL     OW25789   4.991   4.742   1.690
 8297SOL    HW125790   5.073   4.732   1.746
 8297SOL    HW225791   5.003   4.817   1.626
 8298SOL     OW25792   6.928   5.883   0.760
 8298SOL    HW125793   7.007   5.827   0.787
 8298SOL    HW225794   6.910   5.951   0.830
 8299SOL     OW25795   1.255   1.378   6.837
 8299SOL    HW125796   1.298   1.356   6.924
 8299SOL    HW225797   1.193   1.305   6.810
 8300SOL     OW25798   4.620   5.792   5.535
 8300SOL    HW125799   4.693   5.857   5.512
 8300SOL    HW225800   4.547   5.840   5.584
 8301SOL     OW25801   6.098   4.237   6.708
 8301SOL    HW125802   6.122   4.218   6.803
 8301SOL    HW225803   6.034   4.313   6.704
 8302SOL     OW25804   3.542   6.592   6.496
 8302SOL    HW125805   3.627   6.627   6.534
 8302SOL    HW225806   3.478   6.572   6.570
 8303SOL     OW25807   6.811   4.576   4.253
 8303SOL    HW125808   6.769   4.666   4.263
 8303SOL    HW225809   6.774   4.530   4.172
 8304SOL     OW25810   5.198   2.883   3.738
 8304SOL    HW125811   5.247   2.798   3.755
 8304SOL    HW225812   5.262   2.953   3.706
 8305SOL     OW25813   4.602   6.201   5.720
 8305SOL    HW125814   4.690   6.202   5.766
 8305SOL    HW225815   4.575   6.295   5.697
 8306SOL     OW25816   4.043   0.788   3.391
 8306SOL    HW125817   4.015   0.873   3.435
 8306SOL    HW225818   3.982   0.768   3.314
 8307SOL     OW25819   1.126   4.952   4.005
 8307SOL    HW125820   1.054   4.884   4.003
 8307SOL    HW225821   1.104   5.026   3.941
 8308SOL     OW25822   2.194   3.997   0.377
 8308SOL    HW125823   2.151   4.033   0.460
 8308SOL    HW225824   2.254   4.066   0.338
 8309SOL     OW25825   5.766   5.363   2.544
 8309SOL    HW125826   5.835   5.291   2.534
 8309SOL    HW225827   5.781   5.411   2.631
 8310SOL     OW25828   2.528   5.912   3.485
 8310SOL    HW125829   2.448   5.855   3.502
 8310SOL    HW225830   2.581   5.872   3.410
 8311SOL     OW25831   4.854   6.836   2.518
 8311SOL    HW125832   4.806   6.814   2.603
 8311SOL    HW225833   4.825   6.925   2.485
 8312SOL     OW25834   6.191   6.312   1.036
 8312SOL    HW125835   6.290   6.325   1.032
 8312SOL    HW225836   6.147   6.376   0.973
 8313SOL     OW25837   5.094   1.826   5.476
 8313SOL    HW125838   5.001   1.807   5.445
 8313SOL    HW225839   5.107   1.925   5.486
 8314SOL     OW25840   5.275   5.730   5.565
 8314SOL    HW125841   5.176   5.727   5.578
 8314SOL    HW225842   5.299   5.675   5.484
 8315SOL     OW25843   3.244   1.618   6.780
 8315SOL    HW125844   3.209   1.634   6.873
 8315SOL    HW225845   3.321   1.554   6.784
 8316SOL     OW25846   1.402   0.871   5.090
 8316SOL    HW125847   1.433   0.958   5.128
 8316SOL    HW225848   1.307   0.881   5.058
 8317SOL     OW25849   2.779   1.798   6.150
 8317SOL    HW125850   2.808   1.819   6.243
 8317SOL    HW225851   2.751   1.882   6.104
 8318SOL     OW25852   4.586   5.983   4.953
 8318SOL    HW125853   4.532   5.921   4.897
 8318SOL    HW225854   4.623   6.057   4.896
 8319SOL     OW25855   3.233   6.083   6.234
 8319SOL    HW125856   3.211   5.987   6.252
 8319SOL    HW225857   3.316   6.088   6.179
 8320SOL     OW25858   3.849   4.696   5.460
 8320SOL    HW125859   3.874   4.780   5.413
 8320SOL    HW225860   3.928   4.660   5.510
 8321SOL     OW25861   0.736   6.429   0.294
 8321SOL    HW125862   0.708   6.439   0.198
 8321SOL    HW225863   0.668   6.475   0.353
 8322SOL     OW25864   2.789   0.162   2.004
 8322SOL    HW125865   2.866   0.221   2.025
 8322SOL    HW225866   2.787   0.084   2.067
 8323SOL     OW25867   6.979   6.001   6.740
 8323SOL    HW125868   6.939   5.912   6.720
 8323SOL    HW225869   6.907   6.071   6.741
 8324SOL     OW25870   0.067   5.566   4.654
 8324SOL    HW125871   0.070   5.665   4.639
 8324SOL    HW225872   7.000   5.541   4.692
 8325SOL     OW25873   1.678   5.307   4.584
 8325SOL    HW125874   1.622   5.381   4.545
 8325SOL    HW225875   1.666   5.305   4.683
 8326SOL     OW25876   3.302   0.784   0.277
 8326SOL    HW125877   3.285   0.875   0.314
 8326SOL    HW225878   3.400   0.767   0.273
 8327SOL     OW25879   0.974   6.103   5.304
 8327SOL    HW125880   0.890   6.067   5.262
 8327SOL    HW225881   0.950   6.158   5.384
 8328SOL     OW25882   1.409   6.971   0.922
 8328SOL    HW125883   1.378   0.010   0.995
 8328SOL    HW225884   1.451   0.003   0.850
 8329SOL     OW25885   1.773   1.878   6.063
 8329SOL    HW125886   1.736   1.790   6.033
 8329SOL    HW225887   1.816   1.924   5.986
 8330SOL     OW25888   3.118   6.788   0.441
 8330SOL    HW125889   3.170   6.759   0.360
 8330SOL    HW225890   3.033   6.736   0.447
 8331SOL     OW25891   1.897   2.799   6.487
 8331SOL    HW125892   1.927   2.709   6.457
 8331SOL    HW225893   1.846   2.844   6.414
 8332SOL     OW25894   4.977   4.629   0.992
 8332SOL    HW125895   4.939   4.542   1.020
 8332SOL    HW225896   5.063   4.646   1.040
 8333SOL     OW25897   1.909   4.349   5.709
 8333SOL    HW125898   1.983   4.369   5.773
 8333SOL    HW225899   1.948   4.315   5.623
 8334SOL     OW25900   3.295   2.553   6.223
 8334SOL    HW125901   3.392   2.547   6.250
 8334SOL    HW225902   3.286   2.611   6.143
 8335SOL     OW25903   0.145   3.079   0.535
 8335SOL    HW125904   0.213   3.007   0.552
 8335SOL    HW225905   0.073   3.043   0.477
 8336SOL     OW25906   0.614   4.189   3.568
 8336SOL    HW125907   0.566   4.274   3.549
 8336SOL    HW225908   0.678   4.168   3.494
 8337SOL     OW25909   6.720   6.767   4.407
 8337SOL    HW125910   6.657   6.843   4.387
 8337SOL    HW225911   6.731   6.759   4.506
 8338SOL     OW25912   2.329   4.426   0.788
 8338SOL    HW125913   2.428   4.438   0.791
 8338SOL    HW225914   2.288   4.503   0.738
 8339SOL     OW25915   6.588   0.042   1.614
 8339SOL    HW125916   6.510   7.007   1.641
 8339SOL    HW225917   6.654   0.046   1.688
 8340SOL     OW25918   5.813   2.527   6.069
 8340SOL    HW125919   5.737   2.589   6.091
 8340SOL    HW225920   5.848   2.487   6.154
 8341SOL     OW25921   3.815   6.627   0.751
 8341SOL    HW125922   3.814   6.536   0.709
 8341SOL    HW225923   3.772   6.623   0.840
 8342SOL     OW25924   3.928   0.891   1.309
 8342SOL    HW125925   4.017   0.933   1.288
 8342SOL    HW225926   3.855   0.955   1.287
 8343SOL     OW25927   4.633   6.106   3.166
 8343SOL    HW125928   4.688   6.028   3.136
 8343SOL    HW225929   4.567   6.076   3.234
 8344SOL     OW25930   2.130   4.227   5.004
 8344SOL    HW125931   2.187   4.309   5.004
 8344SOL    HW225932   2.188   4.146   4.994
 8345SOL     OW25933   6.832   0.214   4.135
 8345SOL    HW125934   6.787   0.255   4.214
 8345SOL    HW225935   6.840   0.282   4.062
 8346SOL     OW25936   5.209   4.081   2.641
 8346SOL    HW125937   5.258   4.082   2.554
 8346SOL    HW225938   5.250   4.014   2.702
 8347SOL     OW25939   1.955   1.405   6.820
 8347SOL    HW125940   2.034   1.357   6.781
 8347SOL    HW225941   1.965   1.412   6.919
 8348SOL     OW25942   2.444   6.597   0.921
 8348SOL    HW125943   2.425   6.691   0.946
 8348SOL    HW225944   2.490   6.551   0.997
 8349SOL     OW25945   4.386   6.348   0.941
 8349SOL    HW125946   4.405   6.376   0.846
 8349SOL    HW225947   4.466   6.300   0.977
 8350SOL     OW25948   2.448   0.946   6.390
 8350SOL    HW125949   2.447   0.847   6.378
 8350SOL    HW225950   2.446   0.968   6.488
 8351SOL     OW25951   1.103   4.679   2.977
 8351SOL    HW125952   1.100   4.747   3.050
 8351SOL    HW225953   1.059   4.595   3.008
 8352SOL     OW25954   2.384   6.578   6.625
 8352SOL    HW125955   2.483   6.572   6.611
 8352SOL    HW225956   2.337   6.554   6.540
 8353SOL     OW25957   2.045   5.959   2.989
 8353SOL    HW125958   2.001   5.976   2.901
 8353SOL    HW225959   2.068   5.862   2.996
 8354SOL     OW25960   5.278   3.342   3.668
 8354SOL    HW125961   5.274   3.423   3.611
 8354SOL    HW225962   5.249   3.364   3.761
 8355SOL     OW25963   3.720   3.764   5.565
 8355SOL    HW125964   3.648   3.803   5.508
 8355SOL    HW225965   3.764   3.837   5.617
 8356SOL     OW25966   3.653   2.885   2.430
 8356SOL    HW125967   3.691   2.877   2.337
 8356SOL    HW225968   3.606   2.973   2.439
 8357SOL     OW25969   3.751   6.881   4.904
 8357SOL    HW125970   3.811   6.917   4.977
 8357SOL    HW225971   3.797   6.890   4.816
 8358SOL     OW25972   6.856   1.047   4.487
 8358SOL    HW125973   6.892   0.968   4.437
 8358SOL    HW225974   6.931   1.096   4.531
 8359SOL     OW25975   5.153   2.715   5.468
 8359SOL    HW125976   5.156   2.618   5.448
 8359SOL    HW225977   5.066   2.753   5.438
 8360SOL     OW25978   3.380   0.452   2.581
 8360SOL    HW125979   3.417   0.544   2.564
 8360SOL    HW225980   3.393   0.396   2.499
 8361SOL     OW25981   5.015   1.931   0.057
 8361SOL    HW125982   4.948   1.942   0.129
 8361SOL    HW225983   5.072   2.013   0.052
 8362SOL     OW25984   0.551   4.537   1.767
 8362SOL    HW125985   0.460   4.499   1.750
 8362SOL    HW225986   0.546   4.637   1.768
 8363SOL     OW25987   3.366   2.328   1.340
 8363SOL    HW125988   3.388   2.425   1.347
 8363SOL    HW225989   3.444   2.278   1.303
 8364SOL     OW25990   0.712   1.507   3.681
 8364SOL    HW125991   0.753   1.418   3.700
 8364SOL    HW225992   0.780   1.567   3.639
 8365SOL     OW25993   1.914   2.570   1.094
 8365SOL    HW125994   2.012   2.588   1.090
 8365SOL    HW225995   1.897   2.474   1.072
 8366SOL     OW25996   5.185   6.093   1.235
 8366SOL    HW125997   5.110   6.136   1.185
 8366SOL    HW225998   5.156   6.003   1.266
 8367SOL     OW25999   0.758   4.987   4.276
 8367SOL    HW126000   0.773   4.897   4.317
 8367SOL    HW226001   0.676   5.028   4.313
 8368SOL     OW26002   0.553   3.738   6.321
 8368SOL    HW126003   0.647   3.737   6.286
 8368SOL    HW226004   0.553   3.715   6.418
 8369SOL     OW26005   1.363   1.053   0.532
 8369SOL    HW126006   1.299   1.117   0.490
 8369SOL    HW226007   1.453   1.064   0.491
 8370SOL     OW26008   2.507   3.233   1.558
 8370SOL    HW126009   2.409   3.214   1.552
 8370SOL    HW226010   2.551   3.162   1.612
 8371SOL     OW26011   2.491   4.608   5.270
 8371SOL    HW126012   2.589   4.597   5.288
 8371SOL    HW226013   2.446   4.645   5.351
 8372SOL     OW26014   1.526   6.953   3.183
 8372SOL    HW126015   1.607   6.964   3.126
 8372SOL    HW226016   1.504   6.856   3.192
 8373SOL     OW26017   6.398   0.679   4.698
 8373SOL    HW126018   6.353   0.768   4.700
 8373SOL    HW226019   6.339   0.611   4.655
 8374SOL     OW26020   0.375   2.119   3.686
 8374SOL    HW126021   0.319   2.087   3.762
 8374SOL    HW226022   0.382   2.219   3.689
 8375SOL     OW26023   1.478   2.092   5.338
 8375SOL    HW126024   1.444   2.074   5.431
 8375SOL    HW226025   1.516   2.185   5.334
 8376SOL     OW26026   1.065   0.714   3.457
 8376SOL    HW126027   1.134   0.658   3.503
 8376SOL    HW226028   1.088   0.810   3.468
 8377SOL     OW26029   4.523   5.687   1.818
 8377SOL    HW126030   4.529   5.697   1.718
 8377SOL    HW226031   4.609   5.715   1.860
 8378SOL     OW26032   4.100   6.073   6.083
 8378SOL    HW126033   4.159   6.010   6.032
 8378SOL    HW226034   4.156   6.127   6.146
 8379SOL     OW26035   6.317   2.750   1.706
 8379SOL    HW126036   6.262   2.689   1.648
 8379SOL    HW226037   6.402   2.773   1.658
 8380SOL     OW26038   1.532   5.396   2.825
 8380SOL    HW126039   1.605   5.455   2.860
 8380SOL    HW226040   1.570   5.306   2.803
 8381SOL     OW26041   0.494   2.612   2.857
 8381SOL    HW126042   0.532   2.704   2.847
 8381SOL    HW226043   0.432   2.593   2.781
 8382SOL     OW26044   0.952   0.602   2.159
 8382SOL    HW126045   1.010   0.526   2.189
 8382SOL    HW226046   0.920   0.583   2.066
 8383SOL     OW26047   2.627   6.797   4.838
 8383SOL    HW126048   2.553   6.807   4.772
 8383SOL    HW226049   2.589   6.786   4.930
 8384SOL     OW26050   0.850   3.809   3.810
 8384SOL    HW126051   0.778   3.872   3.779
 8384SOL    HW226052   0.867   3.824   3.907
 8385SOL     OW26053   3.574   2.065   1.317
 8385SOL    HW126054   3.605   2.088   1.409
 8385SOL    HW226055   3.600   1.970   1.296
 8386SOL     OW26056   6.378   5.780   2.484
 8386SOL    HW126057   6.400   5.813   2.576
 8386SOL    HW226058   6.286   5.810   2.459
 8387SOL     OW26059   0.634   2.082   3.775
 8387SOL    HW126060   0.541   2.067   3.742
 8387SOL    HW226061   0.669   1.998   3.817
 8388SOL     OW26062   3.435   6.125   1.146
 8388SOL    HW126063   3.360   6.068   1.181
 8388SOL    HW226064   3.522   6.085   1.173
 8389SOL     OW26065   0.718   2.975   4.566
 8389SOL    HW126066   0.747   2.935   4.653
 8389SOL    HW226067   0.733   3.074   4.568
 8390SOL     OW26068   1.189   6.682   6.780
 8390SOL    HW126069   1.111   6.622   6.761
 8390SOL    HW226070   1.269   6.648   6.731
 8391SOL     OW26071   5.046   6.381   1.023
 8391SOL    HW126072   5.010   6.288   1.015
 8391SOL    HW226073   5.133   6.387   0.975
 8392SOL     OW26074   3.328   5.760   0.394
 8392SOL    HW126075   3.230   5.768   0.374
 8392SOL    HW226076   3.342   5.729   0.487
 8393SOL     OW26077   1.290   6.666   2.216
 8393SOL    HW126078   1.222   6.666   2.290
 8393SOL    HW226079   1.329   6.575   2.207
 8394SOL     OW26080   1.823   1.416   4.256
 8394SOL    HW126081   1.917   1.435   4.231
 8394SOL    HW226082   1.821   1.357   4.337
 8395SOL     OW26083   2.095   6.084   0.023
 8395SOL    HW126084   2.116   6.160   0.085
 8395SOL    HW226085   2.003   6.050   0.041
 8396SOL     OW26086   4.828   2.398   0.262
 8396SOL    HW126087   4.899   2.396   0.191
 8396SOL    HW226088   4.744   2.359   0.225
 8397SOL     OW26089   0.466   4.424   3.552
 8397SOL    HW126090   0.378   4.412   3.597
 8397SOL    HW226091   0.512   4.504   3.590
 8398SOL     OW26092   5.574   2.132   6.375
 8398SOL    HW126093   5.584   2.201   6.446
 8398SOL    HW226094   5.664   2.107   6.339
 8399SOL     OW26095   5.407   6.952   5.170
 8399SOL    HW126096   5.423   6.856   5.151
 8399SOL    HW226097   5.448   7.008   5.098
 8400SOL     OW26098   5.661   5.748   3.279
 8400SOL    HW126099   5.749   5.711   3.310
 8400SOL    HW226100   5.589   5.679   3.292
 8401SOL     OW26101   1.989   3.502   5.084
 8401SOL    HW126102   1.940   3.471   5.002
 8401SOL    HW226103   2.086   3.515   5.062
 8402SOL     OW26104   4.860   0.997   4.090
 8402SOL    HW126105   4.907   1.065   4.033
 8402SOL    HW226106   4.858   1.029   4.185
 8403SOL     OW26107   0.889   1.940   6.145
 8403SOL    HW126108   0.961   1.988   6.096
 8403SOL    HW226109   0.906   1.841   6.140
 8404SOL     OW26110   4.772   5.405   5.583
 8404SOL    HW126111   4.762   5.457   5.667
 8404SOL    HW226112   4.817   5.318   5.603
 8405SOL     OW26113   0.489   3.309   6.271
 8405SOL    HW126114   0.480   3.259   6.185
 8405SOL    HW226115   0.437   3.394   6.265
 8406SOL     OW26116   5.642   3.784   1.962
 8406SOL    HW126117   5.699   3.758   2.040
 8406SOL    HW226118   5.570   3.846   1.993
 8407SOL     OW26119   5.409   3.651   1.910
 8407SOL    HW126120   5.501   3.677   1.939
 8407SOL    HW226121   5.412   3.621   1.814
 8408SOL     OW26122   5.393   3.984   4.695
 8408SOL    HW126123   5.383   3.923   4.773
 8408SOL    HW226124   5.435   4.070   4.725
 8409SOL     OW26125   0.893   2.208   3.663
 8409SOL    HW126126   0.897   2.152   3.581
 8409SOL    HW226127   0.802   2.204   3.703
 8410SOL     OW26128   1.523   5.414   2.039
 8410SOL    HW126129   1.532   5.333   1.980
 8410SOL    HW226130   1.432   5.415   2.080
 8411SOL     OW26131   2.082   3.630   3.044
 8411SOL    HW126132   2.033   3.692   2.983
 8411SOL    HW226133   2.128   3.560   2.989
 8412SOL     OW26134   5.596   2.673   2.562
 8412SOL    HW126135   5.525   2.683   2.632
 8412SOL    HW226136   5.589   2.749   2.497
 8413SOL     OW26137   1.913   5.389   2.101
 8413SOL    HW126138   1.836   5.339   2.140
 8413SOL    HW226139   1.969   5.327   2.046
 8414SOL     OW26140   6.664   0.325   3.814
 8414SOL    HW126141   6.701   0.348   3.724
 8414SOL    HW226142   6.714   0.376   3.884
 8415SOL     OW26143   0.496   4.794   1.181
 8415SOL    HW126144   0.536   4.783   1.272
 8415SOL    HW226145   0.545   4.865   1.131
 8416SOL     OW26146   4.146   4.789   2.698
 8416SOL    HW126147   4.215   4.731   2.742
 8416SOL    HW226148   4.133   4.760   2.604
 8417SOL     OW26149   1.010   5.387   6.900
 8417SOL    HW126150   0.999   5.485   6.913
 8417SOL    HW226151   0.945   5.355   6.831
 8418SOL     OW26152   5.666   6.244   3.185
 8418SOL    HW126153   5.682   6.340   3.208
 8418SOL    HW226154   5.648   6.192   3.268
 8419SOL     OW26155   2.297   1.617   3.415
 8419SOL    HW126156   2.371   1.639   3.351
 8419SOL    HW226157   2.235   1.551   3.372
 8420SOL     OW26158   5.060   1.481   5.380
 8420SOL    HW126159   5.071   1.580   5.374
 8420SOL    HW226160   5.010   1.449   5.299
 8421SOL     OW26161   6.709   0.974   1.300
 8421SOL    HW126162   6.769   1.046   1.336
 8421SOL    HW226163   6.618   1.011   1.286
 8422SOL     OW26164   2.854   1.061   1.042
 8422SOL    HW126165   2.830   1.114   0.960
 8422SOL    HW226166   2.880   1.123   1.115
 8423SOL     OW26167   1.489   4.664   1.982
 8423SOL    HW126168   1.574   4.645   1.933
 8423SOL    HW226169   1.433   4.727   1.928
 8424SOL     OW26170   2.628   2.398   2.223
 8424SOL    HW126171   2.704   2.394   2.158
 8424SOL    HW226172   2.663   2.388   2.316
 8425SOL     OW26173   0.082   5.616   5.787
 8425SOL    HW126174   0.041   5.575   5.706
 8425SOL    HW226175   0.009   5.643   5.851
 8426SOL     OW26176   3.750   4.112   3.376
 8426SOL    HW126177   3.763   4.127   3.278
 8426SOL    HW226178   3.653   4.108   3.397
 8427SOL     OW26179   2.265   0.842   6.799
 8427SOL    HW126180   2.237   0.932   6.833
 8427SOL    HW226181   2.184   0.785   6.788
 8428SOL     OW26182   0.029   2.596   1.933
 8428SOL    HW126183   0.102   2.664   1.935
 8428SOL    HW226184   6.989   2.612   2.010
 8429SOL     OW26185   1.127   6.692   3.171
 8429SOL    HW126186   1.058   6.685   3.099
 8429SOL    HW226187   1.118   6.615   3.234
 8430SOL     OW26188   3.514   6.184   3.612
 8430SOL    HW126189   3.549   6.090   3.608
 8430SOL    HW226190   3.446   6.191   3.685
 8431SOL     OW26191   3.246   3.354   3.156
 8431SOL    HW126192   3.281   3.374   3.064
 8431SOL    HW226193   3.252   3.436   3.213
 8432SOL     OW26194   3.926   5.749   0.126
 8432SOL    HW126195   3.892   5.661   0.093
 8432SOL    HW226196   3.909   5.820   0.057
 8433SOL     OW26197   6.448   1.781   3.561
 8433SOL    HW126198   6.440   1.684   3.584
 8433SOL    HW226199   6.525   1.794   3.498
 8434SOL     OW26200   5.369   6.422   6.716
 8434SOL    HW126201   5.373   6.367   6.800
 8434SOL    HW226202   5.273   6.443   6.696
 8435SOL     OW26203   5.071   3.668   0.502
 8435SOL    HW126204   5.003   3.738   0.524
 8435SOL    HW226205   5.143   3.670   0.570
 8436SOL     OW26206   3.358   4.410   1.388
 8436SOL    HW126207   3.452   4.382   1.408
 8436SOL    HW226208   3.298   4.383   1.464
 8437SOL     OW26209   0.286   3.163   0.898
 8437SOL    HW126210   0.201   3.120   0.867
 8437SOL    HW226211   0.344   3.182   0.819
 8438SOL     OW26212   2.606   5.871   1.565
 8438SOL    HW126213   2.666   5.941   1.604
 8438SOL    HW226214   2.577   5.808   1.636
 8439SOL     OW26215   5.567   0.908   2.099
 8439SOL    HW126216   5.642   0.846   2.077
 8439SOL    HW226217   5.481   0.859   2.096
 8440SOL     OW26218   1.395   4.095   3.237
 8440SOL    HW126219   1.329   4.029   3.275
 8440SOL    HW226220   1.463   4.046   3.182
 8441SOL     OW26221   4.427   5.948   0.979
 8441SOL    HW126222   4.499   5.880   0.969
 8441SOL    HW226223   4.467   6.039   0.983
 8442SOL     OW26224   2.726   2.996   0.573
 8442SOL    HW126225   2.747   2.953   0.485
 8442SOL    HW226226   2.756   2.936   0.647
 8443SOL     OW26227   6.705   2.788   0.273
 8443SOL    HW126228   6.747   2.860   0.218
 8443SOL    HW226229   6.717   2.809   0.370
 8444SOL     OW26230   5.452   2.602   2.943
 8444SOL    HW126231   5.410   2.679   2.991
 8444SOL    HW226232   5.551   2.616   2.938
 8445SOL     OW26233   3.149   5.417   3.506
 8445SOL    HW126234   3.202   5.333   3.516
 8445SOL    HW226235   3.189   5.473   3.433
 8446SOL     OW26236   5.879   3.917   3.002
 8446SOL    HW126237   5.865   4.014   2.979
 8446SOL    HW226238   5.941   3.876   2.935
 8447SOL     OW26239   5.488   4.987   0.612
 8447SOL    HW126240   5.579   5.019   0.584
 8447SOL    HW226241   5.418   5.038   0.563
 8448SOL     OW26242   1.307   4.746   5.463
 8448SOL    HW126243   1.233   4.701   5.512
 8448SOL    HW226244   1.389   4.688   5.466
 8449SOL     OW26245   2.224   1.143   5.830
 8449SOL    HW126246   2.161   1.210   5.869
 8449SOL    HW226247   2.275   1.185   5.754
 8450SOL     OW26248   1.856   5.960   0.673
 8450SOL    HW126249   1.843   6.052   0.710
 8450SOL    HW226250   1.793   5.946   0.596
 8451SOL     OW26251   2.740   4.298   1.650
 8451SOL    HW126252   2.673   4.231   1.680
 8451SOL    HW226253   2.778   4.346   1.729
 8452SOL     OW26254   6.977   5.586   2.753
 8452SOL    HW126255   6.932   5.658   2.701
 8452SOL    HW226256   7.020   5.625   2.834
 8453SOL     OW26257   0.763   4.268   5.369
 8453SOL    HW126258   0.746   4.325   5.289
 8453SOL    HW226259   0.796   4.178   5.340
 8454SOL     OW26260   2.278   0.102   6.263
 8454SOL    HW126261   2.325   0.119   6.177
 8454SOL    HW226262   2.193   0.154   6.266
 8455SOL     OW26263   6.139   2.169   6.974
 8455SOL    HW126264   6.124   2.150   0.049
 8455SOL    HW226265   6.129   2.084   6.922
 8456SOL     OW26266   6.001   4.819   3.477
 8456SOL    HW126267   6.014   4.796   3.381
 8456SOL    HW226268   5.929   4.761   3.515
 8457SOL     OW26269   5.558   6.204   6.314
 8457SOL    HW126270   5.482   6.268   6.303
 8457SOL    HW226271   5.644   6.250   6.293
 8458SOL     OW26272   1.265   1.188   1.555
 8458SOL    HW126273   1.218   1.260   1.504
 8458SOL    HW226274   1.221   1.100   1.536
 8459SOL     OW26275   1.870   4.941   2.866
 8459SOL    HW126276   1.777   4.907   2.855
 8459SOL    HW226277   1.891   4.952   2.963
 8460SOL     OW26278   3.239   1.390   1.280
 8460SOL    HW126279   3.271   1.298   1.257
 8460SOL    HW226280   3.292   1.457   1.229
 8461SOL     OW26281   5.217   4.833   3.124
 8461SOL    HW126282   5.195   4.851   3.220
 8461SOL    HW226283   5.308   4.867   3.103
 8462SOL     OW26284   2.006   3.350   0.144
 8462SOL    HW126285   1.920   3.397   0.163
 8462SOL    HW226286   2.057   3.338   0.229
 8463SOL     OW26287   0.678   6.271   2.123
 8463SOL    HW126288   0.632   6.205   2.183
 8463SOL    HW226289   0.660   6.248   2.028
 8464SOL     OW26290   6.823   3.008   6.781
 8464SOL    HW126291   6.856   3.000   6.687
 8464SOL    HW226292   6.723   3.000   6.782
 8465SOL     OW26293   5.944   3.992   0.732
 8465SOL    HW126294   5.937   4.061   0.805
 8465SOL    HW226295   5.941   4.038   0.643
 8466SOL     OW26296   0.385   1.806   4.642
 8466SOL    HW126297   0.459   1.860   4.601
 8466SOL    HW226298   0.398   1.709   4.621
 8467SOL     OW26299   3.218   0.674   0.640
 8467SOL    HW126300   3.305   0.705   0.602
 8467SOL    HW226301   3.204   0.715   0.730
 8468SOL     OW26302   6.877   3.490   2.057
 8468SOL    HW126303   6.955   3.454   2.108
 8468SOL    HW226304   6.792   3.462   2.103
 8469SOL     OW26305   3.414   2.843   5.665
 8469SOL    HW126306   3.425   2.804   5.574
 8469SOL    HW226307   3.413   2.943   5.659
 8470SOL     OW26308   1.653   5.318   0.426
 8470SOL    HW126309   1.590   5.257   0.377
 8470SOL    HW226310   1.609   5.406   0.442
 8471SOL     OW26311   3.536   1.898   3.864
 8471SOL    HW126312   3.502   1.934   3.778
 8471SOL    HW226313   3.603   1.826   3.847
 8472SOL     OW26314   6.389   1.569   6.750
 8472SOL    HW126315   6.363   1.631   6.824
 8472SOL    HW226316   6.315   1.504   6.734
 8473SOL     OW26317   4.588   5.134   5.647
 8473SOL    HW126318   4.566   5.038   5.629
 8473SOL    HW226319   4.552   5.190   5.572
 8474SOL     OW26320   3.080   4.332   6.540
 8474SOL    HW126321   3.091   4.234   6.523
 8474SOL    HW226322   3.004   4.346   6.604
 8475SOL     OW26323   0.705   1.872   2.963
 8475SOL    HW126324   0.751   1.921   3.037
 8475SOL    HW226325   0.687   1.778   2.991
 8476SOL     OW26326   6.813   0.385   2.298
 8476SOL    HW126327   6.867   0.435   2.229
 8476SOL    HW226328   6.778   0.449   2.366
 8477SOL     OW26329   6.282   0.374   0.926
 8477SOL    HW126330   6.370   0.329   0.917
 8477SOL    HW226331   6.279   0.425   1.011
 8478SOL     OW26332   2.231   6.751   0.055
 8478SOL    HW126333   2.147   6.806   0.053
 8478SOL    HW226334   2.238   6.697   6.993
 8479SOL     OW26335   1.738   1.735   0.174
 8479SOL    HW126336   1.727   1.708   0.078
 8479SOL    HW226337   1.649   1.741   0.218
 8480SOL     OW26338   3.214   4.329   1.603
 8480SOL    HW126339   3.261   4.295   1.685
 8480SOL    HW226340   3.181   4.422   1.620
 8481SOL     OW26341   5.847   3.408   1.509
 8481SOL    HW126342   5.793   3.335   1.551
 8481SOL    HW226343   5.800   3.495   1.519
 8482SOL     OW26344   5.032   6.677   5.342
 8482SOL    HW126345   5.033   6.710   5.247
 8482SOL    HW226346   5.018   6.754   5.404
 8483SOL     OW26347   4.638   5.282   3.772
 8483SOL    HW126348   4.566   5.213   3.772
 8483SOL    HW226349   4.688   5.277   3.859
 8484SOL     OW26350   5.784   7.001   5.257
 8484SOL    HW126351   5.737   6.919   5.222
 8484SOL    HW226352   5.843   6.975   5.333
 8485SOL     OW26353   3.287   0.635   5.733
 8485SOL    HW126354   3.279   0.693   5.814
 8485SOL    HW226355   3.236   0.676   5.657
 8486SOL     OW26356   4.864   2.593   4.341
 8486SOL    HW126357   4.874   2.598   4.242
 8486SOL    HW226358   4.844   2.684   4.378
 8487SOL     OW26359   1.308   1.491   5.655
 8487SOL    HW126360   1.339   1.434   5.732
 8487SOL    HW226361   1.288   1.433   5.577
 8488SOL     OW26362   4.010   5.718   3.178
 8488SOL    HW126363   3.977   5.703   3.085
 8488SOL    HW226364   3.932   5.733   3.239
 8489SOL     OW26365   6.313   2.214   1.800
 8489SOL    HW126366   6.404   2.252   1.820
 8489SOL    HW226367   6.314   2.171   1.710
 8490SOL     OW26368   4.313   0.411   0.106
 8490SOL    HW126369   4.339   0.461   0.189
 8490SOL    HW226370   4.374   0.437   0.031
 8491SOL     OW26371   3.118   6.241   1.754
 8491SOL    HW126372   3.143   6.144   1.759
 8491SOL    HW226373   3.170   6.285   1.681
 8492SOL     OW26374   6.141   6.796   3.925
 8492SOL    HW126375   6.221   6.844   3.889
 8492SOL    HW226376   6.090   6.857   3.985
 8493SOL     OW26377   5.151   0.273   5.049
 8493SOL    HW126378   5.053   0.284   5.061
 8493SOL    HW226379   5.192   0.359   5.018
 8494SOL     OW26380   0.388   3.424   1.950
 8494SOL    HW126381   0.439   3.440   2.034
 8494SOL    HW226382   0.452   3.403   1.876
 8495SOL     OW26383   4.045   5.618   4.605
 8495SOL    HW126384   4.015   5.529   4.570
 8495SOL    HW226385   4.140   5.633   4.580
 8496SOL     OW26386   4.090   2.211   2.292
 8496SOL    HW126387   4.021   2.140   2.302
 8496SOL    HW226388   4.092   2.268   2.374
 8497SOL     OW26389   5.923   1.292   3.251
 8497SOL    HW126390   5.847   1.232   3.275
 8497SOL    HW226391   5.888   1.369   3.198
 8498SOL     OW26392   6.075   6.096   5.531
 8498SOL    HW126393   6.041   6.015   5.578
 8498SOL    HW226394   6.065   6.084   5.432
 8499SOL     OW26395   6.546   0.201   6.187
 8499SOL    HW126396   6.574   0.161   6.274
 8499SOL    HW226397   6.449   0.223   6.190
 8500SOL     OW26398   0.324   0.326   5.569
 8500SOL    HW126399   0.315   0.392   5.495
 8500SOL    HW226400   0.237   0.320   5.619
 8501SOL     OW26401   3.883   6.762   4.455
 8501SOL    HW126402   3.802   6.704   4.441
 8501SOL    HW226403   3.931   6.773   4.369
 8502SOL     OW26404   6.927   2.631   0.508
 8502SOL    HW126405   7.017   2.664   0.535
 8502SOL    HW226406   6.922   2.624   0.409
 8503SOL     OW26407   4.692   2.494   5.871
 8503SOL    HW126408   4.619   2.538   5.817
 8503SOL    HW226409   4.779   2.502   5.822
 8504SOL     OW26410   1.572   1.099   3.302
 8504SOL    HW126411   1.661   1.110   3.346
 8504SOL    HW226412   1.502   1.146   3.356
 8505SOL     OW26413   6.242   1.417   2.663
 8505SOL    HW126414   6.184   1.441   2.741
 8505SOL    HW226415   6.194   1.353   2.604
 8506SOL     OW26416   2.394   0.983   4.246
 8506SOL    HW126417   2.298   0.986   4.273
 8506SOL    HW226418   2.401   0.955   4.150
 8507SOL     OW26419   4.175   5.612   0.178
 8507SOL    HW126420   4.272   5.637   0.189
 8507SOL    HW226421   4.120   5.695   0.169
 8508SOL     OW26422   2.752   1.187   6.128
 8508SOL    HW126423   2.717   1.097   6.156
 8508SOL    HW226424   2.781   1.237   6.210
 8509SOL     OW26425   3.904   1.771   2.270
 8509SOL    HW126426   3.809   1.753   2.293
 8509SOL    HW226427   3.963   1.703   2.313
 8510SOL     OW26428   0.722   2.622   5.613
 8510SOL    HW126429   0.774   2.565   5.676
 8510SOL    HW226430   0.783   2.691   5.572
 8511SOL     OW26431   6.118   1.856   3.616
 8511SOL    HW126432   6.097   1.762   3.591
 8511SOL    HW226433   6.033   1.906   3.631
 8512SOL     OW26434   2.578   0.149   6.332
 8512SOL    HW126435   2.527   0.068   6.303
 8512SOL    HW226436   2.673   0.125   6.350
 8513SOL     OW26437   3.565   6.199   6.803
 8513SOL    HW126438   3.480   6.235   6.841
 8513SOL    HW226439   3.643   6.242   6.848
 8514SOL     OW26440   4.712   5.613   4.363
 8514SOL    HW126441   4.653   5.532   4.364
 8514SOL    HW226442   4.701   5.661   4.276
 8515SOL     OW26443   5.454   2.850   1.996
 8515SOL    HW126444   5.530   2.853   2.061
 8515SOL    HW226445   5.401   2.935   2.003
 8516SOL     OW26446   0.179   2.835   1.500
 8516SOL    HW126447   0.226   2.908   1.549
 8516SOL    HW226448   0.193   2.748   1.549
 8517SOL     OW26449   0.721   3.813   4.776
 8517SOL    HW126450   0.665   3.881   4.823
 8517SOL    HW226451   0.809   3.804   4.823
 8518SOL     OW26452   3.307   5.478   1.473
 8518SOL    HW126453   3.346   5.481   1.565
 8518SOL    HW226454   3.210   5.503   1.477
 8519SOL     OW26455   3.117   5.738   3.113
 8519SOL    HW126456   3.037   5.680   3.129
 8519SOL    HW226457   3.189   5.684   3.069
 8520SOL     OW26458   3.647   5.440   6.617
 8520SOL    HW126459   3.665   5.503   6.542
 8520SOL    HW226460   3.675   5.483   6.703
 8521SOL     OW26461   0.590   0.991   3.996
 8521SOL    HW126462   0.638   1.053   3.933
 8521SOL    HW226463   0.617   0.897   3.976
 8522SOL     OW26464   2.828   5.908   4.840
 8522SOL    HW126465   2.752   5.870   4.892
 8522SOL    HW226466   2.793   5.976   4.775
 8523SOL     OW26467   1.969   5.371   0.115
 8523SOL    HW126468   2.010   5.295   0.065
 8523SOL    HW226469   2.028   5.451   0.111
 8524SOL     OW26470   2.116   1.032   6.208
 8524SOL    HW126471   2.198   1.084   6.185
 8524SOL    HW226472   2.106   1.027   6.307
 8525SOL     OW26473   6.088   3.763   5.196
 8525SOL    HW126474   6.139   3.841   5.231
 8525SOL    HW226475   6.128   3.732   5.109
 8526SOL     OW26476   6.810   2.954   1.294
 8526SOL    HW126477   6.767   3.026   1.240
 8526SOL    HW226478   6.840   2.993   1.382
 8527SOL     OW26479   4.698   1.368   4.767
 8527SOL    HW126480   4.648   1.353   4.852
 8527SOL    HW226481   4.634   1.372   4.691
 8528SOL     OW26482   6.289   6.767   0.318
 8528SOL    HW126483   6.309   6.669   0.323
 8528SOL    HW226484   6.311   6.801   0.226
 8529SOL     OW26485   6.966   1.407   4.546
 8529SOL    HW126486   6.868   1.407   4.524
 8529SOL    HW226487   7.019   1.417   4.461
 8530SOL     OW26488   1.435   5.847   5.543
 8530SOL    HW126489   1.443   5.823   5.640
 8530SOL    HW226490   1.344   5.883   5.525
 8531SOL     OW26491   2.984   5.442   3.213
 8531SOL    HW126492   2.888   5.448   3.187
 8531SOL    HW226493   2.992   5.434   3.312
 8532SOL     OW26494   1.407   2.802   6.593
 8532SOL    HW126495   1.352   2.882   6.615
 8532SOL    HW226496   1.371   2.758   6.511
 8533SOL     OW26497   3.050   0.335   6.852
 8533SOL    HW126498   3.043   0.406   6.783
 8533SOL    HW226499   3.102   0.257   6.815
 8534SOL     OW26500   3.435   2.432   1.044
 8534SOL    HW126501   3.493   2.372   1.100
 8534SOL    HW226502   3.481   2.520   1.032
 8535SOL     OW26503   0.113   2.172   5.311
 8535SOL    HW126504   0.175   2.244   5.281
 8535SOL    HW226505   0.018   2.199   5.291
 8536SOL     OW26506   6.296   0.294   6.260
 8536SOL    HW126507   6.350   0.339   6.330
 8536SOL    HW226508   6.242   0.363   6.210
 8537SOL     OW26509   3.282   6.277   3.498
 8537SOL    HW126510   3.374   6.239   3.497
 8537SOL    HW226511   3.233   6.244   3.580
 8538SOL     OW26512   3.792   1.939   5.313
 8538SOL    HW126513   3.807   2.037   5.306
 8538SOL    HW226514   3.737   1.919   5.394
 8539SOL     OW26515   0.653   2.833   2.784
 8539SOL    HW126516   0.725   2.776   2.744
 8539SOL    HW226517   0.627   2.904   2.718
 8540SOL     OW26518   4.469   6.028   5.913
 8540SOL    HW126519   4.481   6.017   5.815
 8540SOL    HW226520   4.430   6.118   5.932
 8541SOL     OW26521   3.763   6.153   5.589
 8541SOL    HW126522   3.697   6.181   5.659
 8541SOL    HW226523   3.748   6.207   5.506
 8542SOL     OW26524   1.687   5.152   4.357
 8542SOL    HW126525   1.683   5.210   4.438
 8542SOL    HW226526   1.775   5.104   4.354
 8543SOL     OW26527   3.473   1.671   5.594
 8543SOL    HW126528   3.459   1.729   5.514
 8543SOL    HW226529   3.386   1.656   5.640
 8544SOL     OW26530   4.744   4.170   5.628
 8544SOL    HW126531   4.790   4.092   5.585
 8544SOL    HW226532   4.706   4.142   5.716
 8545SOL     OW26533   2.035   0.691   6.772
 8545SOL    HW126534   2.008   0.669   6.678
 8545SOL    HW226535   2.095   0.618   6.807
 8546SOL     OW26536   2.788   1.647   4.236
 8546SOL    HW126537   2.782   1.590   4.318
 8546SOL    HW226538   2.703   1.700   4.226
 8547SOL     OW26539   5.605   4.771   5.832
 8547SOL    HW126540   5.550   4.828   5.772
 8547SOL    HW226541   5.634   4.826   5.911
 8548SOL     OW26542   1.728   4.107   3.643
 8548SOL    HW126543   1.756   4.037   3.709
 8548SOL    HW226544   1.688   4.063   3.563
 8549SOL     OW26545   2.834   0.111   3.553
 8549SOL    HW126546   2.926   0.072   3.560
 8549SOL    HW226547   2.784   0.064   3.481
 8550SOL     OW26548   0.163   3.537   5.118
 8550SOL    HW126549   0.074   3.510   5.082
 8550SOL    HW226550   0.215   3.455   5.144
 8551SOL     OW26551   3.573   2.103   4.431
 8551SOL    HW126552   3.487   2.134   4.391
 8551SOL    HW226553   3.582   2.004   4.417
 8552SOL     OW26554   3.991   1.587   1.991
 8552SOL    HW126555   3.944   1.612   2.075
 8552SOL    HW226556   4.086   1.564   2.011
 8553SOL     OW26557   6.085   2.369   0.291
 8553SOL    HW126558   6.093   2.383   0.390
 8553SOL    HW226559   6.138   2.289   0.265
 8554SOL     OW26560   0.289   0.978   6.255
 8554SOL    HW126561   0.221   0.960   6.185
 8554SOL    HW226562   0.304   0.894   6.309
 8555SOL     OW26563   3.735   1.352   4.166
 8555SOL    HW126564   3.828   1.351   4.130
 8555SOL    HW226565   3.671   1.375   4.093
 8556SOL     OW26566   1.321   3.644   6.742
 8556SOL    HW126567   1.406   3.666   6.695
 8556SOL    HW226568   1.280   3.562   6.700
 8557SOL     OW26569   6.164   6.715   0.790
 8557SOL    HW126570   6.183   6.787   0.857
 8557SOL    HW226571   6.161   6.755   0.699
 8558SOL     OW26572   1.943   6.060   3.864
 8558SOL    HW126573   1.912   6.142   3.911
 8558SOL    HW226574   1.968   6.083   3.770
 8559SOL     OW26575   1.645   2.211   2.693
 8559SOL    HW126576   1.564   2.245   2.741
 8559SOL    HW226577   1.621   2.129   2.642
 8560SOL     OW26578   3.383   4.615   1.629
 8560SOL    HW126579   3.458   4.629   1.694
 8560SOL    HW226580   3.421   4.596   1.538
 8561SOL     OW26581   3.796   1.139   2.296
 8561SOL    HW126582   3.730   1.116   2.225
 8561SOL    HW226583   3.860   1.063   2.308
 8562SOL     OW26584   5.992   4.226   5.900
 8562SOL    HW126585   6.035   4.267   5.820
 8562SOL    HW226586   5.894   4.247   5.900
 8563SOL     OW26587   0.391   4.011   3.805
 8563SOL    HW126588   0.483   4.004   3.765
 8563SOL    HW226589   0.339   4.080   3.755
 8564SOL     OW26590   3.993   6.423   6.746
 8564SOL    HW126591   4.092   6.412   6.744
 8564SOL    HW226592   3.970   6.520   6.750
 8565SOL     OW26593   1.500   4.906   1.181
 8565SOL    HW126594   1.445   4.867   1.256
 8565SOL    HW226595   1.441   4.922   1.102
 8566SOL     OW26596   2.655   1.128   3.766
 8566SOL    HW126597   2.621   1.188   3.694
 8566SOL    HW226598   2.615   1.154   3.853
 8567SOL     OW26599   1.449   2.580   6.987
 8567SOL    HW126600   1.519   2.644   7.019
 8567SOL    HW226601   1.463   2.564   6.889
 8568SOL     OW26602   5.987   0.279   5.697
 8568SOL    HW126603   6.059   0.333   5.653
 8568SOL    HW226604   5.983   0.189   5.654
 8569SOL     OW26605   4.564   1.889   6.118
 8569SOL    HW126606   4.563   1.835   6.202
 8569SOL    HW226607   4.642   1.861   6.062
 8570SOL     OW26608   1.367   2.025   4.374
 8570SOL    HW126609   1.347   2.086   4.450
 8570SOL    HW226610   1.283   2.004   4.324
 8571SOL     OW26611   1.556   0.754   3.501
 8571SOL    HW126612   1.489   0.766   3.427
 8571SOL    HW226613   1.592   0.843   3.528
 8572SOL     OW26614   2.696   3.161   6.518
 8572SOL    HW126615   2.691   3.062   6.530
 8572SOL    HW226616   2.604   3.200   6.523
 8573SOL     OW26617   2.046   6.387   5.213
 8573SOL    HW126618   2.131   6.439   5.210
 8573SOL    HW226619   2.016   6.367   5.120
 8574SOL     OW26620   6.455   2.613   5.936
 8574SOL    HW126621   6.439   2.616   5.837
 8574SOL    HW226622   6.554   2.611   5.953
 8575SOL     OW26623   1.738   6.529   4.309
 8575SOL    HW126624   1.826   6.495   4.277
 8575SOL    HW226625   1.676   6.452   4.324
 8576SOL     OW26626   1.405   4.147   4.290
 8576SOL    HW126627   1.368   4.085   4.358
 8576SOL    HW226628   1.500   4.122   4.271
 8577SOL     OW26629   1.818   1.079   1.636
 8577SOL    HW126630   1.907   1.111   1.602
 8577SOL    HW226631   1.810   0.981   1.619
 8578SOL     OW26632   1.796   0.621   6.325
 8578SOL    HW126633   1.821   0.701   6.271
 8578SOL    HW226634   1.838   0.539   6.284
 8579SOL     OW26635   2.630   6.908   2.969
 8579SOL    HW126636   2.532   6.913   2.991
 8579SOL    HW226637   2.671   6.999   2.983
 8580SOL     OW26638   1.136   0.008   1.982
 8580SOL    HW126639   1.216   7.010   2.039
 8580SOL    HW226640   1.059   6.972   2.012
 8581SOL     OW26641   3.986   3.119   3.790
 8581SOL    HW126642   3.899   3.098   3.744
 8581SOL    HW226643   3.983   3.084   3.883
 8582SOL     OW26644   5.667   5.113   0.167
 8582SOL    HW126645   5.656   5.205   0.130
 8582SOL    HW226646   5.640   5.045   0.098
 8583SOL     OW26647   3.641   6.907   2.139
 8583SOL    HW126648   3.692   6.944   2.061
 8583SOL    HW226649   3.706   6.869   2.206
 8584SOL     OW26650   6.140   2.866   6.544
 8584SOL    HW126651   6.225   2.909   6.513
 8584SOL    HW226652   6.151   2.766   6.542
 8585SOL     OW26653   5.371   2.870   2.617
 8585SOL    HW126654   5.341   2.904   2.706
 8585SOL    HW226655   5.308   2.799   2.586
 8586SOL     OW26656   6.102   6.737   5.981
 8586SOL    HW126657   6.101   6.642   5.951
 8586SOL    HW226658   6.090   6.742   6.080
 8587SOL     OW26659   5.941   6.970   1.036
 8587SOL    HW126660   5.903   6.906   0.970
 8587SOL    HW226661   5.981   0.026   0.988
 8588SOL     OW26662   1.718   2.752   5.726
 8588SOL    HW126663   1.741   2.759   5.629
 8588SOL    HW226664   1.631   2.705   5.736
 8589SOL     OW26665   6.456   3.313   6.403
 8589SOL    HW126666   6.394   3.312   6.324
 8589SOL    HW226667   6.433   3.238   6.464
 8590SOL     OW26668   1.129   1.272   2.707
 8590SOL    HW126669   1.095   1.221   2.629
 8590SOL    HW226670   1.074   1.355   2.720
 8591SOL     OW26671   0.937   4.620   6.405
 8591SOL    HW126672   0.943   4.704   6.351
 8591SOL    HW226673   0.861   4.564   6.371
 8592SOL     OW26674   0.051   2.018   4.837
 8592SOL    HW126675   0.036   1.940   4.899
 8592SOL    HW226676   0.035   2.103   4.886
 8593SOL     OW26677   0.611   0.673   0.438
 8593SOL    HW126678   0.667   0.705   0.515
 8593SOL    HW226679   0.522   0.718   0.442
 8594SOL     OW26680   5.817   2.592   0.099
 8594SOL    HW126681   5.773   2.505   0.118
 8594SOL    HW226682   5.891   2.579   0.032
 8595SOL     OW26683   5.520   6.782   1.764
 8595SOL    HW126684   5.454   6.850   1.731
 8595SOL    HW226685   5.527   6.789   1.864
 8596SOL     OW26686   0.520   2.831   5.452
 8596SOL    HW126687   0.513   2.788   5.362
 8596SOL    HW226688   0.504   2.761   5.522
 8597SOL     OW26689   6.402   3.027   6.013
 8597SOL    HW126690   6.465   3.104   6.003
 8597SOL    HW226691   6.434   2.967   6.086
 8598SOL     OW26692   6.630   6.877   5.674
 8598SOL    HW126693   6.701   6.933   5.716
 8598SOL    HW226694   6.642   6.782   5.702
 8599SOL     OW26695   6.410   4.485   5.684
 8599SOL    HW126696   6.399   4.544   5.764
 8599SOL    HW226697   6.435   4.541   5.605
 8600SOL     OW26698   3.636   2.950   1.934
 8600SOL    HW126699   3.554   2.892   1.929
 8600SOL    HW226700   3.668   2.953   2.029
 8601SOL     OW26701   4.800   4.479   1.385
 8601SOL    HW126702   4.887   4.472   1.434
 8601SOL    HW226703   4.797   4.565   1.335
 8602SOL     OW26704   2.404   6.304   5.400
 8602SOL    HW126705   2.467   6.364   5.450
 8602SOL    HW226706   2.332   6.272   5.461
 8603SOL     OW26707   0.503   1.414   6.406
 8603SOL    HW126708   0.538   1.320   6.400
 8603SOL    HW226709   0.436   1.419   6.481
 8604SOL     OW26710   1.795   5.843   6.210
 8604SOL    HW126711   1.860   5.893   6.267
 8604SOL    HW226712   1.750   5.773   6.264
 8605SOL     OW26713   0.587   4.745   4.360
 8605SOL    HW126714   0.535   4.790   4.287
 8605SOL    HW226715   0.684   4.743   4.337
 8606SOL     OW26716   0.095   0.359   6.464
 8606SOL    HW126717   0.147   0.315   6.390
 8606SOL    HW226718   0.087   0.457   6.446
 8607SOL     OW26719   2.869   2.327   1.606
 8607SOL    HW126720   2.864   2.343   1.705
 8607SOL    HW226721   2.819   2.399   1.558
 8608SOL     OW26722   1.672   5.605   2.210
 8608SOL    HW126723   1.717   5.547   2.277
 8608SOL    HW226724   1.630   5.548   2.139
 8609SOL     OW26725   5.567   2.447   4.306
 8609SOL    HW126726   5.575   2.379   4.233
 8609SOL    HW226727   5.617   2.415   4.387
 8610SOL     OW26728   0.485   5.436   2.460
 8610SOL    HW126729   0.460   5.374   2.535
 8610SOL    HW226730   0.563   5.398   2.410
 8611SOL     OW26731   2.213   1.511   6.360
 8611SOL    HW126732   2.190   1.504   6.263
 8611SOL    HW226733   2.172   1.434   6.410
 8612SOL     OW26734   3.422   3.088   6.389
 8612SOL    HW126735   3.445   3.074   6.292
 8612SOL    HW226736   3.379   3.006   6.425
 8613SOL     OW26737   3.563   3.219   3.809
 8613SOL    HW126738   3.531   3.288   3.874
 8613SOL    HW226739   3.574   3.131   3.856
 8614SOL     OW26740   0.463   3.688   3.880
 8614SOL    HW126741   0.371   3.708   3.846
 8614SOL    HW226742   0.469   3.713   3.977
 8615SOL     OW26743   4.011   0.313   5.032
 8615SOL    HW126744   3.926   0.367   5.028
 8615SOL    HW226745   4.008   0.242   4.962
 8616SOL     OW26746   6.417   4.232   4.977
 8616SOL    HW126747   6.337   4.172   4.983
 8616SOL    HW226748   6.390   4.325   5.005
 8617SOL     OW26749   0.598   6.835   4.680
 8617SOL    HW126750   0.642   6.911   4.633
 8617SOL    HW226751   0.502   6.857   4.697
 8618SOL     OW26752   0.087   4.471   0.958
 8618SOL    HW126753   0.153   4.543   0.983
 8618SOL    HW226754   0.109   4.387   1.008
 8619SOL     OW26755   6.099   4.015   6.580
 8619SOL    HW126756   6.028   4.012   6.510
 8619SOL    HW226757   6.090   4.100   6.633
 8620SOL     OW26758   0.418   6.860   3.999
 8620SOL    HW126759   0.461   6.923   4.064
 8620SOL    HW226760   0.471   6.858   3.915
 8621SOL     OW26761   6.689   3.244   2.366
 8621SOL    HW126762   6.665   3.338   2.392
 8621SOL    HW226763   6.648   3.180   2.431
 8622SOL     OW26764   0.921   5.920   1.931
 8622SOL    HW126765   0.915   5.864   1.848
 8622SOL    HW226766   0.829   5.931   1.970
 8623SOL     OW26767   1.391   2.342   3.821
 8623SOL    HW126768   1.460   2.346   3.894
 8623SOL    HW226769   1.357   2.434   3.803
 8624SOL     OW26770   3.559   3.606   6.227
 8624SOL    HW126771   3.506   3.530   6.190
 8624SOL    HW226772   3.525   3.628   6.319
 8625SOL     OW26773   4.300   2.581   5.954
 8625SOL    HW126774   4.346   2.525   6.023
 8625SOL    HW226775   4.361   2.595   5.876
 8626SOL     OW26776   5.838   1.174   0.213
 8626SOL    HW126777   5.854   1.116   0.294
 8626SOL    HW226778   5.825   1.115   0.133
 8627SOL     OW26779   6.862   0.018   2.562
 8627SOL    HW126780   6.858   0.067   2.475
 8627SOL    HW226781   6.898   6.948   2.548
 8628SOL     OW26782   1.231   6.173   0.674
 8628SOL    HW126783   1.323   6.140   0.693
 8628SOL    HW226784   1.233   6.273   0.663
 8629SOL     OW26785   0.527   0.981   4.486
 8629SOL    HW126786   0.466   0.925   4.542
 8629SOL    HW226787   0.484   1.002   4.398
 8630SOL     OW26788   6.108   3.821   1.588
 8630SOL    HW126789   6.127   3.748   1.522
 8630SOL    HW226790   6.139   3.792   1.678
 8631SOL     OW26791   1.664   5.820   6.881
 8631SOL    HW126792   1.723   5.814   6.962
 8631SOL    HW226793   1.642   5.916   6.864
 8632SOL     OW26794   5.810   5.753   2.864
 8632SOL    HW126795   5.837   5.777   2.771
 8632SOL    HW226796   5.892   5.739   2.919
 8633SOL     OW26797   6.634   4.125   5.893
 8633SOL    HW126798   6.632   4.202   5.829
 8633SOL    HW226799   6.720   4.126   5.944
 8634SOL     OW26800   4.793   4.253   0.286
 8634SOL    HW126801   4.727   4.217   0.352
 8634SOL    HW226802   4.794   4.194   0.205
 8635SOL     OW26803   5.228   1.384   0.029
 8635SOL    HW126804   5.172   1.336   0.096
 8635SOL    HW226805   5.299   1.324   7.016
 8636SOL     OW26806   4.784   6.031   0.841
 8636SOL    HW126807   4.826   6.061   0.755
 8636SOL    HW226808   4.773   5.932   0.840
 8637SOL     OW26809   2.924   2.862   1.068
 8637SOL    HW126810   2.839   2.813   1.079
 8637SOL    HW226811   2.988   2.807   1.014
 8638SOL     OW26812   5.212   2.428   4.794
 8638SOL    HW126813   5.272   2.487   4.740
 8638SOL    HW226814   5.197   2.342   4.746
 8639SOL     OW26815   3.922   3.720   0.363
 8639SOL    HW126816   3.828   3.710   0.394
 8639SOL    HW226817   3.963   3.801   0.405
 8640SOL     OW26818   2.921   2.844   6.849
 8640SOL    HW126819   2.914   2.884   6.758
 8640SOL    HW226820   2.862   2.894   6.912
 8641SOL     OW26821   3.028   4.844   3.165
 8641SOL    HW126822   3.053   4.867   3.071
 8641SOL    HW226823   3.110   4.848   3.223
 8642SOL     OW26824   2.755   6.340   3.328
 8642SOL    HW126825   2.783   6.284   3.251
 8642SOL    HW226826   2.658   6.363   3.319
 8643SOL     OW26827   3.783   6.375   1.255
 8643SOL    HW126828   3.779   6.402   1.159
 8643SOL    HW226829   3.708   6.420   1.305
 8644SOL     OW26830   4.797   2.543   6.268
 8644SOL    HW126831   4.724   2.513   6.206
 8644SOL    HW226832   4.874   2.480   6.261
 8645SOL     OW26833   4.641   4.661   3.225
 8645SOL    HW126834   4.654   4.753   3.187
 8645SOL    HW226835   4.606   4.601   3.154
 8646SOL     OW26836   5.860   2.207   4.150
 8646SOL    HW126837   5.799   2.156   4.211
 8646SOL    HW226838   5.815   2.220   4.062
 8647SOL     OW26839   2.242   4.926   2.200
 8647SOL    HW126840   2.218   4.948   2.105
 8647SOL    HW226841   2.341   4.914   2.207
 8648SOL     OW26842   5.685   6.011   6.461
 8648SOL    HW126843   5.713   5.923   6.422
 8648SOL    HW226844   5.635   6.064   6.392
 8649SOL     OW26845   5.262   3.448   2.055
 8649SOL    HW126846   5.340   3.429   2.116
 8649SOL    HW226847   5.293   3.507   1.980
 8650SOL     OW26848   1.086   1.226   5.344
 8650SOL    HW126849   1.085   1.131   5.375
 8650SOL    HW226850   1.006   1.243   5.285
 8651SOL     OW26851   4.674   1.841   1.322
 8651SOL    HW126852   4.681   1.750   1.281
 8651SOL    HW226853   4.660   1.833   1.420
 8652SOL     OW26854   6.273   3.394   4.812
 8652SOL    HW126855   6.366   3.432   4.810
 8652SOL    HW226856   6.247   3.366   4.720
 8653SOL     OW26857   4.436   0.797   6.931
 8653SOL    HW126858   4.454   0.845   6.845
 8653SOL    HW226859   4.344   0.759   6.929
 8654SOL     OW26860   6.636   4.911   3.645
 8654SOL    HW126861   6.576   4.862   3.582
 8654SOL    HW226862   6.670   4.848   3.715
 8655SOL     OW26863   1.785   6.964   4.746
 8655SOL    HW126864   1.837   6.991   4.665
 8655SOL    HW226865   1.722   0.016   4.771
 8656SOL     OW26866   3.821   6.856   0.454
 8656SOL    HW126867   3.731   6.896   0.471
 8656SOL    HW226868   3.811   6.772   0.401
 8657SOL     OW26869   2.818   1.551   2.466
 8657SOL    HW126870   2.778   1.633   2.427
 8657SOL    HW226871   2.894   1.575   2.526
 8658SOL     OW26872   6.208   4.298   0.721
 8658SOL    HW126873   6.191   4.313   0.818
 8658SOL    HW226874   6.306   4.304   0.703
 8659SOL     OW26875   3.071   6.578   3.546
 8659SOL    HW126876   3.053   6.526   3.462
 8659SOL    HW226877   3.071   6.515   3.624
 8660SOL     OW26878   6.679   4.347   0.975
 8660SOL    HW126879   6.618   4.269   0.963
 8660SOL    HW226880   6.627   4.426   1.007
 8661SOL     OW26881   6.247   2.301   1.369
 8661SOL    HW126882   6.192   2.248   1.434
 8661SOL    HW226883   6.344   2.292   1.393
 8662SOL     OW26884   1.886   3.120   1.755
 8662SOL    HW126885   1.837   3.070   1.827
 8662SOL    HW226886   1.977   3.145   1.789
 8663SOL     OW26887   3.607   5.727   1.861
 8663SOL    HW126888   3.668   5.663   1.907
 8663SOL    HW226889   3.635   5.821   1.883
 8664SOL     OW26890   3.697   5.711   4.537
 8664SOL    HW126891   3.611   5.762   4.529
 8664SOL    HW226892   3.677   5.617   4.565
 8665SOL     OW26893   0.901   3.012   6.482
 8665SOL    HW126894   0.876   2.916   6.469
 8665SOL    HW226895   0.929   3.027   6.577
 8666SOL     OW26896   3.773   6.762   2.331
 8666SOL    HW126897   3.856   6.761   2.387
 8666SOL    HW226898   3.730   6.672   2.333
 8667SOL     OW26899   4.212   2.230   2.031
 8667SOL    HW126900   4.186   2.304   1.969
 8667SOL    HW226901   4.151   2.229   2.110
 8668SOL     OW26902   3.320   1.785   2.918
 8668SOL    HW126903   3.292   1.716   2.984
 8668SOL    HW226904   3.401   1.833   2.952
 8669SOL     OW26905   0.411   6.189   6.618
 8669SOL    HW126906   0.415   6.253   6.694
 8669SOL    HW226907   0.398   6.240   6.533
 8670SOL     OW26908   6.831   5.013   5.317
 8670SOL    HW126909   6.910   5.066   5.345
 8670SOL    HW226910   6.825   5.013   5.217
 8671SOL     OW26911   6.862   3.814   3.474
 8671SOL    HW126912   6.771   3.787   3.441
 8671SOL    HW226913   6.932   3.767   3.421
 8672SOL     OW26914   6.276   1.067   1.947
 8672SOL    HW126915   6.241   1.072   1.853
 8672SOL    HW226916   6.263   0.975   1.982
 8673SOL     OW26917   6.838   0.910   2.225
 8673SOL    HW126918   6.871   0.888   2.316
 8673SOL    HW226919   6.786   0.833   2.188
 8674SOL     OW26920   0.622   2.571   3.712
 8674SOL    HW126921   0.632   2.561   3.613
 8674SOL    HW226922   0.533   2.612   3.733
 8675SOL     OW26923   5.704   2.689   4.580
 8675SOL    HW126924   5.655   2.709   4.665
 8675SOL    HW226925   5.764   2.610   4.594
 8676SOL     OW26926   5.692   2.580   1.349
 8676SOL    HW126927   5.699   2.678   1.331
 8676SOL    HW226928   5.634   2.538   1.279
 8677SOL     OW26929   3.125   1.654   7.019
 8677SOL    HW126930   3.138   1.619   0.090
 8677SOL    HW226931   3.091   1.748   0.001
 8678SOL     OW26932   2.445   2.181   6.946
 8678SOL    HW126933   2.447   2.170   0.023
 8678SOL    HW226934   2.353   2.210   6.917
 8679SOL     OW26935   1.904   2.153   6.812
 8679SOL    HW126936   1.944   2.119   6.727
 8679SOL    HW226937   1.866   2.076   6.863
 8680SOL     OW26938   0.002   0.156   0.787
 8680SOL    HW126939   7.017   0.066   0.744
 8680SOL    HW226940   0.097   0.174   0.812
 8681SOL     OW26941   5.484   5.051   1.458
 8681SOL    HW126942   5.477   5.126   1.392
 8681SOL    HW226943   5.578   5.019   1.462
 8682SOL     OW26944   1.362   2.360   1.543
 8682SOL    HW126945   1.278   2.332   1.589
 8682SOL    HW226946   1.343   2.380   1.447
 8683SOL     OW26947   2.532   4.698   4.655
 8683SOL    HW126948   2.580   4.694   4.742
 8683SOL    HW226949   2.560   4.780   4.605
 8684SOL     OW26950   2.610   4.672   3.703
 8684SOL    HW126951   2.586   4.611   3.628
 8684SOL    HW226952   2.708   4.694   3.697
 8685SOL     OW26953   4.221   3.225   5.324
 8685SOL    HW126954   4.319   3.229   5.343
 8685SOL    HW226955   4.198   3.135   5.285
 8686SOL     OW26956   0.610   4.634   2.382
 8686SOL    HW126957   0.687   4.591   2.335
 8686SOL    HW226958   0.643   4.704   2.445
 8687SOL     OW26959   5.553   2.942   5.516
 8687SOL    HW126960   5.573   2.845   5.521
 8687SOL    HW226961   5.455   2.957   5.531
 8688SOL     OW26962   1.640   3.312   4.359
 8688SOL    HW126963   1.576   3.389   4.366
 8688SOL    HW226964   1.633   3.255   4.441
 8689SOL     OW26965   5.406   3.258   0.868
 8689SOL    HW126966   5.489   3.258   0.924
 8689SOL    HW226967   5.373   3.351   0.856
 8690SOL     OW26968   1.284   2.969   2.805
 8690SOL    HW126969   1.340   3.030   2.749
 8690SOL    HW226970   1.340   2.933   2.880
 8691SOL     OW26971   4.395   0.934   6.703
 8691SOL    HW126972   4.339   0.997   6.757
 8691SOL    HW226973   4.383   0.953   6.606
 8692SOL     OW26974   5.538   1.902   4.920
 8692SOL    HW126975   5.457   1.930   4.972
 8692SOL    HW226976   5.538   1.803   4.909
 8693SOL     OW26977   1.108   0.697   5.076
 8693SOL    HW126978   1.187   0.635   5.070
 8693SOL    HW226979   1.060   0.697   4.989
 8694SOL     OW26980   3.137   3.592   6.117
 8694SOL    HW126981   3.167   3.680   6.154
 8694SOL    HW226982   3.216   3.531   6.105
 8695SOL     OW26983   4.170   3.935   1.456
 8695SOL    HW126984   4.183   3.960   1.552
 8695SOL    HW226985   4.096   3.867   1.448
 8696SOL     OW26986   2.617   4.646   6.434
 8696SOL    HW126987   2.653   4.655   6.342
 8696SOL    HW226988   2.517   4.649   6.431
 8697SOL     OW26989   1.207   3.299   4.721
 8697SOL    HW126990   1.144   3.226   4.694
 8697SOL    HW226991   1.262   3.327   4.642
 8698SOL     OW26992   5.352   4.716   6.813
 8698SOL    HW126993   5.313   4.690   6.901
 8698SOL    HW226994   5.449   4.739   6.825
 8699SOL     OW26995   2.055   1.500   1.332
 8699SOL    HW126996   2.145   1.491   1.289
 8699SOL    HW226997   1.993   1.545   1.269
 8700SOL     OW26998   0.546   2.651   4.819
 8700SOL    HW126999   0.575   2.617   4.730
 8700SOL    HW227000   0.535   2.574   4.882
 8701SOL     OW27001   2.590   3.226   0.579
 8701SOL    HW127002   2.579   3.260   0.672
 8701SOL    HW227003   2.633   3.136   0.581
 8702SOL     OW27004   4.922   4.522   0.369
 8702SOL    HW127005   4.872   4.600   0.331
 8702SOL    HW227006   4.886   4.437   0.330
 8703SOL     OW27007   2.379   5.724   0.694
 8703SOL    HW127008   2.447   5.658   0.729
 8703SOL    HW227009   2.293   5.711   0.744
 8704SOL     OW27010   6.867   1.858   4.012
 8704SOL    HW127011   6.820   1.945   4.018
 8704SOL    HW227012   6.966   1.874   4.004
 8705SOL     OW27013   3.289   2.378   0.816
 8705SOL    HW127014   3.335   2.388   0.904
 8705SOL    HW227015   3.218   2.308   0.822
 8706SOL     OW27016   5.079   2.962   5.025
 8706SOL    HW127017   5.099   3.037   5.089
 8706SOL    HW227018   4.984   2.967   4.996
 8707SOL     OW27019   1.410   0.309   2.964
 8707SOL    HW127020   1.505   0.329   2.942
 8707SOL    HW227021   1.350   0.373   2.915
 8708SOL     OW27022   5.590   2.083   0.041
 8708SOL    HW127023   5.690   2.082   0.043
 8708SOL    HW227024   5.555   2.113   0.129
 8709SOL     OW27025   6.113   6.168   4.181
 8709SOL    HW127026   6.076   6.116   4.104
 8709SOL    HW227027   6.048   6.238   4.209
 8710SOL     OW27028   1.526   2.532   3.339
 8710SOL    HW127029   1.522   2.625   3.303
 8710SOL    HW227030   1.506   2.467   3.265
 8711SOL     OW27031   0.430   1.939   2.272
 8711SOL    HW127032   0.411   1.843   2.291
 8711SOL    HW227033   0.477   1.979   2.350
 8712SOL     OW27034   1.000   3.897   4.384
 8712SOL    HW127035   0.902   3.896   4.403
 8712SOL    HW227036   1.042   3.974   4.431
 8713SOL     OW27037   0.422   4.220   4.954
 8713SOL    HW127038   0.451   4.163   5.031
 8713SOL    HW227039   0.338   4.183   4.915
 8714SOL     OW27040   1.613   3.260   6.420
 8714SOL    HW127041   1.624   3.347   6.468
 8714SOL    HW227042   1.572   3.192   6.481
 8715SOL     OW27043   2.346   4.944   1.573
 8715SOL    HW127044   2.295   4.909   1.651
 8715SOL    HW227045   2.346   5.044   1.574
 8716SOL     OW27046   5.458   0.413   2.767
 8716SOL    HW127047   5.414   0.323   2.774
 8716SOL    HW227048   5.501   0.436   2.854
 8717SOL     OW27049   4.948   1.669   6.635
 8717SOL    HW127050   4.878   1.737   6.615
 8717SOL    HW227051   4.997   1.696   6.719
 8718SOL     OW27052   2.728   5.031   6.579
 8718SOL    HW127053   2.824   5.029   6.550
 8718SOL    HW227054   2.681   5.109   6.537
 8719SOL     OW27055   3.323   1.699   4.195
 8719SOL    HW127056   3.344   1.794   4.171
 8719SOL    HW227057   3.334   1.640   4.115
 8720SOL     OW27058   0.224   6.948   5.012
 8720SOL    HW127059   0.173   6.961   5.097
 8720SOL    HW227060   0.227   0.013   4.962
 8721SOL     OW27061   0.689   0.633   1.937
 8721SOL    HW127062   0.634   0.702   1.890
 8721SOL    HW227063   0.667   0.632   2.034
 8722SOL     OW27064   3.601   1.147   0.750
 8722SOL    HW127065   3.547   1.198   0.684
 8722SOL    HW227066   3.549   1.068   0.782
 8723SOL     OW27067   3.023   6.170   3.640
 8723SOL    HW127068   2.977   6.141   3.556
 8723SOL    HW227069   3.092   6.102   3.665
 8724SOL     OW27070   5.707   6.748   5.065
 8724SOL    HW127071   5.613   6.728   5.039
 8724SOL    HW227072   5.759   6.662   5.070
 8725SOL     OW27073   6.246   0.976   2.420
 8725SOL    HW127074   6.255   0.876   2.412
 8725SOL    HW227075   6.336   1.018   2.414
 8726SOL     OW27076   6.706   6.935   1.104
 8726SOL    HW127077   6.793   6.985   1.105
 8726SOL    HW227078   6.659   6.951   1.017
 8727SOL     OW27079   4.805   5.028   6.543
 8727SOL    HW127080   4.786   5.124   6.526
 8727SOL    HW227081   4.750   4.971   6.481
 8728SOL     OW27082   5.101   0.291   3.882
 8728SOL    HW127083   5.119   0.317   3.976
 8728SOL    HW227084   5.087   0.373   3.827
 8729SOL     OW27085   5.465   5.747   6.396
 8729SOL    HW127086   5.469   5.746   6.296
 8729SOL    HW227087   5.441   5.838   6.428
 8730SOL     OW27088   4.290   4.916   1.892
 8730SOL    HW127089   4.228   4.850   1.935
 8730SOL    HW227090   4.267   4.925   1.795
 8731SOL     OW27091   6.981   2.813   3.713
 8731SOL    HW127092   6.989   2.889   3.649
 8731SOL    HW227093   0.010   2.834   3.797
 8732SOL     OW27094   5.466   6.515   5.434
 8732SOL    HW127095   5.441   6.454   5.359
 8732SOL    HW227096   5.384   6.562   5.468
 8733SOL     OW27097   5.900   3.910   1.832
 8733SOL    HW127098   5.802   3.897   1.850
 8733SOL    HW227099   5.923   3.872   1.743
 8734SOL     OW27100   6.887   6.418   0.664
 8734SOL    HW127101   6.838   6.450   0.745
 8734SOL    HW227102   6.958   6.485   0.640
 8735SOL     OW27103   1.543   1.968   6.721
 8735SOL    HW127104   1.519   1.877   6.688
 8735SOL    HW227105   1.480   2.035   6.683
 8736SOL     OW27106   0.464   6.379   3.802
 8736SOL    HW127107   0.427   6.428   3.880
 8736SOL    HW227108   0.453   6.280   3.815
 8737SOL     OW27109   1.175   5.865   6.523
 8737SOL    HW127110   1.143   5.923   6.598
 8737SOL    HW227111   1.150   5.770   6.541
 8738SOL     OW27112   1.507   1.955   2.147
 8738SOL    HW127113   1.454   1.870   2.154
 8738SOL    HW227114   1.582   1.942   2.082
 8739SOL     OW27115   5.088   4.866   3.363
 8739SOL    HW127116   5.058   4.776   3.396
 8739SOL    HW227117   5.015   4.907   3.309
 8740SOL     OW27118   1.645   0.505   2.743
 8740SOL    HW127119   1.559   0.519   2.694
 8740SOL    HW227120   1.655   0.577   2.812
 8741SOL     OW27121   1.910   2.473   2.563
 8741SOL    HW127122   1.974   2.409   2.520
 8741SOL    HW227123   1.821   2.465   2.519
 8742SOL     OW27124   1.233   3.698   0.153
 8742SOL    HW127125   1.240   3.732   0.247
 8742SOL    HW227126   1.162   3.627   0.148
 8743SOL     OW27127   2.096   2.690   0.408
 8743SOL    HW127128   1.999   2.711   0.420
 8743SOL    HW227129   2.112   2.593   0.430
 8744SOL     OW27130   2.826   4.046   5.663
 8744SOL    HW127131   2.855   4.064   5.569
 8744SOL    HW227132   2.851   4.123   5.721
 8745SOL     OW27133   5.884   0.500   0.028
 8745SOL    HW127134   5.795   0.537   0.054
 8745SOL    HW227135   5.923   0.556   6.977
 8746SOL     OW27136   4.582   4.736   4.687
 8746SOL    HW127137   4.570   4.638   4.701
 8746SOL    HW227138   4.502   4.773   4.638
 8747SOL     OW27139   6.816   6.508   1.186
 8747SOL    HW127140   6.775   6.589   1.146
 8747SOL    HW227141   6.914   6.508   1.168
 8748SOL     OW27142   5.751   2.404   5.249
 8748SOL    HW127143   5.770   2.307   5.236
 8748SOL    HW227144   5.795   2.435   5.333
 8749SOL     OW27145   1.410   1.479   3.860
 8749SOL    HW127146   1.498   1.499   3.901
 8749SOL    HW227147   1.395   1.539   3.781
 8750SOL     OW27148   3.567   4.126   2.514
 8750SOL    HW127149   3.558   4.131   2.414
 8750SOL    HW227150   3.484   4.161   2.557
 8751SOL     OW27151   1.180   6.757   0.021
 8751SOL    HW127152   1.121   6.704   0.082
 8751SOL    HW227153   1.194   6.705   6.958
 8752SOL     OW27154   0.851   2.509   6.815
 8752SOL    HW127155   0.756   2.500   6.845
 8752SOL    HW227156   0.896   2.419   6.818
 8753SOL     OW27157   2.138   1.934   1.212
 8753SOL    HW127158   2.150   1.972   1.304
 8753SOL    HW227159   2.098   2.003   1.153
 8754SOL     OW27160   1.760   6.400   0.191
 8754SOL    HW127161   1.825   6.373   0.262
 8754SOL    HW227162   1.768   6.337   0.113
 8755SOL     OW27163   6.153   1.087   1.683
 8755SOL    HW127164   6.091   1.015   1.652
 8755SOL    HW227165   6.104   1.173   1.691
 8756SOL     OW27166   1.521   1.034   1.979
 8756SOL    HW127167   1.422   1.035   1.992
 8756SOL    HW227168   1.555   1.127   1.972
 8757SOL     OW27169   5.398   5.528   6.058
 8757SOL    HW127170   5.402   5.530   5.958
 8757SOL    HW227171   5.480   5.572   6.095
 8758SOL     OW27172   4.108   4.837   6.683
 8758SOL    HW127173   4.119   4.881   6.772
 8758SOL    HW227174   4.028   4.778   6.684
 8759SOL     OW27175   6.654   0.616   1.746
 8759SOL    HW127176   6.709   0.545   1.788
 8759SOL    HW227177   6.619   0.584   1.657
 8760SOL     OW27178   1.244   2.472   4.096
 8760SOL    HW127179   1.175   2.403   4.119
 8760SOL    HW227180   1.222   2.558   4.142
 8761SOL     OW27181   5.138   2.487   4.260
 8761SOL    HW127182   5.040   2.470   4.247
 8761SOL    HW227183   5.180   2.408   4.305
 8762SOL     OW27184   4.079   6.430   2.253
 8762SOL    HW127185   4.129   6.493   2.193
 8762SOL    HW227186   4.115   6.338   2.242
 8763SOL     OW27187   6.329   1.582   5.410
 8763SOL    HW127188   6.295   1.637   5.486
 8763SOL    HW227189   6.342   1.641   5.330
 8764SOL     OW27190   2.465   5.370   5.723
 8764SOL    HW127191   2.402   5.297   5.751
 8764SOL    HW227192   2.450   5.392   5.627
 8765SOL     OW27193   4.575   6.951   3.236
 8765SOL    HW127194   4.568   0.029   3.238
 8765SOL    HW227195   4.561   6.915   3.329
 8766SOL     OW27196   6.456   0.628   5.095
 8766SOL    HW127197   6.502   0.540   5.090
 8766SOL    HW227198   6.377   0.622   5.156
 8767SOL     OW27199   1.802   1.113   4.786
 8767SOL    HW127200   1.802   1.156   4.876
 8767SOL    HW227201   1.712   1.121   4.745
 8768SOL     OW27202   0.294   2.469   6.832
 8768SOL    HW127203   0.207   2.472   6.784
 8768SOL    HW227204   0.295   2.537   6.905
 8769SOL     OW27205   0.247   0.666   6.734
 8769SOL    HW127206   0.212   0.760   6.742
 8769SOL    HW227207   0.340   0.668   6.697
 8770SOL     OW27208   4.028   1.736   1.028
 8770SOL    HW127209   4.053   1.689   0.943
 8770SOL    HW227210   4.100   1.801   1.052
 8771SOL     OW27211   0.582   2.498   6.892
 8771SOL    HW127212   0.492   2.533   6.865
 8771SOL    HW227213   0.585   2.488   6.992
 8772SOL     OW27214   6.470   6.886   3.527
 8772SOL    HW127215   6.439   6.959   3.467
 8772SOL    HW227216   6.482   6.802   3.474
 8773SOL     OW27217   6.163   1.676   4.444
 8773SOL    HW127218   6.197   1.753   4.391
 8773SOL    HW227219   6.239   1.633   4.493
 8774SOL     OW27220   1.006   2.131   6.680
 8774SOL    HW127221   1.013   2.199   6.753
 8774SOL    HW227222   1.000   2.176   6.591
 8775SOL     OW27223   4.870   2.152   2.504
 8775SOL    HW127224   4.791   2.090   2.498
 8775SOL    HW227225   4.843   2.242   2.472
 8776SOL     OW27226   5.961   2.899   0.705
 8776SOL    HW127227   5.946   2.801   0.700
 8776SOL    HW227228   5.999   2.923   0.795
 8777SOL     OW27229   6.449   2.339   4.593
 8777SOL    HW127230   6.424   2.401   4.667
 8777SOL    HW227231   6.380   2.267   4.585
 8778SOL     OW27232   1.637   4.283   5.343
 8778SOL    HW127233   1.619   4.281   5.244
 8778SOL    HW227234   1.691   4.364   5.365
 8779SOL     OW27235   2.794   6.584   3.663
 8779SOL    HW127236   2.793   6.592   3.564
 8779SOL    HW227237   2.882   6.547   3.693
 8780SOL     OW27238   1.811   3.118   3.914
 8780SOL    HW127239   1.728   3.092   3.864
 8780SOL    HW227240   1.841   3.043   3.972
 8781SOL     OW27241   3.691   0.634   2.292
 8781SOL    HW127242   3.657   0.714   2.242
 8781SOL    HW227243   3.655   0.551   2.248
 8782SOL     OW27244   0.334   2.845   6.738
 8782SOL    HW127245   0.313   2.786   6.660
 8782SOL    HW227246   0.254   2.900   6.761
 8783SOL     OW27247   3.297   3.785   6.425
 8783SOL    HW127248   3.341   3.696   6.440
 8783SOL    HW227249   3.358   3.858   6.455
 8784SOL     OW27250   4.802   1.834   5.988
 8784SOL    HW127251   4.867   1.785   6.045
 8784SOL    HW227252   4.826   1.931   5.985
 8785SOL     OW27253   0.257   6.911   6.020
 8785SOL    HW127254   0.182   6.941   6.079
 8785SOL    HW227255   0.314   6.844   6.069
 8786SOL     OW27256   4.487   2.441   3.131
 8786SOL    HW127257   4.508   2.447   3.228
 8786SOL    HW227258   4.543   2.507   3.081
 8787SOL     OW27259   2.928   5.645   2.441
 8787SOL    HW127260   2.908   5.621   2.536
 8787SOL    HW227261   2.933   5.744   2.432
 8788SOL     OW27262   6.109   0.490   2.996
 8788SOL    HW127263   6.105   0.560   2.925
 8788SOL    HW227264   6.122   0.400   2.954
 8789SOL     OW27265   2.052   4.260   6.882
 8789SOL    HW127266   2.099   4.232   6.965
 8789SOL    HW227267   1.953   4.262   6.899
 8790SOL     OW27268   4.912   3.587   5.345
 8790SOL    HW127269   4.977   3.511   5.350
 8790SOL    HW227270   4.853   3.575   5.264
 8791SOL     OW27271   3.522   6.701   5.207
 8791SOL    HW127272   3.530   6.730   5.112
 8791SOL    HW227273   3.560   6.609   5.217
 8792SOL     OW27274   4.956   3.828   0.911
 8792SOL    HW127275   4.988   3.881   0.832
 8792SOL    HW227276   4.858   3.814   0.903
 8793SOL     OW27277   6.794   0.901   4.917
 8793SOL    HW127278   6.694   0.897   4.912
 8793SOL    HW227279   6.824   0.995   4.908
 8794SOL     OW27280   1.463   2.857   2.974
 8794SOL    HW127281   1.486   2.870   3.070
 8794SOL    HW227282   1.540   2.887   2.917
 8795SOL     OW27283   1.019   0.400   6.597
 8795SOL    HW127284   0.944   0.352   6.642
 8795SOL    HW227285   1.044   0.480   6.652
 8796SOL     OW27286   6.123   5.438   4.079
 8796SOL    HW127287   6.108   5.470   4.172
 8796SOL    HW227288   6.035   5.427   4.032
 8797SOL     OW27289   5.603   5.225   6.274
 8797SOL    HW127290   5.586   5.263   6.365
 8797SOL    HW227291   5.692   5.256   6.240
 8798SOL     OW27292   1.700   4.985   6.810
 8798SOL    HW127293   1.737   4.981   6.903
 8798SOL    HW227294   1.743   4.913   6.755
 8799SOL     OW27295   0.343   5.892   2.438
 8799SOL    HW127296   0.374   5.805   2.476
 8799SOL    HW227297   0.244   5.889   2.425
 8800SOL     OW27298   0.055   6.817   4.525
 8800SOL    HW127299   0.046   6.768   4.438
 8800SOL    HW227300   0.059   6.750   4.600
 8801SOL     OW27301   5.796   3.266   6.026
 8801SOL    HW127302   5.836   3.238   5.939
 8801SOL    HW227303   5.839   3.215   6.100
 8802SOL     OW27304   1.328   6.251   6.707
 8802SOL    HW127305   1.396   6.260   6.780
 8802SOL    HW227306   1.362   6.187   6.638
 8803SOL     OW27307   5.077   5.003   5.179
 8803SOL    HW127308   5.099   4.955   5.263
 8803SOL    HW227309   5.156   5.003   5.118
 8804SOL     OW27310   2.203   5.891   1.559
 8804SOL    HW127311   2.155   5.820   1.610
 8804SOL    HW227312   2.273   5.850   1.501
 8805SOL     OW27313   4.853   5.449   0.594
 8805SOL    HW127314   4.785   5.378   0.607
 8805SOL    HW227315   4.819   5.516   0.527
 8806SOL     OW27316   1.394   1.340   1.736
 8806SOL    HW127317   1.343   1.282   1.673
 8806SOL    HW227318   1.345   1.427   1.748
 8807SOL     OW27319   5.099   1.389   1.610
 8807SOL    HW127320   5.023   1.330   1.637
 8807SOL    HW227321   5.111   1.384   1.511
 8808SOL     OW27322   1.677   1.510   0.966
 8808SOL    HW127323   1.646   1.543   1.055
 8808SOL    HW227324   1.599   1.503   0.904
 8809SOL     OW27325   1.450   3.155   2.675
 8809SOL    HW127326   1.464   3.096   2.596
 8809SOL    HW227327   1.477   3.249   2.652
 8810SOL     OW27328   6.668   2.625   3.427
 8810SOL    HW127329   6.689   2.566   3.505
 8810SOL    HW227330   6.575   2.607   3.396
 8811SOL     OW27331   3.406   5.934   2.639
 8811SOL    HW127332   3.322   5.986   2.622
 8811SOL    HW227333   3.477   5.997   2.670
 8812SOL     OW27334   6.090   0.765   7.014
 8812SOL    HW127335   6.059   0.787   0.084
 8812SOL    HW227336   6.190   0.764   7.012
 8813SOL     OW27337   1.173   2.497   1.029
 8813SOL    HW127338   1.206   2.459   0.943
 8813SOL    HW227339   1.164   2.596   1.021
 8814SOL     OW27340   6.101   1.260   4.213
 8814SOL    HW127341   6.197   1.236   4.199
 8814SOL    HW227342   6.061   1.290   4.127
 8815SOL     OW27343   4.822   0.814   1.411
 8815SOL    HW127344   4.724   0.803   1.430
 8815SOL    HW227345   4.858   0.891   1.464
 8816SOL     OW27346   6.306   1.288   2.954
 8816SOL    HW127347   6.289   1.375   2.999
 8816SOL    HW227348   6.402   1.283   2.925
 8817SOL     OW27349   1.034   2.291   4.190
 8817SOL    HW127350   1.002   2.212   4.137
 8817SOL    HW227351   0.956   2.332   4.238
 8818SOL     OW27352   1.762   5.454   6.333
 8818SOL    HW127353   1.787   5.522   6.401
 8818SOL    HW227354   1.794   5.483   6.243
 8819SOL     OW27355   5.222   6.107   6.854
 8819SOL    HW127356   5.295   6.068   6.799
 8819SOL    HW227357   5.261   6.164   6.927
 8820SOL     OW27358   3.649   6.331   5.414
 8820SOL    HW127359   3.566   6.315   5.360
 8820SOL    HW227360   3.646   6.422   5.455
 8821SOL     OW27361   2.058   5.239   5.538
 8821SOL    HW127362   2.034   5.144   5.519
 8821SOL    HW227363   1.992   5.278   5.602
 8822SOL     OW27364   0.306   0.913   5.346
 8822SOL    HW127365   0.250   0.845   5.392
 8822SOL    HW227366   0.399   0.911   5.384
 8823SOL     OW27367   4.584   2.403   3.422
 8823SOL    HW127368   4.658   2.467   3.403
 8823SOL    HW227369   4.618   2.309   3.417
 8824SOL     OW27370   1.229   0.352   3.330
 8824SOL    HW127371   1.298   0.295   3.284
 8824SOL    HW227372   1.197   0.306   3.413
 8825SOL     OW27373   2.054   6.096   6.707
 8825SOL    HW127374   2.118   6.118   6.634
 8825SOL    HW227375   2.083   6.010   6.751
 8826SOL     OW27376   0.717   2.266   0.231
 8826SOL    HW127377   0.811   2.281   0.260
 8826SOL    HW227378   0.674   2.354   0.211
 8827SOL     OW27379   4.997   6.730   3.846
 8827SOL    HW127380   5.048   6.687   3.771
 8827SOL    HW227381   5.061   6.775   3.908
 8828SOL     OW27382   4.969   3.024   6.002
 8828SOL    HW127383   4.910   2.994   5.927
 8828SOL    HW227384   5.063   3.032   5.969
 8829SOL     OW27385   6.108   0.743   2.859
 8829SOL    HW127386   6.063   0.781   2.777
 8829SOL    HW227387   6.203   0.775   2.862
 8830SOL     OW27388   2.712   2.390   2.895
 8830SOL    HW127389   2.645   2.427   2.960
 8830SOL    HW227390   2.794   2.361   2.945
 8831SOL     OW27391   0.335   2.071   2.659
 8831SOL    HW127392   0.286   2.084   2.573
 8831SOL    HW227393   0.345   2.159   2.705
 8832SOL     OW27394   6.117   0.171   4.852
 8832SOL    HW127395   6.045   0.134   4.910
 8832SOL    HW227396   6.192   0.205   4.909
 8833SOL     OW27397   4.961   2.654   1.108
 8833SOL    HW127398   4.909   2.649   1.023
 8833SOL    HW227399   5.029   2.727   1.102
 8834SOL     OW27400   6.368   4.123   5.755
 8834SOL    HW127401   6.462   4.155   5.766
 8834SOL    HW227402   6.309   4.200   5.733
 8835SOL     OW27403   6.141   1.393   5.275
 8835SOL    HW127404   6.196   1.462   5.321
 8835SOL    HW227405   6.061   1.437   5.233
 8836SOL     OW27406   4.034   1.335   0.092
 8836SOL    HW127407   3.999   1.376   0.176
 8836SOL    HW227408   4.067   1.242   0.111
 8837SOL     OW27409   5.614   5.612   1.160
 8837SOL    HW127410   5.593   5.517   1.138
 8837SOL    HW227411   5.582   5.671   1.086
 8838SOL     OW27412   0.747   2.701   1.685
 8838SOL    HW127413   0.685   2.779   1.673
 8838SOL    HW227414   0.730   2.658   1.774
 8839SOL     OW27415   4.751   4.422   1.887
 8839SOL    HW127416   4.820   4.422   1.959
 8839SOL    HW227417   4.665   4.386   1.923
 8840SOL     OW27418   0.226   6.761   0.785
 8840SOL    HW127419   0.165   6.767   0.865
 8840SOL    HW227420   0.298   6.695   0.804
 8841SOL     OW27421   4.924   2.064   0.535
 8841SOL    HW127422   4.857   2.045   0.606
 8841SOL    HW227423   4.998   2.120   0.573
 8842SOL     OW27424   3.074   3.107   3.419
 8842SOL    HW127425   3.012   3.029   3.430
 8842SOL    HW227426   3.144   3.104   3.491
 8843SOL     OW27427   2.463   6.443   5.135
 8843SOL    HW127428   2.439   6.406   5.224
 8843SOL    HW227429   2.390   6.504   5.103
 8844SOL     OW27430   4.090   2.346   5.381
 8844SOL    HW127431   4.116   2.404   5.304
 8844SOL    HW227432   4.038   2.399   5.448
 8845SOL     OW27433   0.124   3.685   2.468
 8845SOL    HW127434   0.122   3.585   2.464
 8845SOL    HW227435   0.212   3.718   2.434
 8846SOL     OW27436   5.221   5.562   4.309
 8846SOL    HW127437   5.157   5.603   4.245
 8846SOL    HW227438   5.304   5.618   4.314
 8847SOL     OW27439   1.247   3.378   3.721
 8847SOL    HW127440   1.252   3.286   3.758
 8847SOL    HW227441   1.270   3.444   3.792
 8848SOL     OW27442   6.705   2.563   1.490
 8848SOL    HW127443   6.750   2.477   1.515
 8848SOL    HW227444   6.753   2.639   1.534
 8849SOL     OW27445   3.584   5.389   4.381
 8849SOL    HW127446   3.595   5.465   4.318
 8849SOL    HW227447   3.552   5.423   4.469
 8850SOL     OW27448   4.438   1.572   1.252
 8850SOL    HW127449   4.447   1.622   1.338
 8850SOL    HW227450   4.457   1.633   1.175
 8851SOL     OW27451   6.548   5.138   3.483
 8851SOL    HW127452   6.610   5.080   3.535
 8851SOL    HW227453   6.529   5.221   3.535
 8852SOL     OW27454   5.883   4.541   4.525
 8852SOL    HW127455   5.950   4.595   4.577
 8852SOL    HW227456   5.854   4.591   4.444
 8853SOL     OW27457   4.680   1.754   4.428
 8853SOL    HW127458   4.610   1.825   4.426
 8853SOL    HW227459   4.639   1.667   4.455
 8854SOL     OW27460   2.841   0.751   6.684
 8854SOL    HW127461   2.807   0.809   6.757
 8854SOL    HW227462   2.919   0.696   6.717
 8855SOL     OW27463   6.759   4.533   6.255
 8855SOL    HW127464   6.801   4.479   6.328
 8855SOL    HW227465   6.794   4.503   6.166
 8856SOL     OW27466   5.579   1.643   6.327
 8856SOL    HW127467   5.481   1.650   6.305
 8856SOL    HW227468   5.598   1.551   6.363
 8857SOL     OW27469   1.688   3.538   4.690
 8857SOL    HW127470   1.637   3.519   4.774
 8857SOL    HW227471   1.668   3.631   4.659
 8858SOL     OW27472   1.747   3.515   6.072
 8858SOL    HW127473   1.741   3.448   5.997
 8858SOL    HW227474   1.655   3.533   6.107
 8859SOL     OW27475   2.972   5.390   4.863
 8859SOL    HW127476   2.970   5.292   4.877
 8859SOL    HW227477   2.879   5.426   4.858
 8860SOL     OW27478   2.586   0.871   1.949
 8860SOL    HW127479   2.662   0.810   1.925
 8860SOL    HW227480   2.611   0.965   1.926
 8861SOL     OW27481   2.339   0.960   0.183
 8861SOL    HW127482   2.432   0.989   0.160
 8861SOL    HW227483   2.344   0.878   0.240
 8862SOL     OW27484   0.657   3.658   3.677
 8862SOL    HW127485   0.581   3.662   3.741
 8862SOL    HW227486   0.740   3.693   3.722
 8863SOL     OW27487   1.519   5.723   4.971
 8863SOL    HW127488   1.446   5.665   4.934
 8863SOL    HW227489   1.607   5.691   4.937
 8864SOL     OW27490   2.167   3.774   5.122
 8864SOL    HW127491   2.210   3.864   5.110
 8864SOL    HW227492   2.125   3.745   5.036
 8865SOL     OW27493   3.278   2.006   5.509
 8865SOL    HW127494   3.196   2.021   5.563
 8865SOL    HW227495   3.283   2.075   5.436
 8866SOL     OW27496   5.552   6.955   4.787
 8866SOL    HW127497   5.505   0.011   4.746
 8866SOL    HW227498   5.646   6.981   4.809
 8867SOL     OW27499   5.325   1.229   2.830
 8867SOL    HW127500   5.290   1.269   2.745
 8867SOL    HW227501   5.249   1.218   2.895
 8868SOL     OW27502   5.654   2.483   0.448
 8868SOL    HW127503   5.644   2.578   0.417
 8868SOL    HW227504   5.625   2.421   0.375
 8869SOL     OW27505   1.369   1.242   3.731
 8869SOL    HW127506   1.376   1.330   3.777
 8869SOL    HW227507   1.360   1.169   3.798
 8870SOL     OW27508   3.625   6.776   1.558
 8870SOL    HW127509   3.643   6.713   1.482
 8870SOL    HW227510   3.621   6.869   1.523
 8871SOL     OW27511   0.613   2.212   3.482
 8871SOL    HW127512   0.652   2.162   3.404
 8871SOL    HW227513   0.635   2.164   3.566
 8872SOL     OW27514   0.203   0.831   2.515
 8872SOL    HW127515   0.149   0.786   2.587
 8872SOL    HW227516   0.295   0.850   2.549
 8873SOL     OW27517   6.867   5.786   4.443
 8873SOL    HW127518   6.896   5.858   4.506
 8873SOL    HW227519   6.868   5.822   4.349
 8874SOL     OW27520   0.354   1.095   5.956
 8874SOL    HW127521   0.344   1.098   5.856
 8874SOL    HW227522   0.389   1.006   5.983
 8875SOL     OW27523   1.545   0.833   4.310
 8875SOL    HW127524   1.598   0.808   4.229
 8875SOL    HW227525   1.576   0.779   4.388
 8876SOL     OW27526   3.322   1.385   4.200
 8876SOL    HW127527   3.314   1.366   4.297
 8876SOL    HW227528   3.232   1.379   4.156
 8877SOL     OW27529   2.314   6.826   5.920
 8877SOL    HW127530   2.308   6.833   5.820
 8877SOL    HW227531   2.369   6.746   5.944
 8878SOL     OW27532   5.873   4.179   5.118
 8878SOL    HW127533   5.861   4.090   5.163
 8878SOL    HW227534   5.970   4.195   5.100
 8879SOL     OW27535   6.495   5.853   5.164
 8879SOL    HW127536   6.446   5.795   5.229
 8879SOL    HW227537   6.493   5.811   5.073
 8880SOL     OW27538   1.651   0.005   5.117
 8880SOL    HW127539   1.652   0.088   5.173
 8880SOL    HW227540   1.643   6.947   5.177
 8881SOL     OW27541   6.017   0.871   1.585
 8881SOL    HW127542   5.921   0.849   1.602
 8881SOL    HW227543   6.026   0.918   1.497
 8882SOL     OW27544   5.333   1.894   0.171
 8882SOL    HW127545   5.249   1.924   0.216
 8882SOL    HW227546   5.312   1.820   0.107
 8883SOL     OW27547   5.816   1.511   5.777
 8883SOL    HW127548   5.735   1.505   5.836
 8883SOL    HW227549   5.790   1.549   5.689
 8884SOL     OW27550   1.024   1.480   6.363
 8884SOL    HW127551   1.074   1.493   6.449
 8884SOL    HW227552   0.927   1.473   6.382
 8885SOL     OW27553   5.705   3.678   1.555
 8885SOL    HW127554   5.647   3.600   1.531
 8885SOL    HW227555   5.651   3.743   1.609
 8886SOL     OW27556   3.356   6.254   5.970
 8886SOL    HW127557   3.399   6.179   6.020
 8886SOL    HW227558   3.421   6.329   5.960
 8887SOL     OW27559   1.735   1.092   6.792
 8887SOL    HW127560   1.729   1.084   6.891
 8887SOL    HW227561   1.662   1.039   6.750
 8888SOL     OW27562   1.774   1.478   3.420
 8888SOL    HW127563   1.791   1.479   3.321
 8888SOL    HW227564   1.848   1.524   3.468
 8889SOL     OW27565   3.175   0.970   5.824
 8889SOL    HW127566   3.098   0.907   5.827
 8889SOL    HW227567   3.142   1.062   5.804
 8890SOL     OW27568   5.829   5.491   3.199
 8890SOL    HW127569   5.833   5.550   3.119
 8890SOL    HW227570   5.920   5.480   3.238
 8891SOL     OW27571   3.309   1.876   6.368
 8891SOL    HW127572   3.346   1.954   6.418
 8891SOL    HW227573   3.250   1.909   6.294
 8892SOL     OW27574   0.973   0.624   3.757
 8892SOL    HW127575   1.023   0.592   3.837
 8892SOL    HW227576   1.034   0.626   3.677
 8893SOL     OW27577   6.900   0.752   0.471
 8893SOL    HW127578   6.994   0.787   0.472
 8893SOL    HW227579   6.883   0.704   0.557
 8894SOL     OW27580   5.121   3.217   5.472
 8894SOL    HW127581   5.157   3.310   5.477
 8894SOL    HW227582   5.128   3.183   5.378
 8895SOL     OW27583   0.634   1.224   3.205
 8895SOL    HW127584   0.661   1.308   3.250
 8895SOL    HW227585   0.610   1.155   3.274
 8896SOL     OW27586   1.667   4.116   4.157
 8896SOL    HW127587   1.612   4.140   4.077
 8896SOL    HW227588   1.761   4.096   4.129
 8897SOL     OW27589   0.190   1.344   2.391
 8897SOL    HW127590   0.209   1.256   2.347
 8897SOL    HW227591   0.222   1.340   2.486
 8898SOL     OW27592   1.542   2.211   4.983
 8898SOL    HW127593   1.630   2.195   4.937
 8898SOL    HW227594   1.544   2.169   5.074
 8899SOL     OW27595   4.114   6.823   3.219
 8899SOL    HW127596   4.089   6.909   3.174
 8899SOL    HW227597   4.057   6.749   3.183
 8900SOL     OW27598   6.353   1.951   3.876
 8900SOL    HW127599   6.253   1.949   3.882
 8900SOL    HW227600   6.381   1.960   3.780
 8901SOL     OW27601   0.936   6.895   2.062
 8901SOL    HW127602   0.845   6.919   2.029
 8901SOL    HW227603   0.931   6.813   2.119
 8902SOL     OW27604   4.528   6.898   5.707
 8902SOL    HW127605   4.436   6.897   5.667
 8902SOL    HW227606   4.579   6.976   5.671
 8903SOL     OW27607   6.039   1.972   3.159
 8903SOL    HW127608   6.023   1.880   3.123
 8903SOL    HW227609   6.110   1.968   3.230
 8904SOL     OW27610   2.422   4.386   4.037
 8904SOL    HW127611   2.366   4.464   4.007
 8904SOL    HW227612   2.402   4.364   4.132
 8905SOL     OW27613   1.886   4.113   4.926
 8905SOL    HW127614   1.972   4.146   4.966
 8905SOL    HW227615   1.896   4.016   4.901
 8906SOL     OW27616   1.641   4.836   4.338
 8906SOL    HW127617   1.642   4.936   4.339
 8906SOL    HW227618   1.547   4.805   4.326
 8907SOL     OW27619   3.865   2.894   0.014
 8907SOL    HW127620   3.825   2.858   6.952
 8907SOL    HW227621   3.878   2.992   0.006
 8908SOL     OW27622   1.170   2.699   2.991
 8908SOL    HW127623   1.232   2.762   2.944
 8908SOL    HW227624   1.142   2.740   3.078
 8909SOL     OW27625   3.577   6.959   4.579
 8909SOL    HW127626   3.546   6.985   4.671
 8909SOL    HW227627   3.604   6.863   4.579
 8910SOL     OW27628   4.329   2.842   6.700
 8910SOL    HW127629   4.292   2.814   6.788
 8910SOL    HW227630   4.411   2.899   6.714
 8911SOL     OW27631   5.128   3.935   5.087
 8911SOL    HW127632   5.060   3.947   5.015
 8911SOL    HW227633   5.081   3.919   5.174
 8912SOL     OW27634   3.774   1.339   0.384
 8912SOL    HW127635   3.847   1.407   0.379
 8912SOL    HW227636   3.803   1.263   0.442
 8913SOL     OW27637   3.896   3.360   1.679
 8913SOL    HW127638   3.940   3.286   1.628
 8913SOL    HW227639   3.955   3.441   1.678
 8914SOL     OW27640   5.897   4.775   3.180
 8914SOL    HW127641   5.835   4.770   3.102
 8914SOL    HW227642   5.938   4.867   3.184
 8915SOL     OW27643   1.339   5.565   1.859
 8915SOL    HW127644   1.366   5.531   1.949
 8915SOL    HW227645   1.292   5.653   1.870
 8916SOL     OW27646   5.314   2.540   1.037
 8916SOL    HW127647   5.345   2.587   1.121
 8916SOL    HW227648   5.237   2.590   0.998
 8917SOL     OW27649   5.618   4.121   5.847
 8917SOL    HW127650   5.677   4.185   5.896
 8917SOL    HW227651   5.596   4.043   5.907
 8918SOL     OW27652   5.126   4.480   5.604
 8918SOL    HW127653   5.060   4.498   5.531
 8918SOL    HW227654   5.091   4.409   5.665
 8919SOL     OW27655   1.812   3.315   1.005
 8919SOL    HW127656   1.891   3.275   1.052
 8919SOL    HW227657   1.809   3.414   1.024
 8920SOL     OW27658   5.958   5.509   5.663
 8920SOL    HW127659   5.887   5.495   5.595
 8920SOL    HW227660   5.983   5.420   5.703
 8921SOL     OW27661   0.352   5.405   3.140
 8921SOL    HW127662   0.355   5.459   3.224
 8921SOL    HW227663   0.322   5.464   3.064
 8922SOL     OW27664   1.031   3.110   0.458
 8922SOL    HW127665   0.979   3.130   0.375
 8922SOL    HW227666   1.017   3.184   0.524
 8923SOL     OW27667   2.491   5.296   4.469
 8923SOL    HW127668   2.476   5.305   4.370
 8923SOL    HW227669   2.419   5.238   4.508
 8924SOL     OW27670   2.022   6.395   4.566
 8924SOL    HW127671   2.067   6.360   4.484
 8924SOL    HW227672   2.079   6.466   4.608
 8925SOL     OW27673   4.243   5.419   1.459
 8925SOL    HW127674   4.203   5.341   1.410
 8925SOL    HW227675   4.188   5.501   1.441
 8926SOL     OW27676   5.496   6.528   0.316
 8926SOL    HW127677   5.485   6.440   0.362
 8926SOL    HW227678   5.513   6.513   0.218
 8927SOL     OW27679   2.785   1.992   5.363
 8927SOL    HW127680   2.694   1.984   5.323
 8927SOL    HW227681   2.815   2.087   5.357
 8928SOL     OW27682   1.368   0.376   6.078
 8928SOL    HW127683   1.450   0.428   6.100
 8928SOL    HW227684   1.374   0.342   5.985
 8929SOL     OW27685   4.962   4.061   3.282
 8929SOL    HW127686   4.895   4.112   3.228
 8929SOL    HW227687   4.968   4.100   3.374
 8930SOL     OW27688   0.658   5.466   5.116
 8930SOL    HW127689   0.649   5.450   5.214
 8930SOL    HW227690   0.575   5.434   5.070
 8931SOL     OW27691   5.487   0.884   1.544
 8931SOL    HW127692   5.495   0.944   1.465
 8931SOL    HW227693   5.421   0.921   1.608
 8932SOL     OW27694   3.494   0.723   6.346
 8932SOL    HW127695   3.565   0.734   6.416
 8932SOL    HW227696   3.411   0.685   6.387
 8933SOL     OW27697   1.763   0.339   5.639
 8933SOL    HW127698   1.848   0.379   5.605
 8933SOL    HW227699   1.685   0.388   5.600
 8934SOL     OW27700   2.174   6.240   3.139
 8934SOL    HW127701   2.104   6.269   3.073
 8934SOL    HW227702   2.252   6.302   3.133
 8935SOL     OW27703   4.804   2.333   1.999
 8935SOL    HW127704   4.749   2.251   2.011
 8935SOL    HW227705   4.900   2.313   2.019
 8936SOL     OW27706   0.950   3.371   2.405
 8936SOL    HW127707   0.872   3.384   2.343
 8936SOL    HW227708   1.025   3.432   2.377
 8937SOL     OW27709   3.460   6.009   5.170
 8937SOL    HW127710   3.379   5.975   5.122
 8937SOL    HW227711   3.438   6.026   5.266
 8938SOL     OW27712   4.679   6.486   2.334
 8938SOL    HW127713   4.586   6.466   2.365
 8938SOL    HW227714   4.745   6.453   2.401
 8939SOL     OW27715   6.984   3.628   5.675
 8939SOL    HW127716   6.934   3.645   5.590
 8939SOL    HW227717   6.951   3.543   5.717
 8940SOL     OW27718   6.043   4.047   2.738
 8940SOL    HW127719   5.997   4.107   2.673
 8940SOL    HW227720   6.040   3.953   2.704
 8941SOL     OW27721   5.919   2.716   4.156
 8941SOL    HW127722   5.900   2.653   4.232
 8941SOL    HW227723   5.938   2.807   4.192
 8942SOL     OW27724   5.014   6.724   4.269
 8942SOL    HW127725   4.939   6.746   4.331
 8942SOL    HW227726   4.979   6.676   4.189
 8943SOL     OW27727   4.355   3.264   0.470
 8943SOL    HW127728   4.441   3.266   0.522
 8943SOL    HW227729   4.304   3.348   0.487
 8944SOL     OW27730   4.233   5.847   5.958
 8944SOL    HW127731   4.230   5.769   6.019
 8944SOL    HW227732   4.328   5.874   5.942
 8945SOL     OW27733   6.372   4.160   2.145
 8945SOL    HW127734   6.398   4.254   2.167
 8945SOL    HW227735   6.397   4.140   2.050
 8946SOL     OW27736   4.000   1.901   3.585
 8946SOL    HW127737   3.926   1.968   3.579
 8946SOL    HW227738   4.052   1.916   3.669
 8947SOL     OW27739   3.273   5.479   0.099
 8947SOL    HW127740   3.259   5.448   0.005
 8947SOL    HW227741   3.371   5.481   0.119
 8948SOL     OW27742   5.690   6.537   3.222
 8948SOL    HW127743   5.697   6.575   3.130
 8948SOL    HW227744   5.677   6.611   3.288
 8949SOL     OW27745   3.631   6.276   0.734
 8949SOL    HW127746   3.693   6.316   0.667
 8949SOL    HW227747   3.683   6.247   0.815
 8950SOL     OW27748   3.418   3.394   3.634
 8950SOL    HW127749   3.482   3.351   3.698
 8950SOL    HW227750   3.388   3.326   3.567
 8951SOL     OW27751   0.867   0.676   4.074
 8951SOL    HW127752   0.928   0.744   4.115
 8951SOL    HW227753   0.910   0.586   4.078
 8952SOL     OW27754   1.757   4.030   4.438
 8952SOL    HW127755   1.819   4.069   4.505
 8952SOL    HW227756   1.746   4.093   4.361
 8953SOL     OW27757   2.151   5.312   0.863
 8953SOL    HW127758   2.106   5.263   0.788
 8953SOL    HW227759   2.239   5.348   0.831
 8954SOL     OW27760   2.106   3.735   5.385
 8954SOL    HW127761   2.010   3.744   5.411
 8954SOL    HW227762   2.114   3.734   5.286
 8955SOL     OW27763   6.743   2.525   6.385
 8955SOL    HW127764   6.792   2.512   6.471
 8955SOL    HW227765   6.798   2.582   6.324
 8956SOL     OW27766   1.115   6.501   1.081
 8956SOL    HW127767   1.053   6.489   1.004
 8956SOL    HW227768   1.147   6.412   1.113
 8957SOL     OW27769   0.288   0.144   4.134
 8957SOL    HW127770   0.204   0.191   4.160
 8957SOL    HW227771   0.364   0.209   4.136
 8958SOL     OW27772   0.213   3.092   4.736
 8958SOL    HW127773   0.308   3.088   4.704
 8958SOL    HW227774   0.152   3.102   4.657
 8959SOL     OW27775   5.848   1.633   3.612
 8959SOL    HW127776   5.759   1.592   3.634
 8959SOL    HW227777   5.920   1.566   3.625
 8960SOL     OW27778   3.589   0.028   1.474
 8960SOL    HW127779   3.674   0.063   1.435
 8960SOL    HW227780   3.521   0.019   1.402
 8961SOL     OW27781   1.980   2.553   5.483
 8961SOL    HW127782   2.070   2.513   5.499
 8961SOL    HW227783   1.981   2.606   5.398
 8962SOL     OW27784   6.848   5.656   0.608
 8962SOL    HW127785   6.922   5.602   0.566
 8962SOL    HW227786   6.883   5.747   0.631
 8963SOL     OW27787   2.404   4.966   5.253
 8963SOL    HW127788   2.326   4.931   5.199
 8963SOL    HW227789   2.425   4.901   5.326
 8964SOL     OW27790   1.754   3.591   3.971
 8964SOL    HW127791   1.849   3.622   3.976
 8964SOL    HW227792   1.749   3.495   3.999
 8965SOL     OW27793   3.059   6.847   6.434
 8965SOL    HW127794   3.055   6.904   6.352
 8965SOL    HW227795   3.076   6.752   6.407
 8966SOL     OW27796   3.919   6.846   5.290
 8966SOL    HW127797   4.015   6.819   5.300
 8966SOL    HW227798   3.912   6.920   5.223
 8967SOL     OW27799   2.183   6.778   2.893
 8967SOL    HW127800   2.119   6.701   2.901
 8967SOL    HW227801   2.277   6.742   2.890
 8968SOL     OW27802   2.885   5.529   2.685
 8968SOL    HW127803   2.950   5.603   2.697
 8968SOL    HW227804   2.897   5.460   2.756
 8969SOL     OW27805   6.759   0.390   0.996
 8969SOL    HW127806   6.758   0.465   0.930
 8969SOL    HW227807   6.852   0.375   1.029
 8970SOL     OW27808   2.806   1.954   4.650
 8970SOL    HW127809   2.768   2.005   4.727
 8970SOL    HW227810   2.813   2.014   4.570
 8971SOL     OW27811   2.468   5.905   1.208
 8971SOL    HW127812   2.440   5.940   1.119
 8971SOL    HW227813   2.565   5.923   1.222
 8972SOL     OW27814   6.704   4.486   0.447
 8972SOL    HW127815   6.712   4.547   0.526
 8972SOL    HW227816   6.764   4.519   0.374
 8973SOL     OW27817   2.784   1.948   3.138
 8973SOL    HW127818   2.882   1.944   3.158
 8973SOL    HW227819   2.759   1.873   3.076
 8974SOL     OW27820   0.816   4.745   5.526
 8974SOL    HW127821   0.867   4.739   5.440
 8974SOL    HW227822   0.810   4.654   5.567
 8975SOL     OW27823   1.063   3.960   6.646
 8975SOL    HW127824   1.080   3.869   6.684
 8975SOL    HW227825   1.012   4.015   6.712
 8976SOL     OW27826   5.646   6.804   1.532
 8976SOL    HW127827   5.687   6.895   1.520
 8976SOL    HW227828   5.612   6.795   1.626
 8977SOL     OW27829   1.142   5.339   6.414
 8977SOL    HW127830   1.098   5.375   6.332
 8977SOL    HW227831   1.158   5.241   6.403
 8978SOL     OW27832   6.595   4.732   4.936
 8978SOL    HW127833   6.583   4.716   5.034
 8978SOL    HW227834   6.605   4.645   4.889
 8979SOL     OW27835   1.940   4.946   3.148
 8979SOL    HW127836   1.915   4.850   3.159
 8979SOL    HW227837   1.997   4.975   3.225
 8980SOL     OW27838   4.771   1.361   6.342
 8980SOL    HW127839   4.832   1.416   6.399
 8980SOL    HW227840   4.809   1.354   6.249
 8981SOL     OW27841   3.702   2.461   6.982
 8981SOL    HW127842   3.639   2.530   7.017
 8981SOL    HW227843   3.703   2.383   0.022
 8982SOL     OW27844   0.327   1.066   3.604
 8982SOL    HW127845   0.343   0.969   3.626
 8982SOL    HW227846   0.228   1.084   3.607
 8983SOL     OW27847   1.261   0.010   2.404
 8983SOL    HW127848   1.177   6.978   2.411
 8983SOL    HW227849   1.238   0.106   2.390
 8984SOL     OW27850   6.465   0.960   3.666
 8984SOL    HW127851   6.505   0.872   3.693
 8984SOL    HW227852   6.528   1.034   3.691
 8985SOL     OW27853   5.610   0.319   0.043
 8985SOL    HW127854   5.670   0.306   6.987
 8985SOL    HW227855   5.543   0.391   0.022
 8986SOL     OW27856   1.078   0.077   6.381
 8986SOL    HW127857   1.064   0.074   6.480
 8986SOL    HW227858   1.002   0.031   6.335
 8987SOL     OW27859   3.204   6.420   3.258
 8987SOL    HW127860   3.113   6.460   3.267
 8987SOL    HW227861   3.232   6.380   3.346
 8988SOL     OW27862   2.130   6.271   1.839
 8988SOL    HW127863   2.074   6.297   1.760
 8988SOL    HW227864   2.186   6.192   1.815
 8989SOL     OW27865   6.301   1.685   2.173
 8989SOL    HW127866   6.356   1.604   2.193
 8989SOL    HW227867   6.245   1.709   2.252
 8990SOL     OW27868   3.798   1.769   3.107
 8990SOL    HW127869   3.713   1.755   3.157
 8990SOL    HW227870   3.852   1.841   3.152
 8991SOL     OW27871   1.347   2.161   1.259
 8991SOL    HW127872   1.298   2.151   1.172
 8991SOL    HW227873   1.342   2.256   1.289
 8992SOL     OW27874   0.753   5.303   4.484
 8992SOL    HW127875   0.723   5.222   4.534
 8992SOL    HW227876   0.853   5.309   4.489
 8993SOL     OW27877   5.413   4.607   3.737
 8993SOL    HW127878   5.378   4.628   3.645
 8993SOL    HW227879   5.346   4.636   3.805
 8994SOL     OW27880   1.221   6.205   2.985
 8994SOL    HW127881   1.215   6.125   3.046
 8994SOL    HW227882   1.157   6.275   3.016
 8995SOL     OW27883   1.658   3.829   2.760
 8995SOL    HW127884   1.740   3.842   2.816
 8995SOL    HW227885   1.601   3.757   2.800
 8996SOL     OW27886   3.343   4.054   1.497
 8996SOL    HW127887   3.331   4.139   1.550
 8996SOL    HW227888   3.273   4.050   1.426
 8997SOL     OW27889   4.492   1.238   4.957
 8997SOL    HW127890   4.442   1.312   5.003
 8997SOL    HW227891   4.436   1.155   4.956
 8998SOL     OW27892   1.019   1.601   5.767
 8998SOL    HW127893   0.923   1.608   5.793
 8998SOL    HW227894   1.061   1.524   5.815
 8999SOL     OW27895   0.082   2.830   5.320
 8999SOL    HW127896   0.117   2.760   5.381
 8999SOL    HW227897   0.148   2.847   5.247
 9000SOL     OW27898   4.012   5.056   1.554
 9000SOL    HW127899   4.005   4.970   1.504
 9000SOL    HW227900   3.966   5.128   1.502
 9001SOL     OW27901   1.624   3.279   3.709
 9001SOL    HW127902   1.591   3.296   3.802
 9001SOL    HW227903   1.591   3.190   3.677
 9002SOL     OW27904   4.948   3.245   6.853
 9002SOL    HW127905   5.027   3.254   6.792
 9002SOL    HW227906   4.978   3.255   6.948
 9003SOL     OW27907   0.386   3.603   0.380
 9003SOL    HW127908   0.314   3.670   0.366
 9003SOL    HW227909   0.396   3.584   0.478
 9004SOL     OW27910   5.580   5.766   0.922
 9004SOL    HW127911   5.492   5.814   0.928
 9004SOL    HW227912   5.651   5.830   0.892
 9005SOL     OW27913   4.683   4.232   4.188
 9005SOL    HW127914   4.692   4.269   4.095
 9005SOL    HW227915   4.761   4.174   4.209
 9006SOL     OW27916   3.452   6.344   2.894
 9006SOL    HW127917   3.433   6.440   2.915
 9006SOL    HW227918   3.539   6.317   2.936
 9007SOL     OW27919   2.007   0.615   5.436
 9007SOL    HW127920   2.013   0.673   5.355
 9007SOL    HW227921   1.997   0.672   5.518
 9008SOL     OW27922   6.738   5.213   1.884
 9008SOL    HW127923   6.821   5.253   1.922
 9008SOL    HW227924   6.750   5.115   1.873
 9009SOL     OW27925   4.222   6.626   0.022
 9009SOL    HW127926   4.133   6.664   7.018
 9009SOL    HW227927   4.281   6.621   6.963
 9010SOL     OW27928   6.753   6.365   4.641
 9010SOL    HW127929   6.843   6.357   4.599
 9010SOL    HW227930   6.683   6.368   4.570
 9011SOL     OW27931   4.619   2.553   2.267
 9011SOL    HW127932   4.568   2.521   2.187
 9011SOL    HW227933   4.686   2.621   2.239
 9012SOL     OW27934   3.926   4.858   2.107
 9012SOL    HW127935   3.953   4.823   2.018
 9012SOL    HW227936   4.007   4.869   2.165
 9013SOL     OW27937   2.887   6.011   1.114
 9013SOL    HW127938   2.843   6.001   1.204
 9013SOL    HW227939   2.948   6.090   1.115
 9014SOL     OW27940   2.328   1.971   2.393
 9014SOL    HW127941   2.341   1.993   2.297
 9014SOL    HW227942   2.404   2.007   2.447
 9015SOL     OW27943   6.245   2.311   4.906
 9015SOL    HW127944   6.169   2.308   4.971
 9015SOL    HW227945   6.246   2.400   4.861
 9016SOL     OW27946   0.278   4.840   0.495
 9016SOL    HW127947   0.251   4.929   0.533
 9016SOL    HW227948   0.311   4.781   0.568
 9017SOL     OW27949   6.238   3.023   2.143
 9017SOL    HW127950   6.208   2.927   2.144
 9017SOL    HW227951   6.163   3.081   2.110
 9018SOL     OW27952   5.581   2.309   6.626
 9018SOL    HW127953   5.629   2.236   6.674
 9018SOL    HW227954   5.555   2.380   6.691
 9019SOL     OW27955   1.751   5.671   0.233
 9019SOL    HW127956   1.801   5.600   0.283
 9019SOL    HW227957   1.665   5.633   0.198
 9020SOL     OW27958   0.727   5.063   4.612
 9020SOL    HW127959   0.799   4.994   4.621
 9020SOL    HW227960   0.657   5.031   4.549
 9021SOL     OW27961   6.717   5.533   5.094
 9021SOL    HW127962   6.732   5.588   5.012
 9021SOL    HW227963   6.744   5.438   5.077
 9022SOL     OW27964   0.928   6.854   5.423
 9022SOL    HW127965   0.959   6.948   5.435
 9022SOL    HW227966   1.006   6.797   5.395
 9023SOL     OW27967   3.273   3.600   4.479
 9023SOL    HW127968   3.176   3.588   4.500
 9023SOL    HW227969   3.305   3.686   4.521
 9024SOL     OW27970   1.441   0.543   0.662
 9024SOL    HW127971   1.388   0.478   0.609
 9024SOL    HW227972   1.382   0.587   0.730
 9025SOL     OW27973   0.226   2.713   0.283
 9025SOL    HW127974   0.252   2.808   0.303
 9025SOL    HW227975   0.268   2.652   0.350
 9026SOL     OW27976   2.795   4.483   6.229
 9026SOL    HW127977   2.729   4.533   6.173
 9026SOL    HW227978   2.749   4.448   6.310
 9027SOL     OW27979   1.216   3.269   1.790
 9027SOL    HW127980   1.163   3.354   1.783
 9027SOL    HW227981   1.162   3.200   1.837
 9028SOL     OW27982   1.836   3.742   5.093
 9028SOL    HW127983   1.836   3.642   5.094
 9028SOL    HW227984   1.742   3.775   5.097
 9029SOL     OW27985   4.579   5.252   2.759
 9029SOL    HW127986   4.505   5.302   2.804
 9029SOL    HW227987   4.654   5.238   2.823
 9030SOL     OW27988   5.247   2.669   2.066
 9030SOL    HW127989   5.166   2.720   2.038
 9030SOL    HW227990   5.329   2.723   2.048
 9031SOL     OW27991   2.242   0.662   2.785
 9031SOL    HW127992   2.260   0.758   2.809
 9031SOL    HW227993   2.163   0.629   2.836
 9032SOL     OW27994   0.657   3.919   3.294
 9032SOL    HW127995   0.664   3.819   3.302
 9032SOL    HW227996   0.720   3.962   3.358
 9033SOL     OW27997   0.652   2.720   2.442
 9033SOL    HW127998   0.727   2.717   2.508
 9033SOL    HW227999   0.590   2.794   2.466
 9034SOL     OW28000   1.257   6.261   1.144
 9034SOL    HW128001   1.186   6.206   1.189
 9034SOL    HW228002   1.334   6.272   1.206
 9035SOL     OW28003   5.972   1.653   4.232
 9035SOL    HW128004   6.070   1.652   4.251
 9035SOL    HW228005   5.922   1.632   4.315
 9036SOL     OW28006   0.109   1.902   4.121
 9036SOL    HW128007   0.062   1.985   4.152
 9036SOL    HW228008   0.147   1.854   4.200
 9037SOL     OW28009   3.030   4.047   6.458
 9037SOL    HW128010   3.053   4.037   6.361
 9037SOL    HW228011   2.930   4.047   6.469
 9038SOL     OW28012   4.029   6.219   5.629
 9038SOL    HW128013   4.084   6.170   5.560
 9038SOL    HW228014   3.939   6.176   5.636
 9039SOL     OW28015   2.575   4.929   0.236
 9039SOL    HW128016   2.615   4.855   0.182
 9039SOL    HW228017   2.476   4.931   0.223
 9040SOL     OW28018   3.991   1.425   2.272
 9040SOL    HW128019   4.024   1.475   2.352
 9040SOL    HW228020   3.928   1.354   2.301
 9041SOL     OW28021   2.417   2.722   5.148
 9041SOL    HW128022   2.319   2.707   5.131
 9041SOL    HW228023   2.432   2.818   5.173
 9042SOL     OW28024   1.274   5.085   2.558
 9042SOL    HW128025   1.307   4.993   2.577
 9042SOL    HW228026   1.209   5.113   2.629
 9043SOL     OW28027   0.757   1.512   6.410
 9043SOL    HW128028   0.679   1.451   6.394
 9043SOL    HW228029   0.730   1.583   6.476
 9044SOL     OW28030   0.411   4.361   1.239
 9044SOL    HW128031   0.383   4.413   1.158
 9044SOL    HW228032   0.360   4.395   1.318
 9045SOL     OW28033   1.585   4.755   5.118
 9045SOL    HW128034   1.539   4.666   5.112
 9045SOL    HW228035   1.607   4.786   5.026
 9046SOL     OW28036   4.388   4.539   5.824
 9046SOL    HW128037   4.415   4.442   5.829
 9046SOL    HW228038   4.289   4.545   5.811
 9047SOL     OW28039   0.528   5.285   4.104
 9047SOL    HW128040   0.485   5.375   4.110
 9047SOL    HW228041   0.528   5.242   4.194
 9048SOL     OW28042   1.131   1.786   5.568
 9048SOL    HW128043   1.231   1.779   5.566
 9048SOL    HW228044   1.094   1.718   5.631
 9049SOL     OW28045   4.237   5.387   5.811
 9049SOL    HW128046   4.310   5.454   5.798
 9049SOL    HW228047   4.243   5.350   5.904
 9050SOL     OW28048   0.587   3.372   6.951
 9050SOL    HW128049   0.565   3.384   6.854
 9050SOL    HW228050   0.509   3.399   7.006
 9051SOL     OW28051   0.194   5.994   6.595
 9051SOL    HW128052   0.102   6.005   6.633
 9051SOL    HW228053   0.235   6.084   6.583
 9052SOL     OW28054   2.059   4.602   4.216
 9052SOL    HW128055   2.055   4.545   4.299
 9052SOL    HW228056   2.052   4.699   4.242
 9053SOL     OW28057   0.747   0.548   3.049
 9053SOL    HW128058   0.664   0.597   3.022
 9053SOL    HW228059   0.746   0.456   3.009
 9054SOL     OW28060   1.194   6.963   1.411
 9054SOL    HW128061   1.187   6.965   1.510
 9054SOL    HW228062   1.102   6.967   1.371
 9055SOL     OW28063   1.483   3.036   5.485
 9055SOL    HW128064   1.544   3.043   5.564
 9055SOL    HW228065   1.484   3.123   5.435
 9056SOL     OW28066   5.257   2.406   1.985
 9056SOL    HW128067   5.271   2.504   1.998
 9056SOL    HW228068   5.280   2.358   2.069
 9057SOL     OW28069   3.493   0.329   5.974
 9057SOL    HW128070   3.414   0.378   6.010
 9057SOL    HW228071   3.515   0.362   5.883
 9058SOL     OW28072   2.292   2.802   3.479
 9058SOL    HW128073   2.366   2.749   3.439
 9058SOL    HW228074   2.204   2.757   3.460
 9059SOL     OW28075   0.604   0.009   2.344
 9059SOL    HW128076   0.689   7.002   2.388
 9059SOL    HW228077   0.614   0.004   2.245
 9060SOL     OW28078   0.624   4.889   0.182
 9060SOL    HW128079   0.528   4.860   0.183
 9060SOL    HW228080   0.664   4.874   0.272
 9061SOL     OW28081   3.636   4.953   2.813
 9061SOL    HW128082   3.734   4.970   2.821
 9061SOL    HW228083   3.601   4.918   2.900
 9062SOL     OW28084   6.541   5.940   3.075
 9062SOL    HW128085   6.581   5.961   3.164
 9062SOL    HW228086   6.580   5.854   3.040
 9063SOL     OW28087   5.930   6.295   1.185
 9063SOL    HW128088   6.016   6.289   1.136
 9063SOL    HW228089   5.887   6.204   1.188
 9064SOL     OW28090   1.413   6.278   3.829
 9064SOL    HW128091   1.375   6.299   3.919
 9064SOL    HW228092   1.445   6.183   3.828
 9065SOL     OW28093   3.316   4.080   6.905
 9065SOL    HW128094   3.299   4.026   6.987
 9065SOL    HW228095   3.289   4.027   6.824
 9066SOL     OW28096   5.438   5.215   4.018
 9066SOL    HW128097   5.530   5.191   4.049
 9066SOL    HW228098   5.436   5.311   3.991
 9067SOL     OW28099   2.068   0.237   3.807
 9067SOL    HW128100   1.994   0.183   3.767
 9067SOL    HW228101   2.145   0.241   3.744
 9068SOL     OW28102   5.447   0.686   4.294
 9068SOL    HW128103   5.361   0.685   4.344
 9068SOL    HW228104   5.515   0.630   4.342
 9069SOL     OW28105   4.384   2.702   1.061
 9069SOL    HW128106   4.317   2.764   1.019
 9069SOL    HW228107   4.340   2.653   1.138
 9070SOL     OW28108   0.598   0.585   6.358
 9070SOL    HW128109   0.611   0.548   6.266
 9070SOL    HW228110   0.641   0.524   6.425
 9071SOL     OW28111   5.473   2.254   0.269
 9071SOL    HW128112   5.410   2.328   0.293
 9071SOL    HW228113   5.452   2.174   0.326
 9072SOL     OW28114   5.756   0.819   1.572
 9072SOL    HW128115   5.767   0.720   1.559
 9072SOL    HW228116   5.660   0.840   1.591
 9073SOL     OW28117   4.935   3.028   6.440
 9073SOL    HW128118   4.878   3.023   6.358
 9073SOL    HW228119   4.945   2.936   6.479
 9074SOL     OW28120   2.100   0.125   2.991
 9074SOL    HW128121   2.107   0.124   2.891
 9074SOL    HW228122   2.003   0.121   3.018
 9075SOL     OW28123   4.979   5.648   1.120
 9075SOL    HW128124   4.924   5.673   1.041
 9075SOL    HW228125   5.076   5.666   1.101
 9076SOL     OW28126   0.933   0.058   2.261
 9076SOL    HW128127   0.872   0.137   2.274
 9076SOL    HW228128   0.914   0.015   2.172
 9077SOL     OW28129   6.223   0.267   0.050
 9077SOL    HW128130   6.292   0.202   0.081
 9077SOL    HW228131   6.185   0.316   0.129
 9078SOL     OW28132   5.080   6.520   6.720
 9078SOL    HW128133   5.087   6.599   6.781
 9078SOL    HW228134   5.031   6.446   6.767
 9079SOL     OW28135   3.070   1.274   6.460
 9079SOL    HW128136   2.996   1.311   6.403
 9079SOL    HW228137   3.054   1.299   6.556
 9080SOL     OW28138   6.643   4.912   1.152
 9080SOL    HW128139   6.655   4.852   1.231
 9080SOL    HW228140   6.600   4.861   1.077
 9081SOL     OW28141   5.213   1.909   6.158
 9081SOL    HW128142   5.227   1.976   6.230
 9081SOL    HW228143   5.279   1.924   6.085
 9082SOL     OW28144   2.847   4.578   6.580
 9082SOL    HW128145   2.757   4.578   6.536
 9082SOL    HW228146   2.900   4.500   6.547
 9083SOL     OW28147   3.512   0.277   0.846
 9083SOL    HW128148   3.589   0.277   0.909
 9083SOL    HW228149   3.530   0.340   0.771
 9084SOL     OW28150   0.543   4.522   4.180
 9084SOL    HW128151   0.559   4.552   4.274
 9084SOL    HW228152   0.447   4.498   4.169
 9085SOL     OW28153   3.274   4.893   2.333
 9085SOL    HW128154   3.186   4.849   2.319
 9085SOL    HW228155   3.293   4.898   2.431
 9086SOL     OW28156   0.446   1.575   0.091
 9086SOL    HW128157   0.390   1.645   0.047
 9086SOL    HW228158   0.424   1.573   0.189
 9087SOL     OW28159   4.622   1.749   0.219
 9087SOL    HW128160   4.672   1.712   0.141
 9087SOL    HW228161   4.546   1.688   0.242
 9088SOL     OW28162   5.811   6.356   0.747
 9088SOL    HW128163   5.812   6.283   0.679
 9088SOL    HW228164   5.761   6.326   0.828
 9089SOL     OW28165   4.819   4.890   3.242
 9089SOL    HW128166   4.864   4.972   3.206
 9089SOL    HW228167   4.784   4.909   3.334
 9090SOL     OW28168   6.325   4.488   5.072
 9090SOL    HW128169   6.383   4.513   5.150
 9090SOL    HW228170   6.232   4.521   5.088
 9091SOL     OW28171   1.837   1.811   2.176
 9091SOL    HW128172   1.825   1.865   2.092
 9091SOL    HW228173   1.901   1.858   2.237
 9092SOL     OW28174   3.578   2.029   5.025
 9092SOL    HW128175   3.567   2.066   4.932
 9092SOL    HW228176   3.502   1.967   5.045
 9093SOL     OW28177   1.364   4.125   1.116
 9093SOL    HW128178   1.283   4.093   1.165
 9093SOL    HW228179   1.438   4.140   1.181
 9094SOL     OW28180   0.662   2.635   6.622
 9094SOL    HW128181   0.620   2.577   6.692
 9094SOL    HW228182   0.736   2.688   6.662
 9095SOL     OW28183   2.854   2.580   1.291
 9095SOL    HW128184   2.950   2.554   1.303
 9095SOL    HW228185   2.840   2.672   1.326
 9096SOL     OW28186   0.217   4.136   3.649
 9096SOL    HW128187   0.138   4.075   3.652
 9096SOL    HW228188   0.277   4.109   3.574
 9097SOL     OW28189   6.852   5.843   5.700
 9097SOL    HW128190   6.863   5.942   5.695
 9097SOL    HW228191   6.861   5.813   5.795
 9098SOL     OW28192   2.954   3.146   6.075
 9098SOL    HW128193   2.923   3.158   6.169
 9098SOL    HW228194   2.899   3.202   6.014
 9099SOL     OW28195   2.098   2.720   6.153
 9099SOL    HW128196   2.109   2.818   6.167
 9099SOL    HW228197   2.020   2.687   6.207
 9100SOL     OW28198   1.493   1.524   0.783
 9100SOL    HW128199   1.417   1.475   0.741
 9100SOL    HW228200   1.526   1.594   0.719
 9101SOL     OW28201   2.583   1.799   0.414
 9101SOL    HW128202   2.639   1.716   0.421
 9101SOL    HW228203   2.636   1.877   0.448
 9102SOL     OW28204   4.229   5.795   2.469
 9102SOL    HW128205   4.296   5.726   2.445
 9102SOL    HW228206   4.276   5.880   2.494
 9103SOL     OW28207   1.540   3.883   6.391
 9103SOL    HW128208   1.624   3.932   6.368
 9103SOL    HW228209   1.462   3.946   6.383
 9104SOL     OW28210   4.673   6.864   2.784
 9104SOL    HW128211   4.678   6.821   2.874
 9104SOL    HW228212   4.612   6.943   2.788
 9105SOL     OW28213   3.441   2.176   6.158
 9105SOL    HW128214   3.486   2.139   6.076
 9105SOL    HW228215   3.362   2.231   6.130
 9106SOL     OW28216   6.689   5.570   1.523
 9106SOL    HW128217   6.710   5.544   1.617
 9106SOL    HW228218   6.678   5.669   1.518
 9107SOL     OW28219   4.797   6.767   6.769
 9107SOL    HW128220   4.724   6.720   6.817
 9107SOL    HW228221   4.839   6.705   6.703
 9108SOL     OW28222   3.588   5.771   0.281
 9108SOL    HW128223   3.492   5.788   0.300
 9108SOL    HW228224   3.618   5.827   0.204
 9109SOL     OW28225   3.556   1.556   4.372
 9109SOL    HW128226   3.514   1.533   4.460
 9109SOL    HW228227   3.492   1.535   4.298
 9110SOL     OW28228   0.467   3.737   3.482
 9110SOL    HW128229   0.533   3.701   3.548
 9110SOL    HW228230   0.505   3.731   3.390
 9111SOL     OW28231   3.630   4.416   1.640
 9111SOL    HW128232   3.605   4.495   1.696
 9111SOL    HW228233   3.625   4.440   1.543
 9112SOL     OW28234   0.936   6.472   2.469
 9112SOL    HW128235   1.034   6.454   2.458
 9112SOL    HW228236   0.905   6.533   2.396
 9113SOL     OW28237   2.131   6.928   1.223
 9113SOL    HW128238   2.105   6.831   1.224
 9113SOL    HW228239   2.078   6.976   1.154
 9114SOL     OW28240   3.170   3.488   2.276
 9114SOL    HW128241   3.193   3.461   2.183
 9114SOL    HW228242   3.252   3.520   2.323
 9115SOL     OW28243   1.411   4.638   3.996
 9115SOL    HW128244   1.345   4.625   4.070
 9115SOL    HW228245   1.467   4.556   3.987
 9116SOL     OW28246   3.481   2.612   0.058
 9116SOL    HW128247   3.479   2.694   0.001
 9116SOL    HW228248   3.388   2.577   0.068
 9117SOL     OW28249   1.427   2.688   0.480
 9117SOL    HW128250   1.356   2.737   0.429
 9117SOL    HW228251   1.512   2.741   0.478
 9118SOL     OW28252   0.409   6.575   1.750
 9118SOL    HW128253   0.488   6.579   1.688
 9118SOL    HW228254   0.433   6.519   1.830
 9119SOL     OW28255   6.184   0.096   0.615
 9119SOL    HW128256   6.204   0.002   0.588
 9119SOL    HW228257   6.268   0.150   0.610
 9120SOL     OW28258   6.160   6.748   6.271
 9120SOL    HW128259   6.215   6.673   6.233
 9120SOL    HW228260   6.158   6.740   6.371
 9121SOL     OW28261   1.152   0.659   5.908
 9121SOL    HW128262   1.100   0.635   5.990
 9121SOL    HW228263   1.127   0.751   5.879
 9122SOL     OW28264   6.675   3.572   1.343
 9122SOL    HW128265   6.578   3.559   1.362
 9122SOL    HW228266   6.714   3.636   1.410
 9123SOL     OW28267   1.260   0.163   5.250
 9123SOL    HW128268   1.247   0.166   5.151
 9123SOL    HW228269   1.324   0.090   5.273
 9124SOL     OW28270   0.297   3.966   5.266
 9124SOL    HW128271   0.240   3.960   5.348
 9124SOL    HW228272   0.238   3.971   5.185
 9125SOL     OW28273   4.863   5.997   1.606
 9125SOL    HW128274   4.867   6.096   1.608
 9125SOL    HW228275   4.954   5.959   1.626
 9126SOL     OW28276   5.132   0.874   3.362
 9126SOL    HW128277   5.202   0.806   3.384
 9126SOL    HW228278   5.166   0.965   3.385
 9127SOL     OW28279   5.717   5.062   5.748
 9127SOL    HW128280   5.689   5.105   5.662
 9127SOL    HW228281   5.638   5.054   5.809
 9128SOL     OW28282   4.798   2.915   5.015
 9128SOL    HW128283   4.711   2.896   5.061
 9128SOL    HW228284   4.823   2.837   4.958
 9129SOL     OW28285   3.445   0.938   0.822
 9129SOL    HW128286   3.373   1.005   0.807
 9129SOL    HW228287   3.436   0.897   0.912
 9130SOL     OW28288   5.797   5.555   1.515
 9130SOL    HW128289   5.809   5.645   1.473
 9130SOL    HW228290   5.759   5.566   1.607
 9131SOL     OW28291   0.828   4.585   3.596
 9131SOL    HW128292   0.901   4.652   3.610
 9131SOL    HW228293   0.849   4.502   3.648
 9132SOL     OW28294   1.197   3.214   4.155
 9132SOL    HW128295   1.194   3.176   4.063
 9132SOL    HW228296   1.105   3.223   4.191
 9133SOL     OW28297   1.847   5.223   1.023
 9133SOL    HW128298   1.754   5.202   1.052
 9133SOL    HW228299   1.861   5.322   1.025
 9134SOL     OW28300   3.281   5.082   6.165
 9134SOL    HW128301   3.311   5.009   6.227
 9134SOL    HW228302   3.197   5.054   6.118
 9135SOL     OW28303   0.899   0.116   2.669
 9135SOL    HW128304   0.998   0.130   2.674
 9135SOL    HW228305   0.853   0.203   2.687
 9136SOL     OW28306   3.735   5.146   5.966
 9136SOL    HW128307   3.833   5.144   5.988
 9136SOL    HW228308   3.690   5.218   6.019
 9137SOL     OW28309   3.074   0.127   2.686
 9137SOL    HW128310   3.094   0.216   2.645
 9137SOL    HW228311   3.093   0.130   2.784
 9138SOL     OW28312   3.882   4.336   1.310
 9138SOL    HW128313   3.966   4.317   1.361
 9138SOL    HW228314   3.906   4.367   1.218
 9139SOL     OW28315   4.495   0.819   5.677
 9139SOL    HW128316   4.534   0.753   5.741
 9139SOL    HW228317   4.435   0.772   5.613
 9140SOL     OW28318   6.775   2.127   4.024
 9140SOL    HW128319   6.794   2.168   3.934
 9140SOL    HW228320   6.678   2.137   4.045
 9141SOL     OW28321   5.119   1.610   4.863
 9141SOL    HW128322   5.120   1.521   4.818
 9141SOL    HW228323   5.117   1.683   4.795
 9142SOL     OW28324   1.513   2.842   6.872
 9142SOL    HW128325   1.559   2.842   6.783
 9142SOL    HW228326   1.419   2.811   6.861
 9143SOL     OW28327   6.658   3.866   1.192
 9143SOL    HW128328   6.651   3.788   1.254
 9143SOL    HW228329   6.660   3.833   1.097
 9144SOL     OW28330   1.421   5.882   4.238
 9144SOL    HW128331   1.413   5.928   4.149
 9144SOL    HW228332   1.509   5.834   4.242
 9145SOL     OW28333   1.571   2.750   0.170
 9145SOL    HW128334   1.569   2.775   0.267
 9145SOL    HW228335   1.548   2.830   0.114
 9146SOL     OW28336   0.426   1.360   2.155
 9146SOL    HW128337   0.445   1.393   2.062
 9146SOL    HW228338   0.510   1.322   2.194
 9147SOL     OW28339   4.017   5.059   6.526
 9147SOL    HW128340   3.919   5.053   6.507
 9147SOL    HW228341   4.053   4.966   6.538
 9148SOL     OW28342   3.635   5.207   3.119
 9148SOL    HW128343   3.643   5.107   3.122
 9148SOL    HW228344   3.549   5.234   3.162
 9149SOL     OW28345   6.147   3.751   4.566
 9149SOL    HW128346   6.107   3.820   4.505
 9149SOL    HW228347   6.092   3.668   4.562
 9150SOL     OW28348   3.668   0.983   3.115
 9150SOL    HW128349   3.715   1.033   3.043
 9150SOL    HW228350   3.583   0.944   3.080
 9151SOL     OW28351   6.049   3.733   2.009
 9151SOL    HW128352   5.983   3.721   2.083
 9151SOL    HW228353   6.010   3.789   1.937
 9152SOL     OW28354   2.078   4.243   2.578
 9152SOL    HW128355   2.049   4.337   2.560
 9152SOL    HW228356   2.143   4.242   2.655
 9153SOL     OW28357   2.166   2.415   0.421
 9153SOL    HW128358   2.262   2.398   0.445
 9153SOL    HW228359   2.147   2.380   0.329
 9154SOL     OW28360   0.664   4.761   0.824
 9154SOL    HW128361   0.744   4.801   0.780
 9154SOL    HW228362   0.637   4.818   0.902
 9155SOL     OW28363   1.528   5.183   6.894
 9155SOL    HW128364   1.593   5.253   6.923
 9155SOL    HW228365   1.578   5.102   6.864
 9156SOL     OW28366   4.776   2.893   1.608
 9156SOL    HW128367   4.783   2.876   1.707
 9156SOL    HW228368   4.835   2.970   1.583
 9157SOL     OW28369   5.563   3.829   5.439
 9157SOL    HW128370   5.576   3.914   5.490
 9157SOL    HW228371   5.653   3.788   5.420
 9158SOL     OW28372   0.988   4.553   3.284
 9158SOL    HW128373   0.922   4.477   3.282
 9158SOL    HW228374   1.072   4.526   3.237
 9159SOL     OW28375   0.091   5.895   2.026
 9159SOL    HW128376   0.101   5.821   2.094
 9159SOL    HW228377   0.082   5.982   2.073
 9160SOL     OW28378   0.870   5.903   0.623
 9160SOL    HW128379   0.900   5.982   0.569
 9160SOL    HW228380   0.925   5.823   0.600
 9161SOL     OW28381   5.157   2.843   1.701
 9161SOL    HW128382   5.232   2.785   1.733
 9161SOL    HW228383   5.176   2.875   1.609
 9162SOL     OW28384   5.600   3.054   3.534
 9162SOL    HW128385   5.626   2.985   3.601
 9162SOL    HW228386   5.664   3.052   3.457
 9163SOL     OW28387   3.922   0.619   5.124
 9163SOL    HW128388   3.861   0.632   5.202
 9163SOL    HW228389   4.002   0.678   5.134
 9164SOL     OW28390   2.768   0.313   1.235
 9164SOL    HW128391   2.769   0.395   1.178
 9164SOL    HW228392   2.854   0.264   1.223
 9165SOL     OW28393   5.306   5.485   1.343
 9165SOL    HW128394   5.357   5.400   1.329
 9165SOL    HW228395   5.364   5.552   1.388
 9166SOL     OW28396   3.746   4.886   1.081
 9166SOL    HW128397   3.791   4.848   1.000
 9166SOL    HW228398   3.767   4.983   1.089
 9167SOL     OW28399   0.737   3.910   4.487
 9167SOL    HW128400   0.730   3.886   4.584
 9167SOL    HW228401   0.744   4.009   4.478
 9168SOL     OW28402   3.902   1.076   6.934
 9168SOL    HW128403   3.859   0.987   6.950
 9168SOL    HW228404   3.854   1.145   6.987
 9169SOL     OW28405   1.050   0.079   4.320
 9169SOL    HW128406   1.091   0.170   4.315
 9169SOL    HW228407   0.966   0.077   4.265
 9170SOL     OW28408   6.513   4.903   0.734
 9170SOL    HW128409   6.561   4.830   0.783
 9170SOL    HW228410   6.579   4.964   0.691
 9171SOL     OW28411   4.249   5.708   4.258
 9171SOL    HW128412   4.252   5.740   4.353
 9171SOL    HW228413   4.168   5.745   4.213
 9172SOL     OW28414   1.503   2.338   4.094
 9172SOL    HW128415   1.573   2.408   4.102
 9172SOL    HW228416   1.413   2.381   4.090
 9173SOL     OW28417   6.701   5.695   4.871
 9173SOL    HW128418   6.718   5.750   4.790
 9173SOL    HW228419   6.606   5.707   4.901
 9174SOL     OW28420   0.399   5.391   6.302
 9174SOL    HW128421   0.360   5.347   6.383
 9174SOL    HW228422   0.418   5.322   6.232
 9175SOL     OW28423   1.994   6.549   6.341
 9175SOL    HW128424   1.934   6.480   6.301
 9175SOL    HW228425   1.995   6.630   6.283
 9176SOL     OW28426   1.163   2.717   5.897
 9176SOL    HW128427   1.066   2.730   5.914
 9176SOL    HW228428   1.176   2.641   5.834
 9177SOL     OW28429   1.806   4.288   2.683
 9177SOL    HW128430   1.734   4.227   2.718
 9177SOL    HW228431   1.892   4.237   2.678
 9178SOL     OW28432   1.665   3.864   6.946
 9178SOL    HW128433   1.569   3.840   6.940
 9178SOL    HW228434   1.717   3.788   6.985
 9179SOL     OW28435   3.028   4.356   5.372
 9179SOL    HW128436   2.936   4.344   5.408
 9179SOL    HW228437   3.023   4.404   5.284
 9180SOL     OW28438   4.766   1.858   1.911
 9180SOL    HW128439   4.791   1.762   1.901
 9180SOL    HW228440   4.846   1.911   1.938
 9181SOL     OW28441   3.451   1.127   2.071
 9181SOL    HW128442   3.502   1.212   2.060
 9181SOL    HW228443   3.490   1.057   2.010
 9182SOL     OW28444   2.374   6.824   1.693
 9182SOL    HW128445   2.453   6.766   1.712
 9182SOL    HW228446   2.315   6.779   1.626
 9183SOL     OW28447   5.393   4.967   5.279
 9183SOL    HW128448   5.442   4.881   5.295
 9183SOL    HW228449   5.358   4.969   5.186
 9184SOL     OW28450   5.713   0.044   0.013
 9184SOL    HW128451   5.637   0.090   0.060
 9184SOL    HW228452   5.759   7.004   0.076
 9185SOL     OW28453   5.234   1.127   5.141
 9185SOL    HW128454   5.289   1.174   5.210
 9185SOL    HW228455   5.188   1.195   5.084
 9186SOL     OW28456   5.191   1.097   6.041
 9186SOL    HW128457   5.137   1.175   6.011
 9186SOL    HW228458   5.277   1.093   5.989
 9187SOL     OW28459   1.519   6.154   2.528
 9187SOL    HW128460   1.467   6.143   2.443
 9187SOL    HW228461   1.566   6.243   2.526
 9188SOL     OW28462   3.078   5.659   0.166
 9188SOL    HW128463   3.158   5.604   0.142
 9188SOL    HW228464   3.035   5.620   0.247
 9189SOL     OW28465   5.245   4.792   2.242
 9189SOL    HW128466   5.181   4.770   2.168
 9189SOL    HW228467   5.209   4.759   2.329
 9190SOL     OW28468   1.374   5.740   0.064
 9190SOL    HW128469   1.426   5.678   0.123
 9190SOL    HW228470   1.348   5.692   7.002
 9191SOL     OW28471   6.409   0.423   6.458
 9191SOL    HW128472   6.436   0.387   6.548
 9191SOL    HW228473   6.469   0.499   6.433
 9192SOL     OW28474   1.171   3.582   4.868
 9192SOL    HW128475   1.180   3.483   4.874
 9192SOL    HW228476   1.237   3.617   4.801
 9193SOL     OW28477   4.310   4.313   0.870
 9193SOL    HW128478   4.345   4.404   0.847
 9193SOL    HW228479   4.259   4.277   0.791
 9194SOL     OW28480   3.355   0.369   4.558
 9194SOL    HW128481   3.409   0.451   4.540
 9194SOL    HW228482   3.403   0.289   4.523
 9195SOL     OW28483   2.049   1.614   3.897
 9195SOL    HW128484   2.075   1.684   3.964
 9195SOL    HW228485   1.951   1.622   3.878
 9196SOL     OW28486   5.498   1.117   5.505
 9196SOL    HW128487   5.411   1.163   5.488
 9196SOL    HW228488   5.523   1.127   5.601
 9197SOL     OW28489   3.021   3.277   0.716
 9197SOL    HW128490   2.928   3.287   0.752
 9197SOL    HW228491   3.080   3.348   0.755
 9198SOL     OW28492   1.480   4.512   5.059
 9198SOL    HW128493   1.556   4.450   5.041
 9198SOL    HW228494   1.408   4.495   4.992
 9199SOL     OW28495   6.151   5.426   4.783
 9199SOL    HW128496   6.072   5.416   4.722
 9199SOL    HW228497   6.224   5.365   4.752
 9200SOL     OW28498   3.672   6.003   1.284
 9200SOL    HW128499   3.700   5.912   1.315
 9200SOL    HW228500   3.731   6.072   1.326
 9201SOL     OW28501   2.238   4.921   0.749
 9201SOL    HW128502   2.303   4.908   0.824
 9201SOL    HW228503   2.162   4.978   0.779
 9202SOL     OW28504   2.609   1.489   3.892
 9202SOL    HW128505   2.555   1.483   3.809
 9202SOL    HW228506   2.550   1.481   3.972
 9203SOL     OW28507   6.392   6.576   1.230
 9203SOL    HW128508   6.410   6.537   1.320
 9203SOL    HW228509   6.306   6.627   1.232
 9204SOL     OW28510   5.755   0.495   5.128
 9204SOL    HW128511   5.746   0.462   5.222
 9204SOL    HW228512   5.819   0.572   5.126
 9205SOL     OW28513   0.083   4.983   2.786
 9205SOL    HW128514   7.009   4.965   2.810
 9205SOL    HW228515   0.088   5.063   2.727
 9206SOL     OW28516   3.866   0.793   0.016
 9206SOL    HW128517   3.859   0.803   0.115
 9206SOL    HW228518   3.895   0.700   7.016
 9207SOL     OW28519   4.951   5.428   6.480
 9207SOL    HW128520   4.976   5.490   6.554
 9207SOL    HW228521   4.860   5.391   6.496
 9208SOL     OW28522   1.693   3.575   2.061
 9208SOL    HW128523   1.659   3.659   2.017
 9208SOL    HW228524   1.769   3.598   2.122
 9209SOL     OW28525   2.312   6.365   6.228
 9209SOL    HW128526   2.401   6.390   6.264
 9209SOL    HW228527   2.242   6.423   6.269
 9210SOL     OW28528   5.925   0.599   3.852
 9210SOL    HW128529   5.956   0.602   3.757
 9210SOL    HW228530   5.985   0.539   3.905
 9211SOL     OW28531   1.139   1.541   3.087
 9211SOL    HW128532   1.192   1.488   3.021
 9211SOL    HW228533   1.042   1.531   3.068
 9212SOL     OW28534   4.925   4.885   4.948
 9212SOL    HW128535   4.979   4.921   5.024
 9212SOL    HW228536   4.893   4.960   4.891
 9213SOL     OW28537   6.183   3.829   0.640
 9213SOL    HW128538   6.097   3.799   0.597
 9213SOL    HW228539   6.162   3.884   0.721
 9214SOL     OW28540   6.778   5.261   0.866
 9214SOL    HW128541   6.801   5.340   0.809
 9214SOL    HW228542   6.679   5.249   0.868
 9215SOL     OW28543   0.896   1.305   0.961
 9215SOL    HW128544   0.846   1.349   0.887
 9215SOL    HW228545   0.850   1.220   0.987
 9216SOL     OW28546   1.631   6.840   3.833
 9216SOL    HW128547   1.568   6.816   3.760
 9216SOL    HW228548   1.669   6.931   3.817
 9217SOL     OW28549   0.741   2.212   1.244
 9217SOL    HW128550   0.664   2.265   1.278
 9217SOL    HW228551   0.810   2.274   1.205
 9218SOL     OW28552   2.482   0.999   0.968
 9218SOL    HW128553   2.385   1.020   0.960
 9218SOL    HW228554   2.495   0.925   1.034
 9219SOL     OW28555   5.553   0.970   0.678
 9219SOL    HW128556   5.621   0.954   0.750
 9219SOL    HW228557   5.467   0.998   0.720
 9220SOL     OW28558   3.679   6.583   0.353
 9220SOL    HW128559   3.644   6.507   0.299
 9220SOL    HW228560   3.603   6.634   0.394
 9221SOL     OW28561   3.136   4.849   4.853
 9221SOL    HW128562   3.207   4.850   4.782
 9221SOL    HW228563   3.136   4.760   4.898
 9222SOL     OW28564   2.997   2.496   7.005
 9222SOL    HW128565   3.049   2.457   0.059
 9222SOL    HW228566   2.917   2.438   6.986
 9223SOL     OW28567   2.951   3.286   5.099
 9223SOL    HW128568   2.879   3.354   5.112
 9223SOL    HW228569   2.915   3.211   5.042
 9224SOL     OW28570   2.259   4.595   5.552
 9224SOL    HW128571   2.162   4.597   5.577
 9224SOL    HW228572   2.287   4.501   5.534
 9225SOL     OW28573   1.525   5.531   0.145
 9225SOL    HW128574   1.474   5.461   0.194
 9225SOL    HW228575   1.557   5.495   0.057
 9226SOL     OW28576   4.896   6.216   0.660
 9226SOL    HW128577   4.984   6.247   0.627
 9226SOL    HW228578   4.853   6.288   0.715
 9227SOL     OW28579   1.139   6.262   2.043
 9227SOL    HW128580   1.144   6.181   1.983
 9227SOL    HW228581   1.172   6.238   2.134
 9228SOL     OW28582   1.162   5.949   0.051
 9228SOL    HW128583   1.177   6.011   0.128
 9228SOL    HW228584   1.241   5.889   0.041
 9229SOL     OW28585   1.216   6.302   5.061
 9229SOL    HW128586   1.305   6.276   5.024
 9229SOL    HW228587   1.215   6.400   5.082
 9230SOL     OW28588   4.970   1.170   3.178
 9230SOL    HW128589   5.044   1.111   3.212
 9230SOL    HW228590   4.970   1.168   3.078
 9231SOL     OW28591   2.170   3.060   3.515
 9231SOL    HW128592   2.079   3.051   3.556
 9231SOL    HW228593   2.209   2.969   3.500
 9232SOL     OW28594   4.076   5.619   0.493
 9232SOL    HW128595   4.019   5.701   0.495
 9232SOL    HW228596   4.030   5.548   0.439
 9233SOL     OW28597   6.498   4.175   0.945
 9233SOL    HW128598   6.513   4.078   0.962
 9233SOL    HW228599   6.492   4.191   0.846
 9234SOL     OW28600   1.332   6.046   4.014
 9234SOL    HW128601   1.278   6.105   4.074
 9234SOL    HW228602   1.271   5.983   3.966
 9235SOL     OW28603   0.822   2.467   3.139
 9235SOL    HW128604   0.915   2.449   3.171
 9235SOL    HW228605   0.786   2.547   3.186
 9236SOL     OW28606   3.144   2.607   6.429
 9236SOL    HW128607   3.121   2.537   6.496
 9236SOL    HW228608   3.215   2.573   6.367
 9237SOL     OW28609   1.501   3.410   2.595
 9237SOL    HW128610   1.554   3.454   2.523
 9237SOL    HW228611   1.490   3.474   2.672
 9238SOL     OW28612   4.623   4.584   6.963
 9238SOL    HW128613   4.579   4.529   6.892
 9238SOL    HW228614   4.622   4.534   0.028
 9239SOL     OW28615   2.072   3.384   6.905
 9239SOL    HW128616   2.012   3.461   6.883
 9239SOL    HW228617   2.071   3.369   7.004
 9240SOL     OW28618   4.466   0.509   2.154
 9240SOL    HW128619   4.393   0.445   2.128
 9240SOL    HW228620   4.491   0.494   2.249
 9241SOL     OW28621   1.134   5.691   5.227
 9241SOL    HW128622   1.189   5.730   5.153
 9241SOL    HW228623   1.038   5.688   5.199
 9242SOL     OW28624   4.943   6.779   1.407
 9242SOL    HW128625   4.958   6.687   1.371
 9242SOL    HW228626   5.029   6.815   1.445
 9243SOL     OW28627   5.636   0.563   4.467
 9243SOL    HW128628   5.647   0.568   4.567
 9243SOL    HW228629   5.724   0.538   4.426
 9244SOL     OW28630   3.419   6.515   0.537
 9244SOL    HW128631   3.498   6.567   0.570
 9244SOL    HW228632   3.372   6.472   0.614
 9245SOL     OW28633   0.253   6.599   2.193
 9245SOL    HW128634   0.301   6.540   2.128
 9245SOL    HW228635   0.319   6.646   2.251
 9246SOL     OW28636   6.757   5.471   3.299
 9246SOL    HW128637   6.766   5.543   3.230
 9246SOL    HW228638   6.710   5.507   3.379
 9247SOL     OW28639   1.135   0.914   3.142
 9247SOL    HW128640   1.043   0.876   3.129
 9247SOL    HW228641   1.192   0.890   3.064
 9248SOL     OW28642   4.551   1.491   6.538
 9248SOL    HW128643   4.498   1.536   6.466
 9248SOL    HW228644   4.632   1.448   6.499
 9249SOL     OW28645   3.795   6.369   4.095
 9249SOL    HW128646   3.872   6.385   4.032
 9249SOL    HW228647   3.710   6.390   4.048
 9250SOL     OW28648   4.934   3.356   3.338
 9250SOL    HW128649   4.938   3.266   3.382
 9250SOL    HW228650   4.919   3.345   3.240
 9251SOL     OW28651   4.461   2.176   2.296
 9251SOL    HW128652   4.406   2.230   2.360
 9251SOL    HW228653   4.413   2.091   2.275
 9252SOL     OW28654   1.684   6.789   4.955
 9252SOL    HW128655   1.718   6.871   4.910
 9252SOL    HW228656   1.665   6.719   4.887
 9253SOL     OW28657   1.044   6.862   5.877
 9253SOL    HW128658   1.015   6.949   5.835
 9253SOL    HW228659   1.131   6.834   5.838
 9254SOL     OW28660   4.295   2.527   0.767
 9254SOL    HW128661   4.374   2.585   0.786
 9254SOL    HW228662   4.326   2.444   0.719
 9255SOL     OW28663   6.987   4.475   0.707
 9255SOL    HW128664   0.016   4.482   0.792
 9255SOL    HW228665   6.924   4.552   0.698
 9256SOL     OW28666   4.081   5.450   2.804
 9256SOL    HW128667   4.130   5.433   2.719
 9256SOL    HW228668   4.046   5.363   2.840
 9257SOL     OW28669   0.635   3.824   0.663
 9257SOL    HW128670   0.725   3.868   0.659
 9257SOL    HW228671   0.625   3.776   0.750
 9258SOL     OW28672   3.051   2.893   5.332
 9258SOL    HW128673   2.956   2.874   5.355
 9258SOL    HW228674   3.107   2.811   5.344
 9259SOL     OW28675   1.990   2.944   0.647
 9259SOL    HW128676   1.976   3.029   0.598
 9259SOL    HW228677   1.944   2.869   0.598
 9260SOL     OW28678   6.541   4.299   0.055
 9260SOL    HW128679   6.523   4.381   0.111
 9260SOL    HW228680   6.546   4.219   0.114
 9261SOL     OW28681   1.903   0.052   6.006
 9261SOL    HW128682   1.806   0.058   6.026
 9261SOL    HW228683   1.922   0.101   5.921
 9262SOL     OW28684   6.391   6.818   0.033
 9262SOL    HW128685   6.377   6.729   7.010
 9262SOL    HW228686   6.466   6.866   7.010
 9263SOL     OW28687   5.626   4.003   2.437
 9263SOL    HW128688   5.653   4.052   2.520
 9263SOL    HW228689   5.591   3.913   2.461
 9264SOL     OW28690   5.294   2.198   0.553
 9264SOL    HW128691   5.205   2.199   0.599
 9264SOL    HW228692   5.340   2.285   0.569
 9265SOL     OW28693   1.621   1.380   5.445
 9265SOL    HW128694   1.659   1.425   5.526
 9265SOL    HW228695   1.525   1.357   5.461
 9266SOL     OW28696   3.223   6.749   3.091
 9266SOL    HW128697   3.202   6.695   3.173
 9266SOL    HW228698   3.155   6.729   3.020
 9267SOL     OW28699   3.146   4.783   6.045
 9267SOL    HW128700   3.147   4.743   6.137
 9267SOL    HW228701   3.068   4.845   6.037
 9268SOL     OW28702   1.122   1.197   3.172
 9268SOL    HW128703   1.058   1.219   3.098
 9268SOL    HW228704   1.141   1.099   3.172
 9269SOL     OW28705   4.254   1.180   5.248
 9269SOL    HW128706   4.293   1.260   5.292
 9269SOL    HW228707   4.205   1.208   5.166
 9270SOL     OW28708   1.954   0.850   5.208
 9270SOL    HW128709   1.871   0.896   5.241
 9270SOL    HW228710   2.005   0.913   5.149
 9271SOL     OW28711   0.247   5.807   5.657
 9271SOL    HW128712   0.330   5.780   5.706
 9271SOL    HW228713   0.171   5.750   5.688
 9272SOL     OW28714   2.377   5.220   6.630
 9272SOL    HW128715   2.292   5.175   6.658
 9272SOL    HW228716   2.406   5.183   6.542
 9273SOL     OW28717   3.330   5.379   5.876
 9273SOL    HW128718   3.420   5.409   5.845
 9273SOL    HW228719   3.329   5.370   5.975
 9274SOL     OW28720   4.776   1.280   1.719
 9274SOL    HW128721   4.780   1.191   1.765
 9274SOL    HW228722   4.685   1.320   1.731
 9275SOL     OW28723   6.639   0.444   6.115
 9275SOL    HW128724   6.625   0.526   6.170
 9275SOL    HW228725   6.595   0.366   6.159
 9276SOL     OW28726   5.050   0.533   3.751
 9276SOL    HW128727   4.968   0.572   3.793
 9276SOL    HW228728   5.031   0.513   3.655
 9277SOL     OW28729   5.197   2.496   7.004
 9277SOL    HW128730   5.281   2.549   7.010
 9277SOL    HW228731   5.201   2.435   6.925
 9278SOL     OW28732   1.148   1.809   0.940
 9278SOL    HW128733   1.177   1.775   1.030
 9278SOL    HW228734   1.109   1.900   0.950
 9279SOL     OW28735   2.812   0.283   0.814
 9279SOL    HW128736   2.731   0.227   0.833
 9279SOL    HW228737   2.847   0.262   0.723
 9280SOL     OW28738   1.851   0.671   2.259
 9280SOL    HW128739   1.769   0.680   2.202
 9280SOL    HW228740   1.826   0.680   2.355
 9281SOL     OW28741   1.530   2.365   0.314
 9281SOL    HW128742   1.582   2.339   0.396
 9281SOL    HW228743   1.544   2.296   0.243
 9282SOL     OW28744   4.010   0.633   5.734
 9282SOL    HW128745   3.993   0.658   5.639
 9282SOL    HW228746   4.058   0.707   5.781
 9283SOL     OW28747   5.683   2.663   3.529
 9283SOL    HW128748   5.691   2.704   3.620
 9283SOL    HW228749   5.624   2.721   3.472
 9284SOL     OW28750   3.862   4.013   2.535
 9284SOL    HW128751   3.796   4.088   2.544
 9284SOL    HW228752   3.946   4.047   2.494
 9285SOL     OW28753   6.556   2.603   0.035
 9285SOL    HW128754   6.534   2.698   0.013
 9285SOL    HW228755   6.474   2.555   0.064
 9286SOL     OW28756   5.498   5.344   4.919
 9286SOL    HW128757   5.558   5.270   4.950
 9286SOL    HW228758   5.544   5.394   4.845
 9287SOL     OW28759   3.788   6.878   2.724
 9287SOL    HW128760   3.888   6.881   2.724
 9287SOL    HW228761   3.752   6.943   2.657
 9288SOL     OW28762   4.536   1.902   6.910
 9288SOL    HW128763   4.616   1.849   6.882
 9288SOL    HW228764   4.463   1.841   6.940
 9289SOL     OW28765   5.513   3.531   3.772
 9289SOL    HW128766   5.504   3.461   3.702
 9289SOL    HW228767   5.430   3.588   3.773
 9290SOL     OW28768   4.097   2.064   4.404
 9290SOL    HW128769   4.006   2.055   4.365
 9290SOL    HW228770   4.165   2.059   4.331
 9291SOL     OW28771   0.460   3.307   4.920
 9291SOL    HW128772   0.387   3.285   4.985
 9291SOL    HW228773   0.517   3.226   4.906
 9292SOL     OW28774   1.429   4.261   0.002
 9292SOL    HW128775   1.366   4.183   7.018
 9292SOL    HW228776   1.522   4.230   7.002
 9293SOL     OW28777   5.435   3.283   6.068
 9293SOL    HW128778   5.464   3.244   6.155
 9293SOL    HW228779   5.431   3.211   5.999
 9294SOL     OW28780   5.273   5.651   7.013
 9294SOL    HW128781   5.217   5.634   0.072
 9294SOL    HW228782   5.243   5.736   6.969
 9295SOL     OW28783   4.840   2.936   3.251
 9295SOL    HW128784   4.780   2.882   3.192
 9295SOL    HW228785   4.903   2.990   3.195
 9296SOL     OW28786   6.072   0.467   4.734
 9296SOL    HW128787   5.982   0.440   4.769
 9296SOL    HW228788   6.125   0.510   4.808
 9297SOL     OW28789   0.393   6.849   1.740
 9297SOL    HW128790   0.312   6.882   1.787
 9297SOL    HW228791   0.399   6.750   1.747
 9298SOL     OW28792   6.895   6.604   3.960
 9298SOL    HW128793   6.942   6.529   4.007
 9298SOL    HW228794   6.961   6.675   3.936
 9299SOL     OW28795   2.004   2.038   4.559
 9299SOL    HW128796   1.948   2.024   4.478
 9299SOL    HW228797   2.056   2.123   4.549
 9300SOL     OW28798   5.684   4.818   4.021
 9300SOL    HW128799   5.680   4.799   3.923
 9300SOL    HW228800   5.762   4.878   4.040
 9301SOL     OW28801   6.487   4.888   1.474
 9301SOL    HW128802   6.458   4.971   1.427
 9301SOL    HW228803   6.416   4.818   1.464
 9302SOL     OW28804   1.227   1.996   2.895
 9302SOL    HW128805   1.222   1.897   2.881
 9302SOL    HW228806   1.180   2.043   2.821
 9303SOL     OW28807   4.555   3.867   6.663
 9303SOL    HW128808   4.624   3.932   6.632
 9303SOL    HW228809   4.472   3.879   6.609
 9304SOL     OW28810   4.895   3.841   0.417
 9304SOL    HW128811   4.962   3.866   0.348
 9304SOL    HW228812   4.804   3.834   0.374
 9305SOL     OW28813   4.622   3.915   1.553
 9305SOL    HW128814   4.713   3.878   1.531
 9305SOL    HW228815   4.633   3.996   1.610
 9306SOL     OW28816   0.498   6.621   3.067
 9306SOL    HW128817   0.514   6.719   3.051
 9306SOL    HW228818   0.573   6.584   3.122
 9307SOL     OW28819   2.168   0.759   6.416
 9307SOL    HW128820   2.267   0.751   6.403
 9307SOL    HW228821   2.125   0.671   6.397
 9308SOL     OW28822   0.316   1.586   0.408
 9308SOL    HW128823   0.251   1.516   0.378
 9308SOL    HW228824   0.266   1.661   0.451
 9309SOL     OW28825   4.056   2.838   0.193
 9309SOL    HW128826   3.970   2.851   0.143
 9309SOL    HW228827   4.037   2.819   0.289
 9310SOL     OW28828   4.248   5.844   1.219
 9310SOL    HW128829   4.289   5.820   1.131
 9310SOL    HW228830   4.162   5.893   1.204
 9311SOL     OW28831   0.448   3.050   1.338
 9311SOL    HW128832   0.412   3.027   1.429
 9311SOL    HW228833   0.468   2.966   1.288
 9312SOL     OW28834   1.652   3.529   5.182
 9312SOL    HW128835   1.592   3.453   5.158
 9312SOL    HW228836   1.606   3.616   5.163
 9313SOL     OW28837   6.603   0.725   3.696
 9313SOL    HW128838   6.569   0.693   3.608
 9313SOL    HW228839   6.646   0.649   3.745
 9314SOL     OW28840   6.756   3.894   0.359
 9314SOL    HW128841   6.794   3.965   0.419
 9314SOL    HW228842   6.788   3.804   0.389
 9315SOL     OW28843   0.599   5.939   6.234
 9315SOL    HW128844   0.546   6.022   6.216
 9315SOL    HW228845   0.574   5.869   6.168
 9316SOL     OW28846   2.868   4.831   4.686
 9316SOL    HW128847   2.944   4.841   4.751
 9316SOL    HW228848   2.794   4.780   4.729
 9317SOL     OW28849   4.206   4.148   5.920
 9317SOL    HW128850   4.158   4.071   5.878
 9317SOL    HW228851   4.228   4.216   5.850
 9318SOL     OW28852   0.425   6.853   5.661
 9318SOL    HW128853   0.328   6.851   5.684
 9318SOL    HW228854   0.444   6.931   5.601
 9319SOL     OW28855   6.725   4.197   4.186
 9319SOL    HW128856   6.709   4.176   4.283
 9319SOL    HW228857   6.680   4.128   4.129
 9320SOL     OW28858   3.782   3.329   5.707
 9320SOL    HW128859   3.772   3.236   5.671
 9320SOL    HW228860   3.811   3.390   5.634
 9321SOL     OW28861   5.412   0.272   4.209
 9321SOL    HW128862   5.433   0.290   4.306
 9321SOL    HW228863   5.472   0.199   4.176
 9322SOL     OW28864   0.787   5.670   1.141
 9322SOL    HW128865   0.845   5.748   1.117
 9322SOL    HW228866   0.842   5.587   1.147
 9323SOL     OW28867   0.805   1.219   5.701
 9323SOL    HW128868   0.726   1.278   5.685
 9323SOL    HW228869   0.888   1.274   5.699
 9324SOL     OW28870   1.234   5.643   6.889
 9324SOL    HW128871   1.270   5.551   6.876
 9324SOL    HW228872   1.268   5.704   6.817
 9325SOL     OW28873   0.138   3.387   6.599
 9325SOL    HW128874   0.223   3.425   6.634
 9325SOL    HW228875   0.060   3.438   6.636
 9326SOL     OW28876   2.483   6.139   2.049
 9326SOL    HW128877   2.578   6.130   2.018
 9326SOL    HW228878   2.444   6.222   2.009
 9327SOL     OW28879   2.323   1.573   4.369
 9327SOL    HW128880   2.360   1.665   4.355
 9327SOL    HW228881   2.251   1.576   4.438
 9328SOL     OW28882   2.362   1.725   1.986
 9328SOL    HW128883   2.449   1.675   1.994
 9328SOL    HW228884   2.287   1.660   1.982
 9329SOL     OW28885   0.635   4.048   1.518
 9329SOL    HW128886   0.669   4.050   1.612
 9329SOL    HW228887   0.618   3.953   1.490
 9330SOL     OW28888   5.925   5.846   6.764
 9330SOL    HW128889   5.876   5.759   6.762
 9330SOL    HW228890   5.916   5.887   6.855
 9331SOL     OW28891   1.173   0.681   0.125
 9331SOL    HW128892   1.145   0.594   0.165
 9331SOL    HW228893   1.231   0.665   0.045
 9332SOL     OW28894   3.615   3.877   4.675
 9332SOL    HW128895   3.579   3.968   4.655
 9332SOL    HW228896   3.715   3.882   4.683
 9333SOL     OW28897   5.492   6.275   1.154
 9333SOL    HW128898   5.400   6.244   1.130
 9333SOL    HW228899   5.490   6.318   1.245
 9334SOL     OW28900   1.859   6.672   5.388
 9334SOL    HW128901   1.898   6.706   5.474
 9334SOL    HW228902   1.833   6.577   5.399
 9335SOL     OW28903   0.286   1.840   2.734
 9335SOL    HW128904   0.212   1.804   2.677
 9335SOL    HW228905   0.307   1.934   2.706
 9336SOL     OW28906   3.270   0.415   5.252
 9336SOL    HW128907   3.359   0.425   5.297
 9336SOL    HW228908   3.265   0.325   5.208
 9337SOL     OW28909   5.521   6.202   3.457
 9337SOL    HW128910   5.452   6.215   3.528
 9337SOL    HW228911   5.585   6.279   3.458
 9338SOL     OW28912   1.786   6.234   2.849
 9338SOL    HW128913   1.751   6.328   2.840
 9338SOL    HW228914   1.726   6.171   2.799
 9339SOL     OW28915   3.764   5.548   1.122
 9339SOL    HW128916   3.859   5.580   1.125
 9339SOL    HW228917   3.717   5.579   1.205
 9340SOL     OW28918   6.946   3.011   6.501
 9340SOL    HW128919   0.020   3.038   6.510
 9340SOL    HW228920   6.894   3.084   6.458
 9341SOL     OW28921   0.701   4.193   6.139
 9341SOL    HW128922   0.784   4.217   6.191
 9341SOL    HW228923   0.712   4.222   6.044
 9342SOL     OW28924   1.266   0.383   0.404
 9342SOL    HW128925   1.265   0.317   0.479
 9342SOL    HW228926   1.339   0.359   0.339
 9343SOL     OW28927   6.224   6.580   2.833
 9343SOL    HW128928   6.232   6.652   2.763
 9343SOL    HW228929   6.178   6.617   2.913
 9344SOL     OW28930   5.290   6.093   0.863
 9344SOL    HW128931   5.289   6.189   0.893
 9344SOL    HW228932   5.197   6.061   0.850
 9345SOL     OW28933   0.703   2.311   0.613
 9345SOL    HW128934   0.765   2.234   0.605
 9345SOL    HW228935   0.733   2.385   0.553
 9346SOL     OW28936   5.725   0.903   0.888
 9346SOL    HW128937   5.801   0.866   0.942
 9346SOL    HW228938   5.642   0.903   0.942
 9347SOL     OW28939   1.839   6.097   3.120
 9347SOL    HW128940   1.928   6.070   3.082
 9347SOL    HW228941   1.783   6.138   3.047
 9348SOL     OW28942   3.340   5.276   0.574
 9348SOL    HW128943   3.326   5.325   0.488
 9348SOL    HW228944   3.419   5.215   0.565
 9349SOL     OW28945   1.093   6.383   3.125
 9349SOL    HW128946   1.107   6.419   3.217
 9349SOL    HW228947   1.128   6.449   3.058
 9350SOL     OW28948   0.462   3.202   5.318
 9350SOL    HW128949   0.477   3.133   5.389
 9350SOL    HW228950   0.548   3.249   5.299
 9351SOL     OW28951   3.060   6.652   0.207
 9351SOL    HW128952   3.033   6.735   0.157
 9351SOL    HW228953   2.980   6.596   0.226
 9352SOL     OW28954   2.573   4.633   6.140
 9352SOL    HW128955   2.627   4.714   6.115
 9352SOL    HW228956   2.502   4.618   6.072
 9353SOL     OW28957   6.913   6.744   0.900
 9353SOL    HW128958   6.813   6.747   0.897
 9353SOL    HW228959   6.950   6.810   0.835
 9354SOL     OW28960   0.825   1.074   5.450
 9354SOL    HW128961   0.845   1.109   5.542
 9354SOL    HW228962   0.812   1.151   5.387
 9355SOL     OW28963   0.827   1.518   5.201
 9355SOL    HW128964   0.773   1.590   5.158
 9355SOL    HW228965   0.849   1.545   5.295
 9356SOL     OW28966   3.846   0.351   3.047
 9356SOL    HW128967   3.873   0.439   3.085
 9356SOL    HW228968   3.864   0.278   3.114
 9357SOL     OW28969   1.936   2.439   0.596
 9357SOL    HW128970   2.016   2.487   0.633
 9357SOL    HW228971   1.963   2.388   0.514
 9358SOL     OW28972   0.809   1.410   0.201
 9358SOL    HW128973   0.777   1.336   0.261
 9358SOL    HW228974   0.801   1.381   0.106
 9359SOL     OW28975   0.287   0.776   5.715
 9359SOL    HW128976   0.379   0.738   5.731
 9359SOL    HW228977   0.295   0.870   5.683
 9360SOL     OW28978   6.550   6.596   6.084
 9360SOL    HW128979   6.620   6.526   6.095
 9360SOL    HW228980   6.556   6.661   6.159
 9361SOL     OW28981   2.476   5.698   4.368
 9361SOL    HW128982   2.487   5.622   4.432
 9361SOL    HW228983   2.392   5.749   4.390
 9362SOL     OW28984   1.504   0.225   2.475
 9362SOL    HW128985   1.580   0.192   2.420
 9362SOL    HW228986   1.480   0.156   2.543
 9363SOL     OW28987   1.442   2.601   1.990
 9363SOL    HW128988   1.447   2.682   2.048
 9363SOL    HW228989   1.533   2.577   1.958
 9364SOL     OW28990   0.652   1.918   6.747
 9364SOL    HW128991   0.743   1.876   6.748
 9364SOL    HW228992   0.657   2.009   6.787
 9365SOL     OW28993   3.079   1.046   5.176
 9365SOL    HW128994   3.156   1.078   5.231
 9365SOL    HW228995   3.112   1.020   5.085
 9366SOL     OW28996   3.182   6.029   2.327
 9366SOL    HW128997   3.183   6.129   2.334
 9366SOL    HW228998   3.203   5.989   2.416
 9367SOL     OW28999   6.978   6.960   1.479
 9367SOL    HW129000   6.997   7.007   1.393
 9367SOL    HW229001   0.013   6.878   1.485
 9368SOL     OW29002   1.936   0.624   3.296
 9368SOL    HW129003   1.985   0.707   3.269
 9368SOL    HW229004   1.991   0.544   3.273
 9369SOL     OW29005   3.548   5.419   0.743
 9369SOL    HW129006   3.614   5.385   0.810
 9369SOL    HW229007   3.470   5.356   0.739
 9370SOL     OW29008   4.721   2.604   5.371
 9370SOL    HW129009   4.625   2.633   5.364
 9370SOL    HW229010   4.750   2.566   5.284
 9371SOL     OW29011   3.797   5.165   0.373
 9371SOL    HW129012   3.860   5.106   0.424
 9371SOL    HW229013   3.816   5.261   0.396
 9372SOL     OW29014   5.629   6.702   0.789
 9372SOL    HW129015   5.683   6.658   0.716
 9372SOL    HW229016   5.553   6.752   0.748
 9373SOL     OW29017   6.964   1.321   1.574
 9373SOL    HW129018   0.035   1.344   1.547
 9373SOL    HW229019   6.951   1.342   1.671
 9374SOL     OW29020   6.899   5.677   5.948
 9374SOL    HW129021   6.884   5.581   5.968
 9374SOL    HW229022   6.878   5.732   6.029
 9375SOL     OW29023   1.647   1.657   6.950
 9375SOL    HW129024   1.658   1.633   6.854
 9375SOL    HW229025   1.554   1.692   6.965
 9376SOL     OW29026   3.352   4.015   0.839
 9376SOL    HW129027   3.315   3.996   0.930
 9376SOL    HW229028   3.277   4.016   0.773
 9377SOL     OW29029   0.804   0.926   3.244
 9377SOL    HW129030   0.843   0.941   3.153
 9377SOL    HW229031   0.718   0.975   3.253
 9378SOL     OW29032   4.425   1.085   5.644
 9378SOL    HW129033   4.459   0.996   5.674
 9378SOL    HW229034   4.493   1.128   5.585
 9379SOL     OW29035   3.756   0.286   4.362
 9379SOL    HW129036   3.743   0.385   4.353
 9379SOL    HW229037   3.822   0.268   4.435
 9380SOL     OW29038   5.215   6.273   1.464
 9380SOL    HW129039   5.208   6.204   1.392
 9380SOL    HW229040   5.255   6.231   1.546
 9381SOL     OW29041   4.418   1.554   4.785
 9381SOL    HW129042   4.341   1.607   4.751
 9381SOL    HW229043   4.402   1.528   4.880
 9382SOL     OW29044   2.669   5.908   5.711
 9382SOL    HW129045   2.689   5.925   5.807
 9382SOL    HW229046   2.569   5.907   5.697
 9383SOL     OW29047   5.667   4.265   1.112
 9383SOL    HW129048   5.625   4.176   1.132
 9383SOL    HW229049   5.599   4.337   1.120
 9384SOL     OW29050   4.976   0.736   0.517
 9384SOL    HW129051   5.032   0.660   0.551
 9384SOL    HW229052   4.926   0.708   0.436
 9385SOL     OW29053   4.236   2.347   4.527
 9385SOL    HW129054   4.296   2.304   4.594
 9385SOL    HW229055   4.141   2.325   4.548
 9386SOL     OW29056   5.548   0.728   1.224
 9386SOL    HW129057   5.517   0.661   1.157
 9386SOL    HW229058   5.477   0.743   1.292
 9387SOL     OW29059   3.247   2.284   6.817
 9387SOL    HW129060   3.316   2.275   6.888
 9387SOL    HW229061   3.284   2.250   6.730
 9388SOL     OW29062   2.024   6.752   5.625
 9388SOL    HW129063   2.020   6.783   5.720
 9388SOL    HW229064   2.099   6.686   5.615
 9389SOL     OW29065   2.348   3.734   1.699
 9389SOL    HW129066   2.342   3.649   1.750
 9389SOL    HW229067   2.290   3.803   1.743
 9390SOL     OW29068   5.859   4.980   4.171
 9390SOL    HW129069   5.956   5.001   4.163
 9390SOL    HW229070   5.806   5.065   4.167
 9391SOL     OW29071   0.565   4.417   4.458
 9391SOL    HW129072   0.636   4.463   4.512
 9391SOL    HW229073   0.504   4.367   4.520
 9392SOL     OW29074   3.526   5.369   2.861
 9392SOL    HW129075   3.606   5.374   2.801
 9392SOL    HW229076   3.546   5.310   2.938
 9393SOL     OW29077   2.250   5.073   0.522
 9393SOL    HW129078   2.177   5.140   0.535
 9393SOL    HW229079   2.246   5.004   0.594
 9394SOL     OW29080   4.887   0.007   0.036
 9394SOL    HW129081   4.898   0.003   6.958
 9394SOL    HW229082   4.975   0.026   0.079
 9395SOL     OW29083   0.325   0.550   1.630
 9395SOL    HW129084   0.392   0.625   1.623
 9395SOL    HW229085   0.292   0.528   1.538
 9396SOL     OW29086   0.817   0.631   6.611
 9396SOL    HW129087   0.754   0.559   6.581
 9396SOL    HW229088   0.855   0.677   6.531
 9397SOL     OW29089   3.789   1.586   5.987
 9397SOL    HW129090   3.812   1.683   6.001
 9397SOL    HW229091   3.741   1.551   6.067
 9398SOL     OW29092   0.170   3.086   6.804
 9398SOL    HW129093   0.150   3.109   6.709
 9398SOL    HW229094   0.188   3.169   6.856
 9399SOL     OW29095   1.377   2.520   4.425
 9399SOL    HW129096   1.464   2.486   4.460
 9399SOL    HW229097   1.390   2.552   4.331
 9400SOL     OW29098   5.831   1.206   0.650
 9400SOL    HW129099   5.842   1.107   0.659
 9400SOL    HW229100   5.785   1.227   0.564
 9401SOL     OW29101   6.732   2.030   3.726
 9401SOL    HW129102   6.752   1.933   3.711
 9401SOL    HW229103   6.637   2.041   3.753
 9402SOL     OW29104   3.402   5.240   5.411
 9402SOL    HW129105   3.347   5.180   5.468
 9402SOL    HW229106   3.483   5.190   5.379
 9403SOL     OW29107   5.786   2.545   0.935
 9403SOL    HW129108   5.759   2.453   0.963
 9403SOL    HW229109   5.854   2.581   0.999
 9404SOL     OW29110   1.891   1.822   0.920
 9404SOL    HW129111   1.796   1.838   0.893
 9404SOL    HW229112   1.951   1.840   0.842
 9405SOL     OW29113   5.435   5.594   5.035
 9405SOL    HW129114   5.419   5.496   5.044
 9405SOL    HW229115   5.375   5.644   5.097
 9406SOL     OW29116   0.854   0.814   0.911
 9406SOL    HW129117   0.871   0.871   0.830
 9406SOL    HW229118   0.928   0.748   0.921
 9407SOL     OW29119   1.600   4.410   4.331
 9407SOL    HW129120   1.545   4.336   4.294
 9407SOL    HW229121   1.693   4.406   4.294
 9408SOL     OW29122   5.600   5.168   4.373
 9408SOL    HW129123   5.689   5.135   4.404
 9408SOL    HW229124   5.613   5.245   4.310
 9409SOL     OW29125   5.827   5.103   1.662
 9409SOL    HW129126   5.905   5.165   1.653
 9409SOL    HW229127   5.818   5.048   1.579
 9410SOL     OW29128   5.088   0.450   0.603
 9410SOL    HW129129   5.026   0.410   0.536
 9410SOL    HW229130   5.038   0.474   0.686
 9411SOL     OW29131   3.893   3.475   5.317
 9411SOL    HW129132   3.845   3.389   5.300
 9411SOL    HW229133   3.891   3.495   5.415
 9412SOL     OW29134   3.990   6.730   1.468
 9412SOL    HW129135   4.086   6.738   1.440
 9412SOL    HW229136   3.979   6.649   1.526
 9413SOL     OW29137   3.723   4.906   3.079
 9413SOL    HW129138   3.794   4.885   3.011
 9413SOL    HW229139   3.758   4.884   3.171
 9414SOL     OW29140   2.278   0.839   1.814
 9414SOL    HW129141   2.323   0.923   1.847
 9414SOL    HW229142   2.326   0.760   1.851
 9415SOL     OW29143   4.679   0.620   0.900
 9415SOL    HW129144   4.713   0.695   0.843
 9415SOL    HW229145   4.591   0.646   0.939
 9416SOL     OW29146   6.885   5.185   6.091
 9416SOL    HW129147   6.890   5.172   6.190
 9416SOL    HW229148   6.961   5.135   6.047
 9417SOL     OW29149   4.307   6.267   3.076
 9417SOL    HW129150   4.373   6.276   3.001
 9417SOL    HW229151   4.266   6.176   3.074
 9418SOL     OW29152   2.809   1.934   4.948
 9418SOL    HW129153   2.777   1.980   5.030
 9418SOL    HW229154   2.880   1.990   4.904
 9419SOL     OW29155   3.017   1.986   5.912
 9419SOL    HW129156   2.978   1.981   6.004
 9419SOL    HW229157   3.086   2.058   5.908
 9420SOL     OW29158   4.657   2.934   5.934
 9420SOL    HW129159   4.598   2.900   6.008
 9420SOL    HW229160   4.727   2.867   5.914
 9421SOL     OW29161   3.710   6.600   7.022
 9421SOL    HW129162   3.631   6.642   0.044
 9421SOL    HW229163   3.710   6.502   0.020
 9422SOL     OW29164   1.974   6.391   6.071
 9422SOL    HW129165   1.926   6.456   6.012
 9422SOL    HW229166   2.064   6.369   6.032
 9423SOL     OW29167   5.402   4.826   1.200
 9423SOL    HW129168   5.353   4.747   1.237
 9423SOL    HW229169   5.468   4.858   1.268
 9424SOL     OW29170   5.621   6.780   4.298
 9424SOL    HW129171   5.526   6.776   4.329
 9424SOL    HW229172   5.674   6.709   4.344
 9425SOL     OW29173   0.564   5.852   1.061
 9425SOL    HW129174   0.616   5.929   1.097
 9425SOL    HW229175   0.621   5.770   1.060
 9426SOL     OW29176   5.130   0.703   6.234
 9426SOL    HW129177   5.202   0.755   6.280
 9426SOL    HW229178   5.108   0.745   6.147
 9427SOL     OW29179   3.044   5.648   2.180
 9427SOL    HW129180   3.133   5.603   2.164
 9427SOL    HW229181   3.007   5.616   2.267
 9428SOL     OW29182   6.768   6.474   4.306
 9428SOL    HW129183   6.716   6.530   4.370
 9428SOL    HW229184   6.866   6.483   4.325
 9429SOL     OW29185   2.938   1.857   4.001
 9429SOL    HW129186   2.955   1.799   4.080
 9429SOL    HW229187   2.932   1.953   4.030
 9430SOL     OW29188   1.514   0.442   3.942
 9430SOL    HW129189   1.595   0.490   3.907
 9430SOL    HW229190   1.432   0.496   3.923
 9431SOL     OW29191   1.089   5.125   5.453
 9431SOL    HW129192   1.075   5.222   5.472
 9431SOL    HW229193   1.079   5.108   5.355
 9432SOL     OW29194   6.573   2.315   3.135
 9432SOL    HW129195   6.634   2.395   3.136
 9432SOL    HW229196   6.485   2.340   3.175
 9433SOL     OW29197   4.763   5.795   1.475
 9433SOL    HW129198   4.785   5.878   1.526
 9433SOL    HW229199   4.840   5.732   1.478
 9434SOL     OW29200   5.203   6.153   4.719
 9434SOL    HW129201   5.226   6.226   4.783
 9434SOL    HW229202   5.264   6.075   4.734
 9435SOL     OW29203   6.859   3.770   0.050
 9435SOL    HW129204   6.785   3.816   0.001
 9435SOL    HW229205   6.820   3.711   0.121
 9436SOL     OW29206   2.836   2.267   2.661
 9436SOL    HW129207   2.846   2.179   2.707
 9436SOL    HW229208   2.811   2.337   2.727
 9437SOL     OW29209   4.379   1.279   3.556
 9437SOL    HW129210   4.302   1.291   3.494
 9437SOL    HW229211   4.408   1.183   3.555
 9438SOL     OW29212   4.350   0.682   2.523
 9438SOL    HW129213   4.384   0.591   2.548
 9438SOL    HW229214   4.251   0.680   2.516
 9439SOL     OW29215   1.879   4.859   0.664
 9439SOL    HW129216   1.910   4.820   0.751
 9439SOL    HW229217   1.892   4.958   0.666
 9440SOL     OW29218   1.678   4.828   3.910
 9440SOL    HW129219   1.609   4.766   3.949
 9440SOL    HW229220   1.743   4.854   3.981
 9441SOL     OW29221   6.979   6.744   4.227
 9441SOL    HW129222   6.996   6.809   4.152
 9441SOL    HW229223   6.882   6.723   4.232
 9442SOL     OW29224   6.344   2.615   0.640
 9442SOL    HW129225   6.354   2.714   0.632
 9442SOL    HW229226   6.434   2.573   0.653
 9443SOL     OW29227   0.933   4.788   1.265
 9443SOL    HW129228   0.920   4.868   1.323
 9443SOL    HW229229   0.860   4.722   1.283
 9444SOL     OW29230   1.864   6.080   5.783
 9444SOL    HW129231   1.878   6.005   5.847
 9444SOL    HW229232   1.796   6.143   5.819
 9445SOL     OW29233   1.352   1.162   4.205
 9445SOL    HW129234   1.314   1.242   4.158
 9445SOL    HW229235   1.279   1.115   4.254
 9446SOL     OW29236   4.805   5.902   3.185
 9446SOL    HW129237   4.876   5.853   3.134
 9446SOL    HW229238   4.772   5.844   3.260
 9447SOL     OW29239   6.163   5.152   2.292
 9447SOL    HW129240   6.117   5.066   2.271
 9447SOL    HW229241   6.191   5.197   2.207
 9448SOL     OW29242   5.059   3.267   0.094
 9448SOL    HW129243   4.996   3.336   0.130
 9448SOL    HW229244   5.153   3.300   0.103
 9449SOL     OW29245   3.982   0.385   2.584
 9449SOL    HW129246   3.940   0.399   2.674
 9449SOL    HW229247   4.018   0.472   2.550
 9450SOL     OW29248   0.663   0.286   2.060
 9450SOL    HW129249   0.717   0.320   1.983
 9450SOL    HW229250   0.569   0.317   2.051
 9451SOL     OW29251   4.244   4.988   0.256
 9451SOL    HW129252   4.313   5.011   0.187
 9451SOL    HW229253   4.162   5.044   0.241
 9452SOL     OW29254   6.102   2.741   5.331
 9452SOL    HW129255   6.073   2.759   5.425
 9452SOL    HW229256   6.027   2.762   5.269
 9453SOL     OW29257   6.046   4.679   2.638
 9453SOL    HW129258   6.015   4.718   2.725
 9453SOL    HW229259   6.097   4.749   2.587
 9454SOL     OW29260   5.088   5.326   1.406
 9454SOL    HW129261   5.047   5.298   1.493
 9454SOL    HW229262   5.144   5.407   1.421
 9455SOL     OW29263   4.547   0.876   1.470
 9455SOL    HW129264   4.467   0.819   1.488
 9455SOL    HW229265   4.548   0.954   1.532
 9456SOL     OW29266   6.714   2.300   1.794
 9456SOL    HW129267   6.677   2.281   1.703
 9456SOL    HW229268   6.813   2.289   1.793
 9457SOL     OW29269   6.612   6.266   4.216
 9457SOL    HW129270   6.666   6.344   4.249
 9457SOL    HW229271   6.537   6.300   4.159
 9458SOL     OW29272   0.029   4.465   0.151
 9458SOL    HW129273   0.069   4.512   0.229
 9458SOL    HW229274   0.102   4.426   0.094
 9459SOL     OW29275   6.672   4.332   4.942
 9459SOL    HW129276   6.703   4.352   5.035
 9459SOL    HW229277   6.583   4.287   4.945
 9460SOL     OW29278   2.345   2.840   3.071
 9460SOL    HW129279   2.290   2.898   3.130
 9460SOL    HW229280   2.442   2.855   3.089
 9461SOL     OW29281   1.127   1.273   1.110
 9461SOL    HW129282   1.199   1.321   1.060
 9461SOL    HW229283   1.042   1.277   1.057
 9462SOL     OW29284   6.846   1.161   4.906
 9462SOL    HW129285   6.810   1.254   4.907
 9462SOL    HW229286   6.939   1.161   4.869
 9463SOL     OW29287   0.683   4.948   1.016
 9463SOL    HW129288   0.781   4.929   1.011
 9463SOL    HW229289   0.667   5.043   0.989
 9464SOL     OW29290   1.719   1.252   2.120
 9464SOL    HW129291   1.776   1.250   2.202
 9464SOL    HW229292   1.703   1.347   2.093
 9465SOL     OW29293   1.732   5.583   6.751
 9465SOL    HW129294   1.718   5.667   6.803
 9465SOL    HW229295   1.649   5.562   6.699
 9466SOL     OW29296   3.567   4.167   5.480
 9466SOL    HW129297   3.505   4.231   5.525
 9466SOL    HW229298   3.609   4.212   5.401
 9467SOL     OW29299   1.326   3.705   1.682
 9467SOL    HW129300   1.280   3.650   1.612
 9467SOL    HW229301   1.423   3.681   1.685
 9468SOL     OW29302   0.138   2.365   1.019
 9468SOL    HW129303   0.115   2.399   0.928
 9468SOL    HW229304   0.175   2.440   1.074
 9469SOL     OW29305   5.649   0.036   2.094
 9469SOL    HW129306   5.606   6.970   2.111
 9469SOL    HW229307   5.746   0.032   2.118
 9470SOL     OW29308   3.065   3.407   1.542
 9470SOL    HW129309   3.112   3.486   1.503
 9470SOL    HW229310   3.062   3.416   1.642
 9471SOL     OW29311   0.087   3.306   4.888
 9471SOL    HW129312   0.098   3.374   4.816
 9471SOL    HW229313   0.113   3.216   4.853
 9472SOL     OW29314   2.505   4.232   6.143
 9472SOL    HW129315   2.593   4.252   6.100
 9472SOL    HW229316   2.498   4.134   6.161
 9473SOL     OW29317   2.943   3.385   2.466
 9473SOL    HW129318   2.947   3.411   2.562
 9473SOL    HW229319   3.025   3.417   2.419
 9474SOL     OW29320   5.541   4.321   0.593
 9474SOL    HW129321   5.629   4.334   0.548
 9474SOL    HW229322   5.533   4.227   0.626
 9475SOL     OW29323   6.417   3.701   6.872
 9475SOL    HW129324   6.487   3.651   6.821
 9475SOL    HW229325   6.397   3.787   6.825
 9476SOL     OW29326   4.128   3.267   1.200
 9476SOL    HW129327   4.178   3.279   1.114
 9476SOL    HW229328   4.123   3.169   1.222
 9477SOL     OW29329   0.548   5.724   1.368
 9477SOL    HW129330   0.506   5.641   1.405
 9477SOL    HW229331   0.586   5.704   1.278
 9478SOL     OW29332   0.186   3.597   5.410
 9478SOL    HW129333   0.156   3.582   5.316
 9478SOL    HW229334   0.109   3.630   5.465
 9479SOL     OW29335   4.204   0.600   2.005
 9479SOL    HW129336   4.137   0.595   1.931
 9479SOL    HW229337   4.232   0.507   2.030
 9480SOL     OW29338   5.190   1.443   1.360
 9480SOL    HW129339   5.278   1.458   1.406
 9480SOL    HW229340   5.204   1.382   1.282
 9481SOL     OW29341   5.116   6.899   3.568
 9481SOL    HW129342   5.159   6.933   3.651
 9481SOL    HW229343   5.114   6.799   3.570
 9482SOL     OW29344   5.859   3.794   6.654
 9482SOL    HW129345   5.866   3.892   6.674
 9482SOL    HW229346   5.793   3.780   6.580
 9483SOL     OW29347   5.916   4.849   0.367
 9483SOL    HW129348   6.007   4.823   0.334
 9483SOL    HW229349   5.847   4.790   0.327
 9484SOL     OW29350   1.037   5.358   4.139
 9484SOL    HW129351   0.977   5.278   4.137
 9484SOL    HW229352   1.115   5.344   4.078
 9485SOL     OW29353   6.471   1.531   5.844
 9485SOL    HW129354   6.495   1.510   5.939
 9485SOL    HW229355   6.382   1.577   5.841
 9486SOL     OW29356   6.080   5.388   6.150
 9486SOL    HW129357   6.147   5.454   6.116
 9486SOL    HW229358   6.116   5.295   6.136
 9487SOL     OW29359   3.207   3.945   3.583
 9487SOL    HW129360   3.158   3.984   3.661
 9487SOL    HW229361   3.172   3.853   3.564
 9488SOL     OW29362   0.617   1.589   2.395
 9488SOL    HW129363   0.608   1.581   2.296
 9488SOL    HW229364   0.538   1.638   2.432
 9489SOL     OW29365   0.435   4.452   0.125
 9489SOL    HW129366   0.497   4.414   0.193
 9489SOL    HW229367   0.382   4.378   0.083
 9490SOL     OW29368   5.649   3.491   5.296
 9490SOL    HW129369   5.660   3.586   5.325
 9490SOL    HW229370   5.706   3.432   5.353
 9491SOL     OW29371   5.191   0.580   1.940
 9491SOL    HW129372   5.216   0.492   1.900
 9491SOL    HW229373   5.095   0.579   1.966
 9492SOL     OW29374   4.707   2.869   3.921
 9492SOL    HW129375   4.731   2.827   3.834
 9492SOL    HW229376   4.613   2.844   3.946
 9493SOL     OW29377   2.757   6.701   3.912
 9493SOL    HW129378   2.760   6.639   3.991
 9493SOL    HW229379   2.778   6.649   3.829
 9494SOL     OW29380   4.764   2.444   2.678
 9494SOL    HW129381   4.830   2.435   2.603
 9494SOL    HW229382   4.694   2.511   2.652
 9495SOL     OW29383   6.568   2.477   0.569
 9495SOL    HW129384   6.619   2.498   0.485
 9495SOL    HW229385   6.490   2.418   0.546
 9496SOL     OW29386   6.131   3.263   0.744
 9496SOL    HW129387   6.194   3.299   0.675
 9496SOL    HW229388   6.099   3.338   0.802
 9497SOL     OW29389   6.037   4.896   5.079
 9497SOL    HW129390   6.065   4.966   5.013
 9497SOL    HW229391   5.948   4.920   5.117
 9498SOL     OW29392   1.196   6.174   5.598
 9498SOL    HW129393   1.114   6.225   5.625
 9498SOL    HW229394   1.169   6.092   5.548
 9499SOL     OW29395   5.420   5.834   3.578
 9499SOL    HW129396   5.420   5.866   3.483
 9499SOL    HW229397   5.351   5.763   3.589
 9500SOL     OW29398   2.017   1.926   0.683
 9500SOL    HW129399   2.057   2.016   0.704
 9500SOL    HW229400   1.957   1.934   0.604
 9501SOL     OW29401   1.386   2.973   4.931
 9501SOL    HW129402   1.397   2.894   4.993
 9501SOL    HW229403   1.359   3.053   4.985
 9502SOL     OW29404   5.783   4.638   3.561
 9502SOL    HW129405   5.726   4.556   3.567
 9502SOL    HW229406   5.793   4.679   3.651
 9503SOL     OW29407   6.926   0.648   0.086
 9503SOL    HW129408   6.967   0.576   0.030
 9503SOL    HW229409   6.873   0.606   0.160
 9504SOL     OW29410   5.802   4.468   2.849
 9504SOL    HW129411   5.768   4.562   2.861
 9504SOL    HW229412   5.896   4.462   2.885
 9505SOL     OW29413   4.466   2.335   6.968
 9505SOL    HW129414   4.523   2.343   6.887
 9505SOL    HW229415   4.463   2.423   7.016
 9506SOL     OW29416   3.991   0.419   1.615
 9506SOL    HW129417   4.052   0.489   1.651
 9506SOL    HW229418   4.010   0.332   1.662
 9507SOL     OW29419   6.822   5.892   1.182
 9507SOL    HW129420   6.817   5.797   1.150
 9507SOL    HW229421   6.856   5.893   1.276
 9508SOL     OW29422   4.993   2.017   1.991
 9508SOL    HW129423   5.072   1.972   2.033
 9508SOL    HW229424   5.024   2.078   1.918
 9509SOL     OW29425   5.243   1.841   3.922
 9509SOL    HW129426   5.301   1.844   3.841
 9509SOL    HW229427   5.208   1.933   3.941
 9510SOL     OW29428   1.911   3.008   2.726
 9510SOL    HW129429   1.971   3.007   2.806
 9510SOL    HW229430   1.932   2.930   2.667
 9511SOL     OW29431   0.388   1.179   0.628
 9511SOL    HW129432   0.473   1.181   0.681
 9511SOL    HW229433   0.351   1.272   0.621
 9512SOL     OW29434   5.910   2.565   1.689
 9512SOL    HW129435   5.903   2.508   1.608
 9512SOL    HW229436   5.961   2.515   1.760
 9513SOL     OW29437   5.220   3.307   4.371
 9513SOL    HW129438   5.304   3.359   4.392
 9513SOL    HW229439   5.141   3.367   4.383
 9514SOL     OW29440   3.877   3.193   1.087
 9514SOL    HW129441   3.831   3.140   1.158
 9514SOL    HW229442   3.961   3.232   1.124
 9515SOL     OW29443   6.205   6.782   2.622
 9515SOL    HW129444   6.261   6.857   2.585
 9515SOL    HW229445   6.141   6.752   2.552
 9516SOL     OW29446   1.328   2.515   0.248
 9516SOL    HW129447   1.411   2.467   0.276
 9516SOL    HW229448   1.345   2.564   0.163
 9517SOL     OW29449   0.267   6.538   2.673
 9517SOL    HW129450   0.317   6.603   2.730
 9517SOL    HW229451   0.286   6.445   2.705
 9518SOL     OW29452   6.121   0.112   0.872
 9518SOL    HW129453   6.155   0.085   0.781
 9518SOL    HW229454   6.157   0.202   0.896
 9519SOL     OW29455   1.471   2.629   5.739
 9519SOL    HW129456   1.455   2.666   5.830
 9519SOL    HW229457   1.403   2.558   5.720
 9520SOL     OW29458   3.378   6.693   1.661
 9520SOL    HW129459   3.406   6.669   1.754
 9520SOL    HW229460   3.459   6.722   1.609
 9521SOL     OW29461   5.590   5.194   2.947
 9521SOL    HW129462   5.554   5.280   2.911
 9521SOL    HW229463   5.683   5.208   2.978
 9522SOL     OW29464   3.714   4.891   5.073
 9522SOL    HW129465   3.616   4.885   5.050
 9522SOL    HW229466   3.753   4.972   5.029
 9523SOL     OW29467   1.949   0.010   4.508
 9523SOL    HW129468   1.913   6.962   4.447
 9523SOL    HW229469   2.005   0.074   4.456
 9524SOL     OW29470   5.955   3.461   0.390
 9524SOL    HW129471   5.964   3.375   0.338
 9524SOL    HW229472   5.917   3.532   0.330
 9525SOL     OW29473   4.174   0.649   3.848
 9525SOL    HW129474   4.178   0.651   3.748
 9525SOL    HW229475   4.265   0.661   3.886
 9526SOL     OW29476   4.693   5.771   0.845
 9526SOL    HW129477   4.698   5.687   0.900
 9526SOL    HW229478   4.618   5.763   0.780
 9527SOL     OW29479   0.145   0.995   0.225
 9527SOL    HW129480   0.160   1.006   0.127
 9527SOL    HW229481   0.133   0.898   0.247
 9528SOL     OW29482   5.449   1.672   2.134
 9528SOL    HW129483   5.407   1.699   2.047
 9528SOL    HW229484   5.532   1.726   2.149
 9529SOL     OW29485   1.152   2.407   5.428
 9529SOL    HW129486   1.207   2.323   5.424
 9529SOL    HW229487   1.194   2.476   5.369
 9530SOL     OW29488   2.356   1.322   3.690
 9530SOL    HW129489   2.431   1.291   3.632
 9530SOL    HW229490   2.322   1.245   3.744
 9531SOL     OW29491   2.649   6.102   3.977
 9531SOL    HW129492   2.595   6.080   3.896
 9531SOL    HW229493   2.746   6.084   3.958
 9532SOL     OW29494   3.148   1.182   1.478
 9532SOL    HW129495   3.244   1.208   1.489
 9532SOL    HW229496   3.093   1.264   1.464
 9533SOL     OW29497   0.294   1.418   3.712
 9533SOL    HW129498   0.375   1.381   3.667
 9533SOL    HW229499   0.239   1.468   3.646
 9534SOL     OW29500   4.700   1.506   4.194
 9534SOL    HW129501   4.779   1.553   4.234
 9534SOL    HW229502   4.688   1.538   4.099
 9535SOL     OW29503   3.240   1.923   4.444
 9535SOL    HW129504   3.297   1.981   4.385
 9535SOL    HW229505   3.152   1.967   4.459
 9536SOL     OW29506   2.459   5.914   6.371
 9536SOL    HW129507   2.429   5.950   6.282
 9536SOL    HW229508   2.381   5.911   6.433
 9537SOL     OW29509   2.157   0.094   0.213
 9537SOL    HW129510   2.222   0.018   0.213
 9537SOL    HW229511   2.065   0.059   0.232
 9538SOL     OW29512   5.374   3.952   3.196
 9538SOL    HW129513   5.298   4.016   3.193
 9538SOL    HW229514   5.420   3.958   3.284
 9539SOL     OW29515   1.359   2.719   0.748
 9539SOL    HW129516   1.386   2.688   0.657
 9539SOL    HW229517   1.438   2.757   0.795
 9540SOL     OW29518   6.079   3.341   5.750
 9540SOL    HW129519   6.007   3.284   5.789
 9540SOL    HW229520   6.162   3.331   5.805
 9541SOL     OW29521   6.259   2.787   2.594
 9541SOL    HW129522   6.206   2.732   2.658
 9541SOL    HW229523   6.223   2.880   2.592
 9542SOL     OW29524   4.998   3.701   4.404
 9542SOL    HW129525   4.973   3.683   4.309
 9542SOL    HW229526   5.094   3.676   4.419
 9543SOL     OW29527   4.043   2.470   0.054
 9543SOL    HW129528   3.982   2.506   0.124
 9543SOL    HW229529   3.996   2.467   6.988
 9544SOL     OW29530   5.063   6.942   0.977
 9544SOL    HW129531   5.110   6.957   0.890
 9544SOL    HW229532   4.964   6.940   0.961
 9545SOL     OW29533   1.263   0.586   4.178
 9545SOL    HW129534   1.244   0.558   4.084
 9545SOL    HW229535   1.354   0.627   4.182
 9546SOL     OW29536   3.020   4.182   1.751
 9546SOL    HW129537   3.075   4.222   1.678
 9546SOL    HW229538   2.971   4.255   1.799
 9547SOL     OW29539   5.641   0.670   2.571
 9547SOL    HW129540   5.632   0.578   2.533
 9547SOL    HW229541   5.688   0.665   2.659
 9548SOL     OW29542   6.306   6.540   1.518
 9548SOL    HW129543   6.218   6.512   1.480
 9548SOL    HW229544   6.334   6.477   1.590
 9549SOL     OW29545   2.318   6.260   6.958
 9549SOL    HW129546   2.384   6.230   0.005
 9549SOL    HW229547   2.248   6.189   6.945
 9550SOL     OW29548   1.362   0.783   1.095
 9550SOL    HW129549   1.402   0.802   1.185
 9550SOL    HW229550   1.267   0.754   1.106
 9551SOL     OW29551   1.275   5.584   4.805
 9551SOL    HW129552   1.188   5.628   4.784
 9551SOL    HW229553   1.268   5.532   4.890
 9552SOL     OW29554   6.405   5.542   3.350
 9552SOL    HW129555   6.492   5.584   3.377
 9552SOL    HW229556   6.421   5.478   3.275
 9553SOL     OW29557   4.795   4.930   6.813
 9553SOL    HW129558   4.814   4.941   6.715
 9553SOL    HW229559   4.881   4.938   6.864
 9554SOL     OW29560   1.553   2.967   1.747
 9554SOL    HW129561   1.538   3.066   1.747
 9554SOL    HW229562   1.555   2.933   1.841
 9555SOL     OW29563   0.819   2.325   6.142
 9555SOL    HW129564   0.778   2.240   6.174
 9555SOL    HW229565   0.761   2.365   6.071
 9556SOL     OW29566   5.592   1.754   1.757
 9556SOL    HW129567   5.590   1.773   1.659
 9556SOL    HW229568   5.500   1.732   1.789
 9557SOL     OW29569   5.109   1.842   0.750
 9557SOL    HW129570   5.150   1.820   0.662
 9557SOL    HW229571   5.107   1.941   0.763
 9558SOL     OW29572   6.684   3.934   1.752
 9558SOL    HW129573   6.733   3.961   1.669
 9558SOL    HW229574   6.727   3.854   1.792
 9559SOL     OW29575   0.427   4.763   3.361
 9559SOL    HW129576   0.359   4.735   3.428
 9559SOL    HW229577   0.467   4.682   3.319
 9560SOL     OW29578   3.915   2.850   6.075
 9560SOL    HW129579   3.938   2.918   6.006
 9560SOL    HW229580   3.935   2.887   6.166
 9561SOL     OW29581   3.372   5.121   6.480
 9561SOL    HW129582   3.276   5.143   6.502
 9561SOL    HW229583   3.375   5.056   6.404
 9562SOL     OW29584   6.066   5.700   4.253
 9562SOL    HW129585   6.127   5.763   4.205
 9562SOL    HW229586   5.984   5.749   4.281
 9563SOL     OW29587   0.628   1.431   5.603
 9563SOL    HW129588   0.617   1.441   5.504
 9563SOL    HW229589   0.555   1.479   5.650
 9564SOL     OW29590   6.720   0.158   5.965
 9564SOL    HW129591   6.667   0.164   6.050
 9564SOL    HW229592   6.736   0.062   5.942
 9565SOL     OW29593   2.763   5.443   5.293
 9565SOL    HW129594   2.800   5.444   5.386
 9565SOL    HW229595   2.783   5.355   5.251
 9566SOL     OW29596   2.337   6.025   5.280
 9566SOL    HW129597   2.240   6.019   5.304
 9566SOL    HW229598   2.369   6.118   5.295
 9567SOL     OW29599   5.212   5.709   3.208
 9567SOL    HW129600   5.278   5.777   3.237
 9567SOL    HW229601   5.138   5.754   3.157
 9568SOL     OW29602   6.432   3.513   4.586
 9568SOL    HW129603   6.502   3.492   4.654
 9568SOL    HW229604   6.361   3.569   4.629
 9569SOL     OW29605   5.471   0.515   1.069
 9569SOL    HW129606   5.513   0.454   1.136
 9569SOL    HW229607   5.373   0.496   1.064
 9570SOL     OW29608   0.428   3.953   6.590
 9570SOL    HW129609   0.506   3.892   6.600
 9570SOL    HW229610   0.450   4.042   6.632
 9571SOL     OW29611   3.526   1.773   0.757
 9571SOL    HW129612   3.521   1.675   0.777
 9571SOL    HW229613   3.620   1.797   0.732
 9572SOL     OW29614   0.832   3.600   1.335
 9572SOL    HW129615   0.816   3.505   1.363
 9572SOL    HW229616   0.893   3.601   1.256
 9573SOL     OW29617   4.334   2.015   1.560
 9573SOL    HW129618   4.322   1.916   1.559
 9573SOL    HW229619   4.263   2.058   1.616
 9574SOL     OW29620   2.071   1.529   2.840
 9574SOL    HW129621   1.993   1.519   2.902
 9574SOL    HW229622   2.069   1.620   2.799
 9575SOL     OW29623   3.025   1.608   2.614
 9575SOL    HW129624   3.087   1.674   2.571
 9575SOL    HW229625   3.079   1.545   2.671
 9576SOL     OW29626   4.857   2.584   5.627
 9576SOL    HW129627   4.931   2.518   5.616
 9576SOL    HW229628   4.821   2.609   5.537
 9577SOL     OW29629   0.692   6.083   3.782
 9577SOL    HW129630   0.592   6.074   3.782
 9577SOL    HW229631   0.733   5.996   3.758
 9578SOL     OW29632   6.155   4.032   1.896
 9578SOL    HW129633   6.147   4.131   1.908
 9578SOL    HW229634   6.064   3.992   1.885
 9579SOL     OW29635   1.390   4.898   2.877
 9579SOL    HW129636   1.429   4.950   2.952
 9579SOL    HW229637   1.453   4.825   2.849
 9580SOL     OW29638   3.800   3.672   5.164
 9580SOL    HW129639   3.709   3.678   5.204
 9580SOL    HW229640   3.859   3.614   5.221
 9581SOL     OW29641   0.314   6.819   6.582
 9581SOL    HW129642   0.410   6.824   6.556
 9581SOL    HW229643   0.262   6.891   6.535
 9582SOL     OW29644   3.977   5.193   2.816
 9582SOL    HW129645   3.983   5.101   2.854
 9582SOL    HW229646   4.025   5.196   2.728
 9583SOL     OW29647   1.072   5.148   2.719
 9583SOL    HW129648   1.047   5.132   2.814
 9583SOL    HW229649   1.008   5.213   2.679
 9584SOL     OW29650   5.052   5.079   6.684
 9584SOL    HW129651   5.052   4.986   6.719
 9584SOL    HW229652   4.969   5.095   6.632
 9585SOL     OW29653   5.950   1.901   2.106
 9585SOL    HW129654   6.013   1.937   2.037
 9585SOL    HW229655   5.961   1.954   2.191
 9586SOL     OW29656   4.069   5.114   2.322
 9586SOL    HW129657   4.108   5.030   2.284
 9586SOL    HW229658   4.084   5.189   2.258
 9587SOL     OW29659   4.385   6.458   2.176
 9587SOL    HW129660   4.472   6.492   2.140
 9587SOL    HW229661   4.383   6.471   2.275
 9588SOL     OW29662   6.139   1.545   3.653
 9588SOL    HW129663   6.193   1.560   3.736
 9588SOL    HW229664   6.201   1.526   3.576
 9589SOL     OW29665   4.128   1.932   5.185
 9589SOL    HW129666   4.066   2.010   5.173
 9589SOL    HW229667   4.082   1.848   5.155
 9590SOL     OW29668   0.056   5.144   5.660
 9590SOL    HW129669   0.010   5.104   5.739
 9590SOL    HW229670   0.135   5.197   5.690
 9591SOL     OW29671   0.293   4.151   2.121
 9591SOL    HW129672   0.204   4.115   2.095
 9591SOL    HW229673   0.303   4.244   2.085
 9592SOL     OW29674   3.650   5.686   0.781
 9592SOL    HW129675   3.610   5.594   0.780
 9592SOL    HW229676   3.670   5.713   0.875
 9593SOL     OW29677   2.051   2.715   3.415
 9593SOL    HW129678   2.066   2.768   3.331
 9593SOL    HW229679   1.965   2.744   3.458
 9594SOL     OW29680   5.913   0.202   0.657
 9594SOL    HW129681   5.994   0.155   0.691
 9594SOL    HW229682   5.907   0.191   0.557
 9595SOL     OW29683   1.890   4.379   5.414
 9595SOL    HW129684   1.877   4.477   5.401
 9595SOL    HW229685   1.896   4.334   5.325
 9596SOL     OW29686   5.350   4.517   2.358
 9596SOL    HW129687   5.287   4.587   2.390
 9596SOL    HW229688   5.374   4.456   2.433
 9597SOL     OW29689   1.323   4.237   2.174
 9597SOL    HW129690   1.416   4.270   2.188
 9597SOL    HW229691   1.266   4.312   2.139
 9598SOL     OW29692   0.873   6.307   4.729
 9598SOL    HW129693   0.972   6.301   4.745
 9598SOL    HW229694   0.825   6.252   4.797
 9599SOL     OW29695   3.872   2.008   5.598
 9599SOL    HW129696   3.823   2.093   5.578
 9599SOL    HW229697   3.967   2.017   5.569
 9600SOL     OW29698   1.718   5.371   6.950
 9600SOL    HW129699   1.756   5.440   6.889
 9600SOL    HW229700   1.781   5.354   0.004
 9601SOL     OW29701   1.222   0.441   5.309
 9601SOL    HW129702   1.280   0.488   5.242
 9601SOL    HW229703   1.212   0.345   5.283
 9602SOL     OW29704   1.104   5.490   6.174
 9602SOL    HW129705   1.156   5.574   6.186
 9602SOL    HW229706   1.011   5.512   6.145
 9603SOL     OW29707   1.104   5.252   2.095
 9603SOL    HW129708   1.172   5.200   2.043
 9603SOL    HW229709   1.147   5.294   2.174
 9604SOL     OW29710   6.320   0.204   5.761
 9604SOL    HW129711   6.299   0.284   5.705
 9604SOL    HW229712   6.255   0.198   5.837
 9605SOL     OW29713   3.161   5.138   0.245
 9605SOL    HW129714   3.070   5.096   0.246
 9605SOL    HW229715   3.229   5.070   0.271
 9606SOL     OW29716   6.707   1.363   4.353
 9606SOL    HW129717   6.689   1.459   4.331
 9606SOL    HW229718   6.621   1.318   4.377
 9607SOL     OW29719   6.769   4.244   3.713
 9607SOL    HW129720   6.673   4.241   3.686
 9607SOL    HW229721   6.782   4.186   3.794
 9608SOL     OW29722   6.135   0.636   1.316
 9608SOL    HW129723   6.200   0.600   1.248
 9608SOL    HW229724   6.176   0.714   1.363
 9609SOL     OW29725   0.958   1.879   3.396
 9609SOL    HW129726   1.031   1.886   3.327
 9609SOL    HW229727   0.999   1.880   3.487
 9610SOL     OW29728   5.363   1.303   6.459
 9610SOL    HW129729   5.440   1.362   6.435
 9610SOL    HW229730   5.347   1.237   6.385
 9611SOL     OW29731   5.077   5.054   1.674
 9611SOL    HW129732   5.163   5.080   1.718
 9611SOL    HW229733   5.003   5.111   1.710
 9612SOL     OW29734   4.721   4.291   3.761
 9612SOL    HW129735   4.791   4.311   3.830
 9612SOL    HW229736   4.730   4.196   3.732
 9613SOL     OW29737   4.149   1.274   4.701
 9613SOL    HW129738   4.237   1.227   4.696
 9613SOL    HW229739   4.104   1.271   4.611
 9614SOL     OW29740   3.521   3.083   6.696
 9614SOL    HW129741   3.423   3.102   6.697
 9614SOL    HW229742   3.569   3.161   6.656
 9615SOL     OW29743   6.158   6.777   3.470
 9615SOL    HW129744   6.169   6.734   3.559
 9615SOL    HW229745   6.093   6.853   3.477
 9616SOL     OW29746   0.039   2.068   6.905
 9616SOL    HW129747   6.991   2.008   6.942
 9616SOL    HW229748   0.007   2.163   6.909
 9617SOL     OW29749   1.437   3.587   3.918
 9617SOL    HW129750   1.525   3.583   3.965
 9617SOL    HW229751   1.363   3.574   3.985
 9618SOL     OW29752   5.083   4.439   1.416
 9618SOL    HW129753   5.131   4.357   1.386
 9618SOL    HW229754   5.101   4.454   1.514
 9619SOL     OW29755   1.466   1.442   0.383
 9619SOL    HW129756   1.556   1.479   0.360
 9619SOL    HW229757   1.396   1.492   0.331
 9620SOL     OW29758   2.914   0.821   6.425
 9620SOL    HW129759   2.981   0.896   6.426
 9620SOL    HW229760   2.901   0.787   6.518
 9621SOL     OW29761   0.148   0.376   0.186
 9621SOL    HW129762   0.113   0.426   0.106
 9621SOL    HW229763   0.124   0.279   0.177
 9622SOL     OW29764   6.415   0.215   4.641
 9622SOL    HW129765   6.481   0.265   4.697
 9622SOL    HW229766   6.395   0.126   4.683
 9623SOL     OW29767   2.213   5.676   6.032
 9623SOL    HW129768   2.210   5.708   5.938
 9623SOL    HW229769   2.289   5.612   6.044
 9624SOL     OW29770   4.361   5.458   6.692
 9624SOL    HW129771   4.440   5.412   6.732
 9624SOL    HW229772   4.310   5.393   6.636
 9625SOL     OW29773   5.317   3.674   5.807
 9625SOL    HW129774   5.380   3.625   5.868
 9625SOL    HW229775   5.223   3.662   5.839
 9626SOL     OW29776   2.674   2.561   0.533
 9626SOL    HW129777   2.645   2.625   0.462
 9626SOL    HW229778   2.621   2.578   0.616
 9627SOL     OW29779   0.273   5.299   0.580
 9627SOL    HW129780   0.215   5.221   0.558
 9627SOL    HW229781   0.362   5.287   0.536
 9628SOL     OW29782   5.863   1.812   5.692
 9628SOL    HW129783   5.896   1.728   5.648
 9628SOL    HW229784   5.768   1.799   5.721
 9629SOL     OW29785   0.389   5.911   4.027
 9629SOL    HW129786   0.443   5.827   4.019
 9629SOL    HW229787   0.298   5.889   4.063
 9630SOL     OW29788   6.142   0.625   5.204
 9630SOL    HW129789   6.136   0.526   5.209
 9630SOL    HW229790   6.130   0.664   5.295
 9631SOL     OW29791   4.426   5.719   0.247
 9631SOL    HW129792   4.466   5.676   0.328
 9631SOL    HW229793   4.405   5.814   0.267
 9632SOL     OW29794   2.207   5.292   3.710
 9632SOL    HW129795   2.294   5.260   3.673
 9632SOL    HW229796   2.136   5.283   3.640
 9633SOL     OW29797   2.337   3.108   5.573
 9633SOL    HW129798   2.382   3.179   5.518
 9633SOL    HW229799   2.317   3.029   5.514
 9634SOL     OW29800   5.456   4.734   2.850
 9634SOL    HW129801   5.472   4.726   2.948
 9634SOL    HW229802   5.370   4.690   2.826
 9635SOL     OW29803   0.223   5.099   4.184
 9635SOL    HW129804   0.182   5.034   4.247
 9635SOL    HW229805   0.239   5.186   4.231
 9636SOL     OW29806   4.924   3.705   3.761
 9636SOL    HW129807   4.904   3.632   3.697
 9636SOL    HW229808   4.874   3.690   3.846
 9637SOL     OW29809   3.106   2.460   5.929
 9637SOL    HW129810   3.110   2.520   5.849
 9637SOL    HW229811   3.025   2.481   5.984
 9638SOL     OW29812   1.190   4.508   6.061
 9638SOL    HW129813   1.152   4.457   5.984
 9638SOL    HW229814   1.180   4.454   6.145
 9639SOL     OW29815   5.482   3.465   1.173
 9639SOL    HW129816   5.448   3.548   1.219
 9639SOL    HW229817   5.573   3.482   1.137
 9640SOL     OW29818   2.261   5.609   3.554
 9640SOL    HW129819   2.292   5.634   3.645
 9640SOL    HW229820   2.233   5.692   3.505
 9641SOL     OW29821   0.659   2.525   4.584
 9641SOL    HW129822   0.722   2.482   4.649
 9641SOL    HW229823   0.573   2.474   4.581
 9642SOL     OW29824   0.979   3.164   4.608
 9642SOL    HW129825   0.998   3.066   4.604
 9642SOL    HW229826   0.908   3.188   4.542
 9643SOL     OW29827   6.737   5.955   5.056
 9643SOL    HW129828   6.787   5.868   5.053
 9643SOL    HW229829   6.649   5.941   5.101
 9644SOL     OW29830   1.057   4.775   3.756
 9644SOL    HW129831   1.019   4.867   3.751
 9644SOL    HW229832   1.025   4.729   3.838
 9645SOL     OW29833   0.252   4.812   0.941
 9645SOL    HW129834   0.306   4.895   0.934
 9645SOL    HW229835   0.162   4.833   0.981
 9646SOL     OW29836   2.193   4.641   0.715
 9646SOL    HW129837   2.238   4.727   0.736
 9646SOL    HW229838   2.161   4.641   0.620
 9647SOL     OW29839   4.781   0.404   2.487
 9647SOL    HW129840   4.842   0.328   2.465
 9647SOL    HW229841   4.800   0.436   2.580
 9648SOL     OW29842   4.102   1.448   1.146
 9648SOL    HW129843   4.099   1.440   1.047
 9648SOL    HW229844   4.168   1.519   1.172
 9649SOL     OW29845   0.088   5.502   0.548
 9649SOL    HW129846   0.122   5.588   0.509
 9649SOL    HW229847   0.162   5.436   0.553
 9650SOL     OW29848   0.022   5.476   5.570
 9650SOL    HW129849   0.120   5.452   5.574
 9650SOL    HW229850   7.021   5.502   5.477
 9651SOL     OW29851   4.421   1.320   0.972
 9651SOL    HW129852   4.511   1.338   1.010
 9651SOL    HW229853   4.362   1.280   1.042
 9652SOL     OW29854   0.622   4.070   6.994
 9652SOL    HW129855   0.548   4.030   0.026
 9652SOL    HW229856   0.672   4.137   0.027
 9653SOL     OW29857   5.995   3.509   5.176
 9653SOL    HW129858   5.920   3.455   5.214
 9653SOL    HW229859   5.991   3.602   5.211
 9654SOL     OW29860   3.394   3.410   4.628
 9654SOL    HW129861   3.448   3.442   4.706
 9654SOL    HW229862   3.338   3.486   4.593
 9655SOL     OW29863   4.223   1.013   0.469
 9655SOL    HW129864   4.232   0.987   0.373
 9655SOL    HW229865   4.133   0.987   0.503
 9656SOL     OW29866   5.204   4.601   4.799
 9656SOL    HW129867   5.276   4.666   4.822
 9656SOL    HW229868   5.164   4.625   4.710
 9657SOL     OW29869   4.879   4.739   2.403
 9657SOL    HW129870   4.804   4.789   2.360
 9657SOL    HW229871   4.901   4.659   2.347
 9658SOL     OW29872   4.643   1.240   3.002
 9658SOL    HW129873   4.667   1.170   2.936
 9658SOL    HW229874   4.653   1.204   3.095
 9659SOL     OW29875   4.572   2.899   0.057
 9659SOL    HW129876   4.630   2.827   0.095
 9659SOL    HW229877   4.490   2.910   0.113
 9660SOL     OW29878   1.884   0.183   1.687
 9660SOL    HW129879   1.961   0.247   1.687
 9660SOL    HW229880   1.802   0.229   1.720
 9661SOL     OW29881   3.813   3.465   2.501
 9661SOL    HW129882   3.834   3.450   2.404
 9661SOL    HW229883   3.812   3.563   2.520
 9662SOL     OW29884   4.242   0.420   5.011
 9662SOL    HW129885   4.147   0.392   5.009
 9662SOL    HW229886   4.258   0.493   4.944
 9663SOL     OW29887   1.158   5.958   2.394
 9663SOL    HW129888   1.136   5.926   2.302
 9663SOL    HW229889   1.074   5.986   2.441
 9664SOL     OW29890   1.743   4.687   2.550
 9664SOL    HW129891   1.672   4.739   2.598
 9664SOL    HW229892   1.828   4.692   2.602
 9665SOL     OW29893   6.288   3.473   0.573
 9665SOL    HW129894   6.199   3.520   0.571
 9665SOL    HW229895   6.313   3.448   0.479
 9666SOL     OW29896   5.242   4.596   1.248
 9666SOL    HW129897   5.171   4.558   1.308
 9666SOL    HW229898   5.326   4.544   1.260
 9667SOL     OW29899   5.600   5.937   7.012
 9667SOL    HW129900   5.607   6.003   6.937
 9667SOL    HW229901   5.551   5.979   0.067
 9668SOL     OW29902   1.991   0.356   0.272
 9668SOL    HW129903   1.939   0.343   0.188
 9668SOL    HW229904   1.952   0.299   0.344
 9669SOL     OW29905   3.597   0.010   0.539
 9669SOL    HW129906   3.505   0.050   0.544
 9669SOL    HW229907   3.627   7.007   0.631
 9670SOL     OW29908   0.514   6.898   2.962
 9670SOL    HW129909   0.587   6.947   3.010
 9670SOL    HW229910   0.531   6.902   2.863
 9671SOL     OW29911   1.518   5.437   6.631
 9671SOL    HW129912   1.490   5.516   6.577
 9671SOL    HW229913   1.528   5.358   6.572
 9672SOL     OW29914   0.519   4.166   4.075
 9672SOL    HW129915   0.511   4.218   4.161
 9672SOL    HW229916   0.429   4.131   4.050
 9673SOL     OW29917   1.944   3.020   5.552
 9673SOL    HW129918   2.019   2.967   5.593
 9673SOL    HW229919   1.982   3.097   5.501
 9674SOL     OW29920   1.555   0.256   3.465
 9674SOL    HW129921   1.505   0.236   3.381
 9674SOL    HW229922   1.579   0.353   3.467
 9675SOL     OW29923   6.899   4.098   6.024
 9675SOL    HW129924   6.985   4.069   5.981
 9675SOL    HW229925   6.917   4.128   6.117
 9676SOL     OW29926   0.753   2.939   6.160
 9676SOL    HW129927   0.828   2.985   6.110
 9676SOL    HW229928   0.784   2.916   6.252
 9677SOL     OW29929   0.703   5.125   3.672
 9677SOL    HW129930   0.709   5.225   3.669
 9677SOL    HW229931   0.745   5.087   3.590
 9678SOL     OW29932   4.425   2.754   6.447
 9678SOL    HW129933   4.521   2.731   6.463
 9678SOL    HW229934   4.387   2.796   6.529
 9679SOL     OW29935   2.104   1.149   4.333
 9679SOL    HW129936   2.115   1.138   4.432
 9679SOL    HW229937   2.024   1.097   4.303
 9680SOL     OW29938   4.386   6.169   2.764
 9680SOL    HW129939   4.323   6.103   2.805
 9680SOL    HW229940   4.412   6.138   2.673
 9681SOL     OW29941   0.525   2.468   1.093
 9681SOL    HW129942   0.449   2.455   1.157
 9681SOL    HW229943   0.492   2.462   0.999
 9682SOL     OW29944   3.942   6.649   4.796
 9682SOL    HW129945   3.860   6.650   4.740
 9682SOL    HW229946   3.920   6.684   4.887
 9683SOL     OW29947   3.191   5.541   4.072
 9683SOL    HW129948   3.259   5.507   4.007
 9683SOL    HW229949   3.135   5.612   4.028
 9684SOL     OW29950   0.986   2.559   6.260
 9684SOL    HW129951   0.985   2.520   6.352
 9684SOL    HW229952   0.981   2.486   6.192
 9685SOL     OW29953   3.873   4.674   1.656
 9685SOL    HW129954   3.927   4.590   1.664
 9685SOL    HW229955   3.794   4.669   1.717
 9686SOL     OW29956   1.376   1.401   5.999
 9686SOL    HW129957   1.393   1.387   6.097
 9686SOL    HW229958   1.376   1.499   5.979
 9687SOL     OW29959   5.727   0.900   3.818
 9687SOL    HW129960   5.781   0.816   3.818
 9687SOL    HW229961   5.659   0.896   3.746
 9688SOL     OW29962   0.841   5.308   2.618
 9688SOL    HW129963   0.746   5.311   2.649
 9688SOL    HW229964   0.846   5.257   2.532
 9689SOL     OW29965   1.839   6.094   1.074
 9689SOL    HW129966   1.874   6.008   1.111
 9689SOL    HW229967   1.837   6.163   1.146
 9690SOL     OW29968   6.677   4.809   4.265
 9690SOL    HW129969   6.752   4.874   4.249
 9690SOL    HW229970   6.597   4.859   4.297
 9691SOL     OW29971   3.863   3.923   2.792
 9691SOL    HW129972   3.907   3.961   2.710
 9691SOL    HW229973   3.792   3.985   2.824
 9692SOL     OW29974   6.949   5.813   0.335
 9692SOL    HW129975   6.991   5.730   0.297
 9692SOL    HW229976   6.850   5.801   0.340
 9693SOL     OW29977   4.002   4.253   6.848
 9693SOL    HW129978   4.014   4.337   6.901
 9693SOL    HW229979   3.945   4.189   6.899
 9694SOL     OW29980   2.085   5.632   1.422
 9694SOL    HW129981   2.168   5.597   1.380
 9694SOL    HW229982   2.108   5.694   1.497
 9695SOL     OW29983   1.180   2.833   3.511
 9695SOL    HW129984   1.096   2.886   3.495
 9695SOL    HW229985   1.242   2.885   3.569
 9696SOL     OW29986   4.759   4.354   3.476
 9696SOL    HW129987   4.726   4.367   3.570
 9696SOL    HW229988   4.773   4.256   3.459
 9697SOL     OW29989   6.698   6.722   3.234
 9697SOL    HW129990   6.614   6.710   3.288
 9697SOL    HW229991   6.680   6.696   3.139
 9698SOL     OW29992   0.460   2.494   1.467
 9698SOL    HW129993   0.513   2.552   1.406
 9698SOL    HW229994   0.513   2.412   1.490
 9699SOL     OW29995   1.587   6.739   2.545
 9699SOL    HW129996   1.686   6.732   2.537
 9699SOL    HW229997   1.562   6.750   2.641
 9700SOL     OW29998   6.329   0.641   6.099
 9700SOL    HW129999   6.402   0.619   6.163
 9700SOL    HW230000   6.295   0.733   6.118
 9701SOL     OW30001   5.985   3.814   6.905
 9701SOL    HW130002   6.006   3.740   6.969
 9701SOL    HW230003   5.931   3.777   6.829
 9702SOL     OW30004   2.995   3.728   2.195
 9702SOL    HW130005   2.959   3.725   2.102
 9702SOL    HW230006   3.027   3.637   2.222
 9703SOL     OW30007   5.992   5.087   3.547
 9703SOL    HW130008   6.011   4.989   3.543
 9703SOL    HW230009   6.006   5.127   3.456
 9704SOL     OW30010   0.564   5.306   2.170
 9704SOL    HW130011   0.612   5.229   2.126
 9704SOL    HW230012   0.468   5.306   2.141
 9705SOL     OW30013   0.112   3.952   5.463
 9705SOL    HW130014   0.057   3.986   5.539
 9705SOL    HW230015   0.063   3.880   5.415
 9706SOL     OW30016   0.162   6.912   2.306
 9706SOL    HW130017   0.105   6.860   2.243
 9706SOL    HW230018   0.132   7.008   2.307
 9707SOL     OW30019   1.440   4.850   1.503
 9707SOL    HW130020   1.477   4.757   1.510
 9707SOL    HW230021   1.516   4.915   1.491
 9708SOL     OW30022   3.174   0.380   1.281
 9708SOL    HW130023   3.120   0.459   1.250
 9708SOL    HW230024   3.272   0.399   1.268
 9709SOL     OW30025   3.315   1.668   1.951
 9709SOL    HW130026   3.301   1.595   1.884
 9709SOL    HW230027   3.396   1.720   1.927
 9710SOL     OW30028   5.102   4.676   4.271
 9710SOL    HW130029   5.100   4.674   4.371
 9710SOL    HW230030   5.098   4.771   4.241
 9711SOL     OW30031   3.353   0.013   6.745
 9711SOL    HW130032   3.312   6.951   6.709
 9711SOL    HW230033   3.380   7.021   6.840
 9712SOL     OW30034   5.226   6.553   5.199
 9712SOL    HW130035   5.165   6.510   5.132
 9712SOL    HW230036   5.173   6.579   5.279
 9713SOL     OW30037   0.856   0.962   2.989
 9713SOL    HW130038   0.907   0.908   2.923
 9713SOL    HW230039   0.758   0.943   2.980
 9714SOL     OW30040   2.307   2.459   3.766
 9714SOL    HW130041   2.375   2.489   3.699
 9714SOL    HW230042   2.240   2.400   3.721
 9715SOL     OW30043   0.982   1.661   6.137
 9715SOL    HW130044   1.038   1.609   6.201
 9715SOL    HW230045   0.906   1.604   6.105
 9716SOL     OW30046   1.337   5.876   1.670
 9716SOL    HW130047   1.285   5.800   1.631
 9716SOL    HW230048   1.345   5.864   1.769
 9717SOL     OW30049   4.169   1.970   6.255
 9717SOL    HW130050   4.172   2.058   6.206
 9717SOL    HW230051   4.100   1.911   6.214
 9718SOL     OW30052   2.865   2.601   6.718
 9718SOL    HW130053   2.879   2.688   6.765
 9718SOL    HW230054   2.831   2.533   6.783
 9719SOL     OW30055   4.976   0.329   6.627
 9719SOL    HW130056   4.969   0.334   6.726
 9719SOL    HW230057   4.891   0.360   6.585
 9720SOL     OW30058   1.603   1.769   1.753
 9720SOL    HW130059   1.690   1.729   1.723
 9720SOL    HW230060   1.622   1.837   1.824
 9721SOL     OW30061   0.142   1.359   1.074
 9721SOL    HW130062   0.127   1.442   1.129
 9721SOL    HW230063   0.236   1.357   1.042
 9722SOL     OW30064   3.535   2.824   5.929
 9722SOL    HW130065   3.632   2.811   5.908
 9722SOL    HW230066   3.488   2.859   5.849
 9723SOL     OW30067   5.360   1.654   4.181
 9723SOL    HW130068   5.313   1.708   4.111
 9723SOL    HW230069   5.293   1.623   4.249
 9724SOL     OW30070   1.356   5.203   1.505
 9724SOL    HW130071   1.290   5.133   1.476
 9724SOL    HW230072   1.428   5.160   1.559
 9725SOL     OW30073   5.610   5.471   5.265
 9725SOL    HW130074   5.556   5.395   5.228
 9725SOL    HW230075   5.582   5.556   5.220
 9726SOL     OW30076   6.574   0.100   2.589
 9726SOL    HW130077   6.664   0.062   2.565
 9726SOL    HW230078   6.574   0.126   2.685
 9727SOL     OW30079   6.690   3.044   0.822
 9727SOL    HW130080   6.684   2.987   0.904
 9727SOL    HW230081   6.613   3.107   0.820
 9728SOL     OW30082   5.363   2.611   4.657
 9728SOL    HW130083   5.357   2.688   4.721
 9728SOL    HW230084   5.304   2.629   4.578
 9729SOL     OW30085   6.881   3.428   3.080
 9729SOL    HW130086   6.876   3.512   3.026
 9729SOL    HW230087   6.862   3.449   3.176
 9730SOL     OW30088   0.569   6.946   3.347
 9730SOL    HW130089   0.599   6.861   3.389
 9730SOL    HW230090   0.616   0.001   3.389
 9731SOL     OW30091   6.285   0.870   1.380
 9731SOL    HW130092   6.337   0.873   1.466
 9731SOL    HW230093   6.345   0.842   1.306
 9732SOL     OW30094   6.935   2.613   2.648
 9732SOL    HW130095   6.942   2.708   2.678
 9732SOL    HW230096   6.861   2.604   2.582
 9733SOL     OW30097   4.604   6.200   1.008
 9733SOL    HW130098   4.670   6.200   0.933
 9733SOL    HW230099   4.652   6.222   1.093
 9734SOL     OW30100   3.967   3.660   0.683
 9734SOL    HW130101   4.030   3.664   0.606
 9734SOL    HW230102   3.984   3.738   0.744
 9735SOL     OW30103   0.561   2.480   0.155
 9735SOL    HW130104   0.594   2.552   0.216
 9735SOL    HW230105   0.464   2.497   0.133
 9736SOL     OW30106   6.447   2.986   5.698
 9736SOL    HW130107   6.471   3.079   5.672
 9736SOL    HW230108   6.467   2.971   5.795
 9737SOL     OW30109   5.391   3.630   5.544
 9737SOL    HW130110   5.472   3.681   5.514
 9737SOL    HW230111   5.373   3.651   5.640
 9738SOL     OW30112   2.747   5.841   1.320
 9738SOL    HW130113   2.842   5.852   1.349
 9738SOL    HW230114   2.687   5.860   1.398
 9739SOL     OW30115   5.628   5.909   1.820
 9739SOL    HW130116   5.669   5.968   1.890
 9739SOL    HW230117   5.700   5.874   1.759
 9740SOL     OW30118   6.874   0.128   1.016
 9740SOL    HW130119   6.807   0.201   1.015
 9740SOL    HW230120   6.934   0.135   0.936
 9741SOL     OW30121   2.129   2.171   2.785
 9741SOL    HW130122   2.165   2.260   2.756
 9741SOL    HW230123   2.100   2.177   2.881
 9742SOL     OW30124   5.345   6.741   6.745
 9742SOL    HW130125   5.265   6.774   6.793
 9742SOL    HW230126   5.368   6.649   6.778
 9743SOL     OW30127   6.066   3.738   4.225
 9743SOL    HW130128   6.065   3.704   4.131
 9743SOL    HW230129   6.155   3.780   4.244
 9744SOL     OW30130   1.837   2.901   2.102
 9744SOL    HW130131   1.800   2.833   2.038
 9744SOL    HW230132   1.930   2.925   2.075
 9745SOL     OW30133   1.030   0.095   5.453
 9745SOL    HW130134   1.099   0.113   5.384
 9745SOL    HW230135   1.002   0.180   5.497
 9746SOL     OW30136   4.035   5.174   5.991
 9746SOL    HW130137   4.012   5.264   6.027
 9746SOL    HW230138   4.122   5.180   5.941
 9747SOL     OW30139   4.396   1.507   3.189
 9747SOL    HW130140   4.397   1.407   3.190
 9747SOL    HW230141   4.336   1.539   3.115
 9748SOL     OW30142   0.216   1.427   1.658
 9748SOL    HW130143   0.311   1.397   1.669
 9748SOL    HW230144   0.191   1.488   1.733
 9749SOL     OW30145   6.531   6.689   1.486
 9749SOL    HW130146   6.522   6.773   1.432
 9749SOL    HW230147   6.441   6.649   1.500
 9750SOL     OW30148   5.140   3.168   4.769
 9750SOL    HW130149   5.125   3.140   4.674
 9750SOL    HW230150   5.135   3.268   4.776
 9751SOL     OW30151   2.937   4.976   0.680
 9751SOL    HW130152   2.978   5.053   0.729
 9751SOL    HW230153   3.007   4.928   0.629
 9752SOL     OW30154   4.705   4.734   0.902
 9752SOL    HW130155   4.789   4.711   0.854
 9752SOL    HW230156   4.667   4.651   0.944
 9753SOL     OW30157   5.396   6.272   3.104
 9753SOL    HW130158   5.334   6.254   3.181
 9753SOL    HW230159   5.489   6.244   3.129
 9754SOL     OW30160   3.213   1.040   1.920
 9754SOL    HW130161   3.258   1.103   1.984
 9754SOL    HW230162   3.186   0.958   1.969
 9755SOL     OW30163   4.140   3.812   1.106
 9755SOL    HW130164   4.221   3.785   1.053
 9755SOL    HW230165   4.073   3.738   1.104
 9756SOL     OW30166   5.206   0.452   6.671
 9756SOL    HW130167   5.249   0.502   6.596
 9756SOL    HW230168   5.134   0.392   6.635
 9757SOL     OW30169   5.112   4.116   3.817
 9757SOL    HW130170   5.184   4.181   3.792
 9757SOL    HW230171   5.136   4.071   3.903
 9758SOL     OW30172   2.770   0.507   0.516
 9758SOL    HW130173   2.787   0.466   0.426
 9758SOL    HW230174   2.786   0.438   0.587
 9759SOL     OW30175   6.059   0.573   0.370
 9759SOL    HW130176   6.072   0.475   0.383
 9759SOL    HW230177   6.148   0.616   0.350
 9760SOL     OW30178   5.237   0.343   5.961
 9760SOL    HW130179   5.216   0.353   6.059
 9760SOL    HW230180   5.204   0.255   5.929
 9761SOL     OW30181   0.585   2.248   1.519
 9761SOL    HW130182   0.625   2.158   1.506
 9761SOL    HW230183   0.656   2.314   1.540
 9762SOL     OW30184   4.274   1.458   5.304
 9762SOL    HW130185   4.178   1.462   5.278
 9762SOL    HW230186   4.281   1.465   5.404
 9763SOL     OW30187   6.326   2.227   0.272
 9763SOL    HW130188   6.266   2.154   0.238
 9763SOL    HW230189   6.386   2.257   0.198
 9764SOL     OW30190   6.685   2.864   3.293
 9764SOL    HW130191   6.593   2.864   3.253
 9764SOL    HW230192   6.694   2.788   3.357
 9765SOL     OW30193   6.935   1.866   1.090
 9765SOL    HW130194   6.986   1.948   1.065
 9765SOL    HW230195   6.847   1.866   1.042
 9766SOL     OW30196   0.602   3.008   2.550
 9766SOL    HW130197   0.627   3.105   2.545
 9766SOL    HW230198   0.504   2.999   2.536
 9767SOL     OW30199   3.842   0.765   4.671
 9767SOL    HW130200   3.814   0.835   4.606
 9767SOL    HW230201   3.769   0.749   4.737
 9768SOL     OW30202   4.138   3.594   6.927
 9768SOL    HW130203   4.138   3.587   6.827
 9768SOL    HW230204   4.185   3.678   6.953
 9769SOL     OW30205   2.929   0.819   5.828
 9769SOL    HW130206   2.914   0.892   5.761
 9769SOL    HW230207   2.930   0.731   5.781
 9770SOL     OW30208   2.139   3.391   4.878
 9770SOL    HW130209   2.145   3.309   4.935
 9770SOL    HW230210   2.052   3.389   4.828
 9771SOL     OW30211   3.673   0.288   1.103
 9771SOL    HW130212   3.664   0.387   1.105
 9771SOL    HW230213   3.758   0.261   1.147
 9772SOL     OW30214   0.282   0.098   1.645
 9772SOL    HW130215   0.358   0.058   1.594
 9772SOL    HW230216   0.269   0.048   1.730
 9773SOL     OW30217   4.276   6.019   2.931
 9773SOL    HW130218   4.255   5.997   3.026
 9773SOL    HW230219   4.292   5.935   2.880
 9774SOL     OW30220   1.412   5.456   5.336
 9774SOL    HW130221   1.351   5.513   5.392
 9774SOL    HW230222   1.497   5.440   5.386
 9775SOL     OW30223   1.342   1.706   3.711
 9775SOL    HW130224   1.426   1.759   3.703
 9775SOL    HW230225   1.299   1.697   3.621
 9776SOL     OW30226   0.834   5.970   1.419
 9776SOL    HW130227   0.893   6.014   1.486
 9776SOL    HW230228   0.752   5.934   1.463
 9777SOL     OW30229   5.490   2.640   5.253
 9777SOL    HW130230   5.504   2.573   5.181
 9777SOL    HW230231   5.400   2.683   5.242
 9778SOL     OW30232   1.585   2.836   3.262
 9778SOL    HW130233   1.530   2.901   3.315
 9778SOL    HW230234   1.682   2.856   3.276
 9779SOL     OW30235   2.085   0.952   2.865
 9779SOL    HW130236   2.177   0.991   2.878
 9779SOL    HW230237   2.046   0.930   2.954
 9780SOL     OW30238   1.327   1.882   1.355
 9780SOL    HW130239   1.332   1.973   1.314
 9780SOL    HW230240   1.358   1.886   1.450
 9781SOL     OW30241   0.460   0.926   2.039
 9781SOL    HW130242   0.417   0.997   2.095
 9781SOL    HW230243   0.389   0.870   1.996
 9782SOL     OW30244   0.471   2.323   6.655
 9782SOL    HW130245   0.414   2.348   6.734
 9782SOL    HW230246   0.420   2.259   6.597
 9783SOL     OW30247   5.345   1.725   1.892
 9783SOL    HW130248   5.316   1.635   1.861
 9783SOL    HW230249   5.297   1.795   1.840
 9784SOL     OW30250   2.099   1.384   0.087
 9784SOL    HW130251   2.184   1.381   0.034
 9784SOL    HW230252   2.101   1.462   0.149
 9785SOL     OW30253   1.989   3.824   4.536
 9785SOL    HW130254   1.980   3.901   4.599
 9785SOL    HW230255   1.899   3.784   4.519
 9786SOL     OW30256   2.599   4.393   0.765
 9786SOL    HW130257   2.635   4.480   0.732
 9786SOL    HW230258   2.625   4.380   0.861
 9787SOL     OW30259   2.522   3.429   1.177
 9787SOL    HW130260   2.583   3.353   1.198
 9787SOL    HW230261   2.432   3.393   1.151
 9788SOL     OW30262   2.931   6.847   4.059
 9788SOL    HW130263   2.874   6.810   3.986
 9788SOL    HW230264   2.875   6.904   4.120
 9789SOL     OW30265   4.258   1.866   0.223
 9789SOL    HW130266   4.256   1.769   0.199
 9789SOL    HW230267   4.173   1.891   0.269
 9790SOL     OW30268   4.715   5.599   5.369
 9790SOL    HW130269   4.770   5.536   5.424
 9790SOL    HW230270   4.682   5.674   5.428
 9791SOL     OW30271   6.939   0.955   0.727
 9791SOL    HW130272   7.009   0.979   0.660
 9791SOL    HW230273   6.927   1.031   0.791
 9792SOL     OW30274   2.383   3.972   6.746
 9792SOL    HW130275   2.308   3.907   6.758
 9792SOL    HW230276   2.470   3.924   6.751
 9793SOL     OW30277   5.247   0.684   1.681
 9793SOL    HW130278   5.272   0.776   1.710
 9793SOL    HW230279   5.239   0.625   1.761
 9794SOL     OW30280   4.236   5.831   5.673
 9794SOL    HW130281   4.288   5.905   5.631
 9794SOL    HW230282   4.231   5.845   5.772
 9795SOL     OW30283   1.588   3.942   3.159
 9795SOL    HW130284   1.686   3.955   3.151
 9795SOL    HW230285   1.564   3.931   3.256
 9796SOL     OW30286   3.730   3.177   5.031
 9796SOL    HW130287   3.767   3.264   4.998
 9796SOL    HW230288   3.796   3.103   5.012
 9797SOL     OW30289   3.520   5.066   7.012
 9797SOL    HW130290   3.620   5.067   7.013
 9797SOL    HW230291   3.486   5.137   0.052
 9798SOL     OW30292   0.996   3.749   5.502
 9798SOL    HW130293   1.054   3.722   5.578
 9798SOL    HW230294   0.906   3.706   5.510
 9799SOL     OW30295   3.062   0.309   6.497
 9799SOL    HW130296   3.042   0.220   6.537
 9799SOL    HW230297   2.980   0.344   6.450
 9800SOL     OW30298   0.406   4.241   4.610
 9800SOL    HW130299   0.378   4.154   4.571
 9800SOL    HW230300   0.333   4.275   4.670
 9801SOL     OW30301   4.121   6.556   1.014
 9801SOL    HW130302   4.117   6.551   1.114
 9801SOL    HW230303   4.192   6.621   0.986
 9802SOL     OW30304   4.223   2.557   0.376
 9802SOL    HW130305   4.213   2.626   0.305
 9802SOL    HW230306   4.302   2.499   0.356
 9803SOL     OW30307   2.309   3.611   0.229
 9803SOL    HW130308   2.381   3.542   0.224
 9803SOL    HW230309   2.280   3.622   0.324
 9804SOL     OW30310   0.728   3.558   2.823
 9804SOL    HW130311   0.824   3.571   2.844
 9804SOL    HW230312   0.687   3.497   2.891
 9805SOL     OW30313   6.685   4.410   5.217
 9805SOL    HW130314   6.769   4.444   5.258
 9805SOL    HW230315   6.617   4.393   5.289
 9806SOL     OW30316   3.420   1.024   0.456
 9806SOL    HW130317   3.340   1.054   0.507
 9806SOL    HW230318   3.439   1.090   0.383
 9807SOL     OW30319   3.829   2.942   4.925
 9807SOL    HW130320   3.825   2.936   4.825
 9807SOL    HW230321   3.918   2.909   4.956
 9808SOL     OW30322   2.838   6.983   2.180
 9808SOL    HW130323   2.810   6.888   2.174
 9808SOL    HW230324   2.900   6.994   2.257
 9809SOL     OW30325   0.152   4.210   1.315
 9809SOL    HW130326   0.168   4.127   1.369
 9809SOL    HW230327   0.076   4.261   1.354
 9810SOL     OW30328   3.738   2.861   1.009
 9810SOL    HW130329   3.784   2.838   1.095
 9810SOL    HW230330   3.667   2.929   1.027
 9811SOL     OW30331   5.421   3.805   4.011
 9811SOL    HW130332   5.370   3.726   3.975
 9811SOL    HW230333   5.519   3.790   3.996
 9812SOL     OW30334   3.070   5.598   6.205
 9812SOL    HW130335   2.992   5.539   6.223
 9812SOL    HW230336   3.151   5.543   6.188
 9813SOL     OW30337   4.566   0.617   1.915
 9813SOL    HW130338   4.567   0.544   1.846
 9813SOL    HW230339   4.553   0.578   2.006
 9814SOL     OW30340   6.449   1.527   6.135
 9814SOL    HW130341   6.472   1.453   6.199
 9814SOL    HW230342   6.357   1.562   6.157
 9815SOL     OW30343   5.043   2.814   4.674
 9815SOL    HW130344   5.084   2.734   4.629
 9815SOL    HW230345   5.114   2.883   4.690
 9816SOL     OW30346   4.349   0.583   0.361
 9816SOL    HW130347   4.355   0.581   0.461
 9816SOL    HW230348   4.381   0.671   0.328
 9817SOL     OW30349   6.207   0.234   1.418
 9817SOL    HW130350   6.116   0.197   1.398
 9817SOL    HW230351   6.261   0.236   1.334
 9818SOL     OW30352   4.010   2.168   5.021
 9818SOL    HW130353   3.950   2.158   4.941
 9818SOL    HW230354   4.062   2.252   5.012
 9819SOL     OW30355   2.475   6.631   2.222
 9819SOL    HW130356   2.442   6.624   2.128
 9819SOL    HW230357   2.412   6.689   2.275
 9820SOL     OW30358   4.251   2.791   6.985
 9820SOL    HW130359   4.170   2.739   7.012
 9820SOL    HW230360   4.255   2.877   0.014
 9821SOL     OW30361   0.989   6.122   6.928
 9821SOL    HW130362   1.055   6.053   6.957
 9821SOL    HW230363   0.974   6.186   7.003
 9822SOL     OW30364   0.096   2.418   2.576
 9822SOL    HW130365   0.103   2.368   2.662
 9822SOL    HW230366   0.040   2.500   2.590
 9823SOL     OW30367   2.475   6.351   3.003
 9823SOL    HW130368   2.556   6.387   2.957
 9823SOL    HW230369   2.500   6.275   3.062
 9824SOL     OW30370   2.166   4.003   5.737
 9824SOL    HW130371   2.193   3.933   5.671
 9824SOL    HW230372   2.246   4.056   5.764
 9825SOL     OW30373   4.557   4.623   5.239
 9825SOL    HW130374   4.596   4.706   5.281
 9825SOL    HW230375   4.532   4.558   5.311
 9826SOL     OW30376   5.966   0.366   5.058
 9826SOL    HW130377   5.873   0.395   5.077
 9826SOL    HW230378   5.992   0.396   4.966
 9827SOL     OW30379   1.063   5.995   4.747
 9827SOL    HW130380   1.099   6.042   4.666
 9827SOL    HW230381   1.133   5.993   4.819
 9828SOL     OW30382   2.340   1.360   0.413
 9828SOL    HW130383   2.416   1.350   0.477
 9828SOL    HW230384   2.293   1.272   0.403
 9829SOL     OW30385   3.113   4.654   1.137
 9829SOL    HW130386   3.052   4.699   1.203
 9829SOL    HW230387   3.117   4.556   1.156
 9830SOL     OW30388   6.111   0.951   1.026
 9830SOL    HW130389   6.054   1.030   1.002
 9830SOL    HW230390   6.065   0.867   0.996
 9831SOL     OW30391   0.351   5.941   1.205
 9831SOL    HW130392   0.420   5.923   1.134
 9831SOL    HW230393   0.390   5.919   1.295
 9832SOL     OW30394   2.938   3.706   1.903
 9832SOL    HW130395   2.987   3.784   1.863
 9832SOL    HW230396   2.861   3.683   1.843
 9833SOL     OW30397   5.190   4.613   0.334
 9833SOL    HW130398   5.099   4.587   0.365
 9833SOL    HW230399   5.256   4.594   0.406
 9834SOL     OW30400   2.222   3.061   3.796
 9834SOL    HW130401   2.234   3.159   3.811
 9834SOL    HW230402   2.212   3.042   3.699
 9835SOL     OW30403   5.184   2.669   4.462
 9835SOL    HW130404   5.211   2.751   4.413
 9835SOL    HW230405   5.151   2.600   4.397
 9836SOL     OW30406   4.769   4.900   1.339
 9836SOL    HW130407   4.866   4.891   1.361
 9836SOL    HW230408   4.748   4.997   1.322
 9837SOL     OW30409   1.861   5.098   5.048
 9837SOL    HW130410   1.881   5.193   5.027
 9837SOL    HW230411   1.936   5.040   5.017
 9838SOL     OW30412   6.609   6.665   4.696
 9838SOL    HW130413   6.518   6.637   4.666
 9838SOL    HW230414   6.646   6.597   4.760
 9839SOL     OW30415   5.844   3.285   3.080
 9839SOL    HW130416   5.786   3.239   3.147
 9839SOL    HW230417   5.940   3.271   3.103
 9840SOL     OW30418   6.150   6.821   0.537
 9840SOL    HW130419   6.204   6.783   0.462
 9840SOL    HW230420   6.055   6.830   0.508
 9841SOL     OW30421   1.504   2.998   4.021
 9841SOL    HW130422   1.484   3.094   3.999
 9841SOL    HW230423   1.553   2.994   4.108
 9842SOL     OW30424   2.958   3.660   3.863
 9842SOL    HW130425   2.996   3.746   3.829
 9842SOL    HW230426   2.956   3.662   3.963
 9843SOL     OW30427   6.032   4.191   3.114
 9843SOL    HW130428   6.040   4.283   3.152
 9843SOL    HW230429   6.053   4.123   3.185
 9844SOL     OW30430   4.037   0.293   1.082
 9844SOL    HW130431   3.965   0.244   1.032
 9844SOL    HW230432   4.003   0.318   1.173
 9845SOL     OW30433   1.407   1.538   4.424
 9845SOL    HW130434   1.497   1.537   4.382
 9845SOL    HW230435   1.337   1.544   4.352
 9846SOL     OW30436   2.961   3.603   4.167
 9846SOL    HW130437   2.946   3.698   4.195
 9846SOL    HW230438   2.961   3.544   4.248
 9847SOL     OW30439   2.592   4.608   3.972
 9847SOL    HW130440   2.604   4.645   3.880
 9847SOL    HW230441   2.542   4.521   3.966
 9848SOL     OW30442   0.144   4.424   0.517
 9848SOL    HW130443   0.217   4.367   0.554
 9848SOL    HW230444   0.075   4.440   0.587
 9849SOL     OW30445   0.059   5.772   5.033
 9849SOL    HW130446   0.004   5.729   5.105
 9849SOL    HW230447   0.127   5.707   4.999
 9850SOL     OW30448   5.521   0.243   3.705
 9850SOL    HW130449   5.421   0.249   3.716
 9850SOL    HW230450   5.544   0.166   3.646
 9851SOL     OW30451   5.212   2.429   5.085
 9851SOL    HW130452   5.141   2.497   5.105
 9851SOL    HW230453   5.202   2.399   4.990
 9852SOL     OW30454   4.932   2.311   4.186
 9852SOL    HW130455   5.013   2.261   4.155
 9852SOL    HW230456   4.864   2.246   4.219
 9853SOL     OW30457   0.099   5.527   1.244
 9853SOL    HW130458   0.143   5.581   1.171
 9853SOL    HW230459   0.122   5.566   1.333
 9854SOL     OW30460   3.146   0.189   4.546
 9854SOL    HW130461   3.214   0.261   4.556
 9854SOL    HW230462   3.163   0.139   4.461
 9855SOL     OW30463   2.268   4.433   1.323
 9855SOL    HW130464   2.355   4.482   1.334
 9855SOL    HW230465   2.285   4.347   1.274
 9856SOL     OW30466   3.339   3.374   1.521
 9856SOL    HW130467   3.242   3.365   1.541
 9856SOL    HW230468   3.353   3.375   1.422
 9857SOL     OW30469   5.814   5.191   3.121
 9857SOL    HW130470   5.789   5.156   3.212
 9857SOL    HW230471   5.819   5.291   3.123
 9858SOL     OW30472   3.685   0.970   1.589
 9858SOL    HW130473   3.594   1.009   1.578
 9858SOL    HW230474   3.684   0.874   1.562
 9859SOL     OW30475   0.508   6.455   1.064
 9859SOL    HW130476   0.562   6.413   1.137
 9859SOL    HW230477   0.448   6.526   1.103
 9860SOL     OW30478   0.937   1.219   2.959
 9860SOL    HW130479   0.973   1.217   2.866
 9860SOL    HW230480   0.894   1.131   2.979
 9861SOL     OW30481   1.961   6.414   4.201
 9861SOL    HW130482   2.034   6.377   4.259
 9861SOL    HW230483   1.907   6.338   4.164
 9862SOL     OW30484   0.145   1.793   0.498
 9862SOL    HW130485   0.089   1.770   0.419
 9862SOL    HW230486   0.087   1.832   0.570
 9863SOL     OW30487   5.169   0.577   6.911
 9863SOL    HW130488   5.188   0.539   6.821
 9863SOL    HW230489   5.144   0.674   6.902
 9864SOL     OW30490   4.049   5.596   3.985
 9864SOL    HW130491   4.109   5.522   3.955
 9864SOL    HW230492   4.020   5.649   3.905
 9865SOL     OW30493   2.085   3.524   3.655
 9865SOL    HW130494   1.986   3.516   3.645
 9865SOL    HW230495   2.130   3.494   3.571
 9866SOL     OW30496   2.837   4.743   3.409
 9866SOL    HW130497   2.797   4.832   3.427
 9866SOL    HW230498   2.915   4.753   3.347
 9867SOL     OW30499   3.661   6.570   5.567
 9867SOL    HW130500   3.704   6.566   5.657
 9867SOL    HW230501   3.569   6.608   5.575
 9868SOL     OW30502   1.675   5.263   6.170
 9868SOL    HW130503   1.604   5.299   6.110
 9868SOL    HW230504   1.693   5.327   6.244
 9869SOL     OW30505   0.752   5.371   3.068
 9869SOL    HW130506   0.751   5.400   3.164
 9869SOL    HW230507   0.847   5.356   3.039
 9870SOL     OW30508   4.228   5.862   1.798
 9870SOL    HW130509   4.162   5.859   1.873
 9870SOL    HW230510   4.273   5.773   1.789
 9871SOL     OW30511   2.402   2.791   6.094
 9871SOL    HW130512   2.435   2.790   5.999
 9871SOL    HW230513   2.327   2.727   6.104
 9872SOL     OW30514   1.435   3.531   2.834
 9872SOL    HW130515   1.484   3.576   2.909
 9872SOL    HW230516   1.384   3.453   2.868
 9873SOL     OW30517   2.037   2.223   1.666
 9873SOL    HW130518   2.045   2.301   1.728
 9873SOL    HW230519   1.975   2.246   1.591
 9874SOL     OW30520   1.009   3.744   4.719
 9874SOL    HW130521   0.979   3.666   4.665
 9874SOL    HW230522   1.061   3.712   4.798
 9875SOL     OW30523   1.278   1.395   3.279
 9875SOL    HW130524   1.236   1.464   3.219
 9875SOL    HW230525   1.239   1.305   3.260
 9876SOL     OW30526   6.531   6.056   1.950
 9876SOL    HW130527   6.493   6.014   2.032
 9876SOL    HW230528   6.609   6.001   1.917
 9877SOL     OW30529   4.326   6.670   0.589
 9877SOL    HW130530   4.370   6.746   0.542
 9877SOL    HW230531   4.385   6.590   0.585
 9878SOL     OW30532   6.709   1.987   4.992
 9878SOL    HW130533   6.673   1.917   4.930
 9878SOL    HW230534   6.774   1.944   5.055
 9879SOL     OW30535   5.128   5.423   5.689
 9879SOL    HW130536   5.076   5.503   5.717
 9879SOL    HW230537   5.066   5.354   5.651
 9880SOL     OW30538   0.992   2.466   3.640
 9880SOL    HW130539   0.945   2.381   3.666
 9880SOL    HW230540   0.942   2.544   3.676
 9881SOL     OW30541   7.021   1.662   5.661
 9881SOL    HW130542   0.048   1.598   5.721
 9881SOL    HW230543   6.934   1.688   5.704
 9882SOL     OW30544   1.577   2.393   3.562
 9882SOL    HW130545   1.533   2.304   3.576
 9882SOL    HW230546   1.547   2.431   3.474
 9883SOL     OW30547   3.120   1.343   2.159
 9883SOL    HW130548   3.038   1.389   2.125
 9883SOL    HW230549   3.094   1.264   2.215
 9884SOL     OW30550   3.056   0.987   3.770
 9884SOL    HW130551   3.135   0.932   3.796
 9884SOL    HW230552   2.973   0.945   3.805
 9885SOL     OW30553   6.682   3.448   4.648
 9885SOL    HW130554   6.732   3.533   4.630
 9885SOL    HW230555   6.744   3.370   4.641
 9886SOL     OW30556   0.251   2.274   2.132
 9886SOL    HW130557   0.290   2.363   2.154
 9886SOL    HW230558   0.163   2.264   2.177
 9887SOL     OW30559   4.227   6.185   5.383
 9887SOL    HW130560   4.231   6.176   5.283
 9887SOL    HW230561   4.320   6.193   5.419
 9888SOL     OW30562   0.026   5.165   5.388
 9888SOL    HW130563   0.108   5.115   5.362
 9888SOL    HW230564   0.018   5.166   5.488
 9889SOL     OW30565   0.446   5.881   0.819
 9889SOL    HW130566   0.479   5.851   0.908
 9889SOL    HW230567   0.412   5.975   0.825
 9890SOL     OW30568   0.738   2.997   1.090
 9890SOL    HW130569   0.673   2.959   1.156
 9890SOL    HW230570   0.739   2.939   1.008
 9891SOL     OW30571   4.780   1.546   2.636
 9891SOL    HW130572   4.850   1.474   2.634
 9891SOL    HW230573   4.825   1.635   2.640
 9892SOL     OW30574   1.173   7.015   6.673
 9892SOL    HW130575   1.245   6.957   6.634
 9892SOL    HW230576   1.145   6.979   6.762
 9893SOL     OW30577   1.964   1.866   0.275
 9893SOL    HW130578   2.037   1.839   0.214
 9893SOL    HW230579   1.889   1.800   0.270
 9894SOL     OW30580   2.294   0.975   1.540
 9894SOL    HW130581   2.283   1.065   1.499
 9894SOL    HW230582   2.209   0.950   1.588
 9895SOL     OW30583   3.967   2.541   5.534
 9895SOL    HW130584   3.901   2.523   5.461
 9895SOL    HW230585   3.918   2.553   5.620
 9896SOL     OW30586   6.870   6.662   5.806
 9896SOL    HW130587   6.781   6.621   5.786
 9896SOL    HW230588   6.932   6.593   5.841
 9897SOL     OW30589   5.979   5.251   4.906
 9897SOL    HW130590   6.033   5.335   4.910
 9897SOL    HW230591   6.040   5.173   4.894
 9898SOL     OW30592   2.516   6.720   6.817
 9898SOL    HW130593   2.447   6.685   6.754
 9898SOL    HW230594   2.536   6.816   6.794
 9899SOL     OW30595   0.369   4.696   0.726
 9899SOL    HW130596   0.459   4.732   0.752
 9899SOL    HW230597   0.300   4.725   0.792
 9900SOL     OW30598   2.342   5.042   3.373
 9900SOL    HW130599   2.328   5.112   3.302
 9900SOL    HW230600   2.431   4.999   3.360
 9901SOL     OW30601   2.138   3.180   5.084
 9901SOL    HW130602   2.214   3.126   5.047
 9901SOL    HW230603   2.131   3.164   5.182
 9902SOL     OW30604   3.031   4.352   0.974
 9902SOL    HW130605   2.972   4.430   0.952
 9902SOL    HW230606   3.056   4.355   1.070
 9903SOL     OW30607   5.308   1.343   4.943
 9903SOL    HW130608   5.352   1.416   4.891
 9903SOL    HW230609   5.340   1.346   5.038
 9904SOL     OW30610   6.154   1.281   0.229
 9904SOL    HW130611   6.198   1.195   0.257
 9904SOL    HW230612   6.055   1.268   0.227
 9905SOL     OW30613   5.458   6.952   0.135
 9905SOL    HW130614   5.416   6.866   0.107
 9905SOL    HW230615   5.414   0.006   0.087
 9906SOL     OW30616   3.021   3.368   5.407
 9906SOL    HW130617   2.955   3.396   5.338
 9906SOL    HW230618   3.002   3.274   5.436
 9907SOL     OW30619   1.875   5.764   2.415
 9907SOL    HW130620   1.869   5.813   2.329
 9907SOL    HW230621   1.876   5.665   2.397
 9908SOL     OW30622   5.154   3.422   1.706
 9908SOL    HW130623   5.069   3.473   1.721
 9908SOL    HW230624   5.134   3.339   1.655
 9909SOL     OW30625   1.982   0.474   4.475
 9909SOL    HW130626   2.068   0.511   4.439
 9909SOL    HW230627   1.909   0.491   4.409
 9910SOL     OW30628   0.655   4.576   3.947
 9910SOL    HW130629   0.628   4.555   4.040
 9910SOL    HW230630   0.694   4.495   3.904
 9911SOL     OW30631   2.797   6.487   2.494
 9911SOL    HW130632   2.825   6.436   2.412
 9911SOL    HW230633   2.698   6.495   2.495
 9912SOL     OW30634   5.360   0.660   5.681
 9912SOL    HW130635   5.352   0.754   5.648
 9912SOL    HW230636   5.333   0.656   5.777
 9913SOL     OW30637   5.305   2.998   0.889
 9913SOL    HW130638   5.346   3.087   0.869
 9913SOL    HW230639   5.255   3.002   0.975
 9914SOL     OW30640   0.351   3.231   4.125
 9914SOL    HW130641   0.419   3.305   4.117
 9914SOL    HW230642   0.384   3.163   4.190
 9915SOL     OW30643   4.249   1.736   3.692
 9915SOL    HW130644   4.245   1.738   3.592
 9915SOL    HW230645   4.233   1.643   3.725
 9916SOL     OW30646   1.293   3.452   1.488
 9916SOL    HW130647   1.382   3.432   1.528
 9916SOL    HW230648   1.304   3.485   1.394
 9917SOL     OW30649   6.232   4.870   5.885
 9917SOL    HW130650   6.145   4.881   5.934
 9917SOL    HW230651   6.278   4.959   5.880
 9918SOL     OW30652   4.811   2.733   2.229
 9918SOL    HW130653   4.908   2.730   2.253
 9918SOL    HW230654   4.790   2.821   2.185
 9919SOL     OW30655   4.837   6.059   6.844
 9919SOL    HW130656   4.889   6.091   6.765
 9919SOL    HW230657   4.761   6.002   6.813
 9920SOL     OW30658   4.513   0.777   2.200
 9920SOL    HW130659   4.513   0.682   2.169
 9920SOL    HW230660   4.578   0.830   2.146
 9921SOL     OW30661   4.496   4.241   5.895
 9921SOL    HW130662   4.454   4.200   5.976
 9921SOL    HW230663   4.450   4.208   5.813
 9922SOL     OW30664   6.839   6.349   0.931
 9922SOL    HW130665   6.875   6.256   0.933
 9922SOL    HW230666   6.761   6.357   0.993
 9923SOL     OW30667   5.956   3.791   0.488
 9923SOL    HW130668   5.887   3.751   0.428
 9923SOL    HW230669   5.911   3.853   0.553
 9924SOL     OW30670   1.992   4.541   4.490
 9924SOL    HW130671   2.010   4.640   4.484
 9924SOL    HW230672   2.010   4.510   4.584
 9925SOL     OW30673   4.603   2.577   4.236
 9925SOL    HW130674   4.687   2.560   4.287
 9925SOL    HW230675   4.618   2.555   4.139
 9926SOL     OW30676   3.351   5.160   1.871
 9926SOL    HW130677   3.375   5.165   1.774
 9926SOL    HW230678   3.355   5.065   1.902
 9927SOL     OW30679   5.463   0.527   4.059
 9927SOL    HW130680   5.426   0.447   4.105
 9927SOL    HW230681   5.446   0.609   4.114
 9928SOL     OW30682   4.831   4.376   2.405
 9928SOL    HW130683   4.820   4.288   2.361
 9928SOL    HW230684   4.887   4.436   2.347
 9929SOL     OW30685   1.004   3.812   3.568
 9929SOL    HW130686   1.056   3.742   3.520
 9929SOL    HW230687   0.965   3.774   3.652
 9930SOL     OW30688   5.502   1.026   2.803
 9930SOL    HW130689   5.445   1.105   2.822
 9930SOL    HW230690   5.483   0.993   2.710
 9931SOL     OW30691   1.445   5.241   5.095
 9931SOL    HW130692   1.440   5.144   5.072
 9931SOL    HW230693   1.499   5.254   5.178
 9932SOL     OW30694   0.271   5.968   4.380
 9932SOL    HW130695   0.251   5.883   4.429
 9932SOL    HW230696   0.258   5.953   4.282
 9933SOL     OW30697   6.590   6.745   2.779
 9933SOL    HW130698   6.622   6.685   2.853
 9933SOL    HW230699   6.588   6.693   2.693
 9934SOL     OW30700   0.274   2.879   5.151
 9934SOL    HW130701   0.364   2.882   5.108
 9934SOL    HW230702   0.210   2.933   5.096
 9935SOL     OW30703   1.544   6.958   6.032
 9935SOL    HW130704   1.587   0.026   6.023
 9935SOL    HW230705   1.446   6.970   6.050
 9936SOL     OW30706   1.923   3.822   3.474
 9936SOL    HW130707   1.849   3.755   3.480
 9936SOL    HW230708   1.992   3.802   3.543
 9937SOL     OW30709   6.745   3.503   5.794
 9937SOL    HW130710   6.755   3.492   5.893
 9937SOL    HW230711   6.669   3.564   5.774
 9938SOL     OW30712   6.165   6.190   2.542
 9938SOL    HW130713   6.150   6.274   2.491
 9938SOL    HW230714   6.190   6.212   2.637
 9939SOL     OW30715   3.409   2.862   3.713
 9939SOL    HW130716   3.469   2.845   3.635
 9939SOL    HW230717   3.333   2.919   3.684
 9940SOL     OW30718   0.119   1.182   1.328
 9940SOL    HW130719   0.029   1.223   1.312
 9940SOL    HW230720   0.116   1.126   1.411
 9941SOL     OW30721   3.870   5.671   5.298
 9941SOL    HW130722   3.809   5.748   5.280
 9941SOL    HW230723   3.839   5.622   5.380
 9942SOL     OW30724   2.725   5.793   3.749
 9942SOL    HW130725   2.700   5.885   3.777
 9942SOL    HW230726   2.795   5.797   3.678
 9943SOL     OW30727   0.331   6.392   4.626
 9943SOL    HW130728   0.321   6.466   4.693
 9943SOL    HW230729   0.387   6.423   4.550
 9944SOL     OW30730   1.748   4.558   5.656
 9944SOL    HW130731   1.772   4.463   5.673
 9944SOL    HW230732   1.810   4.596   5.587
 9945SOL     OW30733   0.248   5.944   6.897
 9945SOL    HW130734   0.216   5.948   6.803
 9945SOL    HW230735   0.286   6.033   6.923
 9946SOL     OW30736   5.330   0.686   3.316
 9946SOL    HW130737   5.307   0.619   3.246
 9946SOL    HW230738   5.357   0.639   3.400
 9947SOL     OW30739   5.955   4.547   3.286
 9947SOL    HW130740   6.049   4.551   3.255
 9947SOL    HW230741   5.907   4.630   3.259
 9948SOL     OW30742   5.242   4.395   3.388
 9948SOL    HW130743   5.336   4.413   3.417
 9948SOL    HW230744   5.183   4.470   3.417
 9949SOL     OW30745   5.432   4.907   1.953
 9949SOL    HW130746   5.515   4.961   1.952
 9949SOL    HW230747   5.381   4.924   2.037
 9950SOL     OW30748   3.512   0.172   0.307
 9950SOL    HW130749   3.481   0.087   0.264
 9950SOL    HW230750   3.611   0.167   0.322
 9951SOL     OW30751   5.463   3.073   2.467
 9951SOL    HW130752   5.390   3.135   2.495
 9951SOL    HW230753   5.439   2.979   2.493
 9952SOL     OW30754   0.965   5.087   6.245
 9952SOL    HW130755   0.984   5.076   6.148
 9952SOL    HW230756   0.877   5.134   6.257
 9953SOL     OW30757   5.769   3.626   3.808
 9953SOL    HW130758   5.844   3.582   3.759
 9953SOL    HW230759   5.684   3.576   3.791
 9954SOL     OW30760   5.504   0.955   4.802
 9954SOL    HW130761   5.424   0.928   4.750
 9954SOL    HW230762   5.489   0.935   4.899
 9955SOL     OW30763   0.621   4.729   4.835
 9955SOL    HW130764   0.716   4.724   4.807
 9955SOL    HW230765   0.593   4.643   4.877
 9956SOL     OW30766   0.914   5.847   0.103
 9956SOL    HW130767   1.006   5.882   0.084
 9956SOL    HW230768   0.871   5.903   0.174
 9957SOL     OW30769   6.037   5.972   2.412
 9957SOL    HW130770   5.944   5.988   2.378
 9957SOL    HW230771   6.065   6.049   2.469
 9958SOL     OW30772   2.565   4.742   0.957
 9958SOL    HW130773   2.554   4.833   0.917
 9958SOL    HW230774   2.639   4.745   1.025
 9959SOL     OW30775   3.964   4.174   1.036
 9959SOL    HW130776   3.935   4.147   0.944
 9959SOL    HW230777   3.965   4.274   1.042
 9960SOL     OW30778   6.823   0.979   1.689
 9960SOL    HW130779   6.844   0.935   1.776
 9960SOL    HW230780   6.803   0.908   1.620
 9961SOL     OW30781   1.594   4.146   4.665
 9961SOL    HW130782   1.636   4.095   4.590
 9961SOL    HW230783   1.564   4.082   4.735
 9962SOL     OW30784   6.465   6.380   4.525
 9962SOL    HW130785   6.442   6.436   4.445
 9962SOL    HW230786   6.472   6.284   4.498
 9963SOL     OW30787   3.751   2.313   0.181
 9963SOL    HW130788   3.724   2.236   0.239
 9963SOL    HW230789   3.797   2.382   0.236
 9964SOL     OW30790   5.376   6.315   4.220
 9964SOL    HW130791   5.293   6.281   4.265
 9964SOL    HW230792   5.456   6.265   4.253
 9965SOL     OW30793   4.548   0.198   1.800
 9965SOL    HW130794   4.523   0.105   1.828
 9965SOL    HW230795   4.492   0.225   1.721
 9966SOL     OW30796   6.463   1.425   2.243
 9966SOL    HW130797   6.405   1.396   2.319
 9966SOL    HW230798   6.426   1.390   2.157
 9967SOL     OW30799   1.133   5.472   0.689
 9967SOL    HW130800   1.170   5.382   0.666
 9967SOL    HW230801   1.151   5.536   0.614
 9968SOL     OW30802   3.499   2.950   2.965
 9968SOL    HW130803   3.541   2.942   2.875
 9968SOL    HW230804   3.412   2.999   2.958
 9969SOL     OW30805   1.354   2.989   1.282
 9969SOL    HW130806   1.267   2.959   1.321
 9969SOL    HW230807   1.423   2.992   1.354
 9970SOL     OW30808   6.804   4.281   3.264
 9970SOL    HW130809   6.872   4.332   3.212
 9970SOL    HW230810   6.844   4.249   3.350
 9971SOL     OW30811   3.755   6.751   6.555
 9971SOL    HW130812   3.762   6.785   6.649
 9971SOL    HW230813   3.706   6.817   6.499
 9972SOL     OW30814   0.189   4.752   1.799
 9972SOL    HW130815   0.272   4.796   1.762
 9972SOL    HW230816   0.197   4.653   1.789
 9973SOL     OW30817   5.117   6.329   3.748
 9973SOL    HW130818   5.070   6.293   3.667
 9973SOL    HW230819   5.165   6.255   3.794
 9974SOL     OW30820   3.219   0.942   4.175
 9974SOL    HW130821   3.206   1.039   4.196
 9974SOL    HW230822   3.131   0.901   4.153
 9975SOL     OW30823   6.340   3.473   1.926
 9975SOL    HW130824   6.368   3.440   2.016
 9975SOL    HW230825   6.296   3.399   1.875
 9976SOL     OW30826   3.686   6.576   4.451
 9976SOL    HW130827   3.634   6.632   4.387
 9976SOL    HW230828   3.710   6.489   4.409
 9977SOL     OW30829   6.956   5.009   3.893
 9977SOL    HW130830   0.028   5.034   3.873
 9977SOL    HW230831   6.946   4.991   3.991
 9978SOL     OW30832   0.075   3.194   4.076
 9978SOL    HW130833   0.175   3.206   4.076
 9978SOL    HW230834   0.032   3.271   4.030
 9979SOL     OW30835   0.665   3.342   5.264
 9979SOL    HW130836   0.764   3.325   5.261
 9979SOL    HW230837   0.641   3.412   5.197
 9980SOL     OW30838   3.079   0.162   5.847
 9980SOL    HW130839   3.076   0.238   5.782
 9980SOL    HW230840   3.011   0.094   5.823
 9981SOL     OW30841   3.346   1.361   3.041
 9981SOL    HW130842   3.353   1.344   2.943
 9981SOL    HW230843   3.255   1.334   3.073
 9982SOL     OW30844   5.918   0.301   2.778
 9982SOL    HW130845   5.882   0.240   2.849
 9982SOL    HW230846   5.852   0.373   2.759
 9983SOL     OW30847   6.591   0.846   0.584
 9983SOL    HW130848   6.548   0.901   0.655
 9983SOL    HW230849   6.676   0.889   0.555
 9984SOL     OW30850   3.057   0.656   0.241
 9984SOL    HW130851   3.148   0.694   0.229
 9984SOL    HW230852   3.028   0.612   0.156
 9985SOL     OW30853   1.281   1.789   0.689
 9985SOL    HW130854   1.265   1.795   0.788
 9985SOL    HW230855   1.193   1.794   0.641
 9986SOL     OW30856   5.723   4.304   4.905
 9986SOL    HW130857   5.629   4.270   4.908
 9986SOL    HW230858   5.778   4.254   4.971
 9987SOL     OW30859   0.128   4.362   5.053
 9987SOL    HW130860   0.052   4.358   4.989
 9987SOL    HW230861   0.114   4.297   5.127
 9988SOL     OW30862   5.819   1.544   4.040
 9988SOL    HW130863   5.867   1.603   4.105
 9988SOL    HW230864   5.840   1.449   4.060
 9989SOL     OW30865   1.738   2.361   5.258
 9989SOL    HW130866   1.729   2.323   5.350
 9989SOL    HW230867   1.731   2.460   5.263
 9990SOL     OW30868   1.070   4.842   1.001
 9990SOL    HW130869   1.024   4.818   1.087
 9990SOL    HW230870   1.145   4.777   0.985
 9991SOL     OW30871   3.705   2.118   3.886
 9991SOL    HW130872   3.725   2.163   3.799
 9991SOL    HW230873   3.627   2.057   3.875
 9992SOL     OW30874   0.016   5.002   6.648
 9992SOL    HW130875   7.014   4.973   6.740
 9992SOL    HW230876   6.983   4.951   6.581
 9993SOL     OW30877   1.069   1.207   1.837
 9993SOL    HW130878   1.132   1.223   1.761
 9993SOL    HW230879   1.028   1.294   1.866
 9994SOL     OW30880   5.801   4.162   3.289
 9994SOL    HW130881   5.722   4.206   3.246
 9994SOL    HW230882   5.845   4.101   3.224
 9995SOL     OW30883   5.589   1.982   4.658
 9995SOL    HW130884   5.590   1.968   4.757
 9995SOL    HW230885   5.497   2.009   4.630
 9996SOL     OW30886   2.878   3.009   1.610
 9996SOL    HW130887   2.934   3.029   1.691
 9996SOL    HW230888   2.783   3.031   1.630
 9997SOL     OW30889   2.815   1.033   4.510
 9997SOL    HW130890   2.786   0.937   4.513
 9997SOL    HW230891   2.739   1.090   4.480
 9998SOL     OW30892   6.381   5.852   5.655
 9998SOL    HW130893   6.388   5.919   5.729
 9998SOL    HW230894   6.409   5.762   5.690
 9999SOL     OW30895   0.151   0.713   5.481
 9999SOL    HW130896   0.181   0.710   5.576
 9999SOL    HW230897   0.084   0.641   5.464
10000SOL     OW30898   6.590   4.723   0.944
10000SOL    HW130899   6.517   4.655   0.945
10000SOL    HW230900   6.673   4.684   0.983
10001SOL     OW30901   3.690   1.092   3.850
10001SOL    HW130902   3.679   1.077   3.948
10001SOL    HW230903   3.700   1.004   3.804
10002SOL     OW30904   1.012   2.205   2.087
10002SOL    HW130905   1.109   2.191   2.068
10002SOL    HW230906   0.999   2.222   2.185
10003SOL     OW30907   5.366   3.739   1.165
10003SOL    HW130908   5.286   3.715   1.110
10003SOL    HW230909   5.354   3.707   1.259
10004SOL     OW30910   6.159   3.407   4.209
10004SOL    HW130911   6.138   3.472   4.136
10004SOL    HW230912   6.173   3.456   4.295
10005SOL     OW30913   4.538   0.069   2.819
10005SOL    HW130914   4.569   0.162   2.799
10005SOL    HW230915   4.499   0.065   2.912
10006SOL     OW30916   5.173   2.927   4.019
10006SOL    HW130917   5.098   2.868   4.049
10006SOL    HW230918   5.193   2.909   3.922
10007SOL     OW30919   5.136   5.963   4.302
10007SOL    HW130920   5.234   5.955   4.322
10007SOL    HW230921   5.085   5.902   4.361
10008SOL     OW30922   2.682   6.279   4.171
10008SOL    HW130923   2.660   6.207   4.106
10008SOL    HW230924   2.702   6.364   4.122
10009SOL     OW30925   2.286   4.422   1.730
10009SOL    HW130926   2.293   4.340   1.788
10009SOL    HW230927   2.375   4.439   1.688
10010SOL     OW30928   5.681   0.630   4.736
10010SOL    HW130929   5.720   0.721   4.728
10010SOL    HW230930   5.605   0.631   4.800
10011SOL     OW30931   6.214   6.680   3.218
10011SOL    HW130932   6.171   6.691   3.307
10011SOL    HW230933   6.157   6.722   3.148
10012SOL     OW30934   4.654   1.721   5.068
10012SOL    HW130935   4.722   1.727   4.995
10012SOL    HW230936   4.689   1.768   5.149
10013SOL     OW30937   1.813   0.689   0.987
10013SOL    HW130938   1.728   0.662   1.033
10013SOL    HW230939   1.884   0.704   1.055
10014SOL     OW30940   1.207   5.116   5.896
10014SOL    HW130941   1.220   5.173   5.977
10014SOL    HW230942   1.189   5.174   5.817
10015SOL     OW30943   2.668   6.224   6.099
10015SOL    HW130944   2.658   6.264   6.191
10015SOL    HW230945   2.744   6.159   6.099
10016SOL     OW30946   2.968   1.498   5.608
10016SOL    HW130947   3.048   1.558   5.607
10016SOL    HW230948   2.965   1.446   5.522
10017SOL     OW30949   6.049   2.174   2.941
10017SOL    HW130950   6.058   2.115   3.022
10017SOL    HW230951   6.027   2.267   2.970
10018SOL     OW30952   4.444   6.974   5.394
10018SOL    HW130953   4.543   6.971   5.408
10018SOL    HW230954   4.419   6.913   5.319
10019SOL     OW30955   0.387   0.412   3.512
10019SOL    HW130956   0.469   0.470   3.519
10019SOL    HW230957   0.396   0.352   3.432
10020SOL     OW30958   0.635   3.822   0.378
10020SOL    HW130959   0.612   3.803   0.474
10020SOL    HW230960   0.714   3.767   0.352
10021SOL     OW30961   4.873   2.982   0.556
10021SOL    HW130962   4.966   2.947   0.561
10021SOL    HW230963   4.858   3.022   0.465
10022SOL     OW30964   2.158   1.507   6.071
10022SOL    HW130965   2.227   1.579   6.056
10022SOL    HW230966   2.133   1.466   5.983
10023SOL     OW30967   0.672   3.184   0.520
10023SOL    HW130968   0.698   3.276   0.550
10023SOL    HW230969   0.692   3.174   0.423
10024SOL     OW30970   0.676   3.956   2.645
10024SOL    HW130971   0.604   3.922   2.585
10024SOL    HW230972   0.740   4.012   2.593
10025SOL     OW30973   1.022   1.443   0.544
10025SOL    HW130974   1.031   1.523   0.603
10025SOL    HW230975   0.945   1.455   0.482
10026SOL     OW30976   6.113   0.595   4.072
10026SOL    HW130977   6.135   0.687   4.041
10026SOL    HW230978   6.125   0.589   4.171
10027SOL     OW30979   6.889   2.898   5.537
10027SOL    HW130980   6.935   2.870   5.453
10027SOL    HW230981   6.942   2.864   5.616
10028SOL     OW30982   1.320   1.400   0.616
10028SOL    HW130983   1.359   1.427   0.527
10028SOL    HW230984   1.243   1.338   0.601
10029SOL     OW30985   3.930   1.114   4.850
10029SOL    HW130986   3.993   1.189   4.829
10029SOL    HW230987   3.948   1.080   4.942
10030SOL     OW30988   0.761   0.853   1.686
10030SOL    HW130989   0.853   0.821   1.709
10030SOL    HW230990   0.736   0.928   1.746
10031SOL     OW30991   0.073   5.270   3.097
10031SOL    HW130992   0.121   5.204   3.039
10031SOL    HW230993   0.107   5.263   3.191
10032SOL     OW30994   3.896   2.177   5.269
10032SOL    HW130995   3.956   2.237   5.321
10032SOL    HW230996   3.921   2.180   5.173
10033SOL     OW30997   6.039   2.946   4.272
10033SOL    HW130998   6.083   3.028   4.234
10033SOL    HW230999   6.008   2.966   4.365
10034SOL     OW31000   4.180   6.900   5.582
10034SOL    HW131001   4.218   6.833   5.646
10034SOL    HW231002   4.173   6.858   5.491
10035SOL     OW31003   0.113   5.835   4.104
10035SOL    HW131004   0.039   5.886   4.147
10035SOL    HW231005   0.075   5.759   4.052
10036SOL     OW31006   6.421   0.059   0.122
10036SOL    HW131007   6.462   0.064   0.031
10036SOL    HW231008   6.390   6.987   0.138
10037SOL     OW31009   0.109   0.221   1.497
10037SOL    HW131010   0.180   0.186   1.559
10037SOL    HW231011   0.075   0.146   1.440
10038SOL     OW31012   5.448   6.455   1.363
10038SOL    HW131013   5.409   6.546   1.344
10038SOL    HW231014   5.374   6.388   1.368
10039SOL     OW31015   3.439   0.852   3.017
10039SOL    HW131016   3.348   0.881   2.987
10039SOL    HW231017   3.434   0.821   3.112
10040SOL     OW31018   0.387   1.962   0.622
10040SOL    HW131019   0.466   1.959   0.562
10040SOL    HW231020   0.308   1.920   0.577
10041SOL     OW31021   0.254   6.829   0.073
10041SOL    HW131022   0.285   6.903   0.132
10041SOL    HW231023   0.329   6.765   0.057
10042SOL     OW31024   6.447   1.691   3.877
10042SOL    HW131025   6.511   1.676   3.953
10042SOL    HW231026   6.405   1.781   3.887
10043SOL     OW31027   2.365   3.232   5.336
10043SOL    HW131028   2.433   3.303   5.354
10043SOL    HW231029   2.404   3.162   5.276
10044SOL     OW31030   3.874   0.614   5.984
10044SOL    HW131031   3.793   0.671   5.997
10044SOL    HW231032   3.892   0.604   5.886
10045SOL     OW31033   2.386   6.843   1.039
10045SOL    HW131034   2.466   6.838   1.099
10045SOL    HW231035   2.363   6.939   1.023
10046SOL     OW31036   0.762   6.767   0.415
10046SOL    HW131037   0.669   6.776   0.378
10046SOL    HW231038   0.765   6.808   0.506
10047SOL     OW31039   1.563   3.738   1.143
10047SOL    HW131040   1.583   3.640   1.143
10047SOL    HW231041   1.621   3.784   1.211
10048SOL     OW31042   6.449   2.938   0.995
10048SOL    HW131043   6.480   2.852   0.955
10048SOL    HW231044   6.352   2.952   0.976
10049SOL     OW31045   6.805   2.127   4.625
10049SOL    HW131046   6.823   2.030   4.644
10049SOL    HW231047   6.755   2.135   4.539
10050SOL     OW31048   0.446   2.034   5.571
10050SOL    HW131049   0.535   2.029   5.615
10050SOL    HW231050   0.409   2.127   5.580
10051SOL     OW31051   1.029   0.625   2.568
10051SOL    HW131052   1.062   0.658   2.480
10051SOL    HW231053   0.961   0.553   2.554
10052SOL     OW31054   0.226   0.103   4.437
10052SOL    HW131055   0.188   0.124   4.527
10052SOL    HW231056   0.176   0.154   4.367
10053SOL     OW31057   5.857   6.069   1.981
10053SOL    HW131058   5.934   6.132   1.993
10053SOL    HW231059   5.878   6.005   1.907
10054SOL     OW31060   4.857   4.599   3.420
10054SOL    HW131061   4.843   4.634   3.327
10054SOL    HW231062   4.820   4.507   3.426
10055SOL     OW31063   2.021   1.895   6.683
10055SOL    HW131064   1.933   1.880   6.638
10055SOL    HW231065   2.060   1.982   6.651
10056SOL     OW31066   5.429   3.540   4.815
10056SOL    HW131067   5.506   3.580   4.766
10056SOL    HW231068   5.461   3.505   4.903
10057SOL     OW31069   6.137   4.758   4.854
10057SOL    HW131070   6.097   4.707   4.931
10057SOL    HW231071   6.140   4.855   4.878
10058SOL     OW31072   5.523   3.959   4.233
10058SOL    HW131073   5.616   3.923   4.243
10058SOL    HW231074   5.468   3.894   4.180
10059SOL     OW31075   5.218   6.248   5.634
10059SOL    HW131076   5.210   6.214   5.541
10059SOL    HW231077   5.241   6.172   5.696
10060SOL     OW31078   2.791   0.970   1.562
10060SOL    HW131079   2.704   0.957   1.609
10060SOL    HW231080   2.801   1.065   1.535
10061SOL     OW31081   3.346   0.306   2.965
10061SOL    HW131082   3.403   0.328   3.044
10061SOL    HW231083   3.338   0.386   2.906
10062SOL     OW31084   5.697   6.769   3.968
10062SOL    HW131085   5.630   6.758   4.042
10062SOL    HW231086   5.771   6.830   3.998
10063SOL     OW31087   4.467   2.499   2.479
10063SOL    HW131088   4.521   2.520   2.398
10063SOL    HW231089   4.384   2.449   2.453
10064SOL     OW31090   1.460   6.267   2.886
10064SOL    HW131091   1.376   6.258   2.939
10064SOL    HW231092   1.476   6.184   2.834
10065SOL     OW31093   6.634   1.994   1.256
10065SOL    HW131094   6.546   2.002   1.209
10065SOL    HW231095   6.706   1.974   1.189
10066SOL     OW31096   5.680   4.078   3.752
10066SOL    HW131097   5.686   4.156   3.814
10066SOL    HW231098   5.755   4.082   3.686
10067SOL     OW31099   5.473   3.211   5.072
10067SOL    HW131100   5.474   3.170   4.981
10067SOL    HW231101   5.429   3.147   5.136
10068SOL     OW31102   2.408   4.429   2.990
10068SOL    HW131103   2.440   4.507   3.044
10068SOL    HW231104   2.455   4.428   2.902
10069SOL     OW31105   3.256   5.175   1.031
10069SOL    HW131106   3.217   5.109   1.095
10069SOL    HW231107   3.350   5.147   1.008
10070SOL     OW31108   5.662   0.552   6.664
10070SOL    HW131109   5.591   0.499   6.710
10070SOL    HW231110   5.738   0.569   6.727
10071SOL     OW31111   4.959   1.648   4.190
10071SOL    HW131112   5.028   1.582   4.218
10071SOL    HW231113   4.986   1.739   4.222
10072SOL     OW31114   6.042   2.692   1.413
10072SOL    HW131115   5.992   2.717   1.495
10072SOL    HW231116   6.112   2.624   1.435
10073SOL     OW31117   5.655   4.872   4.994
10073SOL    HW131118   5.694   4.914   5.076
10073SOL    HW231119   5.725   4.868   4.923
10074SOL     OW31120   2.119   4.905   1.735
10074SOL    HW131121   2.107   4.838   1.807
10074SOL    HW231122   2.060   4.883   1.657
10075SOL     OW31123   0.607   3.777   1.419
10075SOL    HW131124   0.657   3.691   1.405
10075SOL    HW231125   0.536   3.786   1.348
10076SOL     OW31126   5.900   4.649   4.062
10076SOL    HW131127   5.936   4.588   3.992
10076SOL    HW231128   5.816   4.691   4.030
10077SOL     OW31129   4.529   4.375   6.774
10077SOL    HW131130   4.586   4.379   6.691
10077SOL    HW231131   4.439   4.337   6.751
10078SOL     OW31132   5.880   6.342   3.901
10078SOL    HW131133   5.800   6.294   3.866
10078SOL    HW231134   5.901   6.420   3.842
10079SOL     OW31135   5.886   5.407   3.930
10079SOL    HW131136   5.917   5.355   3.849
10079SOL    HW231137   5.842   5.491   3.900
10080SOL     OW31138   4.840   3.104   3.949
10080SOL    HW131139   4.777   3.027   3.947
10080SOL    HW231140   4.898   3.101   3.867
10081SOL     OW31141   1.801   5.154   0.601
10081SOL    HW131142   1.766   5.195   0.517
10081SOL    HW231143   1.747   5.184   0.679
10082SOL     OW31144   6.744   4.264   1.863
10082SOL    HW131145   6.675   4.192   1.854
10082SOL    HW231146   6.745   4.298   1.957
10083SOL     OW31147   3.295   5.223   2.864
10083SOL    HW131148   3.379   5.274   2.852
10083SOL    HW231149   3.313   5.125   2.852
10084SOL     OW31150   2.133   3.929   4.323
10084SOL    HW131151   2.085   3.869   4.387
10084SOL    HW231152   2.153   4.017   4.367
10085SOL     OW31153   3.046   6.504   1.793
10085SOL    HW131154   3.063   6.414   1.834
10085SOL    HW231155   3.112   6.570   1.830
10086SOL     OW31156   2.603   0.777   2.890
10086SOL    HW131157   2.604   0.872   2.919
10086SOL    HW231158   2.632   0.771   2.794
10087SOL     OW31159   2.321   5.667   6.749
10087SOL    HW131160   2.287   5.588   6.697
10087SOL    HW231161   2.419   5.657   6.765
10088SOL     OW31162   5.179   1.903   1.140
10088SOL    HW131163   5.089   1.879   1.176
10088SOL    HW231164   5.169   1.971   1.068
10089SOL     OW31165   3.177   0.100   3.827
10089SOL    HW131166   3.213   0.059   3.911
10089SOL    HW231167   3.156   0.197   3.844
10090SOL     OW31168   3.198   5.947   3.697
10090SOL    HW131169   3.287   5.974   3.733
10090SOL    HW231170   3.210   5.906   3.607
10091SOL     OW31171   4.643   6.379   3.086
10091SOL    HW131172   4.641   6.289   3.128
10091SOL    HW231173   4.695   6.442   3.145
10092SOL     OW31174   6.199   0.839   2.084
10092SOL    HW131175   6.119   0.823   2.026
10092SOL    HW231176   6.196   0.776   2.162
10093SOL     OW31177   4.358   4.158   6.558
10093SOL    HW131178   4.355   4.224   6.483
10093SOL    HW231179   4.294   4.083   6.539
10094SOL     OW31180   4.358   3.233   0.209
10094SOL    HW131181   4.340   3.322   0.168
10094SOL    HW231182   4.330   3.234   0.305
10095SOL     OW31183   4.118   2.691   5.343
10095SOL    HW131184   4.147   2.620   5.279
10095SOL    HW231185   4.100   2.650   5.432
10096SOL     OW31186   6.301   4.690   1.506
10096SOL    HW131187   6.318   4.643   1.593
10096SOL    HW231188   6.203   4.695   1.489
10097SOL     OW31189   0.690   0.639   0.712
10097SOL    HW131190   0.712   0.552   0.668
10097SOL    HW231191   0.679   0.624   0.810
10098SOL     OW31192   3.788   4.893   0.754
10098SOL    HW131193   3.814   4.849   0.668
10098SOL    HW231194   3.869   4.936   0.796
10099SOL     OW31195   6.469   6.215   2.967
10099SOL    HW131196   6.474   6.272   3.048
10099SOL    HW231197   6.487   6.120   2.992
10100SOL     OW31198   5.893   5.888   4.379
10100SOL    HW131199   5.839   5.972   4.372
10100SOL    HW231200   5.955   5.894   4.458
10101SOL     OW31201   6.878   2.317   5.931
10101SOL    HW131202   6.917   2.304   6.022
10101SOL    HW231203   6.951   2.320   5.863
10102SOL     OW31204   0.368   4.865   4.182
10102SOL    HW131205   0.301   4.790   4.184
10102SOL    HW231206   0.320   4.951   4.198
10103SOL     OW31207   0.623   0.404   6.581
10103SOL    HW131208   0.559   0.365   6.514
10103SOL    HW231209   0.577   0.415   6.669
10104SOL     OW31210   2.791   1.414   4.408
10104SOL    HW131211   2.859   1.367   4.466
10104SOL    HW231212   2.793   1.376   4.316
10105SOL     OW31213   3.352   1.223   4.418
10105SOL    HW131214   3.269   1.214   4.474
10105SOL    HW231215   3.386   1.132   4.394
10106SOL     OW31216   6.803   3.091   1.927
10106SOL    HW131217   6.837   3.142   1.847
10106SOL    HW231218   6.821   2.994   1.915
10107SOL     OW31219   4.292   5.883   5.032
10107SOL    HW131220   4.359   5.816   5.064
10107SOL    HW231221   4.301   5.967   5.086
10108SOL     OW31222   3.134   2.098   4.671
10108SOL    HW131223   3.201   2.097   4.746
10108SOL    HW231224   3.044   2.074   4.707
10109SOL     OW31225   1.108   2.735   0.605
10109SOL    HW131226   1.195   2.745   0.655
10109SOL    HW231227   1.119   2.772   0.512
10110SOL     OW31228   6.134   6.349   1.701
10110SOL    HW131229   6.083   6.363   1.785
10110SOL    HW231230   6.083   6.388   1.624
10111SOL     OW31231   0.049   2.462   0.740
10111SOL    HW131232   0.005   2.421   0.661
10111SOL    HW231233   0.078   2.555   0.718
10112SOL     OW31234   0.144   3.163   2.648
10112SOL    HW131235   0.063   3.153   2.590
10112SOL    HW231236   0.226   3.151   2.592
10113SOL     OW31237   0.438   6.281   6.338
10113SOL    HW131238   0.398   6.225   6.265
10113SOL    HW231239   0.480   6.362   6.299
10114SOL     OW31240   5.680   4.122   1.579
10114SOL    HW131241   5.720   4.158   1.663
10114SOL    HW231242   5.642   4.031   1.596
10115SOL     OW31243   2.456   1.257   6.583
10115SOL    HW131244   2.459   1.293   6.490
10115SOL    HW231245   2.438   1.159   6.580
10116SOL     OW31246   1.337   0.068   6.354
10116SOL    HW131247   1.328   0.034   6.260
10116SOL    HW231248   1.248   0.063   6.400
10117SOL     OW31249   0.540   4.315   0.830
10117SOL    HW131250   0.594   4.264   0.762
10117SOL    HW231251   0.599   4.381   0.875
10118SOL     OW31252   4.407   5.772   3.468
10118SOL    HW131253   4.318   5.814   3.485
10118SOL    HW231254   4.403   5.674   3.491
10119SOL     OW31255   5.813   5.678   6.988
10119SOL    HW131256   5.733   5.735   6.971
10119SOL    HW231257   5.889   5.734   7.019
10120SOL     OW31258   2.531   2.038   2.568
10120SOL    HW131259   2.510   2.065   2.662
10120SOL    HW231260   2.597   2.102   2.529
10121SOL     OW31261   6.715   6.330   1.709
10121SOL    HW131262   6.636   6.348   1.767
10121SOL    HW231263   6.708   6.384   1.625
10122SOL     OW31264   1.966   0.035   3.662
10122SOL    HW131265   2.036   0.013   3.593
10122SOL    HW231266   1.886   0.073   3.617
10123SOL     OW31267   6.284   5.998   6.551
10123SOL    HW131268   6.198   5.946   6.554
10123SOL    HW231269   6.270   6.083   6.501
10124SOL     OW31270   0.298   4.978   3.536
10124SOL    HW131271   0.217   4.939   3.580
10124SOL    HW231272   0.380   4.944   3.582
10125SOL     OW31273   2.380   2.688   4.014
10125SOL    HW131274   2.459   2.631   3.994
10125SOL    HW231275   2.340   2.720   3.928
10126SOL     OW31276   6.778   6.080   4.074
10126SOL    HW131277   6.761   6.157   4.135
10126SOL    HW231278   6.850   6.104   4.009
10127SOL     OW31279   2.238   0.960   5.205
10127SOL    HW131280   2.260   0.862   5.202
10127SOL    HW231281   2.301   1.006   5.267
10128SOL     OW31282   2.920   0.199   0.591
10128SOL    HW131283   2.930   0.100   0.586
10128SOL    HW231284   2.988   0.243   0.532
10129SOL     OW31285   6.786   2.500   5.606
10129SOL    HW131286   6.747   2.425   5.659
10129SOL    HW231287   6.766   2.587   5.651
10130SOL     OW31288   0.305   2.541   3.387
10130SOL    HW131289   0.323   2.447   3.359
10130SOL    HW231290   0.391   2.587   3.407
10131SOL     OW31291   2.832   0.512   5.055
10131SOL    HW131292   2.891   0.592   5.040
10131SOL    HW231293   2.761   0.510   4.985
10132SOL     OW31294   6.022   0.964   1.326
10132SOL    HW131295   6.121   0.958   1.314
10132SOL    HW231296   5.976   0.911   1.255
10133SOL     OW31297   4.622   5.299   0.637
10133SOL    HW131298   4.679   5.232   0.685
10133SOL    HW231299   4.576   5.357   0.704
10134SOL     OW31300   5.849   1.479   3.046
10134SOL    HW131301   5.868   1.473   2.948
10134SOL    HW231302   5.909   1.546   3.088
10135SOL     OW31303   5.707   6.409   3.502
10135SOL    HW131304   5.737   6.480   3.565
10135SOL    HW231305   5.687   6.451   3.413
10136SOL     OW31306   4.878   0.005   3.159
10136SOL    HW131307   4.879   0.053   3.072
10136SOL    HW231308   4.790   6.980   3.171
10137SOL     OW31309   6.109   6.353   2.326
10137SOL    HW131310   6.034   6.417   2.307
10137SOL    HW231311   6.078   6.259   2.308
10138SOL     OW31312   0.308   1.057   1.715
10138SOL    HW131313   0.221   1.068   1.668
10138SOL    HW231314   0.317   0.962   1.746
10139SOL     OW31315   4.647   2.005   0.161
10139SOL    HW131316   4.626   2.007   0.063
10139SOL    HW231317   4.612   1.921   0.202
10140SOL     OW31318   6.289   6.415   3.124
10140SOL    HW131319   6.194   6.388   3.113
10140SOL    HW231320   6.295   6.514   3.137
10141SOL     OW31321   0.358   2.059   5.038
10141SOL    HW131322   0.400   2.132   5.091
10141SOL    HW231323   0.274   2.028   5.082
10142SOL     OW31324   4.286   5.579   1.041
10142SOL    HW131325   4.383   5.567   1.060
10142SOL    HW231326   4.274   5.647   0.969
10143SOL     OW31327   1.180   3.005   6.379
10143SOL    HW131328   1.166   2.927   6.318
10143SOL    HW231329   1.091   3.041   6.408
10144SOL     OW31330   4.308   0.322   2.608
10144SOL    HW131331   4.213   0.299   2.589
10144SOL    HW231332   4.315   0.364   2.698
10145SOL     OW31333   6.145   1.130   4.861
10145SOL    HW131334   6.075   1.191   4.823
10145SOL    HW231335   6.226   1.183   4.886
10146SOL     OW31336   1.870   1.087   5.704
10146SOL    HW131337   1.914   1.165   5.748
10146SOL    HW231338   1.807   1.120   5.633
10147SOL     OW31339   4.291   4.722   6.510
10147SOL    HW131340   4.247   4.775   6.582
10147SOL    HW231341   4.247   4.743   6.422
10148SOL     OW31342   6.569   5.718   6.322
10148SOL    HW131343   6.593   5.785   6.251
10148SOL    HW231344   6.630   5.730   6.401
10149SOL     OW31345   3.241   3.246   4.800
10149SOL    HW131346   3.236   3.326   4.860
10149SOL    HW231347   3.274   3.274   4.710
10150SOL     OW31348   6.608   4.256   6.806
10150SOL    HW131349   6.529   4.260   6.867
10150SOL    HW231350   6.636   4.161   6.793
10151SOL     OW31351   0.392   0.096   6.435
10151SOL    HW131352   0.392   0.196   6.446
10151SOL    HW231353   0.300   0.065   6.411
10152SOL     OW31354   3.235   6.766   3.843
10152SOL    HW131355   3.271   6.674   3.828
10152SOL    HW231356   3.193   6.799   3.758
10153SOL     OW31357   3.037   4.551   0.176
10153SOL    HW131358   2.950   4.519   0.141
10153SOL    HW231359   3.056   4.643   0.141
10154SOL     OW31360   4.420   4.636   6.093
10154SOL    HW131361   4.420   4.670   5.999
10154SOL    HW231362   4.366   4.552   6.098
10155SOL     OW31363   4.681   2.783   4.408
10155SOL    HW131364   4.668   2.756   4.504
10155SOL    HW231365   4.635   2.718   4.349
10156SOL     OW31366   2.962   2.036   6.655
10156SOL    HW131367   3.015   1.970   6.708
10156SOL    HW231368   3.023   2.086   6.594
10157SOL     OW31369   0.200   5.418   2.739
10157SOL    HW131370   0.247   5.437   2.825
10157SOL    HW231371   0.123   5.481   2.728
10158SOL     OW31372   0.556   5.342   5.852
10158SOL    HW131373   0.520   5.432   5.829
10158SOL    HW231374   0.539   5.279   5.776
10159SOL     OW31375   4.092   2.674   1.590
10159SOL    HW131376   4.057   2.755   1.637
10159SOL    HW231377   4.192   2.680   1.582
10160SOL     OW31378   6.775   4.496   2.984
10160SOL    HW131379   6.820   4.576   2.945
10160SOL    HW231380   6.817   4.413   2.948
10161SOL     OW31381   6.131   2.868   0.178
10161SOL    HW131382   6.081   2.847   0.094
10161SOL    HW231383   6.071   2.858   0.256
10162SOL     OW31384   1.781   1.981   2.616
10162SOL    HW131385   1.842   1.911   2.652
10162SOL    HW231386   1.763   2.049   2.687
10163SOL     OW31387   4.227   5.831   4.491
10163SOL    HW131388   4.128   5.843   4.496
10163SOL    HW231389   4.269   5.864   4.576
10164SOL     OW31390   0.465   1.352   4.058
10164SOL    HW131391   0.464   1.300   4.144
10164SOL    HW231392   0.394   1.317   3.998
10165SOL     OW31393   1.465   2.636   4.201
10165SOL    HW131394   1.460   2.680   4.112
10165SOL    HW231395   1.555   2.593   4.212
10166SOL     OW31396   3.905   6.202   3.659
10166SOL    HW131397   3.996   6.223   3.695
10166SOL    HW231398   3.836   6.256   3.707
10167SOL     OW31399   3.877   2.132   7.015
10167SOL    HW131400   3.973   2.155   6.997
10167SOL    HW231401   3.842   2.189   0.067
10168SOL     OW31402   0.446   0.685   6.002
10168SOL    HW131403   0.376   0.631   5.954
10168SOL    HW231404   0.509   0.624   6.050
10169SOL     OW31405   4.719   4.747   2.653
10169SOL    HW131406   4.777   4.763   2.733
10169SOL    HW231407   4.774   4.753   2.570
10170SOL     OW31408   4.557   6.940   6.880
10170SOL    HW131409   4.640   6.995   6.869
10170SOL    HW231410   4.582   6.846   6.903
10171SOL     OW31411   0.893   5.140   3.360
10171SOL    HW131412   0.838   5.222   3.344
10171SOL    HW231413   0.984   5.152   3.319
10172SOL     OW31414   0.762   0.340   3.305
10172SOL    HW131415   0.833   0.329   3.235
10172SOL    HW231416   0.728   0.434   3.303
10173SOL     OW31417   4.548   2.541   3.666
10173SOL    HW131418   4.564   2.484   3.585
10173SOL    HW231419   4.554   2.638   3.640
10174SOL     OW31420   3.952   5.835   0.767
10174SOL    HW131421   3.948   5.920   0.715
10174SOL    HW231422   3.866   5.785   0.758
10175SOL     OW31423   6.765   6.850   5.079
10175SOL    HW131424   6.834   6.871   5.010
10175SOL    HW231425   6.764   6.752   5.097
10176SOL     OW31426   6.977   1.665   4.694
10176SOL    HW131427   0.028   1.727   4.666
10176SOL    HW231428   6.999   1.572   4.663
10177SOL     OW31429   2.501   0.709   4.372
10177SOL    HW131430   2.587   0.722   4.420
10177SOL    HW231431   2.438   0.784   4.395
10178SOL     OW31432   5.429   1.087   1.346
10178SOL    HW131433   5.495   1.152   1.385
10178SOL    HW231434   5.412   1.110   1.251
10179SOL     OW31435   6.394   5.548   0.731
10179SOL    HW131436   6.348   5.557   0.819
10179SOL    HW231437   6.344   5.601   0.662
10180SOL     OW31438   1.905   0.841   6.181
10180SOL    HW131439   1.862   0.916   6.132
10180SOL    HW231440   1.994   0.870   6.216
10181SOL     OW31441   6.925   4.312   2.853
10181SOL    HW131442   7.007   4.309   2.909
10181SOL    HW231443   6.946   4.281   2.761
10182SOL     OW31444   2.922   6.735   6.754
10182SOL    HW131445   2.891   6.755   6.661
10182SOL    HW231446   2.935   6.636   6.763
10183SOL     OW31447   3.523   6.635   6.228
10183SOL    HW131448   3.541   6.594   6.318
10183SOL    HW231449   3.608   6.670   6.190
10184SOL     OW31450   4.934   2.807   4.094
10184SOL    HW131451   4.902   2.713   4.103
10184SOL    HW231452   4.863   2.863   4.051
10185SOL     OW31453   2.705   4.732   1.743
10185SOL    HW131454   2.749   4.687   1.820
10185SOL    HW231455   2.608   4.709   1.741
10186SOL     OW31456   3.534   3.143   2.389
10186SOL    HW131457   3.535   3.185   2.479
10186SOL    HW231458   3.443   3.155   2.347
10187SOL     OW31459   1.500   3.200   4.665
10187SOL    HW131460   1.577   3.141   4.641
10187SOL    HW231461   1.415   3.158   4.632
10188SOL     OW31462   2.517   6.164   0.098
10188SOL    HW131463   2.541   6.092   0.033
10188SOL    HW231464   2.581   6.161   0.175
10189SOL     OW31465   1.486   1.013   5.713
10189SOL    HW131466   1.525   0.921   5.711
10189SOL    HW231467   1.429   1.027   5.632
10190SOL     OW31468   2.780   4.166   1.414
10190SOL    HW131469   2.762   4.241   1.479
10190SOL    HW231470   2.879   4.153   1.405
10191SOL     OW31471   6.854   0.274   6.533
10191SOL    HW131472   6.810   0.192   6.498
10191SOL    HW231473   6.949   0.277   6.503
10192SOL     OW31474   3.007   1.316   3.382
10192SOL    HW131475   2.942   1.241   3.396
10192SOL    HW231476   3.077   1.312   3.453
10193SOL     OW31477   3.307   2.980   4.537
10193SOL    HW131478   3.316   2.915   4.461
10193SOL    HW231479   3.387   2.973   4.596
10194SOL     OW31480   3.250   5.847   3.454
10194SOL    HW131481   3.263   5.754   3.421
10194SOL    HW231482   3.200   5.900   3.386
10195SOL     OW31483   5.207   6.420   1.857
10195SOL    HW131484   5.276   6.434   1.787
10195SOL    HW231485   5.116   6.436   1.817
10196SOL     OW31486   4.845   4.443   4.785
10196SOL    HW131487   4.899   4.445   4.700
10196SOL    HW231488   4.888   4.504   4.852
10197SOL     OW31489   6.137   2.249   2.323
10197SOL    HW131490   6.102   2.343   2.332
10197SOL    HW231491   6.178   2.237   2.233
10198SOL     OW31492   3.309   1.591   2.219
10198SOL    HW131493   3.339   1.616   2.127
10198SOL    HW231494   3.240   1.519   2.214
10199SOL     OW31495   1.757   1.939   6.903
10199SOL    HW131496   1.745   1.841   6.919
10199SOL    HW231497   1.679   1.973   6.850
10200SOL     OW31498   4.261   6.587   3.225
10200SOL    HW131499   4.235   6.681   3.203
10200SOL    HW231500   4.190   6.546   3.283
10201SOL     OW31501   0.365   4.510   2.515
10201SOL    HW131502   0.435   4.487   2.449
10201SOL    HW231503   0.396   4.587   2.571
10202SOL     OW31504   2.015   2.849   3.801
10202SOL    HW131505   2.058   2.763   3.827
10202SOL    HW231506   2.083   2.923   3.805
10203SOL     OW31507   6.360   2.336   0.904
10203SOL    HW131508   6.267   2.372   0.915
10203SOL    HW231509   6.359   2.259   0.841
10204SOL     OW31510   0.666   5.842   4.349
10204SOL    HW131511   0.724   5.922   4.357
10204SOL    HW231512   0.661   5.794   4.436
10205SOL     OW31513   3.354   0.067   1.320
10205SOL    HW131514   3.345   0.133   1.395
10205SOL    HW231515   3.352   0.115   1.232
10206SOL     OW31516   6.145   5.576   6.528
10206SOL    HW131517   6.119   5.484   6.498
10206SOL    HW231518   6.130   5.584   6.627
10207SOL     OW31519   2.659   1.426   1.196
10207SOL    HW131520   2.583   1.489   1.206
10207SOL    HW231521   2.687   1.423   1.100
10208SOL     OW31522   1.152   2.505   5.679
10208SOL    HW131523   1.059   2.505   5.714
10208SOL    HW231524   1.154   2.457   5.591
10209SOL     OW31525   4.133   6.466   0.623
10209SOL    HW131526   4.197   6.421   0.562
10209SOL    HW231527   4.134   6.564   0.607
10210SOL     OW31528   4.226   5.903   6.782
10210SOL    HW131529   4.150   5.960   6.753
10210SOL    HW231530   4.298   5.961   6.822
10211SOL     OW31531   3.779   5.405   4.916
10211SOL    HW131532   3.799   5.497   4.881
10211SOL    HW231533   3.692   5.407   4.965
10212SOL     OW31534   6.730   5.645   5.557
10212SOL    HW131535   6.789   5.706   5.611
10212SOL    HW231536   6.757   5.550   5.573
10213SOL     OW31537   3.437   0.332   4.909
10213SOL    HW131538   3.488   0.356   4.827
10213SOL    HW231539   3.371   0.260   4.888
10214SOL     OW31540   0.107   0.102   0.129
10214SOL    HW131541   0.191   0.089   0.075
10214SOL    HW231542   0.032   0.127   0.068
10215SOL     OW31543   5.289   2.411   0.350
10215SOL    HW131544   5.272   2.465   0.432
10215SOL    HW231545   5.262   2.463   0.269
10216SOL     OW31546   5.047   0.278   2.789
10216SOL    HW131547   4.995   0.200   2.824
10216SOL    HW231548   5.023   0.360   2.840
10217SOL     OW31549   2.961   1.582   6.791
10217SOL    HW131550   2.910   1.643   6.730
10217SOL    HW231551   3.034   1.633   6.836
10218SOL     OW31552   4.110   0.867   5.826
10218SOL    HW131553   4.054   0.899   5.902
10218SOL    HW231554   4.120   0.940   5.759
10219SOL     OW31555   6.903   5.294   0.560
10219SOL    HW131556   6.976   5.362   0.554
10219SOL    HW231557   6.915   5.239   0.643
10220SOL     OW31558   4.137   2.195   6.473
10220SOL    HW131559   4.122   2.111   6.524
10220SOL    HW231560   4.061   2.208   6.408
10221SOL     OW31561   2.106   0.239   4.422
10221SOL    HW131562   2.052   0.304   4.476
10221SOL    HW231563   2.181   0.287   4.377
10222SOL     OW31564   2.426   5.160   5.460
10222SOL    HW131565   2.382   5.250   5.462
10222SOL    HW231566   2.390   5.108   5.382
10223SOL     OW31567   2.494   5.650   5.692
10223SOL    HW131568   2.468   5.554   5.686
10223SOL    HW231569   2.413   5.705   5.712
10224SOL     OW31570   4.051   5.646   5.608
10224SOL    HW131571   4.132   5.698   5.638
10224SOL    HW231572   3.985   5.709   5.568
10225SOL     OW31573   5.404   0.285   5.519
10225SOL    HW131574   5.403   0.191   5.484
10225SOL    HW231575   5.311   0.322   5.519
10226SOL     OW31576   6.589   2.314   6.324
10226SOL    HW131577   6.653   2.389   6.340
10226SOL    HW231578   6.607   2.273   6.235
10227SOL     OW31579   4.582   4.975   5.147
10227SOL    HW131580   4.515   4.909   5.115
10227SOL    HW231581   4.637   4.935   5.220
10228SOL     OW31582   0.797   2.544   0.994
10228SOL    HW131583   0.848   2.463   1.021
10228SOL    HW231584   0.709   2.546   1.042
10229SOL     OW31585   2.206   0.525   1.551
10229SOL    HW131586   2.214   0.435   1.594
10229SOL    HW231587   2.208   0.596   1.622
10230SOL     OW31588   5.388   0.525   3.523
10230SOL    HW131589   5.391   0.526   3.623
10230SOL    HW231590   5.306   0.478   3.493
10231SOL     OW31591   5.513   0.410   4.949
10231SOL    HW131592   5.583   0.447   5.010
10231SOL    HW231593   5.485   0.482   4.885
10232SOL     OW31594   3.790   2.045   2.538
10232SOL    HW131595   3.870   2.081   2.585
10232SOL    HW231596   3.807   2.042   2.440
10233SOL     OW31597   4.995   6.534   4.777
10233SOL    HW131598   5.050   6.512   4.696
10233SOL    HW231599   4.987   6.634   4.786
10234SOL     OW31600   3.450   4.336   1.108
10234SOL    HW131601   3.396   4.356   1.189
10234SOL    HW231602   3.540   4.303   1.135
10235SOL     OW31603   5.133   6.362   0.105
10235SOL    HW131604   5.050   6.306   0.106
10235SOL    HW231605   5.213   6.304   0.095
10236SOL     OW31606   1.271   5.006   0.980
10236SOL    HW131607   1.184   4.959   0.986
10236SOL    HW231608   1.278   5.073   1.054
10237SOL     OW31609   5.802   1.535   1.958
10237SOL    HW131610   5.724   1.473   1.958
10237SOL    HW231611   5.832   1.550   1.864
10238SOL     OW31612   5.331   4.689   6.377
10238SOL    HW131613   5.339   4.653   6.284
10238SOL    HW231614   5.301   4.784   6.373
10239SOL     OW31615   5.583   4.309   3.186
10239SOL    HW131616   5.484   4.302   3.186
10239SOL    HW231617   5.613   4.369   3.259
10240SOL     OW31618   5.108   3.779   2.056
10240SOL    HW131619   5.147   3.834   1.982
10240SOL    HW231620   5.047   3.709   2.017
10241SOL     OW31621   0.808   2.143   2.788
10241SOL    HW131622   0.735   2.081   2.758
10241SOL    HW231623   0.790   2.235   2.753
10242SOL     OW31624   1.436   5.682   6.510
10242SOL    HW131625   1.397   5.728   6.590
10242SOL    HW231626   1.393   5.718   6.427
10243SOL     OW31627   6.829   5.891   3.817
10243SOL    HW131628   6.876   5.834   3.748
10243SOL    HW231629   6.876   5.979   3.824
10244SOL     OW31630   2.440   6.138   0.636
10244SOL    HW131631   2.533   6.174   0.627
10244SOL    HW231632   2.380   6.210   0.671
10245SOL     OW31633   3.667   3.384   1.019
10245SOL    HW131634   3.624   3.379   0.929
10245SOL    HW231635   3.746   3.324   1.022
10246SOL     OW31636   3.399   3.173   5.061
10246SOL    HW131637   3.312   3.161   5.109
10246SOL    HW231638   3.389   3.150   4.965
10247SOL     OW31639   1.437   5.430   6.280
10247SOL    HW131640   1.508   5.374   6.322
10247SOL    HW231641   1.403   5.497   6.346
10248SOL     OW31642   5.765   0.610   4.132
10248SOL    HW131643   5.834   0.592   4.062
10248SOL    HW231644   5.676   0.622   4.088
10249SOL     OW31645   4.685   1.493   5.887
10249SOL    HW131646   4.689   1.395   5.869
10249SOL    HW231647   4.777   1.529   5.902
10250SOL     OW31648   4.357   5.124   0.920
10250SOL    HW131649   4.422   5.199   0.916
10250SOL    HW231650   4.377   5.057   0.847
10251SOL     OW31651   4.283   4.068   1.030
10251SOL    HW131652   4.315   4.154   0.990
10251SOL    HW231653   4.360   4.009   1.050
10252SOL     OW31654   0.007   3.348   1.249
10252SOL    HW131655   6.953   3.322   1.190
10252SOL    HW231656   0.061   3.267   1.273
10253SOL     OW31657   5.581   3.691   0.162
10253SOL    HW131658   5.593   3.617   0.097
10253SOL    HW231659   5.622   3.775   0.124
10254SOL     OW31660   3.557   2.088   5.926
10254SOL    HW131661   3.551   1.988   5.922
10254SOL    HW231662   3.516   2.127   5.845
10255SOL     OW31663   2.429   4.606   4.415
10255SOL    HW131664   2.379   4.689   4.388
10255SOL    HW231665   2.455   4.613   4.511
10256SOL     OW31666   6.028   4.652   6.931
10256SOL    HW131667   6.117   4.643   6.887
10256SOL    HW231668   6.025   4.738   6.982
10257SOL     OW31669   1.361   4.306   4.625
10257SOL    HW131670   1.439   4.243   4.626
10257SOL    HW231671   1.347   4.339   4.531
10258SOL     OW31672   3.558   1.397   2.026
10258SOL    HW131673   3.483   1.426   1.967
10258SOL    HW231674   3.562   1.458   2.106
10259SOL     OW31675   6.038   3.605   3.269
10259SOL    HW131676   6.067   3.579   3.177
10259SOL    HW231677   6.118   3.617   3.328
10260SOL     OW31678   0.166   6.230   3.019
10260SOL    HW131679   0.167   6.269   3.111
10260SOL    HW231680   0.164   6.130   3.026
10261SOL     OW31681   1.864   0.107   2.631
10261SOL    HW131682   1.815   0.182   2.588
10261SOL    HW231683   1.889   0.039   2.562
10262SOL     OW31684   5.999   6.768   2.838
10262SOL    HW131685   5.921   6.828   2.823
10262SOL    HW231686   6.050   6.757   2.752
10263SOL     OW31687   6.544   3.725   4.792
10263SOL    HW131688   6.491   3.686   4.867
10263SOL    HW231689   6.484   3.781   4.734
10264SOL     OW31690   0.709   0.044   1.277
10264SOL    HW131691   0.707   0.113   1.205
10264SOL    HW231692   0.681   6.978   1.240
10265SOL     OW31693   5.567   2.423   4.660
10265SOL    HW131694   5.498   2.493   4.643
10265SOL    HW231695   5.531   2.357   4.727
10266SOL     OW31696   2.936   3.708   0.077
10266SOL    HW131697   2.850   3.736   0.035
10266SOL    HW231698   2.930   3.612   0.103
10267SOL     OW31699   0.131   0.221   6.208
10267SOL    HW131700   0.037   0.254   6.205
10267SOL    HW231701   0.133   0.122   6.189
10268SOL     OW31702   6.832   4.848   0.669
10268SOL    HW131703   6.809   4.866   0.574
10268SOL    HW231704   6.776   4.772   0.703
10269SOL     OW31705   3.813   1.309   5.986
10269SOL    HW131706   3.810   1.408   5.976
10269SOL    HW231707   3.722   1.276   6.011
10270SOL     OW31708   4.011   6.270   4.209
10270SOL    HW131709   3.981   6.211   4.284
10270SOL    HW231710   3.931   6.313   4.167
10271SOL     OW31711   0.942   4.716   0.570
10271SOL    HW131712   0.955   4.676   0.479
10271SOL    HW231713   1.018   4.691   0.629
10272SOL     OW31714   1.482   3.052   3.404
10272SOL    HW131715   1.394   3.091   3.378
10272SOL    HW231716   1.555   3.099   3.354
10273SOL     OW31717   4.922   0.693   4.485
10273SOL    HW131718   4.944   0.791   4.482
10273SOL    HW231719   4.829   0.681   4.521
10274SOL     OW31720   1.630   4.460   6.984
10274SOL    HW131721   1.596   4.397   0.031
10274SOL    HW231722   1.553   4.508   6.941
10275SOL     OW31723   6.442   6.277   1.821
10275SOL    HW131724   6.381   6.211   1.776
10275SOL    HW231725   6.495   6.229   1.891
10276SOL     OW31726   2.978   6.359   0.533
10276SOL    HW131727   3.068   6.319   0.514
10276SOL    HW231728   2.973   6.386   0.629
10277SOL     OW31729   5.736   6.247   2.470
10277SOL    HW131730   5.778   6.214   2.555
10277SOL    HW231731   5.775   6.198   2.392
10278SOL     OW31732   6.133   1.129   5.155
10278SOL    HW131733   6.162   1.214   5.198
10278SOL    HW231734   6.174   1.122   5.064
10279SOL     OW31735   3.902   6.627   3.759
10279SOL    HW131736   3.964   6.663   3.829
10279SOL    HW231737   3.897   6.691   3.683
10280SOL     OW31738   3.007   2.194   6.958
10280SOL    HW131739   2.919   2.223   6.921
10280SOL    HW231740   3.081   2.227   6.899
10281SOL     OW31741   3.589   1.463   5.093
10281SOL    HW131742   3.539   1.398   5.150
10281SOL    HW231743   3.670   1.419   5.055
10282SOL     OW31744   1.490   3.267   4.009
10282SOL    HW131745   1.574   3.279   4.062
10282SOL    HW231746   1.417   3.323   4.049
10283SOL     OW31747   2.485   6.270   6.592
10283SOL    HW131748   2.386   6.267   6.578
10283SOL    HW231749   2.508   6.352   6.645
10284SOL     OW31750   5.305   2.322   0.867
10284SOL    HW131751   5.311   2.400   0.929
10284SOL    HW231752   5.381   2.324   0.803
10285SOL     OW31753   4.835   1.499   0.214
10285SOL    HW131754   4.849   1.490   0.115
10285SOL    HW231755   4.747   1.458   0.238
10286SOL     OW31756   2.415   6.571   3.185
10286SOL    HW131757   2.332   6.616   3.151
10286SOL    HW231758   2.442   6.499   3.122
10287SOL     OW31759   2.240   4.831   2.565
10287SOL    HW131760   2.288   4.761   2.512
10287SOL    HW231761   2.234   4.915   2.512
10288SOL     OW31762   4.663   0.064   4.227
10288SOL    HW131763   4.684   0.020   4.314
10288SOL    HW231764   4.676   7.020   4.153
10289SOL     OW31765   2.420   1.557   2.447
10289SOL    HW131766   2.383   1.583   2.536
10289SOL    HW231767   2.467   1.635   2.405
10290SOL     OW31768   3.351   3.784   3.042
10290SOL    HW131769   3.365   3.882   3.024
10290SOL    HW231770   3.321   3.739   2.959
10291SOL     OW31771   4.031   0.470   3.374
10291SOL    HW131772   3.954   0.507   3.425
10291SOL    HW231773   4.020   0.491   3.277
10292SOL     OW31774   0.266   3.353   4.417
10292SOL    HW131775   0.287   3.419   4.489
10292SOL    HW231776   0.349   3.302   4.393
10293SOL     OW31777   1.776   5.232   3.751
10293SOL    HW131778   1.746   5.261   3.842
10293SOL    HW231779   1.728   5.148   3.725
10294SOL     OW31780   5.572   1.457   3.043
10294SOL    HW131781   5.672   1.450   3.035
10294SOL    HW231782   5.542   1.406   3.125
10295SOL     OW31783   1.586   4.308   2.959
10295SOL    HW131784   1.670   4.321   3.012
10295SOL    HW231785   1.590   4.220   2.912
10296SOL     OW31786   0.182   3.506   1.380
10296SOL    HW131787   0.118   3.443   1.337
10296SOL    HW231788   0.214   3.573   1.313
10297SOL     OW31789   3.762   4.154   6.083
10297SOL    HW131790   3.807   4.114   6.003
10297SOL    HW231791   3.744   4.251   6.065
10298SOL     OW31792   6.018   3.370   2.791
10298SOL    HW131793   5.969   3.288   2.819
10298SOL    HW231794   6.004   3.386   2.693
10299SOL     OW31795   4.103   5.367   3.161
10299SOL    HW131796   4.018   5.363   3.108
10299SOL    HW231797   4.175   5.316   3.113
10300SOL     OW31798   0.048   5.963   2.353
10300SOL    HW131799   6.992   5.974   2.291
10300SOL    HW231800   0.053   6.041   2.416
10301SOL     OW31801   4.387   0.845   1.738
10301SOL    HW131802   4.405   0.746   1.736
10301SOL    HW231803   4.337   0.868   1.822
10302SOL     OW31804   6.984   4.479   3.158
10302SOL    HW131805   6.935   4.518   3.236
10302SOL    HW231806   6.934   4.501   3.074
10303SOL     OW31807   4.557   3.007   0.788
10303SOL    HW131808   4.492   3.000   0.713
10303SOL    HW231809   4.571   2.917   0.828
10304SOL     OW31810   6.225   6.279   4.925
10304SOL    HW131811   6.300   6.286   4.859
10304SOL    HW231812   6.252   6.216   4.998
10305SOL     OW31813   0.782   5.242   0.894
10305SOL    HW131814   0.872   5.270   0.861
10305SOL    HW231815   0.761   5.289   0.980
10306SOL     OW31816   4.808   3.504   6.592
10306SOL    HW131817   4.758   3.463   6.668
10306SOL    HW231818   4.849   3.432   6.536
10307SOL     OW31819   2.547   1.941   6.061
10307SOL    HW131820   2.480   1.886   6.112
10307SOL    HW231821   2.595   1.882   5.996
10308SOL     OW31822   3.266   4.920   4.290
10308SOL    HW131823   3.194   4.908   4.358
10308SOL    HW231824   3.224   4.930   4.200
10309SOL     OW31825   6.683   6.776   3.941
10309SOL    HW131826   6.609   6.759   3.876
10309SOL    HW231827   6.756   6.709   3.927
10310SOL     OW31828   4.084   3.628   4.513
10310SOL    HW131829   4.134   3.541   4.512
10310SOL    HW231830   4.083   3.666   4.420
10311SOL     OW31831   1.421   1.266   0.058
10311SOL    HW131832   1.515   1.296   0.069
10311SOL    HW231833   1.362   1.311   0.125
10312SOL     OW31834   2.854   4.339   0.416
10312SOL    HW131835   2.879   4.428   0.456
10312SOL    HW231836   2.789   4.354   0.341
10313SOL     OW31837   6.089   6.164   3.240
10313SOL    HW131838   6.096   6.182   3.338
10313SOL    HW231839   6.161   6.099   3.213
10314SOL     OW31840   0.453   5.320   4.703
10314SOL    HW131841   0.456   5.222   4.726
10314SOL    HW231842   0.456   5.331   4.604
10315SOL     OW31843   4.859   5.193   5.131
10315SOL    HW131844   4.927   5.125   5.160
10315SOL    HW231845   4.771   5.172   5.173
10316SOL     OW31846   0.220   2.600   3.122
10316SOL    HW131847   0.265   2.582   3.209
10316SOL    HW231848   0.122   2.616   3.138
10317SOL     OW31849   6.328   4.067   6.107
10317SOL    HW131850   6.312   3.969   6.094
10317SOL    HW231851   6.422   4.089   6.082
10318SOL     OW31852   5.059   4.783   2.038
10318SOL    HW131853   4.980   4.843   2.049
10318SOL    HW231854   5.104   4.803   1.951
10319SOL     OW31855   6.100   6.359   3.499
10319SOL    HW131856   6.102   6.443   3.554
10319SOL    HW231857   6.031   6.368   3.427
10320SOL     OW31858   2.860   6.606   2.016
10320SOL    HW131859   2.801   6.551   1.956
10320SOL    HW231860   2.909   6.674   1.962
10321SOL     OW31861   5.037   5.844   5.933
10321SOL    HW131862   5.084   5.769   5.979
10321SOL    HW231863   5.104   5.910   5.899
10322SOL     OW31864   6.939   1.979   6.167
10322SOL    HW131865   6.933   2.073   6.200
10322SOL    HW231866   6.873   1.965   6.093
10323SOL     OW31867   6.571   1.951   5.669
10323SOL    HW131868   6.623   1.867   5.652
10323SOL    HW231869   6.537   1.950   5.762
10324SOL     OW31870   2.825   3.715   5.351
10324SOL    HW131871   2.879   3.773   5.412
10324SOL    HW231872   2.734   3.755   5.339
10325SOL     OW31873   0.591   2.493   3.454
10325SOL    HW131874   0.645   2.537   3.382
10325SOL    HW231875   0.603   2.394   3.448
10326SOL     OW31876   4.969   0.839   0.963
10326SOL    HW131877   4.930   0.825   0.872
10326SOL    HW231878   4.920   0.783   1.030
10327SOL     OW31879   6.352   2.468   3.687
10327SOL    HW131880   6.253   2.482   3.691
10327SOL    HW231881   6.395   2.548   3.645
10328SOL     OW31882   0.592   3.269   1.818
10328SOL    HW131883   0.666   3.285   1.883
10328SOL    HW231884   0.625   3.214   1.742
10329SOL     OW31885   2.084   5.579   2.864
10329SOL    HW131886   2.056   5.634   2.785
10329SOL    HW231887   2.099   5.639   2.943
10330SOL     OW31888   4.076   3.152   0.490
10330SOL    HW131889   4.082   3.100   0.575
10330SOL    HW231890   4.152   3.216   0.484
10331SOL     OW31891   4.383   2.205   3.696
10331SOL    HW131892   4.440   2.153   3.633
10331SOL    HW231893   4.369   2.297   3.660
10332SOL     OW31894   2.228   2.830   6.537
10332SOL    HW131895   2.288   2.821   6.617
10332SOL    HW231896   2.274   2.793   6.457
10333SOL     OW31897   0.552   4.568   5.758
10333SOL    HW131898   0.558   4.526   5.849
10333SOL    HW231899   0.542   4.496   5.690
10334SOL     OW31900   0.262   4.666   5.661
10334SOL    HW131901   0.349   4.697   5.699
10334SOL    HW231902   0.254   4.568   5.673
10335SOL     OW31903   2.426   5.254   2.548
10335SOL    HW131904   2.414   5.178   2.612
10335SOL    HW231905   2.489   5.321   2.587
10336SOL     OW31906   3.946   0.203   2.376
10336SOL    HW131907   3.959   0.264   2.454
10336SOL    HW231908   3.851   0.174   2.371
10337SOL     OW31909   2.091   3.006   6.689
10337SOL    HW131910   2.020   2.958   6.740
10337SOL    HW231911   2.126   2.946   6.617
10338SOL     OW31912   2.158   3.944   3.070
10338SOL    HW131913   2.165   3.908   3.163
10338SOL    HW231914   2.230   4.012   3.055
10339SOL     OW31915   3.793   6.799   6.823
10339SOL    HW131916   3.803   6.877   6.886
10339SOL    HW231917   3.737   6.729   6.867
10340SOL     OW31918   2.140   6.028   1.143
10340SOL    HW131919   2.096   5.962   1.204
10340SOL    HW231920   2.169   5.981   1.059
10341SOL     OW31921   0.410   2.299   1.907
10341SOL    HW131922   0.413   2.277   1.809
10341SOL    HW231923   0.336   2.246   1.950
10342SOL     OW31924   3.524   4.986   4.299
10342SOL    HW131925   3.574   4.944   4.374
10342SOL    HW231926   3.428   4.961   4.305
10343SOL     OW31927   2.705   2.464   5.072
10343SOL    HW131928   2.620   2.424   5.107
10343SOL    HW231929   2.737   2.410   4.994
10344SOL     OW31930   4.769   4.693   1.170
10344SOL    HW131931   4.760   4.770   1.233
10344SOL    HW231932   4.823   4.721   1.091
10345SOL     OW31933   2.674   2.057   6.370
10345SOL    HW131934   2.669   2.066   6.469
10345SOL    HW231935   2.587   2.025   6.334
10346SOL     OW31936   6.713   5.200   6.614
10346SOL    HW131937   6.632   5.209   6.672
10346SOL    HW231938   6.685   5.181   6.520
10347SOL     OW31939   3.638   6.326   2.612
10347SOL    HW131940   3.690   6.342   2.528
10347SOL    HW231941   3.619   6.414   2.657
10348SOL     OW31942   0.418   2.532   4.191
10348SOL    HW131943   0.487   2.595   4.228
10348SOL    HW231944   0.459   2.442   4.178
10349SOL     OW31945   6.584   1.093   6.812
10349SOL    HW131946   6.575   1.186   6.777
10349SOL    HW231947   6.496   1.063   6.848
10350SOL     OW31948   2.054   5.249   4.478
10350SOL    HW131949   2.139   5.249   4.531
10350SOL    HW231950   2.031   5.343   4.453
10351SOL     OW31951   3.965   5.463   5.844
10351SOL    HW131952   4.019   5.432   5.922
10351SOL    HW231953   4.022   5.464   5.762
10352SOL     OW31954   6.975   1.808   2.145
10352SOL    HW131955   0.044   1.847   2.128
10352SOL    HW231956   6.915   1.879   2.181
10353SOL     OW31957   5.665   3.327   3.630
10353SOL    HW131958   5.660   3.408   3.571
10353SOL    HW231959   5.640   3.246   3.576
10354SOL     OW31960   6.569   2.373   2.283
10354SOL    HW131961   6.650   2.315   2.277
10354SOL    HW231962   6.554   2.397   2.379
10355SOL     OW31963   0.135   1.414   0.305
10355SOL    HW131964   0.087   1.463   0.233
10355SOL    HW231965   0.092   1.325   0.320
10356SOL     OW31966   6.278   3.246   5.907
10356SOL    HW131967   6.288   3.155   5.947
10356SOL    HW231968   6.300   3.316   5.976
10357SOL     OW31969   1.019   6.418   6.783
10357SOL    HW131970   0.942   6.357   6.802
10357SOL    HW231971   1.066   6.388   6.700
10358SOL     OW31972   0.806   3.520   4.189
10358SOL    HW131973   0.894   3.557   4.157
10358SOL    HW231974   0.771   3.577   4.264
10359SOL     OW31975   0.216   2.816   2.002
10359SOL    HW131976   0.282   2.745   1.980
10359SOL    HW231977   0.264   2.902   2.020
10360SOL     OW31978   5.426   5.263   1.252
10360SOL    HW131979   5.507   5.299   1.207
10360SOL    HW231980   5.372   5.209   1.186
10361SOL     OW31981   5.655   2.118   4.291
10361SOL    HW131982   5.592   2.059   4.240
10361SOL    HW231983   5.664   2.084   4.385
10362SOL     OW31984   6.624   5.799   2.345
10362SOL    HW131985   6.592   5.788   2.250
10362SOL    HW231986   6.562   5.751   2.407
10363SOL     OW31987   5.010   4.916   7.014
10363SOL    HW131988   4.992   4.999   0.045
10363SOL    HW231989   5.109   4.905   7.002
10364SOL     OW31990   6.605   5.181   1.659
10364SOL    HW131991   6.623   5.084   1.673
10364SOL    HW231992   6.657   5.234   1.726
10365SOL     OW31993   6.281   5.682   6.299
10365SOL    HW131994   6.363   5.730   6.328
10365SOL    HW231995   6.233   5.645   6.379
10366SOL     OW31996   2.215   0.659   3.192
10366SOL    HW131997   2.268   0.720   3.133
10366SOL    HW231998   2.209   0.569   3.149
10367SOL     OW31999   3.938   6.199   2.899
10367SOL    HW132000   3.991   6.118   2.925
10367SOL    HW232001   4.000   6.276   2.884
10368SOL     OW32002   1.603   6.363   2.259
10368SOL    HW132003   1.637   6.397   2.171
10368SOL    HW232004   1.549   6.281   2.244
10369SOL     OW32005   3.240   1.628   4.877
10369SOL    HW132006   3.174   1.562   4.914
10369SOL    HW232007   3.193   1.693   4.818
10370SOL     OW32008   2.357   1.664   0.137
10370SOL    HW132009   2.282   1.719   0.101
10370SOL    HW232010   2.337   1.639   0.232
10371SOL     OW32011   3.259   5.609   2.437
10371SOL    HW132012   3.207   5.690   2.464
10371SOL    HW232013   3.325   5.634   2.367
10372SOL     OW32014   1.389   6.008   1.292
10372SOL    HW132015   1.390   6.003   1.192
10372SOL    HW232016   1.466   6.063   1.323
10373SOL     OW32017   6.870   1.057   5.153
10373SOL    HW132018   6.963   1.093   5.166
10373SOL    HW232019   6.829   1.100   5.073
10374SOL     OW32020   2.210   5.474   1.884
10374SOL    HW132021   2.156   5.510   1.959
10374SOL    HW232022   2.282   5.415   1.920
10375SOL     OW32023   2.119   4.902   6.578
10375SOL    HW132024   2.059   4.965   6.627
10375SOL    HW232025   2.150   4.830   6.640
10376SOL     OW32026   1.735   5.820   3.951
10376SOL    HW132027   1.709   5.857   4.040
10376SOL    HW232028   1.781   5.732   3.963
10377SOL     OW32029   3.193   1.342   3.590
10377SOL    HW132030   3.183   1.312   3.685
10377SOL    HW232031   3.261   1.415   3.586
10378SOL     OW32032   6.748   6.591   5.179
10378SOL    HW132033   6.812   6.516   5.198
10378SOL    HW232034   6.695   6.610   5.262
10379SOL     OW32035   0.495   5.351   3.800
10379SOL    HW132036   0.515   5.300   3.884
10379SOL    HW232037   0.438   5.295   3.740
10380SOL     OW32038   2.983   1.566   3.271
10380SOL    HW132039   2.980   1.471   3.299
10380SOL    HW232040   2.952   1.625   3.346
10381SOL     OW32041   2.446   6.911   4.391
10381SOL    HW132042   2.440   6.908   4.491
10381SOL    HW232043   2.440   6.818   4.355
10382SOL     OW32044   3.344   5.533   3.072
10382SOL    HW132045   3.332   5.588   2.989
10382SOL    HW232046   3.382   5.444   3.047
10383SOL     OW32047   0.424   6.989   0.260
10383SOL    HW132048   0.512   6.999   0.213
10383SOL    HW232049   0.424   0.025   0.341
10384SOL     OW32050   5.071   5.053   0.732
10384SOL    HW132051   5.093   5.136   0.681
10384SOL    HW232052   5.154   4.999   0.746
10385SOL     OW32053   3.549   4.085   6.773
10385SOL    HW132054   3.481   4.092   6.846
10385SOL    HW232055   3.625   4.030   6.804
10386SOL     OW32056   0.090   0.063   1.235
10386SOL    HW132057   0.039   0.107   1.161
10386SOL    HW232058   0.187   0.084   1.225
10387SOL     OW32059   5.187   1.332   2.066
10387SOL    HW132060   5.104   1.284   2.039
10387SOL    HW232061   5.243   1.349   1.985
10388SOL     OW32062   0.828   6.544   4.879
10388SOL    HW132063   0.875   6.468   4.833
10388SOL    HW232064   0.854   6.546   4.976
10389SOL     OW32065   0.293   3.726   1.160
10389SOL    HW132066   0.361   3.760   1.096
10389SOL    HW232067   0.272   3.630   1.140
10390SOL     OW32068   1.314   2.156   2.113
10390SOL    HW132069   1.400   2.121   2.076
10390SOL    HW232070   1.328   2.186   2.208
10391SOL     OW32071   6.042   0.595   3.223
10391SOL    HW132072   6.039   0.551   3.133
10391SOL    HW232073   6.079   0.688   3.213
10392SOL     OW32074   5.502   3.320   4.197
10392SOL    HW132075   5.461   3.372   4.271
10392SOL    HW232076   5.599   3.304   4.216
10393SOL     OW32077   1.310   2.465   1.256
10393SOL    HW132078   1.346   2.550   1.294
10393SOL    HW232079   1.259   2.484   1.172
10394SOL     OW32080   2.760   5.673   4.018
10394SOL    HW132081   2.741   5.579   4.046
10394SOL    HW232082   2.700   5.699   3.942
10395SOL     OW32083   0.703   0.882   1.416
10395SOL    HW132084   0.707   0.860   1.514
10395SOL    HW232085   0.767   0.822   1.367
10396SOL     OW32086   3.359   2.143   5.259
10396SOL    HW132087   3.457   2.160   5.249
10396SOL    HW232088   3.308   2.210   5.206
10397SOL     OW32089   4.792   1.320   3.896
10397SOL    HW132090   4.883   1.358   3.913
10397SOL    HW232091   4.778   1.308   3.798
10398SOL     OW32092   4.709   2.826   3.048
10398SOL    HW132093   4.688   2.888   2.972
10398SOL    HW232094   4.664   2.738   3.032
10399SOL     OW32095   1.272   2.381   1.937
10399SOL    HW132096   1.334   2.459   1.944
10399SOL    HW232097   1.306   2.305   1.993
10400SOL     OW32098   1.590   6.910   7.009
10400SOL    HW132099   1.506   6.885   0.035
10400SOL    HW232100   1.646   6.829   6.994
10401SOL     OW32101   6.443   1.095   5.670
10401SOL    HW132102   6.398   1.164   5.613
10401SOL    HW232103   6.542   1.101   5.656
10402SOL     OW32104   6.575   4.190   6.211
10402SOL    HW132105   6.597   4.189   6.309
10402SOL    HW232106   6.538   4.279   6.186
10403SOL     OW32107   3.521   0.272   1.591
10403SOL    HW132108   3.423   0.272   1.572
10403SOL    HW232109   3.559   0.181   1.575
10404SOL     OW32110   0.543   5.399   5.357
10404SOL    HW132111   0.558   5.306   5.390
10404SOL    HW232112   0.569   5.465   5.427
10405SOL     OW32113   0.082   1.368   6.851
10405SOL    HW132114   0.100   1.287   6.907
10405SOL    HW232115   7.012   1.363   6.813
10406SOL     OW32116   1.688   4.687   1.761
10406SOL    HW132117   1.735   4.749   1.824
10406SOL    HW232118   1.690   4.726   1.669
10407SOL     OW32119   2.134   6.272   1.021
10407SOL    HW132120   2.122   6.195   1.083
10407SOL    HW232121   2.081   6.350   1.055
10408SOL     OW32122   4.773   0.473   6.490
10408SOL    HW132123   4.700   0.508   6.431
10408SOL    HW232124   4.840   0.546   6.506
10409SOL     OW32125   6.471   3.758   0.564
10409SOL    HW132126   6.494   3.681   0.623
10409SOL    HW232127   6.374   3.781   0.575
10410SOL     OW32128   3.999   0.296   0.721
10410SOL    HW132129   3.929   0.350   0.675
10410SOL    HW232130   3.972   0.199   0.720
10411SOL     OW32131   1.800   4.384   3.579
10411SOL    HW132132   1.756   4.465   3.618
10411SOL    HW232133   1.775   4.303   3.633
10412SOL     OW32134   4.674   0.959   2.081
10412SOL    HW132135   4.638   1.047   2.051
10412SOL    HW232136   4.737   0.923   2.012
10413SOL     OW32137   6.378   3.948   2.731
10413SOL    HW132138   6.343   3.987   2.816
10413SOL    HW232139   6.400   4.022   2.667
10414SOL     OW32140   4.870   3.993   3.776
10414SOL    HW132141   4.964   4.025   3.783
10414SOL    HW232142   4.869   3.893   3.779
10415SOL     OW32143   0.528   1.135   6.369
10415SOL    HW132144   0.443   1.102   6.329
10415SOL    HW232145   0.601   1.132   6.301
10416SOL     OW32146   4.923   2.057   2.759
10416SOL    HW132147   4.881   2.124   2.819
10416SOL    HW232148   4.912   2.085   2.664
10417SOL     OW32149   1.860   4.284   2.306
10417SOL    HW132150   1.949   4.331   2.300
10417SOL    HW232151   1.799   4.337   2.364
10418SOL     OW32152   1.776   5.554   5.876
10418SOL    HW132153   1.826   5.506   5.949
10418SOL    HW232154   1.680   5.526   5.877
10419SOL     OW32155   1.214   1.010   6.159
10419SOL    HW132156   1.175   1.062   6.236
10419SOL    HW232157   1.155   1.022   6.079
10420SOL     OW32158   0.707   3.038   2.063
10420SOL    HW132159   0.689   2.951   2.108
10420SOL    HW232160   0.783   3.026   1.998
10421SOL     OW32161   0.553   2.087   2.454
10421SOL    HW132162   0.524   2.175   2.494
10421SOL    HW232163   0.563   2.020   2.527
10422SOL     OW32164   5.668   1.770   6.995
10422SOL    HW132165   5.671   1.828   6.914
10422SOL    HW232166   5.659   1.674   6.968
10423SOL     OW32167   4.347   5.437   2.894
10423SOL    HW132168   4.253   5.471   2.893
10423SOL    HW232169   4.392   5.466   2.979
10424SOL     OW32170   4.876   1.332   6.083
10424SOL    HW132171   4.819   1.278   6.020
10424SOL    HW232172   4.897   1.420   6.041
10425SOL     OW32173   1.625   6.648   1.945
10425SOL    HW132174   1.671   6.559   1.944
10425SOL    HW232175   1.645   6.697   1.860
10426SOL     OW32176   6.316   4.487   6.375
10426SOL    HW132177   6.334   4.448   6.465
10426SOL    HW232178   6.251   4.429   6.325
10427SOL     OW32179   5.315   0.789   0.747
10427SOL    HW132180   5.240   0.855   0.756
10427SOL    HW232181   5.347   0.787   0.653
10428SOL     OW32182   3.996   2.276   3.596
10428SOL    HW132183   4.085   2.304   3.632
10428SOL    HW232184   4.001   2.268   3.497
10429SOL     OW32185   6.128   5.508   2.261
10429SOL    HW132186   6.126   5.480   2.357
10429SOL    HW232187   6.163   5.601   2.253
10430SOL     OW32188   3.204   6.236   3.024
10430SOL    HW132189   3.295   6.269   3.000
10430SOL    HW232190   3.168   6.289   3.101
10431SOL     OW32191   3.222   1.585   5.707
10431SOL    HW132192   3.240   1.649   5.781
10431SOL    HW232193   3.221   1.492   5.743
10432SOL     OW32194   4.352   0.684   4.471
10432SOL    HW132195   4.384   0.599   4.512
10432SOL    HW232196   4.358   0.678   4.371
10433SOL     OW32197   1.812   6.281   1.302
10433SOL    HW132198   1.774   6.369   1.332
10433SOL    HW232199   1.907   6.273   1.332
10434SOL     OW32200   3.771   2.487   5.356
10434SOL    HW132201   3.757   2.571   5.303
10434SOL    HW232202   3.710   2.487   5.435
10435SOL     OW32203   5.905   4.991   6.649
10435SOL    HW132204   5.892   4.995   6.550
10435SOL    HW232205   5.844   4.922   6.688
10436SOL     OW32206   6.995   2.139   3.040
10436SOL    HW132207   0.056   2.091   3.012
10436SOL    HW232208   6.975   2.120   3.136
10437SOL     OW32209   0.989   3.150   0.830
10437SOL    HW132210   1.008   3.075   0.766
10437SOL    HW232211   0.982   3.113   0.923
10438SOL     OW32212   2.484   0.292   5.718
10438SOL    HW132213   2.392   0.317   5.747
10438SOL    HW232214   2.488   0.291   5.618
10439SOL     OW32215   3.467   0.419   5.721
10439SOL    HW132216   3.390   0.482   5.729
10439SOL    HW232217   3.549   0.471   5.697
10440SOL     OW32218   1.155   5.564   0.217
10440SOL    HW132219   1.168   5.633   0.145
10440SOL    HW232220   1.073   5.509   0.196
10441SOL     OW32221   4.449   6.405   0.622
10441SOL    HW132222   4.546   6.428   0.620
10441SOL    HW232223   4.425   6.356   0.537
10442SOL     OW32224   3.255   6.071   6.512
10442SOL    HW132225   3.256   6.104   6.418
10442SOL    HW232226   3.245   5.972   6.513
10443SOL     OW32227   0.426   3.103   4.355
10443SOL    HW132228   0.463   3.120   4.446
10443SOL    HW232229   0.394   3.009   4.349
10444SOL     OW32230   3.662   4.659   5.296
10444SOL    HW132231   3.669   4.736   5.232
10444SOL    HW232232   3.728   4.672   5.371
10445SOL     OW32233   6.442   6.223   1.514
10445SOL    HW132234   6.396   6.137   1.495
10445SOL    HW232235   6.516   6.207   1.580
10446SOL     OW32236   1.324   0.086   5.849
10446SOL    HW132237   1.385   0.161   5.826
10446SOL    HW232238   1.247   0.085   5.784
10447SOL     OW32239   5.463   2.875   6.481
10447SOL    HW132240   5.378   2.866   6.532
10447SOL    HW232241   5.475   2.971   6.454
10448SOL     OW32242   4.018   3.039   2.154
10448SOL    HW132243   4.099   3.012   2.102
10448SOL    HW232244   4.045   3.101   2.228
10449SOL     OW32245   0.990   4.990   5.207
10449SOL    HW132246   0.966   5.072   5.155
10449SOL    HW232247   1.005   4.914   5.144
10450SOL     OW32248   0.356   3.202   0.383
10450SOL    HW132249   0.303   3.285   0.400
10450SOL    HW232250   0.443   3.226   0.339
10451SOL     OW32251   1.696   4.417   2.481
10451SOL    HW132252   1.697   4.515   2.503
10451SOL    HW232253   1.764   4.370   2.538
10452SOL     OW32254   2.371   3.014   6.281
10452SOL    HW132255   2.272   3.029   6.278
10452SOL    HW232256   2.394   2.930   6.231
10453SOL     OW32257   5.173   0.416   2.292
10453SOL    HW132258   5.096   0.463   2.335
10453SOL    HW232259   5.257   0.437   2.342
10454SOL     OW32260   3.854   5.323   3.018
10454SOL    HW132261   3.885   5.252   2.955
10454SOL    HW232262   3.774   5.291   3.068
10455SOL     OW32263   1.569   4.610   3.319
10455SOL    HW132264   1.581   4.534   3.384
10455SOL    HW232265   1.493   4.667   3.349
10456SOL     OW32266   3.824   6.455   1.000
10456SOL    HW132267   3.846   6.363   0.968
10456SOL    HW232268   3.905   6.513   0.992
10457SOL     OW32269   3.584   2.951   3.907
10457SOL    HW132270   3.514   2.912   3.847
10457SOL    HW232271   3.580   2.906   3.996
10458SOL     OW32272   6.498   6.105   2.680
10458SOL    HW132273   6.407   6.131   2.712
10458SOL    HW232274   6.563   6.178   2.699
10459SOL     OW32275   6.848   5.718   2.530
10459SOL    HW132276   6.804   5.793   2.579
10459SOL    HW232277   6.790   5.688   2.454
10460SOL     OW32278   1.432   4.539   1.183
10460SOL    HW132279   1.430   4.516   1.280
10460SOL    HW232280   1.501   4.482   1.137
10461SOL     OW32281   3.634   0.350   6.314
10461SOL    HW132282   3.587   0.326   6.229
10461SOL    HW232283   3.723   0.305   6.317
10462SOL     OW32284   5.577   6.723   1.206
10462SOL    HW132285   5.635   6.655   1.160
10462SOL    HW232286   5.611   6.739   1.298
10463SOL     OW32287   4.310   2.976   0.159
10463SOL    HW132288   4.323   3.074   0.175
10463SOL    HW232289   4.217   2.951   0.185
10464SOL     OW32290   5.415   6.522   1.674
10464SOL    HW132291   5.392   6.502   1.578
10464SOL    HW232292   5.410   6.621   1.689
10465SOL     OW32293   0.443   4.991   5.952
10465SOL    HW132294   0.489   4.941   5.878
10465SOL    HW232295   0.401   4.926   6.015
10466SOL     OW32296   4.569   5.326   5.424
10466SOL    HW132297   4.483   5.353   5.466
10466SOL    HW232298   4.642   5.387   5.456
10467SOL     OW32299   3.820   1.510   4.387
10467SOL    HW132300   3.858   1.506   4.295
10467SOL    HW232301   3.722   1.530   4.382
10468SOL     OW32302   2.654   5.586   3.293
10468SOL    HW132303   2.685   5.542   3.209
10468SOL    HW232304   2.593   5.524   3.343
10469SOL     OW32305   0.508   5.208   6.082
10469SOL    HW132306   0.545   5.251   6.000
10469SOL    HW232307   0.487   5.112   6.064
10470SOL     OW32308   2.600   2.488   3.997
10470SOL    HW132309   2.699   2.481   3.999
10470SOL    HW232310   2.562   2.413   3.941
10471SOL     OW32311   4.913   3.808   6.968
10471SOL    HW132312   4.814   3.793   6.973
10471SOL    HW232313   4.946   3.785   6.876
10472SOL     OW32314   4.246   1.676   3.401
10472SOL    HW132315   4.151   1.667   3.371
10472SOL    HW232316   4.302   1.607   3.354
10473SOL     OW32317   4.467   4.364   1.234
10473SOL    HW132318   4.430   4.335   1.322
10473SOL    HW232319   4.481   4.463   1.235
10474SOL     OW32320   5.030   1.454   3.970
10474SOL    HW132321   4.980   1.518   4.027
10474SOL    HW232322   5.088   1.504   3.906
10475SOL     OW32323   4.077   6.342   0.848
10475SOL    HW132324   4.086   6.383   0.757
10475SOL    HW232325   4.119   6.402   0.916
10476SOL     OW32326   0.653   4.942   6.888
10476SOL    HW132327   0.565   4.915   6.850
10476SOL    HW232328   0.651   4.932   6.988
10477SOL     OW32329   5.333   4.300   4.597
10477SOL    HW132330   5.314   4.248   4.514
10477SOL    HW232331   5.250   4.302   4.654
10478SOL     OW32332   0.477   0.222   2.826
10478SOL    HW132333   0.477   0.308   2.775
10478SOL    HW232334   0.450   0.147   2.765
10479SOL     OW32335   1.179   3.715   2.884
10479SOL    HW132336   1.222   3.794   2.927
10479SOL    HW232337   1.248   3.645   2.865
10480SOL     OW32338   4.961   1.135   6.263
10480SOL    HW132339   4.920   1.044   6.259
10480SOL    HW232340   4.923   1.191   6.189
10481SOL     OW32341   3.575   1.758   3.280
10481SOL    HW132342   3.631   1.690   3.327
10481SOL    HW232343   3.497   1.713   3.236
10482SOL     OW32344   0.919   6.375   5.884
10482SOL    HW132345   0.948   6.411   5.795
10482SOL    HW232346   0.955   6.433   5.957
10483SOL     OW32347   0.962   6.195   0.752
10483SOL    HW132348   0.938   6.130   0.825
10483SOL    HW232349   1.057   6.179   0.723
10484SOL     OW32350   6.539   1.569   1.774
10484SOL    HW132351   6.587   1.483   1.792
10484SOL    HW232352   6.522   1.578   1.676
10485SOL     OW32353   3.522   3.699   5.153
10485SOL    HW132354   3.498   3.649   5.070
10485SOL    HW232355   3.472   3.785   5.156
10486SOL     OW32356   6.004   4.798   6.093
10486SOL    HW132357   5.929   4.847   6.048
10486SOL    HW232358   5.995   4.700   6.078
10487SOL     OW32359   4.952   4.000   2.517
10487SOL    HW132360   4.977   4.026   2.423
10487SOL    HW232361   5.023   4.033   2.580
10488SOL     OW32362   1.277   2.103   5.133
10488SOL    HW132363   1.187   2.111   5.176
10488SOL    HW232364   1.348   2.111   5.203
10489SOL     OW32365   5.776   5.022   2.606
10489SOL    HW132366   5.773   4.937   2.554
10489SOL    HW232367   5.687   5.067   2.601
10490SOL     OW32368   5.334   6.383   6.263
10490SOL    HW132369   5.367   6.470   6.226
10490SOL    HW232370   5.269   6.401   6.337
10491SOL     OW32371   2.051   1.738   5.468
10491SOL    HW132372   1.953   1.724   5.456
10491SOL    HW232373   2.098   1.649   5.465
10492SOL     OW32374   3.216   6.854   6.959
10492SOL    HW132375   3.259   6.767   6.934
10492SOL    HW232376   3.123   6.836   6.992
10493SOL     OW32377   4.599   0.141   0.289
10493SOL    HW132378   4.676   0.176   0.236
10493SOL    HW232379   4.550   0.218   0.330
10494SOL     OW32380   6.623   5.627   3.488
10494SOL    HW132381   6.579   5.608   3.576
10494SOL    HW232382   6.641   5.725   3.481
10495SOL     OW32383   6.123   6.295   0.492
10495SOL    HW132384   6.172   6.291   0.578
10495SOL    HW232385   6.147   6.216   0.435
10496SOL     OW32386   1.753   3.970   6.250
10496SOL    HW132387   1.778   4.026   6.329
10496SOL    HW232388   1.835   3.933   6.207
10497SOL     OW32389   4.049   0.326   0.095
10497SOL    HW132390   4.143   0.360   0.101
10497SOL    HW232391   4.047   0.230   0.123
10498SOL     OW32392   3.501   4.246   0.339
10498SOL    HW132393   3.479   4.154   0.308
10498SOL    HW232394   3.422   4.306   0.328
10499SOL     OW32395   4.306   5.199   3.966
10499SOL    HW132396   4.365   5.119   3.950
10499SOL    HW232397   4.267   5.193   4.057
10500SOL     OW32398   1.920   2.809   4.615
10500SOL    HW132399   1.948   2.903   4.636
10500SOL    HW232400   2.000   2.750   4.613
10501SOL     OW32401   3.975   4.911   2.897
10501SOL    HW132402   4.052   4.907   2.961
10501SOL    HW232403   4.008   4.896   2.804
10502SOL     OW32404   3.629   3.116   3.312
10502SOL    HW132405   3.693   3.187   3.283
10502SOL    HW232406   3.653   3.030   3.268
10503SOL     OW32407   6.917   6.050   0.975
10503SOL    HW132408   7.000   6.096   1.008
10503SOL    HW232409   6.880   5.992   1.048
10504SOL     OW32410   1.984   2.661   5.233
10504SOL    HW132411   2.046   2.597   5.187
10504SOL    HW232412   2.014   2.755   5.215
10505SOL     OW32413   4.754   6.675   0.773
10505SOL    HW132414   4.703   6.760   0.757
10505SOL    HW232415   4.747   6.617   0.692
10506SOL     OW32416   0.639   5.542   6.090
10506SOL    HW132417   0.614   5.447   6.069
10506SOL    HW232418   0.737   5.554   6.080
10507SOL     OW32419   2.311   6.197   5.772
10507SOL    HW132420   2.266   6.278   5.734
10507SOL    HW232421   2.407   6.217   5.789
10508SOL     OW32422   1.885   6.685   1.561
10508SOL    HW132423   1.787   6.691   1.578
10508SOL    HW232424   1.933   6.667   1.647
10509SOL     OW32425   4.655   3.552   1.720
10509SOL    HW132426   4.630   3.474   1.663
10509SOL    HW232427   4.577   3.614   1.729
10510SOL     OW32428   5.043   6.470   1.637
10510SOL    HW132429   5.082   6.493   1.548
10510SOL    HW232430   4.944   6.464   1.631
10511SOL     OW32431   3.761   1.863   1.030
10511SOL    HW132432   3.860   1.866   1.018
10511SOL    HW232433   3.739   1.840   1.125
10512SOL     OW32434   4.347   0.095   4.625
10512SOL    HW132435   4.308   0.162   4.561
10512SOL    HW232436   4.287   0.015   4.629
10513SOL     OW32437   4.478   3.856   1.062
10513SOL    HW132438   4.466   3.858   1.161
10513SOL    HW232439   4.476   3.761   1.030
10514SOL     OW32440   1.057   4.773   1.551
10514SOL    HW132441   1.059   4.794   1.648
10514SOL    HW232442   1.079   4.677   1.537
10515SOL     OW32443   1.924   3.348   4.688
10515SOL    HW132444   1.970   3.387   4.609
10515SOL    HW232445   1.830   3.382   4.692
10516SOL     OW32446   4.934   1.905   1.289
10516SOL    HW132447   4.839   1.937   1.283
10516SOL    HW232448   4.939   1.826   1.351
10517SOL     OW32449   6.023   1.340   1.736
10517SOL    HW132450   5.957   1.311   1.805
10517SOL    HW232451   6.080   1.414   1.773
10518SOL     OW32452   6.828   5.709   3.164
10518SOL    HW132453   6.774   5.750   3.091
10518SOL    HW232454   6.887   5.779   3.205
10519SOL     OW32455   1.536   0.095   0.719
10519SOL    HW132456   1.608   0.062   0.657
10519SOL    HW232457   1.548   0.193   0.734
10520SOL     OW32458   3.392   2.428   5.880
10520SOL    HW132459   3.312   2.457   5.932
10520SOL    HW232460   3.475   2.450   5.931
10521SOL     OW32461   5.599   1.809   1.025
10521SOL    HW132462   5.535   1.881   0.999
10521SOL    HW232463   5.577   1.725   0.976
10522SOL     OW32464   4.783   1.432   2.355
10522SOL    HW132465   4.876   1.459   2.381
10522SOL    HW232466   4.723   1.511   2.362
10523SOL     OW32467   6.970   4.195   1.686
10523SOL    HW132468   6.916   4.175   1.604
10523SOL    HW232469   6.918   4.254   1.747
10524SOL     OW32470   6.400   6.468   4.778
10524SOL    HW132471   6.326   6.534   4.766
10524SOL    HW232472   6.426   6.431   4.689
10525SOL     OW32473   5.095   2.195   4.448
10525SOL    HW132474   5.175   2.250   4.426
10525SOL    HW232475   5.019   2.255   4.476
10526SOL     OW32476   1.720   6.667   6.444
10526SOL    HW132477   1.657   6.600   6.403
10526SOL    HW232478   1.812   6.651   6.409
10527SOL     OW32479   1.224   6.563   5.076
10527SOL    HW132480   1.308   6.587   5.124
10527SOL    HW232481   1.206   6.632   5.005
10528SOL     OW32482   2.700   5.886   5.197
10528SOL    HW132483   2.759   5.814   5.161
10528SOL    HW232484   2.650   5.852   5.277
10529SOL     OW32485   0.046   5.838   6.403
10529SOL    HW132486   0.082   5.767   6.343
10529SOL    HW232487   0.111   5.857   6.476
10530SOL     OW32488   5.803   0.535   1.500
10530SOL    HW132489   5.875   0.488   1.552
10530SOL    HW232490   5.723   0.475   1.494
10531SOL     OW32491   3.328   0.743   6.982
10531SOL    HW132492   3.403   0.692   6.939
10531SOL    HW232493   3.342   0.743   0.059
10532SOL     OW32494   3.883   5.728   5.881
10532SOL    HW132495   3.897   5.813   5.829
10532SOL    HW232496   3.926   5.652   5.833
10533SOL     OW32497   4.341   6.626   3.963
10533SOL    HW132498   4.402   6.593   3.891
10533SOL    HW232499   4.378   6.599   4.052
10534SOL     OW32500   0.428   6.202   4.847
10534SOL    HW132501   0.395   6.284   4.799
10534SOL    HW232502   0.370   6.183   4.925
10535SOL     OW32503   3.587   1.575   2.280
10535SOL    HW132504   3.488   1.584   2.293
10535SOL    HW232505   3.634   1.621   2.356
10536SOL     OW32506   5.771   3.160   4.607
10536SOL    HW132507   5.675   3.134   4.596
10536SOL    HW232508   5.797   3.224   4.535
10537SOL     OW32509   2.581   1.299   2.452
10537SOL    HW132510   2.660   1.272   2.397
10537SOL    HW232511   2.579   1.399   2.461
10538SOL     OW32512   6.552   3.015   3.624
10538SOL    HW132513   6.479   3.070   3.584
10538SOL    HW232514   6.639   3.038   3.580
10539SOL     OW32515   6.594   0.291   1.441
10539SOL    HW132516   6.584   0.227   1.517
10539SOL    HW232517   6.690   0.316   1.432
10540SOL     OW32518   1.941   2.778   5.865
10540SOL    HW132519   1.854   2.749   5.826
10540SOL    HW232520   1.927   2.860   5.920
10541SOL     OW32521   3.852   2.732   6.767
10541SOL    HW132522   3.754   2.743   6.754
10541SOL    HW232523   3.899   2.817   6.742
10542SOL     OW32524   2.929   5.975   3.060
10542SOL    HW132525   2.910   5.884   3.022
10542SOL    HW232526   3.015   6.009   3.023
10543SOL     OW32527   0.652   2.881   3.583
10543SOL    HW132528   0.612   2.945   3.518
10543SOL    HW232529   0.580   2.830   3.629
10544SOL     OW32530   2.912   2.163   2.243
10544SOL    HW132531   2.879   2.072   2.218
10544SOL    HW232532   2.849   2.233   2.208
10545SOL     OW32533   0.959   3.060   1.591
10545SOL    HW132534   0.956   3.159   1.583
10545SOL    HW232535   1.053   3.028   1.582
10546SOL     OW32536   2.015   0.409   4.770
10546SOL    HW132537   1.936   0.362   4.811
10546SOL    HW232538   1.990   0.442   4.679
10547SOL     OW32539   2.577   5.698   6.286
10547SOL    HW132540   2.646   5.728   6.220
10547SOL    HW232541   2.533   5.778   6.326
10548SOL     OW32542   1.371   4.978   3.360
10548SOL    HW132543   1.404   5.072   3.351
10548SOL    HW232544   1.363   4.937   3.270
10549SOL     OW32545   6.354   1.979   2.389
10549SOL    HW132546   6.271   2.035   2.391
10549SOL    HW232547   6.397   1.987   2.299
10550SOL     OW32548   0.267   4.598   2.907
10550SOL    HW132549   0.291   4.518   2.850
10550SOL    HW232550   0.346   4.658   2.914
10551SOL     OW32551   4.893   1.156   4.334
10551SOL    HW132552   4.810   1.200   4.299
10551SOL    HW232553   4.938   1.216   4.399
10552SOL     OW32554   2.133   0.469   3.950
10552SOL    HW132555   2.108   0.408   3.874
10552SOL    HW232556   2.195   0.421   4.011
10553SOL     OW32557   5.645   5.341   1.752
10553SOL    HW132558   5.688   5.419   1.798
10553SOL    HW232559   5.711   5.297   1.692
10554SOL     OW32560   5.467   5.703   1.847
10554SOL    HW132561   5.406   5.697   1.926
10554SOL    HW232562   5.508   5.794   1.842
10555SOL     OW32563   3.190   2.968   2.893
10555SOL    HW132564   3.151   2.999   2.980
10555SOL    HW232565   3.231   2.877   2.905
10556SOL     OW32566   2.023   1.686   1.797
10556SOL    HW132567   1.980   1.655   1.712
10556SOL    HW232568   1.989   1.633   1.874
10557SOL     OW32569   1.159   5.021   3.502
10557SOL    HW132570   1.091   4.950   3.489
10557SOL    HW232571   1.241   5.000   3.448
10558SOL     OW32572   5.392   5.658   4.754
10558SOL    HW132573   5.314   5.613   4.711
10558SOL    HW232574   5.405   5.622   4.847
10559SOL     OW32575   3.763   6.133   1.697
10559SOL    HW132576   3.697   6.124   1.771
10559SOL    HW232577   3.786   6.043   1.661
10560SOL     OW32578   5.970   6.959   4.076
10560SOL    HW132579   6.018   0.023   4.060
10560SOL    HW232580   5.964   6.942   4.174
10561SOL     OW32581   1.103   5.421   5.853
10561SOL    HW132582   1.050   5.397   5.935
10561SOL    HW232583   1.092   5.518   5.833
10562SOL     OW32584   2.651   0.523   2.953
10562SOL    HW132585   2.627   0.619   2.942
10562SOL    HW232586   2.572   0.465   2.933
10563SOL     OW32587   1.748   5.256   2.260
10563SOL    HW132588   1.825   5.218   2.312
10563SOL    HW232589   1.716   5.188   2.194
10564SOL     OW32590   4.886   6.482   3.738
10564SOL    HW132591   4.984   6.465   3.727
10564SOL    HW232592   4.870   6.533   3.822
10565SOL     OW32593   0.452   1.077   4.829
10565SOL    HW132594   0.463   0.998   4.769
10565SOL    HW232595   0.407   1.049   4.913
10566SOL     OW32596   3.721   1.566   1.553
10566SOL    HW132597   3.723   1.497   1.481
10566SOL    HW232598   3.714   1.520   1.642
10567SOL     OW32599   3.544   1.280   5.974
10567SOL    HW132600   3.481   1.217   6.020
10567SOL    HW232601   3.509   1.373   5.981
10568SOL     OW32602   5.866   0.982   0.389
10568SOL    HW132603   5.884   0.962   0.485
10568SOL    HW232604   5.915   0.916   0.332
10569SOL     OW32605   4.090   0.811   1.071
10569SOL    HW132606   4.131   0.779   1.156
10569SOL    HW232607   4.162   0.825   1.003
10570SOL     OW32608   1.586   4.106   2.745
10570SOL    HW132609   1.515   4.101   2.676
10570SOL    HW232610   1.624   4.014   2.761
10571SOL     OW32611   1.266   4.465   4.869
10571SOL    HW132612   1.226   4.401   4.935
10571SOL    HW232613   1.285   4.416   4.784
10572SOL     OW32614   0.124   5.358   0.817
10572SOL    HW132615   0.141   5.327   0.723
10572SOL    HW232616   0.101   5.279   0.874
10573SOL     OW32617   5.735   2.336   3.025
10573SOL    HW132618   5.647   2.322   3.070
10573SOL    HW232619   5.758   2.256   2.971
10574SOL     OW32620   5.432   3.368   2.953
10574SOL    HW132621   5.451   3.402   3.045
10574SOL    HW232622   5.512   3.383   2.895
10575SOL     OW32623   4.967   6.721   3.101
10575SOL    HW132624   4.904   6.731   3.023
10575SOL    HW232625   4.918   6.741   3.186
10576SOL     OW32626   0.983   3.115   5.154
10576SOL    HW132627   0.912   3.109   5.225
10576SOL    HW232628   1.020   3.207   5.153
10577SOL     OW32629   4.315   5.206   6.632
10577SOL    HW132630   4.392   5.145   6.645
10577SOL    HW232631   4.280   5.196   6.538
10578SOL     OW32632   1.427   2.819   2.180
10578SOL    HW132633   1.400   2.905   2.136
10578SOL    HW232634   1.381   2.811   2.268
10579SOL     OW32635   0.110   3.350   0.471
10579SOL    HW132636   0.015   3.371   0.494
10579SOL    HW232637   0.131   3.256   0.496
10580SOL     OW32638   4.391   6.269   6.054
10580SOL    HW132639   4.319   6.275   6.124
10580SOL    HW232640   4.359   6.312   5.970
10581SOL     OW32641   3.152   0.134   2.937
10581SOL    HW132642   3.178   0.044   2.971
10581SOL    HW232643   3.226   0.199   2.957
10582SOL     OW32644   0.402   3.508   0.099
10582SOL    HW132645   0.415   3.544   0.191
10582SOL    HW232646   0.348   3.573   0.045
10583SOL     OW32647   3.709   2.296   5.858
10583SOL    HW132648   3.657   2.357   5.918
10583SOL    HW232649   3.687   2.201   5.879
10584SOL     OW32650   6.193   0.366   3.939
10584SOL    HW132651   6.178   0.454   3.984
10584SOL    HW232652   6.151   0.293   3.994
10585SOL     OW32653   2.478   0.824   3.990
10585SOL    HW132654   2.379   0.814   3.998
10585SOL    HW232655   2.500   0.877   3.907
10586SOL     OW32656   4.566   3.281   6.278
10586SOL    HW132657   4.607   3.251   6.364
10586SOL    HW232658   4.472   3.247   6.273
10587SOL     OW32659   1.707   5.008   6.375
10587SOL    HW132660   1.786   5.028   6.317
10587SOL    HW232661   1.667   4.920   6.347
10588SOL     OW32662   1.599   4.617   4.528
10588SOL    HW132663   1.652   4.676   4.466
10588SOL    HW232664   1.595   4.524   4.490
10589SOL     OW32665   6.339   0.856   3.433
10589SOL    HW132666   6.379   0.892   3.517
10589SOL    HW232667   6.372   0.764   3.416
10590SOL     OW32668   5.838   6.448   2.644
10590SOL    HW132669   5.916   6.397   2.681
10590SOL    HW232670   5.774   6.384   2.600
10591SOL     OW32671   6.676   4.458   2.338
10591SOL    HW132672   6.720   4.546   2.320
10591SOL    HW232673   6.688   4.433   2.434
10592SOL     OW32674   6.086   3.437   5.503
10592SOL    HW132675   6.144   3.392   5.435
10592SOL    HW232676   6.108   3.402   5.594
10593SOL     OW32677   3.301   5.598   3.341
10593SOL    HW132678   3.399   5.621   3.345
10593SOL    HW232679   3.281   5.552   3.255
10594SOL     OW32680   3.867   6.327   3.317
10594SOL    HW132681   3.908   6.316   3.227
10594SOL    HW232682   3.811   6.246   3.338
10595SOL     OW32683   5.964   5.878   1.461
10595SOL    HW132684   6.048   5.916   1.421
10595SOL    HW232685   5.935   5.799   1.407
10596SOL     OW32686   6.536   2.765   1.548
10596SOL    HW132687   6.566   2.682   1.500
10596SOL    HW232688   6.550   2.844   1.489
10597SOL     OW32689   1.724   6.414   4.964
10597SOL    HW132690   1.727   6.323   4.922
10597SOL    HW232691   1.641   6.461   4.935
10598SOL     OW32692   3.204   1.424   0.659
10598SOL    HW132693   3.220   1.523   0.666
10598SOL    HW232694   3.176   1.389   0.748
10599SOL     OW32695   0.737   1.571   1.253
10599SOL    HW132696   0.749   1.566   1.153
10599SOL    HW232697   0.721   1.666   1.279
10600SOL     OW32698   4.289   1.180   1.839
10600SOL    HW132699   4.245   1.127   1.766
10600SOL    HW232700   4.221   1.207   1.907
10601SOL     OW32701   1.882   2.082   5.275
10601SOL    HW132702   1.893   2.166   5.222
10601SOL    HW232703   1.806   2.029   5.238
10602SOL     OW32704   6.508   6.059   0.394
10602SOL    HW132705   6.551   6.102   0.473
10602SOL    HW232706   6.574   6.054   0.319
10603SOL     OW32707   5.409   0.088   3.265
10603SOL    HW132708   5.323   0.058   3.222
10603SOL    HW232709   5.480   0.021   3.247
10604SOL     OW32710   5.775   2.350   4.507
10604SOL    HW132711   5.700   2.363   4.572
10604SOL    HW232712   5.792   2.252   4.497
10605SOL     OW32713   4.505   1.347   1.741
10605SOL    HW132714   4.427   1.306   1.790
10605SOL    HW232715   4.492   1.446   1.736
10606SOL     OW32716   5.676   1.994   0.779
10606SOL    HW132717   5.591   1.941   0.783
10606SOL    HW232718   5.751   1.938   0.813
10607SOL     OW32719   1.738   4.799   1.516
10607SOL    HW132720   1.816   4.862   1.504
10607SOL    HW232721   1.720   4.752   1.429
10608SOL     OW32722   5.707   3.589   2.393
10608SOL    HW132723   5.724   3.679   2.432
10608SOL    HW232724   5.608   3.578   2.377
10609SOL     OW32725   5.439   5.997   6.717
10609SOL    HW132726   5.431   5.902   6.747
10609SOL    HW232727   5.535   6.021   6.708
10610SOL     OW32728   0.182   2.630   3.683
10610SOL    HW132729   0.114   2.693   3.644
10610SOL    HW232730   0.135   2.561   3.738
10611SOL     OW32731   3.970   5.492   6.922
10611SOL    HW132732   4.046   5.557   6.936
10611SOL    HW232733   3.991   5.433   6.844
10612SOL     OW32734   6.142   2.585   4.366
10612SOL    HW132735   6.083   2.515   4.326
10612SOL    HW232736   6.158   2.657   4.300
10613SOL     OW32737   4.541   5.176   6.164
10613SOL    HW132738   4.458   5.126   6.188
10613SOL    HW232739   4.549   5.181   6.065
10614SOL     OW32740   4.574   1.770   0.507
10614SOL    HW132741   4.525   1.855   0.489
10614SOL    HW232742   4.605   1.731   0.420
10615SOL     OW32743   4.200   3.133   5.600
10615SOL    HW132744   4.138   3.114   5.525
10615SOL    HW232745   4.241   3.224   5.588
10616SOL     OW32746   1.963   4.702   0.217
10616SOL    HW132747   1.894   4.630   0.220
10616SOL    HW232748   2.047   4.667   0.176
10617SOL     OW32749   2.199   3.706   0.475
10617SOL    HW132750   2.233   3.797   0.452
10617SOL    HW232751   2.250   3.670   0.553
10618SOL     OW32752   0.285   5.061   5.314
10618SOL    HW132753   0.274   4.964   5.292
10618SOL    HW232754   0.378   5.077   5.348
10619SOL     OW32755   1.494   1.613   1.185
10619SOL    HW132756   1.448   1.615   1.273
10619SOL    HW232757   1.466   1.693   1.131
10620SOL     OW32758   4.126   1.305   5.797
10620SOL    HW132759   4.226   1.299   5.805
10620SOL    HW232760   4.101   1.401   5.780
10621SOL     OW32761   0.611   5.778   4.611
10621SOL    HW132762   0.700   5.815   4.636
10621SOL    HW232763   0.541   5.849   4.621
10622SOL     OW32764   3.467   2.118   6.407
10622SOL    HW132765   3.530   2.041   6.397
10622SOL    HW232766   3.443   2.155   6.317
10623SOL     OW32767   5.555   4.812   4.539
10623SOL    HW132768   5.562   4.723   4.584
10623SOL    HW232769   5.638   4.830   4.487
10624SOL     OW32770   0.335   1.264   5.226
10624SOL    HW132771   0.383   1.236   5.143
10624SOL    HW232772   0.353   1.361   5.244
10625SOL     OW32773   6.717   5.515   6.609
10625SOL    HW132774   6.708   5.457   6.528
10625SOL    HW232775   6.784   5.474   6.671
10626SOL     OW32776   4.902   3.583   1.587
10626SOL    HW132777   4.814   3.564   1.629
10626SOL    HW232778   4.889   3.620   1.495
10627SOL     OW32779   4.783   5.490   5.104
10627SOL    HW132780   4.740   5.526   5.186
10627SOL    HW232781   4.842   5.413   5.128
10628SOL     OW32782   2.459   6.366   2.308
10628SOL    HW132783   2.473   6.455   2.263
10628SOL    HW232784   2.533   6.304   2.282
10629SOL     OW32785   4.796   5.899   4.179
10629SOL    HW132786   4.752   5.897   4.090
10629SOL    HW232787   4.727   5.887   4.251
10630SOL     OW32788   4.261   0.844   1.488
10630SOL    HW132789   4.223   0.927   1.447
10630SOL    HW232790   4.294   0.864   1.580
10631SOL     OW32791   3.481   6.159   2.243
10631SOL    HW132792   3.447   6.173   2.336
10631SOL    HW232793   3.567   6.108   2.246
10632SOL     OW32794   5.964   0.935   4.972
10632SOL    HW132795   6.035   1.000   4.945
10632SOL    HW232796   5.874   0.980   4.969
10633SOL     OW32797   3.079   3.892   0.274
10633SOL    HW132798   3.008   3.958   0.298
10633SOL    HW232799   3.038   3.817   0.222
10634SOL     OW32800   0.748   4.205   1.108
10634SOL    HW132801   0.651   4.179   1.102
10634SOL    HW232802   0.772   4.262   1.029
10635SOL     OW32803   3.134   5.271   0.758
10635SOL    HW132804   3.190   5.273   0.676
10635SOL    HW232805   3.189   5.239   0.835
10636SOL     OW32806   0.440   3.231   0.689
10636SOL    HW132807   0.528   3.214   0.646
10636SOL    HW232808   0.367   3.217   0.622
10637SOL     OW32809   1.539   6.916   5.514
10637SOL    HW132810   1.518   6.840   5.575
10637SOL    HW232811   1.605   6.977   5.559
10638SOL     OW32812   5.404   4.359   6.797
10638SOL    HW132813   5.340   4.424   6.753
10638SOL    HW232814   5.487   4.408   6.822
10639SOL     OW32815   0.299   5.588   6.757
10639SOL    HW132816   0.283   5.598   6.659
10639SOL    HW232817   0.344   5.670   6.792
10640SOL     OW32818   4.476   5.715   5.134
10640SOL    HW132819   4.575   5.718   5.137
10640SOL    HW232820   4.443   5.632   5.179
10641SOL     OW32821   1.072   0.987   3.471
10641SOL    HW132822   1.118   1.008   3.385
10641SOL    HW232823   1.014   1.063   3.498
10642SOL     OW32824   6.511   2.631   6.236
10642SOL    HW132825   6.499   2.598   6.142
10642SOL    HW232826   6.593   2.588   6.275
10643SOL     OW32827   3.642   5.802   5.240
10643SOL    HW132828   3.639   5.714   5.192
10643SOL    HW232829   3.576   5.865   5.198
10644SOL     OW32830   2.346   4.332   3.755
10644SOL    HW132831   2.396   4.326   3.841
10644SOL    HW232832   2.298   4.419   3.751
10645SOL     OW32833   1.826   2.957   3.059
10645SOL    HW132834   1.858   3.035   3.113
10645SOL    HW232835   1.746   2.983   3.006
10646SOL     OW32836   5.222   1.850   3.578
10646SOL    HW132837   5.126   1.823   3.585
10646SOL    HW232838   5.276   1.771   3.547
10647SOL     OW32839   4.943   6.075   4.719
10647SOL    HW132840   4.896   6.146   4.770
10647SOL    HW232841   5.038   6.102   4.703
10648SOL     OW32842   4.856   2.825   5.765
10648SOL    HW132843   4.879   2.730   5.742
10648SOL    HW232844   4.859   2.881   5.682
10649SOL     OW32845   6.326   3.863   3.688
10649SOL    HW132846   6.315   3.827   3.596
10649SOL    HW232847   6.408   3.824   3.730
10650SOL     OW32848   0.147   0.570   2.002
10650SOL    HW132849   0.229   0.512   1.995
10650SOL    HW232850   0.098   0.567   1.914
10651SOL     OW32851   2.848   5.640   5.135
10651SOL    HW132852   2.830   5.616   5.040
10651SOL    HW232853   2.820   5.565   5.195
10652SOL     OW32854   3.947   0.537   6.954
10652SOL    HW132855   3.929   0.506   6.861
10652SOL    HW232856   3.983   0.460   7.008
10653SOL     OW32857   5.716   5.918   4.953
10653SOL    HW132858   5.797   5.944   5.005
10653SOL    HW232859   5.691   5.824   4.974
10654SOL     OW32860   6.766   2.295   3.792
10654SOL    HW132861   6.671   2.322   3.807
10654SOL    HW232862   6.769   2.222   3.723
10655SOL     OW32863   6.146   4.895   1.045
10655SOL    HW132864   6.064   4.951   1.033
10655SOL    HW232865   6.131   4.805   1.003
10656SOL     OW32866   5.657   0.534   5.912
10656SOL    HW132867   5.679   0.456   5.854
10656SOL    HW232868   5.565   0.567   5.891
10657SOL     OW32869   5.179   0.513   5.487
10657SOL    HW132870   5.205   0.584   5.552
10657SOL    HW232871   5.083   0.488   5.501
10658SOL     OW32872   1.037   1.150   4.974
10658SOL    HW132873   1.027   1.243   5.012
10658SOL    HW232874   1.076   1.090   5.044
10659SOL     OW32875   0.526   5.780   6.768
10659SOL    HW132876   0.570   5.861   6.806
10659SOL    HW232877   0.578   5.699   6.797
10660SOL     OW32878   6.614   3.242   5.940
10660SOL    HW132879   6.554   3.318   5.964
10660SOL    HW232880   6.609   3.226   5.841
10661SOL     OW32881   3.924   5.893   6.228
10661SOL    HW132882   3.966   5.958   6.164
10661SOL    HW232883   3.890   5.942   6.308
10662SOL     OW32884   3.208   1.912   1.522
10662SOL    HW132885   3.182   1.825   1.480
10662SOL    HW232886   3.206   1.984   1.452
10663SOL     OW32887   6.684   3.686   4.034
10663SOL    HW132888   6.613   3.622   4.063
10663SOL    HW232889   6.725   3.654   3.949
10664SOL     OW32890   0.362   6.476   4.039
10664SOL    HW132891   0.438   6.526   4.080
10664SOL    HW232892   0.291   6.541   4.011
10665SOL     OW32893   4.459   3.176   1.012
10665SOL    HW132894   4.498   3.137   0.929
10665SOL    HW232895   4.517   3.154   1.091
10666SOL     OW32896   5.225   4.135   1.873
10666SOL    HW132897   5.245   4.038   1.885
10666SOL    HW232898   5.156   4.147   1.802
10667SOL     OW32899   5.472   2.720   4.372
10667SOL    HW132900   5.517   2.747   4.457
10667SOL    HW232901   5.510   2.633   4.340
10668SOL     OW32902   2.850   3.417   5.996
10668SOL    HW132903   2.898   3.499   5.964
10668SOL    HW232904   2.839   3.422   6.096
10669SOL     OW32905   0.060   2.113   1.751
10669SOL    HW132906   0.042   2.104   1.653
10669SOL    HW232907   0.021   2.198   1.784
10670SOL     OW32908   5.257   4.383   4.250
10670SOL    HW132909   5.347   4.425   4.243
10670SOL    HW232910   5.187   4.454   4.254
10671SOL     OW32911   1.662   2.947   4.224
10671SOL    HW132912   1.732   2.890   4.181
10671SOL    HW232913   1.615   2.895   4.296
10672SOL     OW32914   6.101   5.163   1.623
10672SOL    HW132915   6.150   5.131   1.542
10672SOL    HW232916   6.155   5.234   1.669
10673SOL     OW32917   3.268   0.692   1.707
10673SOL    HW132918   3.228   0.601   1.696
10673SOL    HW232919   3.195   0.759   1.724
10674SOL     OW32920   3.832   3.425   3.824
10674SOL    HW132921   3.883   3.503   3.787
10674SOL    HW232922   3.803   3.367   3.748
10675SOL     OW32923   3.833   6.511   5.326
10675SOL    HW132924   3.764   6.578   5.353
10675SOL    HW232925   3.801   6.419   5.348
10676SOL     OW32926   1.350   1.482   4.781
10676SOL    HW132927   1.342   1.437   4.692
10676SOL    HW232928   1.443   1.469   4.817
10677SOL     OW32929   0.461   1.596   6.202
10677SOL    HW132930   0.467   1.525   6.272
10677SOL    HW232931   0.417   1.677   6.241
10678SOL     OW32932   3.330   4.926   2.759
10678SOL    HW132933   3.378   4.929   2.847
10678SOL    HW232934   3.397   4.930   2.685
10679SOL     OW32935   5.648   3.996   6.869
10679SOL    HW132936   5.677   4.038   6.783
10679SOL    HW232937   5.558   3.955   6.856
10680SOL     OW32938   3.791   1.849   4.950
10680SOL    HW132939   3.727   1.921   4.974
10680SOL    HW232940   3.765   1.809   4.862
10681SOL     OW32941   2.112   3.370   5.996
10681SOL    HW132942   2.180   3.300   6.019
10681SOL    HW232943   2.067   3.402   6.080
10682SOL     OW32944   5.137   3.132   6.220
10682SOL    HW132945   5.100   3.039   6.213
10682SOL    HW232946   5.128   3.165   6.313
10683SOL     OW32947   1.619   6.381   3.634
10683SOL    HW132948   1.529   6.408   3.668
10683SOL    HW232949   1.620   6.283   3.615
10684SOL     OW32950   5.060   3.506   1.318
10684SOL    HW132951   5.065   3.435   1.247
10684SOL    HW232952   5.069   3.464   1.408
10685SOL     OW32953   0.159   0.593   2.417
10685SOL    HW132954   0.098   0.583   2.339
10685SOL    HW232955   0.186   0.690   2.425
10686SOL     OW32956   2.537   2.347   6.751
10686SOL    HW132957   2.508   2.306   6.664
10686SOL    HW232958   2.505   2.290   6.827
10687SOL     OW32959   0.793   3.441   3.570
10687SOL    HW132960   0.741   3.511   3.618
10687SOL    HW232961   0.791   3.356   3.624
10688SOL     OW32962   4.913   1.481   3.184
10688SOL    HW132963   4.871   1.529   3.107
10688SOL    HW232964   4.957   1.398   3.150
10689SOL     OW32965   1.384   1.102   2.830
10689SOL    HW132966   1.290   1.136   2.824
10689SOL    HW232967   1.437   1.162   2.890
10690SOL     OW32968   1.444   6.202   4.914
10690SOL    HW132969   1.514   6.251   4.862
10690SOL    HW232970   1.438   6.108   4.882
10691SOL     OW32971   4.146   0.102   1.277
10691SOL    HW132972   4.114   0.038   1.346
10691SOL    HW232973   4.075   0.113   1.207
10692SOL     OW32974   3.103   2.192   3.926
10692SOL    HW132975   3.167   2.161   3.855
10692SOL    HW232976   3.025   2.238   3.882
10693SOL     OW32977   1.032   3.888   0.088
10693SOL    HW132978   1.096   3.815   0.112
10693SOL    HW232979   0.981   3.915   0.169
10694SOL     OW32980   4.586   2.256   5.554
10694SOL    HW132981   4.585   2.170   5.504
10694SOL    HW232982   4.525   2.250   5.633
10695SOL     OW32983   4.496   4.640   1.220
10695SOL    HW132984   4.586   4.674   1.191
10695SOL    HW232985   4.474   4.677   1.310
10696SOL     OW32986   6.870   5.176   4.522
10696SOL    HW132987   6.968   5.196   4.515
10696SOL    HW232988   6.834   5.158   4.430
10697SOL     OW32989   2.597   5.004   4.915
10697SOL    HW132990   2.664   4.999   4.989
10697SOL    HW232991   2.560   5.096   4.908
10698SOL     OW32992   3.994   4.250   6.583
10698SOL    HW132993   3.998   4.350   6.585
10698SOL    HW232994   4.000   4.215   6.676
10699SOL     OW32995   4.681   3.476   0.980
10699SOL    HW132996   4.673   3.456   1.078
10699SOL    HW232997   4.769   3.445   0.946
10700SOL     OW32998   5.126   0.308   1.472
10700SOL    HW132999   5.123   0.404   1.443
10700SOL    HW233000   5.033   0.270   1.469
10701SOL     OW33001   3.269   0.181   6.326
10701SOL    HW133002   3.242   0.172   6.230
10701SOL    HW233003   3.199   0.231   6.376
10702SOL     OW33004   5.937   2.975   2.408
10702SOL    HW133005   6.023   3.003   2.451
10702SOL    HW233006   5.946   2.983   2.308
10703SOL     OW33007   0.799   2.124   5.201
10703SOL    HW133008   0.791   2.081   5.291
10703SOL    HW233009   0.810   2.054   5.131
10704SOL     OW33010   5.239   0.058   2.206
10704SOL    HW133011   5.224   7.015   2.132
10704SOL    HW233012   5.234   0.011   2.294
10705SOL     OW33013   5.114   3.329   1.120
10705SOL    HW133014   5.059   3.254   1.157
10705SOL    HW233015   5.205   3.296   1.098
10706SOL     OW33016   2.539   0.943   1.671
10706SOL    HW133017   2.539   1.022   1.732
10706SOL    HW233018   2.460   0.947   1.610
10707SOL     OW33019   3.585   6.925   3.648
10707SOL    HW133020   3.680   6.948   3.625
10707SOL    HW233021   3.527   7.004   3.631
10708SOL     OW33022   3.747   1.077   1.197
10708SOL    HW133023   3.747   1.111   1.103
10708SOL    HW233024   3.738   1.154   1.260
10709SOL     OW33025   5.802   4.193   2.933
10709SOL    HW133026   5.898   4.205   2.958
10709SOL    HW233027   5.759   4.283   2.923
10710SOL     OW33028   4.272   1.726   2.996
10710SOL    HW133029   4.185   1.678   2.999
10710SOL    HW233030   4.325   1.695   2.917
10711SOL     OW33031   2.494   6.659   2.893
10711SOL    HW133032   2.556   6.725   2.937
10711SOL    HW233033   2.548   6.593   2.841
10712SOL     OW33034   5.246   1.437   3.714
10712SOL    HW133035   5.215   1.524   3.752
10712SOL    HW233036   5.172   1.395   3.661
10713SOL     OW33037   0.967   4.365   1.192
10713SOL    HW133038   0.889   4.309   1.164
10713SOL    HW233039   1.035   4.366   1.118
10714SOL     OW33040   3.082   4.089   4.981
10714SOL    HW133041   3.018   4.161   4.954
10714SOL    HW233042   3.107   4.101   5.077
10715SOL     OW33043   6.976   0.021   1.733
10715SOL    HW133044   6.975   7.021   1.635
10715SOL    HW233045   6.883   0.028   1.767
10716SOL     OW33046   4.819   0.545   2.716
10716SOL    HW133047   4.909   0.586   2.715
10716SOL    HW233048   4.749   0.616   2.717
10717SOL     OW33049   3.433   3.018   0.247
10717SOL    HW133050   3.517   2.968   0.227
10717SOL    HW233051   3.355   2.955   0.247
10718SOL     OW33052   1.442   4.612   6.454
10718SOL    HW133053   1.471   4.649   6.542
10718SOL    HW233054   1.342   4.619   6.447
10719SOL     OW33055   0.269   4.550   5.341
10719SOL    HW133056   0.186   4.588   5.299
10719SOL    HW233057   0.249   4.523   5.435
10720SOL     OW33058   6.372   5.392   3.106
10720SOL    HW133059   6.425   5.381   3.022
10720SOL    HW233060   6.277   5.364   3.090
10721SOL     OW33061   4.682   2.641   6.506
10721SOL    HW133062   4.666   2.592   6.592
10721SOL    HW233063   4.724   2.579   6.440
10722SOL     OW33064   0.490   4.093   5.836
10722SOL    HW133065   0.486   4.078   5.737
10722SOL    HW233066   0.455   4.011   5.883
10723SOL     OW33067   5.879   5.958   1.714
10723SOL    HW133068   5.891   5.918   1.623
10723SOL    HW233069   5.891   6.058   1.708
10724SOL     OW33070   0.447   6.139   6.095
10724SOL    HW133071   0.387   6.076   6.046
10724SOL    HW233072   0.489   6.202   6.030
10725SOL     OW33073   2.677   0.403   6.374
10725SOL    HW133074   2.716   0.315   6.349
10725SOL    HW233075   2.605   0.390   6.442
10726SOL     OW33076   3.716   0.543   4.285
10726SOL    HW133077   3.796   0.584   4.327
10726SOL    HW233078   3.723   0.550   4.185
10727SOL     OW33079   2.269   6.518   6.903
10727SOL    HW133080   2.301   6.525   6.808
10727SOL    HW233081   2.308   6.436   6.945
10728SOL     OW33082   5.440   6.506   2.142
10728SOL    HW133083   5.351   6.528   2.183
10728SOL    HW233084   5.427   6.486   2.045
10729SOL     OW33085   6.594   1.674   0.276
10729SOL    HW133086   6.624   1.657   0.370
10729SOL    HW233087   6.505   1.630   0.261
10730SOL     OW33088   5.010   0.475   2.982
10730SOL    HW133089   5.098   0.491   3.027
10730SOL    HW233090   4.942   0.538   3.020
10731SOL     OW33091   2.857   6.661   0.473
10731SOL    HW133092   2.823   6.567   0.464
10731SOL    HW233093   2.808   6.720   0.409
10732SOL     OW33094   0.526   3.421   5.957
10732SOL    HW133095   0.484   3.461   6.039
10732SOL    HW233096   0.454   3.387   5.896
10733SOL     OW33097   6.945   0.308   0.030
10733SOL    HW133098   6.859   0.287   0.077
10733SOL    HW233099   6.938   0.281   6.956
10734SOL     OW33100   5.748   2.807   1.917
10734SOL    HW133101   5.742   2.899   1.958
10734SOL    HW233102   5.712   2.810   1.824
10735SOL     OW33103   6.781   5.405   2.554
10735SOL    HW133104   6.786   5.432   2.458
10735SOL    HW233105   6.821   5.477   2.611
10736SOL     OW33106   2.279   1.616   5.240
10736SOL    HW133107   2.275   1.592   5.143
10736SOL    HW233108   2.373   1.643   5.264
10737SOL     OW33109   0.560   1.672   5.969
10737SOL    HW133110   0.502   1.738   5.922
10737SOL    HW233111   0.527   1.659   6.063
10738SOL     OW33112   4.000   6.867   4.137
10738SOL    HW133113   4.096   6.881   4.163
10738SOL    HW233114   3.954   6.956   4.131
10739SOL     OW33115   1.258   0.996   2.009
10739SOL    HW133116   1.216   0.941   2.082
10739SOL    HW233117   1.186   1.036   1.953
10740SOL     OW33118   4.553   6.424   3.889
10740SOL    HW133119   4.485   6.382   3.949
10740SOL    HW233120   4.630   6.362   3.877
10741SOL     OW33121   1.934   0.725   2.763
10741SOL    HW133122   1.852   0.735   2.821
10741SOL    HW233123   1.990   0.806   2.771
10742SOL     OW33124   6.080   5.406   6.989
10742SOL    HW133125   6.069   5.488   0.022
10742SOL    HW233126   6.109   5.431   6.896
10743SOL     OW33127   3.483   0.844   4.690
10743SOL    HW133128   3.538   0.912   4.738
10743SOL    HW233129   3.540   0.764   4.668
10744SOL     OW33130   5.613   0.865   0.398
10744SOL    HW133131   5.705   0.899   0.417
10744SOL    HW233132   5.562   0.934   0.346
10745SOL     OW33133   6.510   6.015   6.053
10745SOL    HW133134   6.586   6.055   6.104
10745SOL    HW233135   6.543   5.942   5.993
10746SOL     OW33136   1.961   4.031   5.542
10746SOL    HW133137   2.001   4.023   5.450
10746SOL    HW233138   2.032   4.018   5.611
10747SOL     OW33139   2.857   2.448   5.303
10747SOL    HW133140   2.829   2.477   5.211
10747SOL    HW233141   2.894   2.355   5.299
10748SOL     OW33142   5.595   1.395   2.586
10748SOL    HW133143   5.625   1.469   2.526
10748SOL    HW233144   5.563   1.317   2.531
10749SOL     OW33145   3.858   0.989   0.250
10749SOL    HW133146   3.832   0.992   0.346
10749SOL    HW233147   3.785   1.026   0.194
10750SOL     OW33148   4.660   5.901   6.644
10750SOL    HW133149   4.564   5.878   6.627
10750SOL    HW233150   4.716   5.862   6.571
10751SOL     OW33151   2.614   5.876   2.634
10751SOL    HW133152   2.618   5.927   2.549
10751SOL    HW233153   2.519   5.866   2.663
10752SOL     OW33154   4.993   5.686   4.200
10752SOL    HW133155   4.916   5.728   4.152
10752SOL    HW233156   4.991   5.712   4.296
10753SOL     OW33157   5.665   3.978   4.850
10753SOL    HW133158   5.739   3.988   4.784
10753SOL    HW233159   5.614   4.063   4.857
10754SOL     OW33160   1.040   6.872   2.400
10754SOL    HW133161   1.021   6.788   2.349
10754SOL    HW233162   1.000   6.950   2.352
10755SOL     OW33163   6.198   6.068   1.599
10755SOL    HW133164   6.167   6.065   1.503
10755SOL    HW233165   6.160   6.149   1.643
10756SOL     OW33166   6.565   6.866   4.870
10756SOL    HW133167   6.588   6.799   4.800
10756SOL    HW233168   6.637   6.868   4.939
10757SOL     OW33169   2.472   2.723   1.833
10757SOL    HW133170   2.562   2.712   1.790
10757SOL    HW233171   2.471   2.677   1.922
10758SOL     OW33172   6.554   5.418   4.015
10758SOL    HW133173   6.497   5.466   3.948
10758SOL    HW233174   6.520   5.325   4.027
10759SOL     OW33175   6.900   0.618   6.121
10759SOL    HW133176   6.997   0.604   6.103
10759SOL    HW233177   6.847   0.599   6.039
10760SOL     OW33178   5.824   2.075   4.523
10760SOL    HW133179   5.862   1.987   4.552
10760SOL    HW233180   5.760   2.107   4.593
10761SOL     OW33181   3.734   5.536   5.523
10761SOL    HW133182   3.727   5.521   5.622
10761SOL    HW233183   3.772   5.454   5.479
10762SOL     OW33184   3.264   0.897   6.285
10762SOL    HW133185   3.362   0.877   6.284
10762SOL    HW233186   3.227   0.879   6.376
10763SOL     OW33187   4.860   4.935   4.250
10763SOL    HW133188   4.800   4.855   4.262
10763SOL    HW233189   4.832   5.007   4.314
10764SOL     OW33190   5.420   0.361   4.461
10764SOL    HW133191   5.356   0.435   4.482
10764SOL    HW233192   5.513   0.397   4.464
10765SOL     OW33193   0.085   3.940   0.203
10765SOL    HW133194   0.008   3.892   0.160
10765SOL    HW233195   0.055   4.030   0.235
10766SOL     OW33196   3.094   3.857   2.443
10766SOL    HW133197   3.086   3.778   2.505
10766SOL    HW233198   3.030   3.846   2.367
10767SOL     OW33199   4.650   2.128   2.075
10767SOL    HW133200   4.587   2.100   2.003
10767SOL    HW233201   4.602   2.126   2.163
10768SOL     OW33202   6.092   4.405   6.233
10768SOL    HW133203   6.095   4.309   6.207
10768SOL    HW233204   6.105   4.463   6.152
10769SOL     OW33205   1.928   3.066   4.324
10769SOL    HW133206   1.830   3.047   4.321
10769SOL    HW233207   1.942   3.163   4.348
10770SOL     OW33208   4.390   6.311   4.108
10770SOL    HW133209   4.325   6.370   4.154
10770SOL    HW233210   4.481   6.325   4.147
10771SOL     OW33211   2.890   2.289   3.677
10771SOL    HW133212   2.974   2.258   3.632
10771SOL    HW233213   2.891   2.388   3.685
10772SOL     OW33214   5.036   5.919   3.406
10772SOL    HW133215   4.958   5.947   3.350
10772SOL    HW233216   5.089   6.000   3.430
10773SOL     OW33217   6.138   5.376   2.906
10773SOL    HW133218   6.226   5.350   2.865
10773SOL    HW233219   6.104   5.458   2.861
10774SOL     OW33220   0.357   0.079   3.556
10774SOL    HW133221   0.442   0.118   3.521
10774SOL    HW233222   0.284   0.093   3.489
10775SOL     OW33223   0.275   2.499   1.250
10775SOL    HW133224   0.322   2.509   1.338
10775SOL    HW233225   0.216   2.578   1.235
10776SOL     OW33226   2.226   0.448   5.275
10776SOL    HW133227   2.147   0.508   5.290
10776SOL    HW233228   2.310   0.503   5.280
10777SOL     OW33229   3.627   5.357   1.688
10777SOL    HW133230   3.695   5.391   1.623
10777SOL    HW233231   3.581   5.277   1.649
10778SOL     OW33232   5.316   5.766   1.635
10778SOL    HW133233   5.346   5.737   1.726
10778SOL    HW233234   5.373   5.722   1.566
10779SOL     OW33235   5.182   3.123   3.416
10779SOL    HW133236   5.083   3.120   3.423
10779SOL    HW233237   5.222   3.111   3.507
10780SOL     OW33238   6.842   0.124   2.311
10780SOL    HW133239   6.828   0.221   2.292
10780SOL    HW233240   6.815   0.070   2.232
10781SOL     OW33241   2.988   0.240   4.089
10781SOL    HW133242   3.067   0.252   4.028
10781SOL    HW233243   2.909   0.210   4.036
10782SOL     OW33244   7.003   5.836   3.440
10782SOL    HW133245   6.954   5.922   3.432
10782SOL    HW233246   0.049   5.829   3.367
10783SOL     OW33247   6.641   2.983   2.682
10783SOL    HW133248   6.592   2.901   2.712
10783SOL    HW233249   6.587   3.031   2.613
10784SOL     OW33250   1.974   1.583   4.972
10784SOL    HW133251   2.031   1.510   5.010
10784SOL    HW233252   1.987   1.666   5.027
10785SOL     OW33253   1.976   3.601   6.185
10785SOL    HW133254   1.891   3.580   6.135
10785SOL    HW233255   1.962   3.684   6.240
10786SOL     OW33256   0.081   4.860   4.350
10786SOL    HW133257   0.096   4.836   4.446
10786SOL    HW233258   0.102   4.782   4.292
10787SOL     OW33259   1.500   1.974   5.846
10787SOL    HW133260   1.583   1.979   5.902
10787SOL    HW233261   1.431   2.036   5.884
10788SOL     OW33262   5.437   4.199   6.351
10788SOL    HW133263   5.411   4.123   6.292
10788SOL    HW233264   5.469   4.163   6.439
10789SOL     OW33265   4.543   0.552   6.371
10789SOL    HW133266   4.475   0.624   6.391
10789SOL    HW233267   4.512   0.499   6.292
10790SOL     OW33268   5.270   6.977   2.486
10790SOL    HW133269   5.215   6.930   2.556
10790SOL    HW233270   5.287   0.049   2.515
10791SOL     OW33271   0.909   5.539   2.836
10791SOL    HW133272   0.935   5.443   2.822
10791SOL    HW233273   0.870   5.575   2.752
10792SOL     OW33274   4.536   4.749   6.627
10792SOL    HW133275   4.443   4.765   6.594
10792SOL    HW233276   4.536   4.676   6.695
10793SOL     OW33277   5.527   4.537   4.596
10793SOL    HW133278   5.605   4.527   4.658
10793SOL    HW233279   5.465   4.460   4.608
10794SOL     OW33280   3.412   3.199   4.451
10794SOL    HW133281   3.411   3.282   4.506
10794SOL    HW233282   3.344   3.135   4.486
10795SOL     OW33283   6.905   4.756   2.657
10795SOL    HW133284   6.995   4.772   2.618
10795SOL    HW233285   6.836   4.762   2.585
10796SOL     OW33286   1.155   6.542   5.429
10796SOL    HW133287   1.122   6.452   5.401
10796SOL    HW233288   1.151   6.605   5.352
10797SOL     OW33289   3.454   2.643   0.361
10797SOL    HW133290   3.367   2.691   0.346
10797SOL    HW233291   3.469   2.576   0.289
10798SOL     OW33292   5.809   1.737   0.768
10798SOL    HW133293   5.804   1.709   0.672
10798SOL    HW233294   5.746   1.681   0.822
10799SOL     OW33295   5.024   1.619   1.229
10799SOL    HW133296   5.072   1.562   1.295
10799SOL    HW233297   5.079   1.628   1.146
10800SOL     OW33298   6.081   6.796   1.523
10800SOL    HW133299   6.133   6.865   1.573
10800SOL    HW233300   6.144   6.737   1.472
10801SOL     OW33301   2.179   0.480   1.268
10801SOL    HW133302   2.189   0.521   1.359
10801SOL    HW233303   2.221   0.389   1.268
10802SOL     OW33304   5.099   1.638   3.794
10802SOL    HW133305   5.041   1.689   3.729
10802SOL    HW233306   5.159   1.702   3.842
10803SOL     OW33307   2.338   5.142   4.660
10803SOL    HW133308   2.357   5.045   4.674
10803SOL    HW233309   2.356   5.192   4.745
10804SOL     OW33310   5.824   3.113   4.133
10804SOL    HW133311   5.913   3.156   4.118
10804SOL    HW233312   5.793   3.072   4.047
10805SOL     OW33313   6.796   6.518   6.498
10805SOL    HW133314   6.836   6.567   6.576
10805SOL    HW233315   6.820   6.566   6.413
10806SOL     OW33316   2.003   5.171   1.272
10806SOL    HW133317   2.101   5.194   1.268
10806SOL    HW233318   1.974   5.135   1.184
10807SOL     OW33319   3.267   5.164   4.907
10807SOL    HW133320   3.220   5.197   4.989
10807SOL    HW233321   3.201   5.120   4.846
10808SOL     OW33322   1.883   3.195   0.574
10808SOL    HW133323   1.964   3.243   0.541
10808SOL    HW233324   1.820   3.261   0.616
10809SOL     OW33325   1.734   1.428   4.674
10809SOL    HW133326   1.651   1.479   4.648
10809SOL    HW233327   1.737   1.342   4.622
10810SOL     OW33328   6.877   0.194   3.224
10810SOL    HW133329   6.807   0.256   3.260
10810SOL    HW233330   6.860   0.102   3.258
10811SOL     OW33331   4.366   5.665   4.697
10811SOL    HW133332   4.360   5.610   4.781
10811SOL    HW233333   4.339   5.610   4.619
10812SOL     OW33334   0.431   2.737   0.862
10812SOL    HW133335   0.371   2.764   0.936
10812SOL    HW233336   0.390   2.662   0.810
10813SOL     OW33337   1.642   3.515   6.538
10813SOL    HW133338   1.721   3.576   6.534
10813SOL    HW233339   1.559   3.569   6.554
10814SOL     OW33340   3.208   1.750   2.460
10814SOL    HW133341   3.197   1.708   2.370
10814SOL    HW233342   3.263   1.834   2.451
10815SOL     OW33343   5.147   1.508   4.289
10815SOL    HW133344   5.182   1.415   4.275
10815SOL    HW233345   5.115   1.518   4.383
10816SOL     OW33346   2.830   2.364   5.710
10816SOL    HW133347   2.769   2.372   5.789
10816SOL    HW233348   2.922   2.394   5.736
10817SOL     OW33349   2.237   6.459   4.924
10817SOL    HW133350   2.252   6.362   4.943
10817SOL    HW233351   2.140   6.480   4.930
10818SOL     OW33352   4.977   3.950   0.668
10818SOL    HW133353   4.951   3.920   0.576
10818SOL    HW233354   4.908   4.012   0.704
10819SOL     OW33355   6.591   5.603   5.335
10819SOL    HW133356   6.641   5.614   5.420
10819SOL    HW233357   6.656   5.591   5.259
10820SOL     OW33358   1.455   4.947   5.942
10820SOL    HW133359   1.365   4.980   5.913
10820SOL    HW233360   1.470   4.855   5.904
10821SOL     OW33361   4.520   5.785   4.190
10821SOL    HW133362   4.524   5.754   4.095
10821SOL    HW233363   4.428   5.770   4.226
10822SOL     OW33364   5.459   0.310   3.098
10822SOL    HW133365   5.450   0.234   3.163
10822SOL    HW233366   5.554   0.339   3.095
10823SOL     OW33367   5.564   6.317   2.864
10823SOL    HW133368   5.626   6.240   2.857
10823SOL    HW233369   5.508   6.309   2.946
10824SOL     OW33370   1.852   2.301   4.143
10824SOL    HW133371   1.797   2.385   4.139
10824SOL    HW233372   1.835   2.253   4.229
10825SOL     OW33373   6.846   1.295   6.758
10825SOL    HW133374   6.843   1.241   6.841
10825SOL    HW233375   6.756   1.333   6.739
10826SOL     OW33376   6.625   3.816   3.068
10826SOL    HW133377   6.587   3.792   2.979
10826SOL    HW233378   6.666   3.907   3.064
10827SOL     OW33379   0.534   3.053   3.410
10827SOL    HW133380   0.464   3.043   3.340
10827SOL    HW233381   0.596   3.127   3.384
10828SOL     OW33382   0.027   4.019   5.114
10828SOL    HW133383   0.050   4.022   5.017
10828SOL    HW233384   6.985   3.944   5.131
10829SOL     OW33385   3.736   3.079   5.584
10829SOL    HW133386   3.641   3.080   5.550
10829SOL    HW233387   3.746   3.007   5.653
10830SOL     OW33388   5.034   2.266   3.847
10830SOL    HW133389   5.035   2.203   3.770
10830SOL    HW233390   5.042   2.360   3.814
10831SOL     OW33391   4.320   0.264   3.017
10831SOL    HW133392   4.285   0.314   3.096
10831SOL    HW233393   4.361   0.178   3.047
10832SOL     OW33394   6.959   4.181   6.267
10832SOL    HW133395   6.926   4.243   6.338
10832SOL    HW233396   0.024   4.140   6.296
10833SOL     OW33397   0.897   0.803   6.414
10833SOL    HW133398   0.995   0.812   6.396
10833SOL    HW233399   0.865   0.883   6.465
10834SOL     OW33400   6.680   5.993   2.520
10834SOL    HW133401   6.647   5.913   2.470
10834SOL    HW233402   6.605   6.034   2.571
10835SOL     OW33403   6.876   2.301   5.412
10835SOL    HW133404   6.837   2.213   5.441
10835SOL    HW233405   6.850   2.372   5.477
10836SOL     OW33406   6.605   2.212   3.424
10836SOL    HW133407   6.576   2.240   3.333
10836SOL    HW233408   6.685   2.265   3.452
10837SOL     OW33409   0.394   3.043   3.667
10837SOL    HW133410   0.432   3.047   3.575
10837SOL    HW233411   0.388   2.947   3.696
10838SOL     OW33412   6.993   6.716   2.489
10838SOL    HW133413   0.008   6.714   2.582
10838SOL    HW233414   0.038   6.757   2.427
10839SOL     OW33415   4.171   2.423   6.649
10839SOL    HW133416   4.096   2.433   6.715
10839SOL    HW233417   4.151   2.346   6.588
10840SOL     OW33418   3.051   0.583   1.938
10840SOL    HW133419   2.969   0.549   1.983
10840SOL    HW233420   3.072   0.674   1.972
10841SOL     OW33421   2.727   5.803   4.330
10841SOL    HW133422   2.630   5.787   4.352
10841SOL    HW233423   2.735   5.890   4.281
10842SOL     OW33424   6.609   4.852   2.079
10842SOL    HW133425   6.689   4.870   2.137
10842SOL    HW233426   6.548   4.931   2.082
10843SOL     OW33427   2.450   1.369   0.868
10843SOL    HW133428   2.421   1.320   0.786
10843SOL    HW233429   2.402   1.332   0.948
10844SOL     OW33430   1.532   5.624   4.374
10844SOL    HW133431   1.519   5.654   4.469
10844SOL    HW233432   1.460   5.559   4.350
10845SOL     OW33433   4.116   0.559   4.175
10845SOL    HW133434   4.064   0.644   4.185
10845SOL    HW233435   4.199   0.577   4.122
10846SOL     OW33436   5.328   6.820   6.020
10846SOL    HW133437   5.272   6.789   5.942
10846SOL    HW233438   5.267   6.856   6.091
10847SOL     OW33439   3.090   0.058   6.867
10847SOL    HW133440   3.158   7.007   6.871
10847SOL    HW233441   3.065   0.087   6.959
10848SOL     OW33442   1.868   2.742   2.591
10848SOL    HW133443   1.770   2.746   2.610
10848SOL    HW233444   1.900   2.648   2.597
10849SOL     OW33445   1.114   6.516   3.374
10849SOL    HW133446   1.026   6.499   3.419
10849SOL    HW233447   1.188   6.501   3.438
10850SOL     OW33448   4.848   4.086   0.072
10850SOL    HW133449   4.910   4.011   0.095
10850SOL    HW233450   4.890   4.144   0.002
10851SOL     OW33451   1.088   4.452   0.843
10851SOL    HW133452   1.112   4.542   0.808
10851SOL    HW233453   1.147   4.430   0.921
10852SOL     OW33454   2.507   0.483   1.363
10852SOL    HW133455   2.425   0.525   1.402
10852SOL    HW233456   2.579   0.552   1.355
10853SOL     OW33457   3.275   0.606   6.438
10853SOL    HW133458   3.192   0.568   6.399
10853SOL    HW233459   3.309   0.546   6.510
10854SOL     OW33460   2.854   6.588   5.785
10854SOL    HW133461   2.801   6.645   5.722
10854SOL    HW233462   2.802   6.505   5.806
10855SOL     OW33463   4.671   0.945   6.761
10855SOL    HW133464   4.710   0.978   6.674
10855SOL    HW233465   4.572   0.938   6.752
10856SOL     OW33466   0.418   0.487   0.760
10856SOL    HW133467   0.343   0.425   0.787
10856SOL    HW233468   0.498   0.467   0.816
10857SOL     OW33469   5.665   1.298   1.392
10857SOL    HW133470   5.704   1.369   1.451
10857SOL    HW233471   5.707   1.210   1.413
10858SOL     OW33472   2.179   6.367   2.276
10858SOL    HW133473   2.278   6.376   2.282
10858SOL    HW233474   2.146   6.303   2.346
10859SOL     OW33475   2.207   4.594   3.728
10859SOL    HW133476   2.127   4.541   3.699
10859SOL    HW233477   2.258   4.624   3.647
10860SOL     OW33478   0.939   3.704   3.012
10860SOL    HW133479   0.941   3.662   3.103
10860SOL    HW233480   1.028   3.692   2.968
10861SOL     OW33481   4.486   3.249   5.350
10861SOL    HW133482   4.547   3.278   5.276
10861SOL    HW233483   4.523   3.279   5.437
10862SOL     OW33484   1.096   0.486   5.703
10862SOL    HW133485   1.119   0.543   5.781
10862SOL    HW233486   1.158   0.507   5.627
10863SOL     OW33487   1.828   6.803   4.397
10863SOL    HW133488   1.798   6.750   4.317
10863SOL    HW233489   1.896   6.750   4.448
10864SOL     OW33490   3.193   6.923   4.095
10864SOL    HW133491   3.094   6.905   4.098
10864SOL    HW233492   3.232   6.876   4.015
10865SOL     OW33493   6.763   0.567   5.890
10865SOL    HW133494   6.689   0.528   5.944
10865SOL    HW233495   6.729   0.592   5.799
10866SOL     OW33496   6.896   5.448   6.824
10866SOL    HW133497   6.962   5.404   6.763
10866SOL    HW233498   6.927   5.540   6.847
10867SOL     OW33499   3.075   1.261   0.155
10867SOL    HW133500   3.075   1.289   0.251
10867SOL    HW233501   3.146   1.311   0.105
10868SOL     OW33502   1.852   2.509   3.887
10868SOL    HW133503   1.837   2.466   3.798
10868SOL    HW233504   1.944   2.547   3.890
10869NA      NA33505   6.508   2.480   5.193
10870NA      NA33506   4.550   4.545   5.018
10871NA      NA33507   2.001   3.493   1.902
10872NA      NA33508   4.868   3.453   4.845
10873NA      NA33509   4.378   2.367   5.145
10874NA      NA33510   3.692   4.911   2.119
10875NA      NA33511   6.746   6.295   4.879
10876NA      NA33512   3.582   3.151   5.216
10877NA      NA33513   4.583   6.073   6.128
10878NA      NA33514   2.815   6.732   4.735
10879NA      NA33515   0.456   4.992   3.302
10880NA      NA33516   1.981   0.528   2.109
10881NA      NA33517   4.100   4.040   1.180
10882NA      NA33518   3.919   3.362   3.225
   7.02202   7.02202   7.02202
