ALL ATOM STRUCTURE FOR MOLECULE LIG
   68
    0V3OU   H29    1   2.793   3.624   0.683
    0V3OU   C27    2   2.776   3.521   0.724
    0V3OU   H27    3   2.691   3.522   0.796
    0V3OU   H28    4   2.758   3.448   0.642
    0V3OU   O11    5   2.898   3.493   0.791
    0V3OU   C15    6   2.906   3.373   0.858
    0V3OU   C13    7   3.025   3.351   0.931
    0V3OU   C14    8   3.040   3.229   0.998
    0V3OU   C16    9   2.939   3.133   0.997
    0V3OU    H6   10   2.953   3.038   1.052
    0V3OU   C12   11   3.165   3.201   1.073
    0V3OU    O2   12   3.168   3.112   1.159
    0V3OU   C10   13   3.284   3.281   1.037
    0V3OU    C8   14   3.413   3.237   1.068
    0V3OU   O10   15   3.444   3.121   1.133
    0V3OU   H26   16   3.363   3.076   1.164
    0V3OU    C6   17   3.528   3.313   1.030
    0V3OU    C5   18   3.511   3.433   0.964
    0V3OU    C4   19   3.661   3.254   1.061
    0V3OU    H4   20   3.664   3.224   1.170
    0V3OU    H5   21   3.671   3.160   1.001
    0V3OU    C2   22   3.781   3.345   1.033
    0V3OU    O6   23   3.814   3.422   1.148
    0V3OU   H21   24   3.744   3.487   1.161
    0V3OU    C3   25   3.757   3.435   0.912
    0V3OU    H2   26   3.843   3.505   0.901
    0V3OU    H3   27   3.750   3.371   0.820
    0V3OU   C25   28   3.903   3.255   1.007
    0V3OU    O7   29   3.927   3.212   0.894
    0V3OU   C26   30   3.993   3.224   1.125
    0V3OU   H22   31   4.055   3.315   1.145
    0V3OU   H23   32   4.058   3.136   1.101
    0V3OU    O8   33   3.921   3.185   1.240
    0V3OU   H24   34   3.875   3.263   1.274
    0V3OU    C1   35   3.629   3.517   0.924
    0V3OU    H1   36   3.608   3.566   0.824
    0V3OU    O3   37   3.650   3.617   1.024
    0V3OU   C19   38   3.623   3.751   0.983
    0V3OU    H9   39   3.530   3.758   0.920
    0V3OU    O4   40   3.728   3.786   0.896
    0V3OU   C20   41   3.857   3.803   0.956
    0V3OU   H10   42   3.891   3.702   0.993
    0V3OU   C24   43   3.614   3.837   1.109
    0V3OU   H16   44   3.536   3.793   1.177
    0V3OU   H17   45   3.581   3.940   1.078
    0V3OU   C23   46   3.750   3.844   1.179
    0V3OU   H15   47   3.781   3.737   1.203
    0V3OU    N1   48   3.747   3.926   1.299
    0V3OU   H19   49   3.827   3.907   1.356
    0V3OU   H20   50   3.663   3.908   1.352
    0V3OU   C21   51   3.853   3.898   1.077
    0V3OU   H11   52   3.956   3.900   1.124
    0V3OU    O5   53   3.821   4.028   1.030
    0V3OU   H18   54   3.804   4.083   1.108
    0V3OU   C22   55   3.948   3.855   0.847
    0V3OU   H12   56   3.915   3.957   0.814
    0V3OU   H13   57   3.945   3.786   0.759
    0V3OU   H14   58   4.052   3.861   0.886
    0V3OU   C11   59   3.131   3.453   0.938
    0V3OU    O1   60   3.107   3.573   0.920
    0V3OU    C9   61   3.267   3.404   0.969
    0V3OU    C7   62   3.380   3.479   0.935
    0V3OU    O9   63   3.376   3.600   0.870
    0V3OU   H25   64   3.285   3.624   0.847
    0V3OU   C17   65   2.804   3.276   0.856
    0V3OU    H7   66   2.712   3.293   0.799
    0V3OU   C18   67   2.822   3.157   0.925
    0V3OU    H8   68   2.742   3.081   0.924
   7.00000   7.00000   7.00000
