CNT in water
33518
    1C        C    1   2.820   2.744   4.779
    1C        C    2   2.880   2.700   4.906
    1C        C    3   2.841   2.770   5.026
    1C        C    4   2.814   2.736   4.273
    1C        C    5   2.868   2.688   4.399
    1C        C    6   2.815   2.739   4.526
    1C        C    7   2.995   2.616   4.651
    1C        C    8   2.872   2.694   4.652
    1C        C    9   3.060   2.581   4.777
    1C        C   10   2.996   2.611   4.904
    1C        C   11   3.158   2.452   5.015
    1C        C   12   3.039   2.532   5.017
    1C        C   13   2.816   2.734   3.768
    1C        C   14   2.868   2.683   3.894
    1C        C   15   2.815   2.735   4.020
    1C        C   16   2.988   2.603   4.147
    1C        C   17   2.867   2.685   4.147
    1C        C   18   3.053   2.571   4.273
    1C        C   19   2.991   2.609   4.399
    1C        C   20   3.192   2.522   4.524
    1C        C   21   3.056   2.577   4.525
    1C        C   22   3.261   2.498   4.650
    1C        C   23   3.194   2.521   4.776
    1C        C   24   3.397   2.449   4.903
    1C        C   25   3.250   2.465   4.900
    1C        C   26   3.473   2.458   5.024
    1C        C   27   2.816   2.730   3.263
    1C        C   28   2.869   2.681   3.389
    1C        C   29   2.818   2.734   3.515
    1C        C   30   2.987   2.596   3.642
    1C        C   31   2.869   2.683   3.642
    1C        C   32   3.049   2.558   3.768
    1C        C   33   2.986   2.598   3.894
    1C        C   34   3.184   2.506   4.020
    1C        C   35   3.049   2.561   4.021
    1C        C   36   3.256   2.490   4.146
    1C        C   37   3.189   2.518   4.272
    1C        C   38   3.401   2.461   4.397
    1C        C   39   3.259   2.495   4.398
    1C        C   40   3.473   2.448   4.523
    1C        C   41   3.402   2.461   4.650
    1C        C   42   3.620   2.447   4.776
    1C        C   43   3.472   2.442   4.776
    1C        C   44   3.692   2.461   4.903
    1C        C   45   3.614   2.467   5.025
    1C        C   46   2.806   2.717   2.758
    1C        C   47   2.861   2.670   2.885
    1C        C   48   2.810   2.723   3.011
    1C        C   49   2.982   2.588   3.137
    1C        C   50   2.865   2.675   3.137
    1C        C   51   3.046   2.552   3.263
    1C        C   52   2.986   2.593   3.390
    1C        C   53   3.183   2.499   3.515
    1C        C   54   3.048   2.555   3.516
    1C        C   55   3.253   2.477   3.642
    1C        C   56   3.184   2.502   3.768
    1C        C   57   3.398   2.458   3.893
    1C        C   58   3.253   2.480   3.894
    1C        C   59   3.471   2.457   4.019
    1C        C   60   3.400   2.468   4.145
    1C        C   61   3.618   2.456   4.270
    1C        C   62   3.472   2.453   4.271
    1C        C   63   3.691   2.464   4.396
    1C        C   64   3.619   2.453   4.523
    1C        C   65   3.830   2.506   4.648
    1C        C   66   3.692   2.459   4.649
    1C        C   67   3.898   2.532   4.773
    1C        C   68   3.834   2.499   4.900
    1C        C   69   4.044   2.557   5.021
    1C        C   70   3.920   2.486   5.013
    1C        C   71   2.799   2.706   2.253
    1C        C   72   2.854   2.659   2.379
    1C        C   73   2.802   2.712   2.505
    1C        C   74   2.979   2.584   2.632
    1C        C   75   2.857   2.665   2.632
    1C        C   76   3.044   2.550   2.758
    1C        C   77   2.982   2.588   2.885
    1C        C   78   3.182   2.500   3.011
    1C        C   79   3.045   2.550   3.011
    1C        C   80   3.253   2.480   3.137
    1C        C   81   3.183   2.500   3.263
    1C        C   82   3.396   2.449   3.388
    1C        C   83   3.252   2.475   3.389
    1C        C   84   3.470   2.442   3.515
    1C        C   85   3.397   2.451   3.641
    1C        C   86   3.616   2.454   3.766
    1C        C   87   3.470   2.447   3.767
    1C        C   88   3.689   2.465   3.892
    1C        C   89   3.617   2.461   4.018
    1C        C   90   3.830   2.506   4.144
    1C        C   91   3.690   2.465   4.144
    1C        C   92   3.899   2.533   4.270
    1C        C   93   3.831   2.507   4.396
    1C        C   94   4.029   2.599   4.521
    1C        C   95   3.899   2.532   4.522
    1C        C   96   4.092   2.636   4.647
    1C        C   97   4.029   2.599   4.773
    1C        C   98   4.184   2.744   4.901
    1C        C   99   4.097   2.625   4.901
    1C        C  100   4.186   2.837   5.011
    1C        C  101   2.800   2.709   2.004
    1C        C  102   2.970   2.563   2.126
    1C        C  103   2.849   2.650   2.126
    1C        C  104   3.040   2.544   2.254
    1C        C  105   2.978   2.582   2.380
    1C        C  106   3.179   2.496   2.506
    1C        C  107   3.042   2.546   2.506
    1C        C  108   3.249   2.476   2.632
    1C        C  109   3.181   2.499   2.758
    1C        C  110   3.395   2.452   2.884
    1C        C  111   3.251   2.477   2.884
    1C        C  112   3.468   2.444   3.010
    1C        C  113   3.396   2.454   3.136
    1C        C  114   3.615   2.449   3.261
    1C        C  115   3.469   2.442   3.262
    1C        C  116   3.688   2.459   3.387
    1C        C  117   3.616   2.451   3.514
    1C        C  118   3.831   2.497   3.639
    1C        C  119   3.689   2.461   3.640
    1C        C  120   3.900   2.525   3.765
    1C        C  121   3.830   2.505   3.891
    1C        C  122   4.025   2.603   4.017
    1C        C  123   3.899   2.530   4.017
    1C        C  124   4.087   2.643   4.143
    1C        C  125   4.026   2.604   4.269
    1C        C  126   4.205   2.731   4.395
    1C        C  127   4.091   2.639   4.395
    1C        C  128   4.257   2.782   4.522
    1C        C  129   4.204   2.731   4.648
    1C        C  130   4.331   2.910   4.773
    1C        C  131   4.249   2.788   4.775
    1C        C  132   4.342   2.990   4.896
    1C        C  133   4.259   2.956   5.008
    1C        C  134   3.155   2.436   2.014
    1C        C  135   3.019   2.480   2.014
    1C        C  136   3.242   2.451   2.129
    1C        C  137   3.179   2.496   2.253
    1C        C  138   3.392   2.450   2.379
    1C        C  139   3.249   2.475   2.379
    1C        C  140   3.465   2.442   2.505
    1C        C  141   3.393   2.450   2.631
    1C        C  142   3.612   2.448   2.756
    1C        C  143   3.467   2.443   2.757
    1C        C  144   3.686   2.457   2.882
    1C        C  145   3.614   2.448   3.009
    1C        C  146   3.828   2.495   3.134
    1C        C  147   3.688   2.455   3.135
    1C        C  148   3.897   2.522   3.260
    1C        C  149   3.829   2.498   3.386
    1C        C  150   4.030   2.586   3.512
    1C        C  151   3.900   2.519   3.512
    1C        C  152   4.092   2.627   3.638
    1C        C  153   4.029   2.593   3.764
    1C        C  154   4.205   2.725   3.889
    1C        C  155   4.089   2.636   3.890
    1C        C  156   4.259   2.776   4.015
    1C        C  157   4.203   2.731   4.142
    1C        C  158   4.351   2.893   4.267
    1C        C  159   4.259   2.780   4.268
    1C        C  160   4.391   2.955   4.393
    1C        C  161   4.346   2.898   4.521
    1C        C  162   4.448   3.094   4.644
    1C        C  163   4.380   2.964   4.646
    1C        C  164   4.467   3.168   4.768
    1C        C  165   4.420   3.113   4.895
    1C        C  166   4.514   3.308   5.015
    1C        C  167   4.463   3.176   5.017
    1C        C  168   3.465   2.413   2.005
    1C        C  169   3.388   2.433   2.126
    1C        C  170   3.610   2.436   2.252
    1C        C  171   3.463   2.435   2.252
    1C        C  172   3.683   2.449   2.377
    1C        C  173   3.611   2.445   2.504
    1C        C  174   3.825   2.496   2.628
    1C        C  175   3.684   2.455   2.629
    1C        C  176   3.894   2.522   2.754
    1C        C  177   3.826   2.498   2.881
    1C        C  178   4.026   2.586   3.006
    1C        C  179   3.896   2.521   3.007
    1C        C  180   4.090   2.624   3.132
    1C        C  181   4.027   2.588   3.259
    1C        C  182   4.206   2.714   3.384
    1C        C  183   4.092   2.624   3.385
    1C        C  184   4.260   2.766   3.509
    1C        C  185   4.206   2.719   3.637
    1C        C  186   4.353   2.884   3.761
    1C        C  187   4.260   2.771   3.762
    1C        C  188   4.395   2.946   3.887
    1C        C  189   4.352   2.889   4.014
    1C        C  190   4.467   3.077   4.138
    1C        C  191   4.397   2.949   4.140
    1C        C  192   4.494   3.147   4.264
    1C        C  193   4.460   3.084   4.391
    1C        C  194   4.527   3.295   4.514
    1C        C  195   4.485   3.156   4.517
    1C        C  196   4.541   3.371   4.639
    1C        C  197   4.519   3.305   4.766
    1C        C  198   4.564   3.525   4.890
    1C        C  199   4.539   3.379   4.893
    1C        C  200   4.592   3.610   5.007
    1C        C  201   3.605   2.384   2.007
    1C        C  202   3.822   2.477   2.122
    1C        C  203   3.683   2.424   2.125
    1C        C  204   3.892   2.509   2.248
    1C        C  205   3.823   2.490   2.375
    1C        C  206   4.024   2.582   2.499
    1C        C  207   3.893   2.517   2.501
    1C        C  208   4.089   2.619   2.625
    1C        C  209   4.025   2.586   2.753
    1C        C  210   4.207   2.707   2.877
    1C        C  211   4.090   2.621   2.879
    1C        C  212   4.261   2.758   3.004
    1C        C  213   4.206   2.712   3.131
    1C        C  214   4.353   2.875   3.255
    1C        C  215   4.261   2.761   3.257
    1C        C  216   4.393   2.938   3.381
    1C        C  217   4.351   2.880   3.508
    1C        C  218   4.456   3.074   3.632
    1C        C  219   4.394   2.942   3.634
    1C        C  220   4.486   3.142   3.757
    1C        C  221   4.460   3.076   3.885
    1C        C  222   4.528   3.286   4.008
    1C        C  223   4.494   3.144   4.010
    1C        C  224   4.539   3.360   4.133
    1C        C  225   4.529   3.290   4.261
    1C        C  226   4.543   3.511   4.383
    1C        C  227   4.541   3.365   4.386
    1C        C  228   4.539   3.587   4.508
    1C        C  229   4.546   3.517   4.636
    1C        C  230   4.511   3.735   4.758
    1C        C  231   4.550   3.593   4.760
    1C        C  232   4.501   3.810   4.883
    1C        C  233   4.555   3.748   5.001
    1C        C  234   4.005   2.594   1.997
    1C        C  235   3.884   2.522   2.000
    1C        C  236   4.078   2.625   2.118
    1C        C  237   4.021   2.581   2.246
    1C        C  238   4.205   2.704   2.371
    1C        C  239   4.087   2.617   2.372
    1C        C  240   4.261   2.752   2.497
    1C        C  241   4.207   2.705   2.624
    1C        C  242   4.354   2.867   2.749
    1C        C  243   4.263   2.753   2.750
    1C        C  244   4.394   2.931   2.875
    1C        C  245   4.352   2.872   3.002
    1C        C  246   4.457   3.065   3.126
    1C        C  247   4.395   2.933   3.128
    1C        C  248   4.482   3.136   3.252
    1C        C  249   4.454   3.070   3.379
    1C        C  250   4.519   3.281   3.503
    1C        C  251   4.482   3.140   3.504
    1C        C  252   4.534   3.354   3.628
    1C        C  253   4.522   3.284   3.755
    1C        C  254   4.541   3.503   3.878
    1C        C  255   4.538   3.357   3.881
    1C        C  256   4.537   3.578   4.004
    1C        C  257   4.540   3.506   4.131
    1C        C  258   4.509   3.725   4.254
    1C        C  259   4.538   3.582   4.256
    1C        C  260   4.489   3.797   4.379
    1C        C  261   4.507   3.729   4.506
    1C        C  262   4.432   3.936   4.629
    1C        C  263   4.489   3.802   4.631
    1C        C  264   4.402   4.004   4.754
    1C        C  265   4.433   3.940   4.883
    1C        C  266   4.312   4.124   5.000
    1C        C  267   4.374   3.997   5.002
    1C        C  268   4.261   2.754   1.995
    1C        C  269   4.199   2.708   2.117
    1C        C  270   4.356   2.863   2.243
    1C        C  271   4.259   2.752   2.244
    1C        C  272   4.396   2.924   2.369
    1C        C  273   4.354   2.865   2.496
    1C        C  274   4.460   3.058   2.621
    1C        C  275   4.397   2.926   2.622
    1C        C  276   4.485   3.128   2.747
    1C        C  277   4.456   3.063   2.874
    1C        C  278   4.522   3.273   2.997
    1C        C  279   4.485   3.131   2.999
    1C        C  280   4.533   3.347   3.123
    1C        C  281   4.516   3.278   3.250
    1C        C  282   4.543   3.496   3.373
    1C        C  283   4.533   3.351   3.375
    1C        C  284   4.542   3.571   3.499
    1C        C  285   4.542   3.500   3.626
    1C        C  286   4.520   3.720   3.749
    1C        C  287   4.542   3.575   3.751
    1C        C  288   4.499   3.792   3.874
    1C        C  289   4.512   3.722   4.001
    1C        C  290   4.442   3.931   4.124
    1C        C  291   4.495   3.795   4.126
    1C        C  292   4.408   3.999   4.249
    1C        C  293   4.435   3.933   4.376
    1C        C  294   4.332   4.128   4.499
    1C        C  295   4.404   4.002   4.502
    1C        C  296   4.291   4.191   4.624
    1C        C  297   4.331   4.134   4.752
    1C        C  298   4.200   4.316   4.874
    1C        C  299   4.285   4.195   4.878
    1C        C  300   4.178   4.410   4.985
    1C        C  301   4.350   2.863   1.995
    1C        C  302   4.473   3.050   2.114
    1C        C  303   4.402   2.921   2.115
    1C        C  304   4.488   3.121   2.242
    1C        C  305   4.458   3.056   2.369
    1C        C  306   4.523   3.266   2.492
    1C        C  307   4.488   3.124   2.494
    1C        C  308   4.536   3.339   2.618
    1C        C  309   4.522   3.269   2.745
    1C        C  310   4.546   3.488   2.868
    1C        C  311   4.538   3.342   2.870
    1C        C  312   4.542   3.563   2.993
    1C        C  313   4.542   3.492   3.121
    1C        C  314   4.516   3.711   3.244
    1C        C  315   4.542   3.567   3.246
    1C        C  316   4.498   3.783   3.369
    1C        C  317   4.518   3.715   3.496
    1C        C  318   4.448   3.925   3.619
    1C        C  319   4.504   3.790   3.622
    1C        C  320   4.415   3.993   3.744
    1C        C  321   4.444   3.927   3.872
    1C        C  322   4.333   4.118   3.994
    1C        C  323   4.411   3.995   3.997
    1C        C  324   4.292   4.181   4.119
    1C        C  325   4.333   4.124   4.247
    1C        C  326   4.196   4.297   4.369
    1C        C  327   4.293   4.188   4.372
    1C        C  328   4.142   4.349   4.494
    1C        C  329   4.193   4.299   4.621
    1C        C  330   4.024   4.443   4.743
    1C        C  331   4.143   4.355   4.745
    1C        C  332   3.973   4.501   4.868
    1C        C  333   4.059   4.490   4.983
    1C        C  334   4.563   3.251   1.997
    1C        C  335   4.543   3.109   1.999
    1C        C  336   4.545   3.333   2.114
    1C        C  337   4.519   3.265   2.240
    1C        C  338   4.537   3.483   2.363
    1C        C  339   4.534   3.337   2.365
    1C        C  340   4.535   3.557   2.488
    1C        C  341   4.539   3.485   2.616
    1C        C  342   4.511   3.703   2.739
    1C        C  343   4.541   3.560   2.741
    1C        C  344   4.494   3.775   2.864
    1C        C  345   4.514   3.706   2.991
    1C        C  346   4.438   3.913   3.115
    1C        C  347   4.497   3.779   3.117
    1C        C  348   4.405   3.979   3.240
    1C        C  349   4.438   3.916   3.367
    1C        C  350   4.332   4.109   3.490
    1C        C  351   4.411   3.986   3.492
    1C        C  352   4.292   4.172   3.615
    1C        C  353   4.337   4.116   3.742
    1C        C  354   4.189   4.280   3.865
    1C        C  355   4.291   4.176   3.867
    1C        C  356   4.136   4.334   3.990
    1C        C  357   4.193   4.289   4.117
    1C        C  358   4.019   4.425   4.241
    1C        C  359   4.142   4.344   4.242
    1C        C  360   3.957   4.464   4.366
    1C        C  361   4.021   4.431   4.492
    1C        C  362   3.826   4.530   4.618
    1C        C  363   3.960   4.475   4.617
    1C        C  364   3.760   4.560   4.744
    1C        C  365   3.835   4.551   4.871
    1C        C  366   3.622   4.594   4.994
    1C        C  367   3.761   4.569   4.993
    1C        C  368   4.491   3.550   1.992
    1C        C  369   4.530   3.479   2.110
    1C        C  370   4.520   3.701   2.234
    1C        C  371   4.536   3.555   2.236
    1C        C  372   4.501   3.773   2.360
    1C        C  373   4.511   3.701   2.487
    1C        C  374   4.435   3.906   2.611
    1C        C  375   4.490   3.771   2.612
    1C        C  376   4.404   3.973   2.736
    1C        C  377   4.437   3.909   2.863
    1C        C  378   4.329   4.101   2.986
    1C        C  379   4.406   3.977   2.988
    1C        C  380   4.286   4.162   3.111
    1C        C  381   4.327   4.103   3.238
    1C        C  382   4.185   4.270   3.362
    1C        C  383   4.287   4.166   3.363
    1C        C  384   4.131   4.319   3.487
    1C        C  385   4.188   4.275   3.613
    1C        C  386   4.009   4.403   3.738
    1C        C  387   4.133   4.325   3.739
    1C        C  388   3.948   4.444   3.863
    1C        C  389   4.014   4.413   3.989
    1C        C  390   3.817   4.508   4.115
    1C        C  391   3.953   4.455   4.115
    1C        C  392   3.749   4.534   4.241
    1C        C  393   3.821   4.517   4.366
    1C        C  394   3.609   4.569   4.494
    1C        C  395   3.753   4.547   4.493
    1C        C  396   3.538   4.579   4.622
    1C        C  397   3.614   4.576   4.747
    1C        C  398   3.400   4.550   4.877
    1C        C  399   3.543   4.583   4.874
    1C        C  400   3.335   4.496   4.993
    1C        C  401   4.492   3.692   1.987
    1C        C  402   4.461   3.913   2.107
    1C        C  403   4.501   3.772   2.106
    1C        C  404   4.426   3.977   2.233
    1C        C  405   4.451   3.910   2.359
    1C        C  406   4.337   4.099   2.483
    1C        C  407   4.413   3.975   2.485
    1C        C  408   4.291   4.159   2.608
    1C        C  409   4.329   4.098   2.734
    1C        C  410   4.185   4.265   2.857
    1C        C  411   4.287   4.159   2.859
    1C        C  412   4.130   4.315   2.983
    1C        C  413   4.184   4.267   3.110
    1C        C  414   4.008   4.397   3.234
    1C        C  415   4.131   4.318   3.235
    1C        C  416   3.943   4.432   3.359
    1C        C  417   4.007   4.397   3.486
    1C        C  418   3.808   4.489   3.611
    1C        C  419   3.944   4.435   3.611
    1C        C  420   3.742   4.521   3.737
    1C        C  421   3.813   4.501   3.863
    1C        C  422   3.604   4.561   3.990
    1C        C  423   3.746   4.530   3.989
    1C        C  424   3.532   4.568   4.117
    1C        C  425   3.605   4.559   4.242
    1C        C  426   3.389   4.567   4.372
    1C        C  427   3.535   4.573   4.369
    1C        C  428   3.318   4.561   4.499
    1C        C  429   3.392   4.570   4.624
    1C        C  430   3.177   4.528   4.755
    1C        C  431   3.323   4.555   4.752
    1C        C  432   3.111   4.496   4.883
    1C        C  433   3.196   4.478   4.998
    1C        C  434   4.397   4.126   1.987
    1C        C  435   4.463   3.999   1.991
    1C        C  436   4.315   4.166   2.103
    1C        C  437   4.346   4.101   2.231
    1C        C  438   4.190   4.258   2.353
    1C        C  439   4.297   4.159   2.356
    1C        C  440   4.134   4.308   2.478
    1C        C  441   4.188   4.263   2.605
    1C        C  442   4.011   4.394   2.729
    1C        C  443   4.133   4.314   2.730
    1C        C  444   3.947   4.432   2.855
    1C        C  445   4.009   4.396   2.981
    1C        C  446   3.810   4.490   3.106
    1C        C  447   3.946   4.434   3.107
    1C        C  448   3.740   4.512   3.232
    1C        C  449   3.808   4.486   3.359
    1C        C  450   3.598   4.550   3.485
    1C        C  451   3.739   4.512   3.485
    1C        C  452   3.528   4.567   3.611
    1C        C  453   3.601   4.559   3.737
    1C        C  454   3.384   4.572   3.865
    1C        C  455   3.530   4.574   3.864
    1C        C  456   3.313   4.562   3.993
    1C        C  457   3.386   4.565   4.119
    1C        C  458   3.173   4.528   4.248
    1C        C  459   3.315   4.560   4.246
    1C        C  460   3.103   4.508   4.375
    1C        C  461   3.175   4.529   4.501
    1C        C  462   2.974   4.446   4.630
    1C        C  463   3.106   4.508   4.629
    1C        C  464   2.909   4.413   4.757
    1C        C  465   2.969   4.452   4.885
    1C        C  466   2.780   4.343   5.004
    1C        C  467   2.883   4.442   5.005
    1C        C  468   4.114   4.264   1.979
    1C        C  469   4.190   4.245   2.099
    1C        C  470   4.006   4.373   2.223
    1C        C  471   4.133   4.298   2.225
    1C        C  472   3.943   4.413   2.349
    1C        C  473   4.009   4.385   2.476
    1C        C  474   3.810   4.477   2.601
    1C        C  475   3.947   4.425   2.602
    1C        C  476   3.740   4.503   2.727
    1C        C  477   3.810   4.485   2.854
    1C        C  478   3.598   4.544   2.979
    1C        C  479   3.742   4.513   2.980
    1C        C  480   3.526   4.556   3.106
    1C        C  481   3.598   4.545   3.232
    1C        C  482   3.380   4.563   3.359
    1C        C  483   3.526   4.561   3.358
    1C        C  484   3.308   4.560   3.486
    1C        C  485   3.382   4.568   3.612
    1C        C  486   3.170   4.524   3.741
    1C        C  487   3.310   4.564   3.740
    1C        C  488   3.103   4.498   3.868
    1C        C  489   3.172   4.524   3.994
    1C        C  490   2.973   4.438   4.123
    1C        C  491   3.102   4.505   4.121
    1C        C  492   2.910   4.404   4.250
    1C        C  493   2.972   4.445   4.376
    1C        C  494   2.800   4.312   4.505
    1C        C  495   2.910   4.408   4.504
    1C        C  496   2.749   4.262   4.632
    1C        C  497   2.797   4.317   4.758
    1C        C  498   2.640   4.162   4.885
    1C        C  499   2.734   4.277   4.884
    1C        C  500   2.563   4.116   4.999
    1C        C  501   3.988   4.326   1.979
    1C        C  502   3.802   4.454   2.095
    1C        C  503   3.934   4.390   2.096
    1C        C  504   3.736   4.479   2.223
    1C        C  505   3.807   4.464   2.349
    1C        C  506   3.596   4.524   2.475
    1C        C  507   3.739   4.494   2.475
    1C        C  508   3.524   4.536   2.601
    1C        C  509   3.597   4.530   2.727
    1C        C  510   3.379   4.547   2.854
    1C        C  511   3.525   4.547   2.853
    1C        C  512   3.306   4.544   2.981
    1C        C  513   3.380   4.555   3.106
    1C        C  514   3.165   4.517   3.235
    1C        C  515   3.307   4.554   3.233
    1C        C  516   3.097   4.496   3.362
    1C        C  517   3.167   4.522   3.488
    1C        C  518   2.971   4.430   3.617
    1C        C  519   3.099   4.500   3.615
    1C        C  520   2.912   4.390   3.744
    1C        C  521   2.976   4.427   3.870
    1C        C  522   2.800   4.301   3.999
    1C        C  523   2.912   4.394   3.997
    1C        C  524   2.748   4.253   4.126
    1C        C  525   2.800   4.308   4.252
    1C        C  526   2.662   4.141   4.381
    1C        C  527   2.748   4.259   4.379
    1C        C  528   2.623   4.081   4.508
    1C        C  529   2.664   4.144   4.633
    1C        C  530   2.558   3.956   4.762
    1C        C  531   2.617   4.090   4.759
    1C        C  532   2.511   3.899   4.889
    1C        C  533   2.488   3.993   4.999
    1C        C  534   3.609   4.566   1.978
    1C        C  535   3.742   4.513   1.978
    1C        C  536   3.526   4.545   2.097
    1C        C  537   3.595   4.517   2.224
    1C        C  538   3.377   4.530   2.349
    1C        C  539   3.523   4.531   2.350
    1C        C  540   3.304   4.528   2.476
    1C        C  541   3.378   4.536   2.602
    1C        C  542   3.162   4.505   2.729
    1C        C  543   3.305   4.538   2.728
    1C        C  544   3.094   4.485   2.857
    1C        C  545   3.164   4.509   2.982
    1C        C  546   2.965   4.424   3.112
    1C        C  547   3.095   4.491   3.109
    1C        C  548   2.905   4.386   3.239
    1C        C  549   2.968   4.426   3.364
    1C        C  550   2.796   4.294   3.494
    1C        C  551   2.907   4.389   3.492
    1C        C  552   2.745   4.245   3.621
    1C        C  553   2.799   4.296   3.746
    1C        C  554   2.659   4.132   3.876
    1C        C  555   2.746   4.249   3.874
    1C        C  556   2.622   4.072   4.004
    1C        C  557   2.662   4.135   4.129
    1C        C  558   2.561   3.944   4.258
    1C        C  559   2.623   4.076   4.256
    1C        C  560   2.533   3.879   4.385
    1C        C  561   2.561   3.949   4.510
    1C        C  562   2.500   3.743   4.641
    1C        C  563   2.532   3.885   4.637
    1C        C  564   2.487   3.675   4.769
    1C        C  565   2.495   3.752   4.894
    1C        C  566   2.523   3.538   5.019
    1C        C  567   2.520   3.679   5.015
    1C        C  568   3.320   4.450   1.985
    1C        C  569   3.382   4.514   2.097
    1C        C  570   3.162   4.487   2.223
    1C        C  571   3.306   4.520   2.223
    1C        C  572   3.092   4.471   2.350
    1C        C  573   3.162   4.497   2.476
    1C        C  574   2.959   4.419   2.606
    1C        C  575   3.091   4.482   2.604
    1C        C  576   2.899   4.381   2.734
    1C        C  577   2.964   4.419   2.859
    1C        C  578   2.791   4.288   2.989
    1C        C  579   2.902   4.384   2.986
    1C        C  580   2.741   4.238   3.116
    1C        C  581   2.795   4.290   3.241
    1C        C  582   2.654   4.125   3.371
    1C        C  583   2.743   4.241   3.369
    1C        C  584   2.615   4.065   3.499
    1C        C  585   2.657   4.128   3.624
    1C        C  586   2.558   3.936   3.754
    1C        C  587   2.618   4.069   3.751
    1C        C  588   2.535   3.869   3.881
    1C        C  589   2.562   3.939   4.006
    1C        C  590   2.494   3.733   4.136
    1C        C  591   2.533   3.874   4.133
    1C        C  592   2.480   3.664   4.263
    1C        C  593   2.496   3.738   4.388
    1C        C  594   2.475   3.523   4.519
    1C        C  595   2.484   3.669   4.516
    1C        C  596   2.482   3.453   4.647
    1C        C  597   2.484   3.528   4.772
    1C        C  598   2.511   3.312   4.902
    1C        C  599   2.503   3.458   4.900
    1C        C  600   2.505   3.234   5.022
    1C        C  601   3.185   4.414   1.985
    1C        C  602   2.959   4.395   2.098
    1C        C  603   3.100   4.440   2.098
    1C        C  604   2.896   4.369   2.228
    1C        C  605   2.960   4.410   2.353
    1C        C  606   2.784   4.284   2.484
    1C        C  607   2.895   4.378   2.481
    1C        C  608   2.735   4.232   2.612
    1C        C  609   2.789   4.285   2.736
    1C        C  610   2.647   4.120   2.866
    1C        C  611   2.736   4.236   2.864
    1C        C  612   2.610   4.060   2.993
    1C        C  613   2.652   4.121   3.119
    1C        C  614   2.548   3.932   3.248
    1C        C  615   2.612   4.063   3.246
    1C        C  616   2.522   3.865   3.376
    1C        C  617   2.552   3.934   3.501
    1C        C  618   2.489   3.726   3.631
    1C        C  619   2.527   3.867   3.629
    1C        C  620   2.477   3.656   3.758
    1C        C  621   2.497   3.728   3.883
    1C        C  622   2.461   3.514   4.013
    1C        C  623   2.478   3.659   4.011
    1C        C  624   2.462   3.443   4.141
    1C        C  625   2.467   3.519   4.266
    1C        C  626   2.494   3.304   4.396
    1C        C  627   2.470   3.448   4.394
    1C        C  628   2.516   3.235   4.523
    1C        C  629   2.506   3.309   4.648
    1C        C  630   2.567   3.099   4.776
    1C        C  631   2.525   3.240   4.775
    1C        C  632   2.583   3.028   4.904
    1C        C  633   2.527   3.093   5.023
    1C        C  634   2.755   4.301   1.988
    1C        C  635   2.875   4.378   1.978
    1C        C  636   2.718   4.234   2.109
    1C        C  637   2.778   4.282   2.233
    1C        C  638   2.647   4.110   2.362
    1C        C  639   2.728   4.232   2.360
    1C        C  640   2.610   4.049   2.488
    1C        C  641   2.650   4.113   2.614
    1C        C  642   2.545   3.923   2.743
    1C        C  643   2.607   4.056   2.741
    1C        C  644   2.521   3.857   2.871
    1C        C  645   2.549   3.927   2.996
    1C        C  646   2.486   3.720   3.126
    1C        C  647   2.521   3.861   3.123
    1C        C  648   2.472   3.650   3.253
    1C        C  649   2.486   3.724   3.378
    1C        C  650   2.458   3.508   3.508
    1C        C  651   2.471   3.654   3.506
    1C        C  652   2.457   3.436   3.635
    1C        C  653   2.460   3.511   3.761
    1C        C  654   2.478   3.294   3.890
    1C        C  655   2.456   3.439   3.888
    1C        C  656   2.500   3.226   4.017
    1C        C  657   2.486   3.299   4.143
    1C        C  658   2.566   3.096   4.271
    1C        C  659   2.507   3.230   4.270
    1C        C  660   2.601   3.033   4.397
    1C        C  661   2.569   3.099   4.523
    1C        C  662   2.680   2.912   4.651
    1C        C  663   2.597   3.032   4.650
    1C        C  664   2.723   2.855   4.778
    1C        C  665   2.676   2.913   4.906
    1C        C  666   2.739   2.867   5.026
    1C        C  667   2.687   4.008   2.000
    1C        C  668   2.665   4.098   2.110
    1C        C  669   2.560   3.906   2.238
    1C        C  670   2.617   4.042   2.236
    1C        C  671   2.524   3.845   2.365
    1C        C  672   2.548   3.917   2.490
    1C        C  673   2.480   3.711   2.620
    1C        C  674   2.518   3.853   2.618
    1C        C  675   2.471   3.642   2.748
    1C        C  676   2.488   3.715   2.873
    1C        C  677   2.459   3.501   3.003
    1C        C  678   2.473   3.646   3.001
    1C        C  679   2.458   3.429   3.130
    1C        C  680   2.461   3.505   3.255
    1C        C  681   2.483   3.290   3.384
    1C        C  682   2.458   3.433   3.382
    1C        C  683   2.502   3.221   3.512
    1C        C  684   2.483   3.293   3.637
    1C        C  685   2.563   3.091   3.765
    1C        C  686   2.498   3.222   3.764
    1C        C  687   2.599   3.029   3.892
    1C        C  688   2.563   3.094   4.018
    1C        C  689   2.680   2.909   4.145
    1C        C  690   2.597   3.030   4.145
    1C        C  691   2.726   2.853   4.272
    1C        C  692   2.683   2.913   4.398
    1C        C  693   2.725   2.854   4.525
    1C        C  694   2.638   3.876   2.003
    1C        C  695   2.509   3.690   2.117
    1C        C  696   2.566   3.825   2.116
    1C        C  697   2.471   3.629   2.244
    1C        C  698   2.478   3.706   2.368
    1C        C  699   2.442   3.493   2.499
    1C        C  700   2.459   3.638   2.496
    1C        C  701   2.448   3.422   2.626
    1C        C  702   2.457   3.497   2.751
    1C        C  703   2.477   3.281   2.880
    1C        C  704   2.456   3.425   2.878
    1C        C  705   2.495   3.211   3.007
    1C        C  706   2.480   3.285   3.132
    1C        C  707   2.557   3.082   3.260
    1C        C  708   2.497   3.216   3.259
    1C        C  709   2.597   3.022   3.387
    1C        C  710   2.565   3.089   3.513
    1C        C  711   2.683   2.907   3.641
    1C        C  712   2.599   3.026   3.640
    1C        C  713   2.728   2.851   3.767
    1C        C  714   2.684   2.910   3.893
    1C        C  715   2.726   2.851   4.020
    1C        C  716   2.417   3.490   1.996
    1C        C  717   2.475   3.620   1.997
    1C        C  718   2.421   3.411   2.120
    1C        C  719   2.436   3.486   2.246
    1C        C  720   2.470   3.274   2.376
    1C        C  721   2.437   3.416   2.374
    1C        C  722   2.496   3.207   2.502
    1C        C  723   2.477   3.279   2.627
    1C        C  724   2.553   3.074   2.755
    1C        C  725   2.494   3.208   2.754
    1C        C  726   2.587   3.011   2.882
    1C        C  727   2.554   3.078   3.008
    1C        C  728   2.675   2.897   3.136
    1C        C  729   2.588   3.014   3.135
    1C        C  730   2.727   2.846   3.262
    1C        C  731   2.685   2.906   3.388
    1C        C  732   2.729   2.849   3.515
    1C        C  733   2.464   3.184   2.004
    1C        C  734   2.454   3.266   2.123
    1C        C  735   2.553   3.069   2.251
    1C        C  736   2.485   3.201   2.251
    1C        C  737   2.593   3.009   2.377
    1C        C  738   2.561   3.076   2.503
    1C        C  739   2.671   2.889   2.631
    1C        C  740   2.590   3.010   2.630
    1C        C  741   2.717   2.833   2.757
    1C        C  742   2.673   2.893   2.883
    1C        C  743   2.719   2.837   3.010
    1C        C  744   2.520   3.055   2.005
    1C        C  745   2.665   2.880   2.124
    1C        C  746   2.577   2.999   2.125
    1C        C  747   2.711   2.825   2.252
    1C        C  748   2.673   2.888   2.378
    1C        C  749   2.714   2.829   2.505
    1C        C  750   2.721   2.826   2.003
    1C        C  751   3.640   2.262   1.929
    1C        O  752   3.611   2.147   1.970
    1C        O  753   3.732   2.261   1.823
    1C        C  754   4.637   3.029   1.916
    1C        O  755   4.638   3.037   1.790
    1C        O  756   4.759   2.984   1.968
    1C        C  757   4.461   4.229   1.901
    1C        O  758   4.536   4.318   1.948
    1C        O  759   4.413   4.255   1.772
    1C        C  760   3.589   4.688   1.895
    1C        O  761   3.599   4.801   1.949
    1C        O  762   3.613   4.690   1.756
    1C        C  763   2.891   4.455   1.851
    1C        O  764   2.888   4.393   1.741
    1C        O  765   2.832   4.582   1.843
    1C        C  766   2.311   3.473   1.892
    1C        O  767   2.190   3.475   1.927
    1C        O  768   2.327   3.530   1.765
    1C        C  769   4.684   3.573   5.118
    1C        O  770   4.645   3.581   5.238
    1C        O  771   4.792   3.485   5.101
    1C        C  772   4.294   4.475   5.050
    1C        O  773   4.327   4.447   5.168
    1C        O  774   4.354   4.591   4.997
    1C        C  775   4.103   2.562   5.156
    1C        O  776   4.187   2.476   5.194
    1C        O  777   4.034   2.626   5.259
    1C        C  778   2.885   4.536   5.123
    1C        O  779   2.797   4.532   5.214
    1C        O  780   2.944   4.664   5.122
    1C        C  781   2.434   3.019   5.113
    1C        O  782   2.310   3.021   5.091
    1C        O  783   2.465   2.994   5.246
    1C        C  784   2.353   4.002   5.060
    1C        O  785   2.253   4.031   4.988
    1C        O  786   2.319   3.931   5.176
    1C        C  787   2.929   2.408   1.920
    1C        O  788   2.925   2.439   1.797
    1C        O  789   2.817   2.338   1.962
    1C        C  790   3.143   2.321   5.083
    1C        O  791   3.094   2.222   5.021
    1C        O  792   3.145   2.305   5.222
    1C        H  793   4.230   3.034   5.077
    1C        H  794   4.127   2.817   5.098
    1C        H  795   4.483   3.116   5.103
    1C        H  796   4.566   3.340   5.103
    1C        H  797   4.582   3.811   5.083
    1C        H  798   4.348   3.931   5.082
    1C        H  799   4.299   4.175   5.093
    1C        H  800   4.047   4.563   5.060
    1C        H  801   3.806   4.540   5.086
    1C        H  802   3.581   4.648   5.077
    1C        H  803   3.395   4.440   5.063
    1C        H  804   3.151   4.474   5.095
    1C        H  805   3.909   2.400   5.076
    1C        H  806   3.662   2.499   5.115
    1C        H  807   2.969   2.514   5.096
    1C        H  808   3.422   2.478   5.116
    1C        H  809   2.910   2.771   5.108
    1C        H  810   2.693   2.889   5.120
    1C        H  811   2.460   3.277   5.109
    1C        H  812   2.574   3.494   5.102
    1C        H  813   2.551   3.733   5.102
    1C        H  814   2.563   4.175   5.089
    1C        H  815   2.753   4.301   5.099
    1C        H  816   2.733   2.891   1.919
    1C        H  817   2.801   2.649   1.915
    1C        H  818   3.186   2.368   1.938
    1C        H  819   3.427   2.458   1.915
    1C        H  820   3.840   2.493   1.907
    1C        H  821   4.024   2.650   1.908
    1C        H  822   4.262   2.689   1.910
    1C        H  823   4.363   2.915   1.902
    1C        H  824   4.604   3.295   1.909
    1C        H  825   4.428   3.499   1.922
    1C        H  826   4.520   3.737   1.894
    1C        H  827   3.793   4.506   1.884
    1C        H  828   3.920   4.298   1.901
    1C        H  829   4.166   4.259   1.886
    1C        H  830   4.537   3.979   1.915
    1C        H  831   2.680   3.807   1.932
    1C        H  832   2.767   4.029   1.931
    1C        H  833   2.676   4.322   1.919
    1C        H  834   3.382   4.411   1.907
    1C        H  835   3.153   4.344   1.911
    1C        H  836   2.494   2.989   1.925
    1C        H  837   2.410   3.214   1.917
    1C        H  838   2.505   3.661   1.902
    2V3OU   H29  839   2.792   3.541   0.614
    2V3OU   C27  840   2.766   3.491   0.711
    2V3OU   H27  841   2.709   3.559   0.780
    2V3OU   H28  842   2.716   3.392   0.695
    2V3OU   O11  843   2.892   3.465   0.774
    2V3OU   C15  844   2.902   3.388   0.889
    2V3OU   C13  845   3.034   3.365   0.936
    2V3OU   C14  846   3.061   3.255   1.021
    2V3OU   C16  847   2.955   3.174   1.065
    2V3OU    H6  848   2.974   3.091   1.135
    2V3OU   C12  849   3.202   3.214   1.054
    2V3OU    O2  850   3.227   3.109   1.120
    2V3OU   C10  851   3.312   3.296   1.000
    2V3OU    C8  852   3.444   3.255   1.017
    2V3OU   O10  853   3.476   3.138   1.078
    2V3OU   H26  854   3.388   3.102   1.112
    2V3OU    C6  855   3.553   3.335   0.964
    2V3OU    C5  856   3.524   3.453   0.897
    2V3OU    C4  857   3.692   3.281   0.964
    2V3OU    H4  858   3.709   3.217   1.056
    2V3OU    H5  859   3.703   3.214   0.875
    2V3OU    C2  860   3.803   3.385   0.962
    2V3OU    O6  861   3.793   3.459   1.082
    2V3OU   H21  862   3.749   3.544   1.050
    2V3OU    C3  863   3.769   3.482   0.849
    2V3OU    H2  864   3.848   3.561   0.845
    2V3OU    H3  865   3.772   3.424   0.753
    2V3OU   C25  866   3.942   3.316   0.944
    2V3OU    O7  867   3.989   3.287   0.833
    2V3OU   C26  868   4.019   3.279   1.071
    2V3OU   H22  869   4.049   3.373   1.122
    2V3OU   H23  870   4.110   3.219   1.043
    2V3OU    O8  871   3.948   3.193   1.159
    2V3OU   H24  872   3.916   3.248   1.239
    2V3OU    C1  873   3.635   3.548   0.863
    2V3OU    H1  874   3.612   3.602   0.766
    2V3OU    O3  875   3.648   3.642   0.970
    2V3OU   C19  876   3.608   3.778   0.955
    2V3OU    H9  877   3.509   3.787   0.900
    2V3OU    O4  878   3.701   3.835   0.867
    2V3OU   C20  879   3.834   3.861   0.916
    2V3OU   H10  880   3.883   3.760   0.929
    2V3OU   C24  881   3.602   3.845   1.091
    2V3OU   H16  882   3.537   3.784   1.159
    2V3OU   H17  883   3.554   3.945   1.077
    2V3OU   C23  884   3.741   3.863   1.151
    2V3OU   H15  885   3.783   3.760   1.172
    2V3OU    N1  886   3.725   3.943   1.272
    2V3OU   H19  887   3.800   3.917   1.335
    2V3OU   H20  888   3.638   3.912   1.314
    2V3OU   C21  889   3.841   3.935   1.052
    2V3OU   H11  890   3.945   3.915   1.091
    2V3OU    O5  891   3.819   4.081   1.054
    2V3OU   H18  892   3.774   4.096   1.145
    2V3OU   C22  893   3.904   3.936   0.805
    2V3OU   H12  894   3.849   4.031   0.782
    2V3OU   H13  895   3.906   3.873   0.712
    2V3OU   H14  896   4.009   3.960   0.835
    2V3OU   C11  897   3.142   3.462   0.911
    2V3OU    O1  898   3.118   3.582   0.885
    2V3OU    C9  899   3.284   3.417   0.927
    2V3OU    C7  900   3.389   3.493   0.876
    2V3OU    O9  901   3.373   3.601   0.794
    2V3OU   H25  902   3.274   3.617   0.787
    2V3OU   C17  903   2.799   3.305   0.939
    2V3OU    H7  904   2.695   3.326   0.910
    2V3OU   C18  905   2.825   3.200   1.025
    2V3OU    H8  906   2.743   3.133   1.058
    3SOL     OW  907   0.259   0.681   0.094
    3SOL    HW1  908   0.168   0.644   0.080
    3SOL    HW2  909   0.322   0.642   0.027
    4SOL     OW  910   0.195   0.300   1.010
    4SOL    HW1  911   0.258   0.255   1.073
    4SOL    HW2  912   0.105   0.256   1.017
    5SOL     OW  913   0.004   0.369   0.657
    5SOL    HW1  914   6.948   0.379   0.739
    5SOL    HW2  915   0.006   0.273   0.629
    6SOL     OW  916   0.601   1.317   1.263
    6SOL    HW1  917   0.521   1.306   1.203
    6SOL    HW2  918   0.617   1.414   1.280
    7SOL     OW  919   1.583   1.517   0.686
    7SOL    HW1  920   1.528   1.499   0.767
    7SOL    HW2  921   1.523   1.546   0.611
    8SOL     OW  922   1.131   0.729   0.676
    8SOL    HW1  923   1.186   0.812   0.661
    8SOL    HW2  924   1.087   0.735   0.766
    9SOL     OW  925   1.807   0.579   0.098
    9SOL    HW1  926   1.775   0.673   0.085
    9SOL    HW2  927   1.775   0.545   0.187
   10SOL     OW  928   0.730   1.120   1.104
   10SOL    HW1  929   0.677   1.159   1.179
   10SOL    HW2  930   0.769   1.193   1.048
   11SOL     OW  931   0.913   0.726   1.803
   11SOL    HW1  932   0.937   0.795   1.871
   11SOL    HW2  933   0.920   0.765   1.712
   12SOL     OW  934   0.703   0.968   0.678
   12SOL    HW1  935   0.776   0.974   0.747
   12SOL    HW2  936   0.624   1.023   0.708
   13SOL     OW  937   0.703   1.162   1.850
   13SOL    HW1  938   0.766   1.230   1.889
   13SOL    HW2  939   0.627   1.210   1.805
   14SOL     OW  940   0.390   1.336   1.091
   14SOL    HW1  941   0.355   1.255   1.045
   14SOL    HW2  942   0.418   1.404   1.023
   15SOL     OW  943   1.449   1.501   1.389
   15SOL    HW1  944   1.504   1.584   1.399
   15SOL    HW2  945   1.371   1.504   1.451
   16SOL     OW  946   0.450   0.345   1.462
   16SOL    HW1  947   0.529   0.290   1.492
   16SOL    HW2  948   0.371   0.323   1.520
   17SOL     OW  949   1.660   0.509   0.752
   17SOL    HW1  950   1.651   0.558   0.665
   17SOL    HW2  951   1.607   0.557   0.822
   18SOL     OW  952   0.212   1.747   0.461
   18SOL    HW1  953   0.243   1.808   0.534
   18SOL    HW2  954   0.291   1.722   0.404
   19SOL     OW  955   1.114   1.331   1.715
   19SOL    HW1  956   1.163   1.320   1.801
   19SOL    HW2  957   1.056   1.251   1.700
   20SOL     OW  958   0.301   1.471   0.546
   20SOL    HW1  959   0.260   1.561   0.531
   20SOL    HW2  960   0.259   1.429   0.626
   21SOL     OW  961   0.296   1.107   0.958
   21SOL    HW1  962   0.297   1.008   0.961
   21SOL    HW2  963   0.202   1.140   0.964
   22SOL     OW  964   0.572   1.839   1.421
   22SOL    HW1  965   0.488   1.815   1.469
   22SOL    HW2  966   0.623   1.906   1.476
   23SOL     OW  967   0.561   0.953   0.209
   23SOL    HW1  968   0.597   0.976   0.118
   23SOL    HW2  969   0.614   1.002   0.278
   24SOL     OW  970   1.620   0.047   1.493
   24SOL    HW1  971   1.685   0.101   1.440
   24SOL    HW2  972   1.580   0.104   1.564
   25SOL     OW  973   0.138   0.617   0.595
   25SOL    HW1  974   0.085   0.537   0.623
   25SOL    HW2  975   0.116   0.695   0.654
   26SOL     OW  976   1.864   1.741   0.353
   26SOL    HW1  977   1.942   1.708   0.407
   26SOL    HW2  978   1.886   1.831   0.316
   27SOL     OW  979   6.998   1.539   0.132
   27SOL    HW1  980   6.977   1.446   0.159
   27SOL    HW2  981   0.092   1.562   0.160
   28SOL     OW  982   1.721   0.947   0.668
   28SOL    HW1  983   1.815   0.913   0.660
   28SOL    HW2  984   1.697   0.999   0.586
   29SOL     OW  985   1.645   1.112   0.443
   29SOL    HW1  986   1.711   1.109   0.368
   29SOL    HW2  987   1.677   1.177   0.512
   30SOL     OW  988   0.146   0.771   1.533
   30SOL    HW1  989   0.166   0.808   1.442
   30SOL    HW2  990   0.145   0.844   1.600
   31SOL     OW  991   0.631   1.350   0.760
   31SOL    HW1  992   0.585   1.262   0.764
   31SOL    HW2  993   0.615   1.392   0.670
   32SOL     OW  994   1.251   1.209   1.423
   32SOL    HW1  995   1.268   1.139   1.354
   32SOL    HW2  996   1.323   1.206   1.493
   33SOL     OW  997   0.857   0.052   0.550
   33SOL    HW1  998   0.918   0.128   0.526
   33SOL    HW2  999   0.762   0.082   0.541
   34SOL     OW 1000   0.203   0.890   1.294
   34SOL    HW1 1001   0.299   0.868   1.279
   34SOL    HW2 1002   0.147   0.844   1.226
   35SOL     OW 1003   1.445   1.059   0.243
   35SOL    HW1 1004   1.379   0.987   0.262
   35SOL    HW2 1005   1.523   1.049   0.305
   36SOL     OW 1006   1.180   1.777   1.624
   36SOL    HW1 1007   1.196   1.846   1.554
   36SOL    HW2 1008   1.194   1.686   1.586
   37SOL     OW 1009   0.341   0.301   1.880
   37SOL    HW1 1010   0.372   0.376   1.939
   37SOL    HW2 1011   0.243   0.308   1.866
   38SOL     OW 1012   1.438   1.449   0.909
   38SOL    HW1 1013   1.391   1.459   0.996
   38SOL    HW2 1014   1.445   1.351   0.886
   39SOL     OW 1015   1.650   1.889   0.536
   39SOL    HW1 1016   1.637   1.818   0.466
   39SOL    HW2 1017   1.689   1.847   0.618
   40SOL     OW 1018   0.573   0.689   0.278
   40SOL    HW1 1019   0.571   0.785   0.248
   40SOL    HW2 1020   0.513   0.677   0.356
   41SOL     OW 1021   1.301   0.414   0.924
   41SOL    HW1 1022   1.206   0.383   0.935
   41SOL    HW2 1023   1.361   0.358   0.981
   42SOL     OW 1024   1.596   1.696   0.338
   42SOL    HW1 1025   1.696   1.694   0.336
   42SOL    HW2 1026   1.560   1.683   0.246
   43SOL     OW 1027   0.821   0.581   1.470
   43SOL    HW1 1028   0.792   0.539   1.556
   43SOL    HW2 1029   0.793   0.523   1.393
   44SOL     OW 1030   1.375   0.467   1.664
   44SOL    HW1 1031   1.379   0.514   1.753
   44SOL    HW2 1032   1.430   0.384   1.669
   45SOL     OW 1033   0.952   0.880   1.571
   45SOL    HW1 1034   1.012   0.818   1.520
   45SOL    HW2 1035   0.894   0.930   1.507
   46SOL     OW 1036   1.023   0.413   1.177
   46SOL    HW1 1037   0.930   0.428   1.210
   46SOL    HW2 1038   1.020   0.371   1.086
   47SOL     OW 1039   1.048   0.711   0.414
   47SOL    HW1 1040   1.073   0.715   0.510
   47SOL    HW2 1041   0.959   0.667   0.404
   48SOL     OW 1042   0.091   0.826   0.790
   48SOL    HW1 1043   0.183   0.835   0.826
   48SOL    HW2 1044   0.024   0.834   0.864
   49SOL     OW 1045   0.109   1.905   1.634
   49SOL    HW1 1046   0.124   1.874   1.728
   49SOL    HW2 1047   0.012   1.891   1.610
   50SOL     OW 1048   0.877   0.350   0.232
   50SOL    HW1 1049   0.914   0.402   0.156
   50SOL    HW2 1050   0.879   0.252   0.210
   51SOL     OW 1051   1.657   0.585   1.832
   51SOL    HW1 1052   1.641   0.673   1.787
   51SOL    HW2 1053   1.680   0.516   1.763
   52SOL     OW 1054   1.388   1.176   0.555
   52SOL    HW1 1055   1.473   1.162   0.505
   52SOL    HW2 1056   1.335   1.249   0.511
   53SOL     OW 1057   0.504   0.235   0.932
   53SOL    HW1 1058   0.549   0.237   1.022
   53SOL    HW2 1059   0.512   0.325   0.889
   54SOL     OW 1060   0.988   1.448   0.495
   54SOL    HW1 1061   0.966   1.528   0.440
   54SOL    HW2 1062   0.956   1.463   0.589
   55SOL     OW 1063   0.383   1.777   0.882
   55SOL    HW1 1064   0.414   1.683   0.894
   55SOL    HW2 1065   0.452   1.840   0.917
   56SOL     OW 1066   1.805   1.027   0.920
   56SOL    HW1 1067   1.765   1.017   0.829
   56SOL    HW2 1068   1.732   1.045   0.986
   57SOL     OW 1069   1.201   1.514   1.523
   57SOL    HW1 1070   1.188   1.447   1.596
   57SOL    HW2 1071   1.143   1.490   1.445
   58SOL     OW 1072   0.288   0.935   0.193
   58SOL    HW1 1073   0.386   0.950   0.201
   58SOL    HW2 1074   0.272   0.840   0.164
   59SOL     OW 1075   1.497   0.803   0.727
   59SOL    HW1 1076   1.495   0.750   0.812
   59SOL    HW2 1077   1.580   0.857   0.723
   60SOL     OW 1078   0.469   1.303   1.750
   60SOL    HW1 1079   0.448   1.295   1.653
   60SOL    HW2 1080   0.383   1.305   1.802
   61SOL     OW 1081   1.118   1.765   0.230
   61SOL    HW1 1082   1.044   1.728   0.286
   61SOL    HW2 1083   1.153   1.694   0.170
   62SOL     OW 1084   0.191   0.318   1.576
   62SOL    HW1 1085   0.150   0.401   1.538
   62SOL    HW2 1086   0.162   0.307   1.671
   63SOL     OW 1087   1.697   1.385   0.151
   63SOL    HW1 1088   1.677   1.448   0.076
   63SOL    HW2 1089   1.615   1.370   0.206
   64SOL     OW 1090   0.474   1.742   0.365
   64SOL    HW1 1091   0.517   1.804   0.431
   64SOL    HW2 1092   0.543   1.679   0.329
   65SOL     OW 1093   1.496   0.177   0.392
   65SOL    HW1 1094   1.496   0.078   0.380
   65SOL    HW2 1095   1.582   0.207   0.433
   66SOL     OW 1096   0.243   1.771   1.214
   66SOL    HW1 1097   0.283   1.685   1.247
   66SOL    HW2 1098   0.190   1.754   1.131
   67SOL     OW 1099   0.963   1.686   0.893
   67SOL    HW1 1100   1.056   1.651   0.892
   67SOL    HW2 1101   0.908   1.636   0.826
   68SOL     OW 1102   0.409   0.648   0.500
   68SOL    HW1 1103   0.433   0.552   0.514
   68SOL    HW2 1104   0.314   0.664   0.527
   69SOL     OW 1105   1.512   0.213   1.713
   69SOL    HW1 1106   1.556   0.213   1.803
   69SOL    HW2 1107   1.417   0.181   1.724
   70SOL     OW 1108   0.671   0.086   0.049
   70SOL    HW1 1109   0.765   0.102   0.079
   70SOL    HW2 1110   0.660   0.119   6.955
   71SOL     OW 1111   0.822   0.243   1.762
   71SOL    HW1 1112   0.911   0.202   1.743
   71SOL    HW2 1113   0.777   0.192   1.835
   72SOL     OW 1114   0.855   1.509   1.198
   72SOL    HW1 1115   0.834   1.457   1.115
   72SOL    HW2 1116   0.926   1.462   1.250
   73SOL     OW 1117   1.317   0.583   1.422
   73SOL    HW1 1118   1.348   0.551   1.512
   73SOL    HW2 1119   1.348   0.677   1.407
   74SOL     OW 1120   0.813   1.344   0.971
   74SOL    HW1 1121   0.904   1.356   0.930
   74SOL    HW2 1122   0.744   1.344   0.898
   75SOL     OW 1123   0.906   0.537   0.873
   75SOL    HW1 1124   0.885   0.526   0.776
   75SOL    HW2 1125   0.946   0.452   0.908
   76SOL     OW 1126   0.604   0.146   0.492
   76SOL    HW1 1127   0.532   0.110   0.551
   76SOL    HW2 1128   0.570   0.153   0.398
   77SOL     OW 1129   1.383   1.183   7.000
   77SOL    HW1 1130   1.419   1.125   0.073
   77SOL    HW2 1131   1.306   1.237   0.035
   78SOL     OW 1132   0.253   0.043   0.263
   78SOL    HW1 1133   0.342   0.089   0.261
   78SOL    HW2 1134   0.246   6.987   0.346
   79SOL     OW 1135   1.001   0.270   0.467
   79SOL    HW1 1136   0.955   0.302   0.384
   79SOL    HW2 1137   1.100   0.284   0.457
   80SOL     OW 1138   1.062   0.694   1.404
   80SOL    HW1 1139   0.988   0.634   1.433
   80SOL    HW2 1140   1.148   0.643   1.406
   81SOL     OW 1141   1.215   1.590   0.805
   81SOL    HW1 1142   1.233   1.666   0.743
   81SOL    HW2 1143   1.301   1.553   0.839
   82SOL     OW 1144   0.486   1.120   0.757
   82SOL    HW1 1145   0.419   1.118   0.832
   82SOL    HW2 1146   0.444   1.085   0.674
   83SOL     OW 1147   1.252   1.812   0.637
   83SOL    HW1 1148   1.306   1.883   0.592
   83SOL    HW2 1149   1.167   1.851   0.672
   84SOL     OW 1150   0.986   0.503   0.033
   84SOL    HW1 1151   0.917   0.575   0.032
   84SOL    HW2 1152   1.058   0.527   0.099
   85SOL     OW 1153   0.089   0.529   1.396
   85SOL    HW1 1154   0.182   0.521   1.358
   85SOL    HW2 1155   0.083   0.610   1.454
   86SOL     OW 1156   0.599   0.244   1.191
   86SOL    HW1 1157   0.665   0.189   1.243
   86SOL    HW2 1158   0.506   0.220   1.220
   87SOL     OW 1159   0.878   0.468   0.615
   87SOL    HW1 1160   0.835   0.522   0.543
   87SOL    HW2 1161   0.924   0.389   0.576
   88SOL     OW 1162   0.965   6.976   0.808
   88SOL    HW1 1163   0.919   6.998   0.721
   88SOL    HW2 1164   1.008   6.886   0.800
   89SOL     OW 1165   1.498   1.193   0.828
   89SOL    HW1 1166   1.427   1.162   0.765
   89SOL    HW2 1167   1.582   1.210   0.777
   90SOL     OW 1168   1.485   0.629   0.946
   90SOL    HW1 1169   1.417   0.556   0.945
   90SOL    HW2 1170   1.543   0.620   1.026
   91SOL     OW 1171   1.832   0.815   0.381
   91SOL    HW1 1172   1.900   0.757   0.425
   91SOL    HW2 1173   1.836   0.803   0.282
   92SOL     OW 1174   0.470   1.412   0.223
   92SOL    HW1 1175   0.442   1.350   0.296
   92SOL    HW2 1176   0.441   1.375   0.135
   93SOL     OW 1177   1.708   1.271   0.660
   93SOL    HW1 1178   1.806   1.267   0.680
   93SOL    HW2 1179   1.678   1.366   0.658
   94SOL     OW 1180   1.339   0.508   0.049
   94SOL    HW1 1181   1.276   0.514   0.127
   94SOL    HW2 1182   1.423   0.461   0.078
   95SOL     OW 1183   0.494   0.175   0.239
   95SOL    HW1 1184   0.558   0.141   0.170
   95SOL    HW2 1185   0.479   0.273   0.226
   96SOL     OW 1186   1.739   1.224   1.533
   96SOL    HW1 1187   1.831   1.184   1.530
   96SOL    HW2 1188   1.746   1.319   1.563
   97SOL     OW 1189   1.029   1.350   1.353
   97SOL    HW1 1190   0.946   1.321   1.401
   97SOL    HW2 1191   1.107   1.297   1.387
   98SOL     OW 1192   1.624   1.654   1.669
   98SOL    HW1 1193   1.605   1.690   1.578
   98SOL    HW2 1194   1.697   1.586   1.664
   99SOL     OW 1195   1.148   1.268   1.114
   99SOL    HW1 1196   1.086   1.294   1.188
   99SOL    HW2 1197   1.109   1.298   1.027
  100SOL     OW 1198   1.593   1.093   1.080
  100SOL    HW1 1199   1.587   1.163   1.151
  100SOL    HW2 1200   1.538   1.122   1.001
  101SOL     OW 1201   0.850   0.166   1.317
  101SOL    HW1 1202   0.876   0.138   1.224
  101SOL    HW2 1203   0.931   0.197   1.367
  102SOL     OW 1204   0.952   1.107   1.723
  102SOL    HW1 1205   0.857   1.121   1.753
  102SOL    HW2 1206   0.957   1.027   1.665
  103SOL     OW 1207   0.727   1.053   0.410
  103SOL    HW1 1208   0.716   1.019   0.504
  103SOL    HW2 1209   0.802   1.005   0.365
  104SOL     OW 1210   0.454   0.780   1.274
  104SOL    HW1 1211   0.523   0.790   1.345
  104SOL    HW2 1212   0.414   0.688   1.278
  105SOL     OW 1213   1.269   0.360   1.273
  105SOL    HW1 1214   1.300   0.439   1.327
  105SOL    HW2 1215   1.180   0.380   1.232
  106SOL     OW 1216   0.089   1.509   1.377
  106SOL    HW1 1217   0.061   1.551   1.463
  106SOL    HW2 1218   0.187   1.525   1.363
  107SOL     OW 1219   0.386   1.024   0.526
  107SOL    HW1 1220   0.368   1.105   0.470
  107SOL    HW2 1221   0.377   0.942   0.470
  108SOL     OW 1222   0.529   0.520   0.886
  108SOL    HW1 1223   0.544   0.579   0.806
  108SOL    HW2 1224   0.596   0.543   0.957
  109SOL     OW 1225   1.249   1.390   0.428
  109SOL    HW1 1226   1.298   1.471   0.460
  109SOL    HW2 1227   1.152   1.396   0.454
  110SOL     OW 1228   1.323   1.477   1.149
  110SOL    HW1 1229   1.369   1.482   1.238
  110SOL    HW2 1230   1.262   1.397   1.148
  111SOL     OW 1231   1.635   0.669   0.522
  111SOL    HW1 1232   1.564   0.718   0.573
  111SOL    HW2 1233   1.695   0.736   0.478
  112SOL     OW 1234   0.353   1.516   1.297
  112SOL    HW1 1235   0.350   1.451   1.221
  112SOL    HW2 1236   0.446   1.551   1.308
  113SOL     OW 1237   0.530   0.683   1.685
  113SOL    HW1 1238   0.561   0.730   1.602
  113SOL    HW2 1239   0.596   0.613   1.710
  114SOL     OW 1240   1.610   0.819   1.704
  114SOL    HW1 1241   1.515   0.848   1.695
  114SOL    HW2 1242   1.662   0.851   1.625
  115SOL     OW 1243   1.051   0.097   1.690
  115SOL    HW1 1244   1.065   0.143   1.602
  115SOL    HW2 1245   1.051   6.998   1.675
  116SOL     OW 1246   0.449   0.057   1.860
  116SOL    HW1 1247   0.376   6.997   1.892
  116SOL    HW2 1248   0.415   0.151   1.856
  117SOL     OW 1249   0.581   0.883   1.050
  117SOL    HW1 1250   0.627   0.971   1.064
  117SOL    HW2 1251   0.534   0.856   1.134
  118SOL     OW 1252   1.298   0.837   1.018
  118SOL    HW1 1253   1.209   0.809   0.983
  118SOL    HW2 1254   1.367   0.768   0.995
  119SOL     OW 1255   1.164   0.517   0.255
  119SOL    HW1 1256   1.203   0.447   0.315
  119SOL    HW2 1257   1.127   0.592   0.311
  120SOL     OW 1258   0.333   0.163   1.205
  120SOL    HW1 1259   0.259   0.146   1.270
  120SOL    HW2 1260   0.354   0.079   1.155
  121SOL     OW 1261   0.088   1.272   1.244
  121SOL    HW1 1262   0.101   1.199   1.312
  121SOL    HW2 1263   0.085   1.360   1.290
  122SOL     OW 1264   0.721   0.646   1.045
  122SOL    HW1 1265   0.784   0.624   0.971
  122SOL    HW2 1266   0.677   0.734   1.026
  123SOL     OW 1267   1.757   0.977   1.877
  123SOL    HW1 1268   1.707   0.914   1.817
  123SOL    HW2 1269   1.698   1.008   1.950
  124SOL     OW 1270   0.388   0.069   0.632
  124SOL    HW1 1271   0.343   0.144   0.681
  124SOL    HW2 1272   0.319   0.006   0.597
  125SOL     OW 1273   1.713   0.484   0.337
  125SOL    HW1 1274   1.744   0.402   0.385
  125SOL    HW2 1275   1.678   0.550   0.403
  126SOL     OW 1276   1.037   0.761   0.946
  126SOL    HW1 1277   1.013   0.782   1.041
  126SOL    HW2 1278   0.994   0.674   0.920
  127SOL     OW 1279   0.977   1.561   1.782
  127SOL    HW1 1280   0.948   1.622   1.708
  127SOL    HW2 1281   1.014   1.477   1.743
  128SOL     OW 1282   1.831   1.484   1.585
  128SOL    HW1 1283   1.852   1.511   1.491
  128SOL    HW2 1284   1.914   1.490   1.640
  129SOL     OW 1285   0.414   0.901   1.812
  129SOL    HW1 1286   0.478   0.937   1.880
  129SOL    HW2 1287   0.455   0.822   1.766
  130SOL     OW 1288   1.526   0.358   0.182
  130SOL    HW1 1289   1.504   0.278   0.237
  130SOL    HW2 1290   1.593   0.414   0.230
  131SOL     OW 1291   1.263   0.773   0.025
  131SOL    HW1 1292   1.298   0.680   0.017
  131SOL    HW2 1293   1.301   0.829   6.950
  132SOL     OW 1294   1.063   1.367   0.870
  132SOL    HW1 1295   1.078   1.284   0.815
  132SOL    HW2 1296   1.117   1.442   0.833
  133SOL     OW 1297   0.326   0.830   0.941
  133SOL    HW1 1298   0.424   0.848   0.954
  133SOL    HW2 1299   0.307   0.734   0.964
  134SOL     OW 1300   0.285   0.555   1.000
  134SOL    HW1 1301   0.237   0.467   0.997
  134SOL    HW2 1302   0.373   0.546   0.953
  135SOL     OW 1303   1.103   0.422   1.658
  135SOL    HW1 1304   1.066   0.441   1.749
  135SOL    HW2 1305   1.200   0.444   1.656
  136SOL     OW 1306   1.078   0.244   1.458
  136SOL    HW1 1307   1.077   0.318   1.525
  136SOL    HW2 1308   1.149   0.261   1.390
  137SOL     OW 1309   6.921   1.286   0.201
  137SOL    HW1 1310   6.878   1.318   0.286
  137SOL    HW2 1311   6.979   1.207   0.221
  138SOL     OW 1312   0.122   1.742   0.962
  138SOL    HW1 1313   0.083   1.681   0.894
  138SOL    HW2 1314   0.214   1.768   0.935
  139SOL     OW 1315   0.498   1.527   0.924
  139SOL    HW1 1316   0.571   1.586   0.959
  139SOL    HW2 1317   0.536   1.463   0.858
  140SOL     OW 1318   0.928   0.804   1.191
  140SOL    HW1 1319   0.984   0.773   1.267
  140SOL    HW2 1320   0.847   0.745   1.183
  141SOL     OW 1321   0.077   0.682   1.146
  141SOL    HW1 1322   0.148   0.640   1.090
  141SOL    HW2 1323   0.058   0.623   1.225
  142SOL     OW 1324   0.261   0.626   1.735
  142SOL    HW1 1325   0.360   0.621   1.732
  142SOL    HW2 1326   0.228   0.675   1.654
  143SOL     OW 1327   1.367   0.926   1.635
  143SOL    HW1 1328   1.391   1.023   1.632
  143SOL    HW2 1329   1.359   0.890   1.542
  144SOL     OW 1330   0.811   0.580   0.371
  144SOL    HW1 1331   0.822   0.493   0.321
  144SOL    HW2 1332   0.726   0.624   0.341
  145SOL     OW 1333   1.662   0.612   1.158
  145SOL    HW1 1334   1.653   0.546   1.233
  145SOL    HW2 1335   1.758   0.625   1.137
  146SOL     OW 1336   0.240   1.573   1.718
  146SOL    HW1 1337   0.196   1.641   1.776
  146SOL    HW2 1338   0.237   1.484   1.763
  147SOL     OW 1339   0.756   0.461   1.237
  147SOL    HW1 1340   0.696   0.383   1.223
  147SOL    HW2 1341   0.736   0.531   1.168
  148SOL     OW 1342   0.863   1.700   1.545
  148SOL    HW1 1343   0.836   1.628   1.482
  148SOL    HW2 1344   0.897   1.779   1.494
  149SOL     OW 1345   0.448   0.444   0.206
  149SOL    HW1 1346   0.501   0.528   0.217
  149SOL    HW2 1347   0.352   0.462   0.226
  150SOL     OW 1348   0.158   1.103   1.464
  150SOL    HW1 1349   0.171   1.062   1.555
  150SOL    HW2 1350   0.172   1.033   1.394
  151SOL     OW 1351   1.265   1.034   1.204
  151SOL    HW1 1352   1.282   0.966   1.133
  151SOL    HW2 1353   1.224   1.115   1.162
  152SOL     OW 1354   1.267   0.858   0.286
  152SOL    HW1 1355   1.199   0.811   0.342
  152SOL    HW2 1356   1.269   0.817   0.194
  153SOL     OW 1357   1.762   1.698   1.155
  153SOL    HW1 1358   1.829   1.736   1.092
  153SOL    HW2 1359   1.731   1.609   1.121
  154SOL     OW 1360   1.281   1.754   1.122
  154SOL    HW1 1361   1.371   1.791   1.101
  154SOL    HW2 1362   1.287   1.654   1.132
  155SOL     OW 1363   0.051   1.232   0.978
  155SOL    HW1 1364   0.068   1.250   1.075
  155SOL    HW2 1365   6.953   1.228   0.961
  156SOL     OW 1366   0.683   1.716   1.748
  156SOL    HW1 1367   0.613   1.787   1.737
  156SOL    HW2 1368   0.751   1.725   1.676
  157SOL     OW 1369   0.927   0.094   0.160
  157SOL    HW1 1370   1.022   0.098   0.128
  157SOL    HW2 1371   0.916   0.016   0.222
  158SOL     OW 1372   1.779   0.247   0.465
  158SOL    HW1 1373   1.831   0.208   0.389
  158SOL    HW2 1374   1.759   0.175   0.532
  159SOL     OW 1375   1.394   1.609   0.505
  159SOL    HW1 1376   1.461   1.645   0.439
  159SOL    HW2 1377   1.340   1.684   0.542
  160SOL     OW 1378   0.129   1.782   1.885
  160SOL    HW1 1379   0.081   1.702   1.921
  160SOL    HW2 1380   0.180   1.826   1.959
  161SOL     OW 1381   1.281   0.953   0.660
  161SOL    HW1 1382   1.359   0.897   0.688
  161SOL    HW2 1383   1.313   1.032   0.609
  162SOL     OW 1384   0.785   1.283   1.460
  162SOL    HW1 1385   0.762   1.336   1.541
  162SOL    HW2 1386   0.713   1.292   1.392
  163SOL     OW 1387   0.671   1.603   0.227
  163SOL    HW1 1388   0.663   1.655   0.141
  163SOL    HW2 1389   0.615   1.521   0.221
  164SOL     OW 1390   1.611   1.729   1.396
  164SOL    HW1 1391   1.668   1.708   1.317
  164SOL    HW2 1392   1.600   1.828   1.404
  165SOL     OW 1393   1.887   0.127   0.937
  165SOL    HW1 1394   1.877   0.032   0.967
  165SOL    HW2 1395   1.797   0.165   0.917
  166SOL     OW 1396   0.262   0.293   0.737
  166SOL    HW1 1397   0.176   0.332   0.705
  166SOL    HW2 1398   0.263   0.290   0.837
  167SOL     OW 1399   1.220   1.576   0.053
  167SOL    HW1 1400   1.205   1.480   0.078
  167SOL    HW2 1401   1.151   1.605   6.987
  168SOL     OW 1402   0.801   1.016   1.391
  168SOL    HW1 1403   0.831   1.011   1.296
  168SOL    HW2 1404   0.798   1.111   1.420
  169SOL     OW 1405   0.921   0.920   0.279
  169SOL    HW1 1406   0.965   0.938   0.191
  169SOL    HW2 1407   0.973   0.851   0.329
  170SOL     OW 1408   1.471   1.688   0.085
  170SOL    HW1 1409   1.383   1.642   0.079
  170SOL    HW2 1410   1.502   1.714   6.993
  171SOL     OW 1411   0.365   1.298   1.499
  171SOL    HW1 1412   0.366   1.373   1.432
  171SOL    HW2 1413   0.294   1.232   1.473
  172SOL     OW 1414   1.602   1.294   1.279
  172SOL    HW1 1415   1.666   1.260   1.347
  172SOL    HW2 1416   1.539   1.360   1.321
  173SOL     OW 1417   1.083   1.126   0.754
  173SOL    HW1 1418   1.007   1.076   0.795
  173SOL    HW2 1419   1.151   1.060   0.720
  174SOL     OW 1420   1.033   0.292   0.928
  174SOL    HW1 1421   1.026   0.268   0.831
  174SOL    HW2 1422   1.008   0.212   0.984
  175SOL     OW 1423   0.590   1.476   0.525
  175SOL    HW1 1424   0.635   1.429   0.448
  175SOL    HW2 1425   0.492   1.478   0.510
  176SOL     OW 1426   1.749   0.428   1.374
  176SOL    HW1 1427   1.841   0.466   1.381
  176SOL    HW2 1428   1.754   0.335   1.337
  177SOL     OW 1429   0.316   1.249   0.387
  177SOL    HW1 1430   0.230   1.219   0.345
  177SOL    HW2 1431   0.299   1.328   0.445
  178SOL     OW 1432   0.168   0.975   1.717
  178SOL    HW1 1433   0.124   1.039   1.780
  178SOL    HW2 1434   0.259   0.951   1.751
  179SOL     OW 1435   0.679   0.189   1.530
  179SOL    HW1 1436   0.740   0.184   1.451
  179SOL    HW2 1437   0.729   0.225   1.609
  180SOL     OW 1438   0.014   0.567   0.033
  180SOL    HW1 1439   6.953   0.585   0.110
  180SOL    HW2 1440   0.021   0.468   0.019
  181SOL     OW 1441   1.381   0.848   1.375
  181SOL    HW1 1442   1.319   0.905   1.321
  181SOL    HW2 1443   1.473   0.852   1.336
  182SOL     OW 1444   0.060   0.240   0.279
  182SOL    HW1 1445   0.116   0.315   0.314
  182SOL    HW2 1446   0.115   0.157   0.275
  183SOL     OW 1447   1.170   1.313   0.134
  183SOL    HW1 1448   1.072   1.329   0.126
  183SOL    HW2 1449   1.196   1.314   0.230
  184SOL     OW 1450   0.651   0.796   1.460
  184SOL    HW1 1451   0.697   0.883   1.442
  184SOL    HW2 1452   0.719   0.722   1.463
  185SOL     OW 1453   1.535   1.850   1.060
  185SOL    HW1 1454   1.563   1.888   0.972
  185SOL    HW2 1455   1.613   1.803   1.102
  186SOL     OW 1456   0.746   0.512   1.726
  186SOL    HW1 1457   0.806   0.580   1.768
  186SOL    HW2 1458   0.778   0.420   1.749
  187SOL     OW 1459   1.461   1.184   1.616
  187SOL    HW1 1460   1.447   1.206   1.713
  187SOL    HW2 1461   1.555   1.202   1.591
  188SOL     OW 1462   0.346   1.777   1.567
  188SOL    HW1 1463   0.260   1.828   1.562
  188SOL    HW2 1464   0.328   1.687   1.607
  189SOL     OW 1465   1.622   0.874   1.249
  189SOL    HW1 1466   1.638   0.785   1.205
  189SOL    HW2 1467   1.611   0.944   1.179
  190SOL     OW 1468   1.266   0.330   0.431
  190SOL    HW1 1469   1.350   0.276   0.419
  190SOL    HW2 1470   1.274   0.385   0.514
  191SOL     OW 1471   0.585   0.715   0.702
  191SOL    HW1 1472   0.633   0.802   0.692
  191SOL    HW2 1473   0.523   0.702   0.624
  192SOL     OW 1474   1.714   0.390   1.645
  192SOL    HW1 1475   1.722   0.412   1.548
  192SOL    HW2 1476   1.644   0.319   1.658
  193SOL     OW 1477   1.731   0.934   1.491
  193SOL    HW1 1478   1.721   1.033   1.507
  193SOL    HW2 1479   1.696   0.911   1.401
  194SOL     OW 1480   0.908   1.382   0.132
  194SOL    HW1 1481   0.850   1.357   0.210
  194SOL    HW2 1482   0.864   1.455   0.079
  195SOL     OW 1483   0.692   1.704   0.984
  195SOL    HW1 1484   0.665   1.799   0.975
  195SOL    HW2 1485   0.792   1.697   0.973
  196SOL     OW 1486   0.883   0.986   0.888
  196SOL    HW1 1487   0.940   0.906   0.909
  196SOL    HW2 1488   0.837   1.017   0.971
  197SOL     OW 1489   1.064   0.962   0.044
  197SOL    HW1 1490   1.105   1.052   0.055
  197SOL    HW2 1491   1.136   0.893   0.037
  198SOL     OW 1492   1.807   1.558   0.838
  198SOL    HW1 1493   1.736   1.550   0.768
  198SOL    HW2 1494   1.782   1.502   0.917
  199SOL     OW 1495   0.229   1.331   1.877
  199SOL    HW1 1496   0.141   1.284   1.872
  199SOL    HW2 1497   0.250   1.351   1.973
  200SOL     OW 1498   0.148   1.336   0.738
  200SOL    HW1 1499   0.129   1.295   0.827
  200SOL    HW2 1500   0.105   1.281   0.666
  201SOL     OW 1501   0.690   1.444   1.662
  201SOL    HW1 1502   0.605   1.401   1.691
  201SOL    HW2 1503   0.694   1.538   1.695
  202SOL     OW 1504   1.785   0.170   1.289
  202SOL    HW1 1505   1.735   0.132   1.211
  202SOL    HW2 1506   1.883   0.155   1.276
  203SOL     OW 1507   0.440   0.381   0.544
  203SOL    HW1 1508   0.518   0.319   0.530
  203SOL    HW2 1509   0.387   0.351   0.623
  204SOL     OW 1510   1.674   1.457   1.064
  204SOL    HW1 1511   1.590   1.457   1.010
  204SOL    HW2 1512   1.666   1.392   1.139
  205SOL     OW 1513   0.343   0.525   1.290
  205SOL    HW1 1514   0.392   0.459   1.347
  205SOL    HW2 1515   0.349   0.498   1.194
  206SOL     OW 1516   0.821   1.552   0.702
  206SOL    HW1 1517   0.770   1.594   0.627
  206SOL    HW2 1518   0.767   1.476   0.740
  207SOL     OW 1519   1.462   0.272   1.091
  207SOL    HW1 1520   1.512   0.189   1.117
  207SOL    HW2 1521   1.401   0.299   1.166
  208SOL     OW 1522   0.954   0.071   1.070
  208SOL    HW1 1523   0.945   0.028   0.980
  208SOL    HW2 1524   0.986   0.003   1.136
  209SOL     OW 1525   0.770   1.321   0.368
  209SOL    HW1 1526   0.750   1.224   0.382
  209SOL    HW2 1527   0.853   1.345   0.420
  210SOL     OW 1528   0.617   1.593   1.305
  210SOL    HW1 1529   0.609   1.685   1.343
  210SOL    HW2 1530   0.704   1.585   1.255
  211SOL     OW 1531   1.462   0.002   0.054
  211SOL    HW1 1532   1.450   6.903   0.050
  211SOL    HW2 1533   1.375   0.047   0.034
  212SOL     OW 1534   1.261   0.481   0.657
  212SOL    HW1 1535   1.215   0.569   0.656
  212SOL    HW2 1536   1.287   0.457   0.751
  213SOL     OW 1537   1.649   0.259   0.871
  213SOL    HW1 1538   1.586   0.264   0.947
  213SOL    HW2 1539   1.657   0.348   0.827
  214SOL     OW 1540   0.081   1.077   0.304
  214SOL    HW1 1541   0.161   1.028   0.268
  214SOL    HW2 1542   0.001   1.017   0.302
  215SOL     OW 1543   0.898   1.673   0.370
  215SOL    HW1 1544   0.816   1.646   0.319
  215SOL    HW2 1545   0.877   1.754   0.425
  216SOL     OW 1546   0.178   0.729   1.991
  216SOL    HW1 1547   0.165   0.655   2.057
  216SOL    HW2 1548   0.221   0.693   1.909
  217SOL     OW 1549   0.202   0.298   2.870
  217SOL    HW1 1550   0.276   0.258   2.924
  217SOL    HW2 1551   0.115   0.259   2.899
  218SOL     OW 1552   6.989   0.333   2.521
  218SOL    HW1 1553   6.941   0.341   2.608
  218SOL    HW2 1554   6.991   0.237   2.492
  219SOL     OW 1555   0.574   1.324   3.100
  219SOL    HW1 1556   0.490   1.324   3.045
  219SOL    HW2 1557   0.599   1.418   3.121
  220SOL     OW 1558   1.592   1.517   2.540
  220SOL    HW1 1559   1.534   1.502   2.619
  220SOL    HW2 1560   1.535   1.539   2.460
  221SOL     OW 1561   1.117   0.737   2.534
  221SOL    HW1 1562   1.167   0.820   2.506
  221SOL    HW2 1563   1.076   0.751   2.624
  222SOL     OW 1564   1.798   0.571   2.063
  222SOL    HW1 1565   1.755   0.584   1.973
  222SOL    HW2 1566   1.751   0.497   2.112
  223SOL     OW 1567   0.709   1.128   2.946
  223SOL    HW1 1568   0.653   1.170   3.018
  223SOL    HW2 1569   0.755   1.200   2.894
  224SOL     OW 1570   0.909   0.729   3.662
  224SOL    HW1 1571   0.935   0.798   3.730
  224SOL    HW2 1572   0.912   0.769   3.571
  225SOL     OW 1573   0.681   0.966   2.525
  225SOL    HW1 1574   0.752   0.976   2.595
  225SOL    HW2 1575   0.607   1.031   2.542
  226SOL     OW 1576   0.702   1.163   3.715
  226SOL    HW1 1577   0.764   1.228   3.757
  226SOL    HW2 1578   0.626   1.211   3.672
  227SOL     OW 1579   0.350   1.393   2.949
  227SOL    HW1 1580   0.268   1.348   2.914
  227SOL    HW2 1581   0.393   1.445   2.876
  228SOL     OW 1582   1.435   1.498   3.250
  228SOL    HW1 1583   1.493   1.579   3.263
  228SOL    HW2 1584   1.357   1.503   3.312
  229SOL     OW 1585   0.485   0.359   3.306
  229SOL    HW1 1586   0.561   0.299   3.332
  229SOL    HW2 1587   0.408   0.343   3.367
  230SOL     OW 1588   1.630   0.511   2.602
  230SOL    HW1 1589   1.612   0.540   2.508
  230SOL    HW2 1590   1.575   0.566   2.665
  231SOL     OW 1591   0.267   1.742   2.360
  231SOL    HW1 1592   0.281   1.825   2.414
  231SOL    HW2 1593   0.329   1.742   2.281
  232SOL     OW 1594   1.108   1.333   3.575
  232SOL    HW1 1595   1.161   1.321   3.658
  232SOL    HW2 1596   1.050   1.253   3.559
  233SOL     OW 1597   0.347   1.478   2.393
  233SOL    HW1 1598   0.313   1.572   2.400
  233SOL    HW2 1599   0.299   1.421   2.460
  234SOL     OW 1600   0.273   1.105   2.727
  234SOL    HW1 1601   0.279   1.007   2.749
  234SOL    HW2 1602   0.213   1.150   2.793
  235SOL     OW 1603   0.552   1.835   3.275
  235SOL    HW1 1604   0.475   1.816   3.336
  235SOL    HW2 1605   0.611   1.904   3.316
  236SOL     OW 1606   0.576   0.994   2.036
  236SOL    HW1 1607   0.624   1.045   1.964
  236SOL    HW2 1608   0.618   1.016   2.124
  237SOL     OW 1609   1.660   6.998   3.419
  237SOL    HW1 1610   1.757   0.019   3.430
  237SOL    HW2 1611   1.604   0.070   3.461
  238SOL     OW 1612   0.100   0.602   2.438
  238SOL    HW1 1613   0.065   0.517   2.475
  238SOL    HW2 1614   0.083   0.676   2.503
  239SOL     OW 1615   1.873   1.753   2.188
  239SOL    HW1 1616   1.950   1.737   2.250
  239SOL    HW2 1617   1.884   1.841   2.143
  240SOL     OW 1618   6.991   1.569   1.964
  240SOL    HW1 1619   0.005   1.487   2.020
  240SOL    HW2 1620   6.898   1.569   1.927
  241SOL     OW 1621   1.711   0.932   2.533
  241SOL    HW1 1622   1.800   0.887   2.533
  241SOL    HW2 1623   1.698   0.984   2.448
  242SOL     OW 1624   1.672   1.117   2.316
  242SOL    HW1 1625   1.756   1.093   2.267
  242SOL    HW2 1626   1.694   1.180   2.391
  243SOL     OW 1627   0.133   0.786   3.380
  243SOL    HW1 1628   0.149   0.830   3.292
  243SOL    HW2 1629   0.142   0.853   3.453
  244SOL     OW 1630   0.635   1.365   2.600
  244SOL    HW1 1631   0.585   1.279   2.590
  244SOL    HW2 1632   0.631   1.415   2.513
  245SOL     OW 1633   1.235   1.210   3.288
  245SOL    HW1 1634   1.253   1.142   3.217
  245SOL    HW2 1635   1.310   1.210   3.355
  246SOL     OW 1636   0.869   0.076   2.465
  246SOL    HW1 1637   0.912   0.149   2.411
  246SOL    HW2 1638   0.778   0.057   2.431
  247SOL     OW 1639   0.199   0.913   3.148
  247SOL    HW1 1640   0.291   0.878   3.133
  247SOL    HW2 1641   0.140   0.885   3.072
  248SOL     OW 1642   1.557   1.053   2.067
  248SOL    HW1 1643   1.480   0.992   2.086
  248SOL    HW2 1644   1.599   1.082   2.153
  249SOL     OW 1645   1.153   1.781   3.492
  249SOL    HW1 1646   1.170   1.854   3.426
  249SOL    HW2 1647   1.172   1.693   3.450
  250SOL     OW 1648   0.320   0.296   3.745
  250SOL    HW1 1649   0.356   0.369   3.802
  250SOL    HW2 1650   0.221   0.293   3.753
  251SOL     OW 1651   1.440   1.457   2.762
  251SOL    HW1 1652   1.392   1.466   2.849
  251SOL    HW2 1653   1.448   1.361   2.738
  252SOL     OW 1654   1.637   1.885   2.380
  252SOL    HW1 1655   1.627   1.816   2.307
  252SOL    HW2 1656   1.659   1.839   2.466
  253SOL     OW 1657   0.552   0.714   2.140
  253SOL    HW1 1658   0.566   0.806   2.103
  253SOL    HW2 1659   0.491   0.719   2.219
  254SOL     OW 1660   1.284   0.421   2.787
  254SOL    HW1 1661   1.193   0.382   2.794
  254SOL    HW2 1662   1.347   0.371   2.847
  255SOL     OW 1663   1.604   1.699   2.176
  255SOL    HW1 1664   1.703   1.705   2.175
  255SOL    HW2 1665   1.570   1.683   2.083
  256SOL     OW 1666   0.812   0.583   3.328
  256SOL    HW1 1667   0.786   0.539   3.413
  256SOL    HW2 1668   0.783   0.527   3.251
  257SOL     OW 1669   1.380   0.472   3.522
  257SOL    HW1 1670   1.385   0.516   3.612
  257SOL    HW2 1671   1.441   0.393   3.520
  258SOL     OW 1672   0.938   0.884   3.429
  258SOL    HW1 1673   0.998   0.823   3.377
  258SOL    HW2 1674   0.880   0.936   3.365
  259SOL     OW 1675   1.014   0.424   3.034
  259SOL    HW1 1676   0.920   0.439   3.066
  259SOL    HW2 1677   1.012   0.381   2.943
  260SOL     OW 1678   1.029   0.694   2.272
  260SOL    HW1 1679   1.051   0.698   2.370
  260SOL    HW2 1680   0.940   0.652   2.260
  261SOL     OW 1681   0.068   0.810   2.634
  261SOL    HW1 1682   0.162   0.823   2.666
  261SOL    HW2 1683   0.005   0.826   2.710
  262SOL     OW 1684   0.100   1.915   3.525
  262SOL    HW1 1685   0.114   1.882   3.618
  262SOL    HW2 1686   0.005   1.900   3.498
  263SOL     OW 1687   0.846   0.349   2.070
  263SOL    HW1 1688   0.906   0.395   2.005
  263SOL    HW2 1689   0.799   0.273   2.025
  264SOL     OW 1690   1.662   0.588   3.688
  264SOL    HW1 1691   1.646   0.673   3.637
  264SOL    HW2 1692   1.683   0.515   3.623
  265SOL     OW 1693   1.399   1.181   2.397
  265SOL    HW1 1694   1.487   1.163   2.353
  265SOL    HW2 1695   1.347   1.248   2.344
  266SOL     OW 1696   0.500   0.230   2.789
  266SOL    HW1 1697   0.554   0.232   2.873
  266SOL    HW2 1698   0.506   0.319   2.744
  267SOL     OW 1699   0.999   1.466   2.332
  267SOL    HW1 1700   0.975   1.543   2.273
  267SOL    HW2 1701   0.971   1.486   2.426
  268SOL     OW 1702   0.379   1.792   2.732
  268SOL    HW1 1703   0.409   1.696   2.736
  268SOL    HW2 1704   0.452   1.851   2.766
  269SOL     OW 1705   1.792   1.036   2.779
  269SOL    HW1 1706   1.753   1.017   2.689
  269SOL    HW2 1707   1.718   1.055   2.844
  270SOL     OW 1708   1.184   1.520   3.382
  270SOL    HW1 1709   1.174   1.451   3.454
  270SOL    HW2 1710   1.128   1.495   3.303
  271SOL     OW 1711   0.303   0.953   2.106
  271SOL    HW1 1712   0.396   0.967   2.071
  271SOL    HW2 1713   0.264   0.870   2.066
  272SOL     OW 1714   1.472   0.802   2.555
  272SOL    HW1 1715   1.461   0.751   2.640
  272SOL    HW2 1716   1.558   0.852   2.557
  273SOL     OW 1717   0.472   1.305   3.620
  273SOL    HW1 1718   0.453   1.303   3.522
  273SOL    HW2 1719   0.386   1.304   3.671
  274SOL     OW 1720   1.159   1.758   2.103
  274SOL    HW1 1721   1.068   1.738   2.139
  274SOL    HW2 1722   1.185   1.690   2.035
  275SOL     OW 1723   0.272   0.329   3.474
  275SOL    HW1 1724   0.260   0.428   3.481
  275SOL    HW2 1725   0.293   0.291   3.564
  276SOL     OW 1726   1.616   1.394   1.969
  276SOL    HW1 1727   1.592   1.489   1.952
  276SOL    HW2 1728   1.545   1.334   1.932
  277SOL     OW 1729   0.473   1.762   2.176
  277SOL    HW1 1730   0.523   1.811   2.247
  277SOL    HW2 1731   0.537   1.711   2.119
  278SOL     OW 1732   1.388   0.120   2.271
  278SOL    HW1 1733   1.340   0.068   2.201
  278SOL    HW2 1734   1.480   0.143   2.239
  279SOL     OW 1735   0.236   1.779   3.077
  279SOL    HW1 1736   0.278   1.697   3.117
  279SOL    HW2 1737   0.189   1.754   2.993
  280SOL     OW 1738   0.968   1.695   2.746
  280SOL    HW1 1739   1.062   1.659   2.746
  280SOL    HW2 1740   0.915   1.648   2.675
  281SOL     OW 1741   0.378   0.669   2.354
  281SOL    HW1 1742   0.399   0.572   2.363
  281SOL    HW2 1743   0.282   0.685   2.375
  282SOL     OW 1744   1.511   0.202   3.563
  282SOL    HW1 1745   1.536   0.208   3.660
  282SOL    HW2 1746   1.415   0.174   3.555
  283SOL     OW 1747   0.692   0.117   1.975
  283SOL    HW1 1748   0.717   0.038   2.030
  283SOL    HW2 1749   0.606   0.098   1.927
  284SOL     OW 1750   0.818   0.241   3.631
  284SOL    HW1 1751   0.907   0.200   3.612
  284SOL    HW2 1752   0.772   0.189   3.703
  285SOL     OW 1753   0.848   1.510   3.046
  285SOL    HW1 1754   0.829   1.458   2.963
  285SOL    HW2 1755   0.916   1.462   3.101
  286SOL     OW 1756   1.306   0.596   3.288
  286SOL    HW1 1757   1.342   0.563   3.375
  286SOL    HW2 1758   1.340   0.689   3.271
  287SOL     OW 1759   0.809   1.348   2.817
  287SOL    HW1 1760   0.901   1.357   2.780
  287SOL    HW2 1761   0.742   1.350   2.742
  288SOL     OW 1762   0.897   0.541   2.726
  288SOL    HW1 1763   0.873   0.530   2.629
  288SOL    HW2 1764   0.939   0.457   2.759
  289SOL     OW 1765   0.619   0.052   2.342
  289SOL    HW1 1766   0.546   0.040   2.410
  289SOL    HW2 1767   0.597   0.130   2.284
  290SOL     OW 1768   1.420   1.217   1.890
  290SOL    HW1 1769   1.468   1.151   1.948
  290SOL    HW2 1770   1.331   1.240   1.931
  291SOL     OW 1771   0.342   0.032   2.207
  291SOL    HW1 1772   0.397   0.104   2.165
  291SOL    HW2 1773   0.337   0.048   2.306
  292SOL     OW 1774   0.966   0.280   2.310
  292SOL    HW1 1775   0.922   0.303   2.223
  292SOL    HW2 1776   1.064   0.301   2.303
  293SOL     OW 1777   1.050   0.701   3.260
  293SOL    HW1 1778   0.977   0.640   3.289
  293SOL    HW2 1779   1.138   0.654   3.267
  294SOL     OW 1780   1.215   1.591   2.652
  294SOL    HW1 1781   1.233   1.660   2.582
  294SOL    HW2 1782   1.302   1.557   2.687
  295SOL     OW 1783   0.479   1.146   2.552
  295SOL    HW1 1784   0.409   1.127   2.620
  295SOL    HW2 1785   0.438   1.145   2.460
  296SOL     OW 1786   1.251   1.802   2.467
  296SOL    HW1 1787   1.298   1.868   2.408
  296SOL    HW2 1788   1.170   1.845   2.507
  297SOL     OW 1789   1.018   0.497   1.913
  297SOL    HW1 1790   0.986   0.585   1.877
  297SOL    HW2 1791   1.091   0.512   1.980
  298SOL     OW 1792   0.081   0.558   3.222
  298SOL    HW1 1793   0.177   0.538   3.201
  298SOL    HW2 1794   0.077   0.630   3.291
  299SOL     OW 1795   0.613   0.239   3.040
  299SOL    HW1 1796   0.680   0.191   3.096
  299SOL    HW2 1797   0.520   0.219   3.073
  300SOL     OW 1798   0.853   0.478   2.468
  300SOL    HW1 1799   0.805   0.530   2.398
  300SOL    HW2 1800   0.896   0.398   2.426
  301SOL     OW 1801   0.976   6.972   2.694
  301SOL    HW1 1802   0.934   0.009   2.611
  301SOL    HW2 1803   1.014   6.881   2.674
  302SOL     OW 1804   1.499   1.205   2.674
  302SOL    HW1 1805   1.435   1.178   2.601
  302SOL    HW2 1806   1.590   1.217   2.635
  303SOL     OW 1807   1.451   0.645   2.780
  303SOL    HW1 1808   1.386   0.569   2.787
  303SOL    HW2 1809   1.515   0.640   2.857
  304SOL     OW 1810   1.802   0.764   2.255
  304SOL    HW1 1811   1.875   0.740   2.318
  304SOL    HW2 1812   1.803   0.702   2.176
  305SOL     OW 1813   0.524   1.440   2.004
  305SOL    HW1 1814   0.445   1.413   2.060
  305SOL    HW2 1815   0.518   1.395   1.915
  306SOL     OW 1816   1.732   1.269   2.533
  306SOL    HW1 1817   1.831   1.259   2.540
  306SOL    HW2 1818   1.708   1.366   2.526
  307SOL     OW 1819   1.381   0.580   1.911
  307SOL    HW1 1820   1.331   0.564   1.996
  307SOL    HW2 1821   1.479   0.581   1.929
  308SOL     OW 1822   0.525   0.246   2.163
  308SOL    HW1 1823   0.592   0.218   2.094
  308SOL    HW2 1824   0.484   0.333   2.136
  309SOL     OW 1825   1.734   1.220   3.392
  309SOL    HW1 1826   1.825   1.179   3.387
  309SOL    HW2 1827   1.742   1.315   3.422
  310SOL     OW 1828   1.014   1.350   3.209
  310SOL    HW1 1829   0.929   1.322   3.253
  310SOL    HW2 1830   1.090   1.298   3.247
  311SOL     OW 1831   1.622   1.640   3.541
  311SOL    HW1 1832   1.596   1.679   3.453
  311SOL    HW2 1833   1.696   1.574   3.529
  312SOL     OW 1834   1.144   1.277   2.973
  312SOL    HW1 1835   1.080   1.302   3.045
  312SOL    HW2 1836   1.106   1.305   2.884
  313SOL     OW 1837   1.579   1.102   2.935
  313SOL    HW1 1838   1.575   1.173   3.006
  313SOL    HW2 1839   1.525   1.132   2.856
  314SOL     OW 1840   0.854   0.171   3.182
  314SOL    HW1 1841   0.883   0.142   3.090
  314SOL    HW2 1842   0.934   0.202   3.233
  315SOL     OW 1843   0.948   1.109   3.585
  315SOL    HW1 1844   0.854   1.122   3.618
  315SOL    HW2 1845   0.950   1.029   3.525
  316SOL     OW 1846   0.723   1.055   2.264
  316SOL    HW1 1847   0.703   1.022   2.356
  316SOL    HW2 1848   0.811   1.017   2.234
  317SOL     OW 1849   0.441   0.787   3.127
  317SOL    HW1 1850   0.512   0.796   3.197
  317SOL    HW2 1851   0.405   0.694   3.129
  318SOL     OW 1852   1.257   0.376   3.138
  318SOL    HW1 1853   1.284   0.455   3.194
  318SOL    HW2 1854   1.168   0.395   3.095
  319SOL     OW 1855   0.078   1.531   3.256
  319SOL    HW1 1856   0.038   1.575   3.337
  319SOL    HW2 1857   0.176   1.551   3.253
  320SOL     OW 1858   0.360   1.141   2.305
  320SOL    HW1 1859   0.347   1.222   2.248
  320SOL    HW2 1860   0.344   1.058   2.251
  321SOL     OW 1861   0.522   0.515   2.739
  321SOL    HW1 1862   0.534   0.572   2.657
  321SOL    HW2 1863   0.590   0.541   2.808
  322SOL     OW 1864   1.252   1.379   2.260
  322SOL    HW1 1865   1.314   1.454   2.285
  322SOL    HW2 1866   1.160   1.400   2.293
  323SOL     OW 1867   1.323   1.481   3.003
  323SOL    HW1 1868   1.366   1.485   3.094
  323SOL    HW2 1869   1.260   1.403   3.000
  324SOL     OW 1870   1.578   0.632   2.356
  324SOL    HW1 1871   1.514   0.691   2.406
  324SOL    HW2 1872   1.652   0.688   2.318
  325SOL     OW 1873   0.347   1.537   3.181
  325SOL    HW1 1874   0.336   1.482   3.098
  325SOL    HW2 1875   0.443   1.564   3.190
  326SOL     OW 1876   0.525   0.675   3.532
  326SOL    HW1 1877   0.558   0.725   3.452
  326SOL    HW2 1878   0.593   0.608   3.560
  327SOL     OW 1879   1.612   0.819   3.554
  327SOL    HW1 1880   1.516   0.849   3.549
  327SOL    HW2 1881   1.661   0.851   3.473
  328SOL     OW 1882   1.047   0.099   3.555
  328SOL    HW1 1883   1.062   0.145   3.468
  328SOL    HW2 1884   1.048   7.000   3.541
  329SOL     OW 1885   0.441   0.054   3.742
  329SOL    HW1 1886   0.373   6.993   3.783
  329SOL    HW2 1887   0.404   0.146   3.735
  330SOL     OW 1888   0.562   0.889   2.898
  330SOL    HW1 1889   0.610   0.975   2.912
  330SOL    HW2 1890   0.519   0.861   2.983
  331SOL     OW 1891   1.278   0.850   2.871
  331SOL    HW1 1892   1.187   0.824   2.837
  331SOL    HW2 1893   1.346   0.784   2.839
  332SOL     OW 1894   1.200   0.544   2.117
  332SOL    HW1 1895   1.219   0.466   2.176
  332SOL    HW2 1896   1.146   0.612   2.167
  333SOL     OW 1897   0.346   0.173   3.074
  333SOL    HW1 1898   0.278   0.175   3.148
  333SOL    HW2 1899   0.349   0.082   3.034
  334SOL     OW 1900   0.096   1.287   3.144
  334SOL    HW1 1901   0.117   1.218   3.213
  334SOL    HW2 1902   0.083   1.376   3.187
  335SOL     OW 1903   0.709   0.652   2.896
  335SOL    HW1 1904   0.774   0.628   2.823
  335SOL    HW2 1905   0.664   0.738   2.874
  336SOL     OW 1906   1.771   0.965   3.728
  336SOL    HW1 1907   1.718   0.905   3.668
  336SOL    HW2 1908   1.712   1.002   3.800
  337SOL     OW 1909   0.368   0.073   2.477
  337SOL    HW1 1910   0.345   0.156   2.526
  337SOL    HW2 1911   0.304   0.000   2.501
  338SOL     OW 1912   1.603   0.406   2.194
  338SOL    HW1 1913   1.668   0.353   2.249
  338SOL    HW2 1914   1.572   0.486   2.246
  339SOL     OW 1915   1.018   0.772   2.799
  339SOL    HW1 1916   0.994   0.791   2.894
  339SOL    HW2 1917   0.980   0.683   2.773
  340SOL     OW 1918   0.966   1.558   3.649
  340SOL    HW1 1919   0.941   1.623   3.576
  340SOL    HW2 1920   1.005   1.476   3.608
  341SOL     OW 1921   1.826   1.477   3.445
  341SOL    HW1 1922   1.846   1.510   3.352
  341SOL    HW2 1923   1.908   1.487   3.502
  342SOL     OW 1924   0.409   0.862   3.695
  342SOL    HW1 1925   0.477   0.906   3.755
  342SOL    HW2 1926   0.455   0.795   3.637
  343SOL     OW 1927   1.525   0.226   1.996
  343SOL    HW1 1928   1.429   0.239   1.971
  343SOL    HW2 1929   1.553   0.298   2.059
  344SOL     OW 1930   1.266   0.824   1.865
  344SOL    HW1 1931   1.303   0.732   1.874
  344SOL    HW2 1932   1.297   0.865   1.779
  345SOL     OW 1933   1.062   1.369   2.725
  345SOL    HW1 1934   1.075   1.287   2.669
  345SOL    HW2 1935   1.116   1.444   2.686
  346SOL     OW 1936   0.313   0.832   2.776
  346SOL    HW1 1937   0.408   0.854   2.797
  346SOL    HW2 1938   0.295   0.736   2.801
  347SOL     OW 1939   0.277   0.558   2.846
  347SOL    HW1 1940   0.231   0.470   2.850
  347SOL    HW2 1941   0.366   0.549   2.801
  348SOL     OW 1942   1.107   0.424   3.522
  348SOL    HW1 1943   1.071   0.445   3.613
  348SOL    HW2 1944   1.205   0.446   3.519
  349SOL     OW 1945   1.079   0.248   3.323
  349SOL    HW1 1946   1.080   0.320   3.392
  349SOL    HW2 1947   1.147   0.267   3.253
  350SOL     OW 1948   0.019   1.347   2.124
  350SOL    HW1 1949   6.952   1.378   2.190
  350SOL    HW2 1950   0.022   1.247   2.123
  351SOL     OW 1951   0.122   1.736   2.824
  351SOL    HW1 1952   0.091   1.660   2.767
  351SOL    HW2 1953   0.211   1.769   2.790
  352SOL     OW 1954   0.490   1.538   2.763
  352SOL    HW1 1955   0.564   1.594   2.800
  352SOL    HW2 1956   0.528   1.471   2.699
  353SOL     OW 1957   0.913   0.810   3.047
  353SOL    HW1 1958   0.971   0.779   3.122
  353SOL    HW2 1959   0.835   0.748   3.037
  354SOL     OW 1960   0.068   0.697   2.981
  354SOL    HW1 1961   0.140   0.652   2.927
  354SOL    HW2 1962   0.055   0.646   3.066
  355SOL     OW 1963   0.261   0.596   3.522
  355SOL    HW1 1964   0.359   0.616   3.531
  355SOL    HW2 1965   0.219   0.665   3.464
  356SOL     OW 1966   1.366   0.928   3.494
  356SOL    HW1 1967   1.389   1.026   3.493
  356SOL    HW2 1968   1.359   0.895   3.400
  357SOL     OW 1969   0.783   0.580   2.218
  357SOL    HW1 1970   0.794   0.498   2.163
  357SOL    HW2 1971   0.702   0.630   2.188
  358SOL     OW 1972   1.632   0.620   2.981
  358SOL    HW1 1973   1.608   0.540   3.036
  358SOL    HW2 1974   1.731   0.623   2.966
  359SOL     OW 1975   0.248   1.582   3.608
  359SOL    HW1 1976   0.192   1.641   3.667
  359SOL    HW2 1977   0.245   1.488   3.642
  360SOL     OW 1978   0.748   0.469   3.091
  360SOL    HW1 1979   0.693   0.387   3.075
  360SOL    HW2 1980   0.725   0.538   3.021
  361SOL     OW 1981   0.845   1.708   3.414
  361SOL    HW1 1982   0.810   1.634   3.357
  361SOL    HW2 1983   0.884   1.779   3.355
  362SOL     OW 1984   0.412   0.483   2.074
  362SOL    HW1 1985   0.471   0.563   2.084
  362SOL    HW2 1986   0.325   0.499   2.120
  363SOL     OW 1987   0.178   1.110   3.340
  363SOL    HW1 1988   0.195   1.062   3.426
  363SOL    HW2 1989   0.186   1.045   3.264
  364SOL     OW 1990   1.255   1.042   3.064
  364SOL    HW1 1991   1.268   0.973   2.992
  364SOL    HW2 1992   1.217   1.125   3.023
  365SOL     OW 1993   1.336   0.907   2.119
  365SOL    HW1 1994   1.263   0.895   2.186
  365SOL    HW2 1995   1.305   0.876   2.030
  366SOL     OW 1996   1.767   1.716   3.019
  366SOL    HW1 1997   1.835   1.746   2.951
  366SOL    HW2 1998   1.730   1.627   2.993
  367SOL     OW 1999   1.277   1.757   2.980
  367SOL    HW1 2000   1.367   1.797   2.961
  367SOL    HW2 2001   1.286   1.658   2.989
  368SOL     OW 2002   0.109   1.264   2.878
  368SOL    HW1 2003   0.101   1.263   2.978
  368SOL    HW2 2004   0.022   1.292   2.838
  369SOL     OW 2005   0.680   1.734   3.630
  369SOL    HW1 2006   0.610   1.805   3.622
  369SOL    HW2 2007   0.745   1.741   3.554
  370SOL     OW 2008   1.786   0.265   2.338
  370SOL    HW1 2009   1.830   0.230   2.255
  370SOL    HW2 2010   1.761   0.188   2.397
  371SOL     OW 2011   1.409   1.595   2.344
  371SOL    HW1 2012   1.473   1.633   2.277
  371SOL    HW2 2013   1.347   1.667   2.375
  372SOL     OW 2014   0.120   1.802   3.777
  372SOL    HW1 2015   0.077   1.717   3.806
  372SOL    HW2 2016   0.178   1.837   3.850
  373SOL     OW 2017   1.265   0.961   2.484
  373SOL    HW1 2018   1.339   0.900   2.511
  373SOL    HW2 2019   1.302   1.044   2.442
  374SOL     OW 2020   0.761   1.288   3.303
  374SOL    HW1 2021   0.740   1.344   3.384
  374SOL    HW2 2022   0.687   1.296   3.237
  375SOL     OW 2023   0.686   1.658   2.015
  375SOL    HW1 2024   0.703   1.676   1.918
  375SOL    HW2 2025   0.636   1.571   2.024
  376SOL     OW 2026   1.600   1.718   3.265
  376SOL    HW1 2027   1.659   1.713   3.184
  376SOL    HW2 2028   1.595   1.812   3.297
  377SOL     OW 2029   1.853   0.138   2.830
  377SOL    HW1 2030   1.862   0.050   2.782
  377SOL    HW2 2031   1.772   0.186   2.796
  378SOL     OW 2032   0.259   0.296   2.593
  378SOL    HW1 2033   0.166   0.317   2.562
  378SOL    HW2 2034   0.261   0.292   2.693
  379SOL     OW 2035   1.233   1.578   1.910
  379SOL    HW1 2036   1.222   1.484   1.942
  379SOL    HW2 2037   1.158   1.602   1.848
  380SOL     OW 2038   0.788   1.019   3.246
  380SOL    HW1 2039   0.823   1.010   3.152
  380SOL    HW2 2040   0.781   1.116   3.269
  381SOL     OW 2041   0.955   0.945   2.187
  381SOL    HW1 2042   0.983   0.953   2.092
  381SOL    HW2 2043   0.985   0.856   2.223
  382SOL     OW 2044   1.499   1.662   1.918
  382SOL    HW1 2045   1.405   1.632   1.906
  382SOL    HW2 2046   1.544   1.666   1.828
  383SOL     OW 2047   0.375   1.314   3.368
  383SOL    HW1 2048   0.368   1.390   3.304
  383SOL    HW2 2049   0.309   1.243   3.343
  384SOL     OW 2050   1.594   1.301   3.134
  384SOL    HW1 2051   1.664   1.268   3.197
  384SOL    HW2 2052   1.531   1.361   3.182
  385SOL     OW 2053   1.072   1.130   2.601
  385SOL    HW1 2054   0.994   1.079   2.638
  385SOL    HW2 2055   1.136   1.067   2.557
  386SOL     OW 2056   1.025   0.296   2.787
  386SOL    HW1 2057   1.015   0.266   2.692
  386SOL    HW2 2058   1.007   0.219   2.848
  387SOL     OW 2059   0.623   1.503   2.365
  387SOL    HW1 2060   0.666   1.447   2.294
  387SOL    HW2 2061   0.524   1.497   2.357
  388SOL     OW 2062   1.879   0.326   3.304
  388SOL    HW1 2063   1.912   0.412   3.264
  388SOL    HW2 2064   1.851   0.264   3.230
  389SOL     OW 2065   0.289   1.375   2.150
  389SOL    HW1 2066   0.189   1.373   2.147
  389SOL    HW2 2067   0.319   1.419   2.235
  390SOL     OW 2068   0.181   0.967   3.581
  390SOL    HW1 2069   0.133   1.026   3.647
  390SOL    HW2 2070   0.265   0.933   3.622
  391SOL     OW 2071   0.685   0.182   3.395
  391SOL    HW1 2072   0.747   0.177   3.317
  391SOL    HW2 2073   0.734   0.217   3.475
  392SOL     OW 2074   0.066   0.309   1.835
  392SOL    HW1 2075   6.993   0.240   1.834
  392SOL    HW2 2076   0.028   0.399   1.812
  393SOL     OW 2077   1.377   0.856   3.231
  393SOL    HW1 2078   1.314   0.915   3.179
  393SOL    HW2 2079   1.467   0.858   3.190
  394SOL     OW 2080   0.041   0.264   2.111
  394SOL    HW1 2081   0.055   0.283   2.014
  394SOL    HW2 2082   0.027   0.165   2.124
  395SOL     OW 2083   1.176   1.319   1.996
  395SOL    HW1 2084   1.077   1.306   1.993
  395SOL    HW2 2085   1.205   1.328   2.092
  396SOL     OW 2086   0.641   0.797   3.312
  396SOL    HW1 2087   0.687   0.884   3.294
  396SOL    HW2 2088   0.710   0.724   3.315
  397SOL     OW 2089   1.528   1.861   2.925
  397SOL    HW1 2090   1.550   1.907   2.840
  397SOL    HW2 2091   1.611   1.818   2.962
  398SOL     OW 2092   0.744   0.511   3.586
  398SOL    HW1 2093   0.804   0.579   3.627
  398SOL    HW2 2094   0.775   0.419   3.611
  399SOL     OW 2095   1.455   1.188   3.473
  399SOL    HW1 2096   1.444   1.211   3.570
  399SOL    HW2 2097   1.549   1.204   3.445
  400SOL     OW 2098   0.349   1.796   3.465
  400SOL    HW1 2099   0.261   1.844   3.459
  400SOL    HW2 2100   0.334   1.705   3.504
  401SOL     OW 2101   1.613   0.877   3.096
  401SOL    HW1 2102   1.624   0.791   3.046
  401SOL    HW2 2103   1.600   0.952   3.030
  402SOL     OW 2104   1.231   0.343   2.297
  402SOL    HW1 2105   1.294   0.265   2.296
  402SOL    HW2 2106   1.246   0.397   2.381
  403SOL     OW 2107   0.564   0.714   2.554
  403SOL    HW1 2108   0.614   0.800   2.543
  403SOL    HW2 2109   0.498   0.704   2.480
  404SOL     OW 2110   1.721   0.377   3.520
  404SOL    HW1 2111   1.776   0.361   3.438
  404SOL    HW2 2112   1.650   0.307   3.527
  405SOL     OW 2113   1.724   0.937   3.338
  405SOL    HW1 2114   1.712   1.035   3.354
  405SOL    HW2 2115   1.689   0.913   3.247
  406SOL     OW 2116   0.887   1.347   1.961
  406SOL    HW1 2117   0.840   1.358   2.049
  406SOL    HW2 2118   0.896   1.437   1.917
  407SOL     OW 2119   0.691   1.705   2.830
  407SOL    HW1 2120   0.666   1.801   2.821
  407SOL    HW2 2121   0.790   1.696   2.828
  408SOL     OW 2122   0.864   0.994   2.733
  408SOL    HW1 2123   0.920   0.914   2.755
  408SOL    HW2 2124   0.818   1.027   2.815
  409SOL     OW 2125   1.033   0.944   1.930
  409SOL    HW1 2126   1.011   1.017   1.864
  409SOL    HW2 2127   1.121   0.903   1.906
  410SOL     OW 2128   1.810   1.555   2.701
  410SOL    HW1 2129   1.739   1.549   2.631
  410SOL    HW2 2130   1.780   1.508   2.784
  411SOL     OW 2131   0.232   1.328   3.747
  411SOL    HW1 2132   0.149   1.274   3.739
  411SOL    HW2 2133   0.249   1.349   3.843
  412SOL     OW 2134   0.190   1.313   2.559
  412SOL    HW1 2135   0.231   1.245   2.620
  412SOL    HW2 2136   0.124   1.269   2.499
  413SOL     OW 2137   0.684   1.455   3.513
  413SOL    HW1 2138   0.604   1.410   3.552
  413SOL    HW2 2139   0.697   1.544   3.556
  414SOL     OW 2140   1.794   0.155   3.103
  414SOL    HW1 2141   1.699   0.128   3.091
  414SOL    HW2 2142   1.840   0.155   3.015
  415SOL     OW 2143   0.416   0.406   2.391
  415SOL    HW1 2144   0.464   0.334   2.342
  415SOL    HW2 2145   0.368   0.367   2.469
  416SOL     OW 2146   1.667   1.478   2.931
  416SOL    HW1 2147   1.585   1.478   2.873
  416SOL    HW2 2148   1.657   1.409   3.003
  417SOL     OW 2149   0.345   0.528   3.141
  417SOL    HW1 2150   0.403   0.466   3.195
  417SOL    HW2 2151   0.346   0.499   3.045
  418SOL     OW 2152   0.836   1.563   2.548
  418SOL    HW1 2153   0.780   1.594   2.471
  418SOL    HW2 2154   0.790   1.488   2.594
  419SOL     OW 2155   1.453   0.298   2.963
  419SOL    HW1 2156   1.488   0.206   2.984
  419SOL    HW2 2157   1.388   0.325   3.034
  420SOL     OW 2158   0.966   0.078   2.943
  420SOL    HW1 2159   0.961   0.034   2.854
  420SOL    HW2 2160   0.998   0.012   3.011
  421SOL     OW 2161   0.780   1.327   2.218
  421SOL    HW1 2162   0.758   1.231   2.234
  421SOL    HW2 2163   0.865   1.350   2.265
  422SOL     OW 2164   0.617   1.591   3.166
  422SOL    HW1 2165   0.606   1.685   3.199
  422SOL    HW2 2166   0.703   1.583   3.116
  423SOL     OW 2167   1.261   6.977   2.069
  423SOL    HW1 2168   1.318   6.907   2.025
  423SOL    HW2 2169   1.176   6.936   2.100
  424SOL     OW 2170   1.250   0.492   2.522
  424SOL    HW1 2171   1.204   0.580   2.521
  424SOL    HW2 2172   1.271   0.466   2.616
  425SOL     OW 2173   1.633   0.273   2.738
  425SOL    HW1 2174   1.570   0.282   2.816
  425SOL    HW2 2175   1.635   0.359   2.687
  426SOL     OW 2176   0.063   1.076   2.146
  426SOL    HW1 2177   0.154   1.035   2.140
  426SOL    HW2 2178   6.996   1.004   2.164
  427SOL     OW 2179   0.905   1.684   2.194
  427SOL    HW1 2180   0.829   1.673   2.129
  427SOL    HW2 2181   0.883   1.758   2.258
  428SOL     OW 2182   0.184   0.756   3.861
  428SOL    HW1 2183   0.170   0.678   3.922
  428SOL    HW2 2184   0.257   0.735   3.797
  429SOL     OW 2185   0.187   0.284   4.719
  429SOL    HW1 2186   0.252   0.241   4.782
  429SOL    HW2 2187   0.096   0.245   4.734
  430SOL     OW 2188   0.001   0.395   4.396
  430SOL    HW1 2189   6.952   0.408   4.482
  430SOL    HW2 2190   6.999   0.298   4.371
  431SOL     OW 2191   0.573   1.318   4.943
  431SOL    HW1 2192   0.486   1.308   4.895
  431SOL    HW2 2193   0.601   1.414   4.940
  432SOL     OW 2194   1.599   1.464   4.407
  432SOL    HW1 2195   1.546   1.449   4.491
  432SOL    HW2 2196   1.539   1.498   4.335
  433SOL     OW 2197   1.140   0.738   4.388
  433SOL    HW1 2198   1.191   0.823   4.373
  433SOL    HW2 2199   1.094   0.742   4.476
  434SOL     OW 2200   1.793   0.588   3.926
  434SOL    HW1 2201   1.758   0.602   3.833
  434SOL    HW2 2202   1.740   0.516   3.971
  435SOL     OW 2203   0.740   1.131   4.818
  435SOL    HW1 2204   0.669   1.175   4.873
  435SOL    HW2 2205   0.787   1.201   4.764
  436SOL     OW 2206   0.901   0.739   5.517
  436SOL    HW1 2207   0.926   0.807   5.586
  436SOL    HW2 2208   0.907   0.781   5.426
  437SOL     OW 2209   0.683   0.974   4.394
  437SOL    HW1 2210   0.759   0.979   4.458
  437SOL    HW2 2211   0.617   1.045   4.415
  438SOL     OW 2212   0.696   1.155   5.568
  438SOL    HW1 2213   0.752   1.225   5.612
  438SOL    HW2 2214   0.617   1.199   5.525
  439SOL     OW 2215   0.349   1.367   4.785
  439SOL    HW1 2216   0.264   1.315   4.772
  439SOL    HW2 2217   0.371   1.416   4.701
  440SOL     OW 2218   1.445   1.502   5.107
  440SOL    HW1 2219   1.503   1.583   5.116
  440SOL    HW2 2220   1.367   1.509   5.169
  441SOL     OW 2221   0.444   0.334   5.177
  441SOL    HW1 2222   0.522   0.283   5.213
  441SOL    HW2 2223   0.363   0.313   5.232
  442SOL     OW 2224   1.641   0.495   4.465
  442SOL    HW1 2225   1.621   0.524   4.372
  442SOL    HW2 2226   1.585   0.547   4.530
  443SOL     OW 2227   0.258   1.756   4.209
  443SOL    HW1 2228   0.216   1.834   4.163
  443SOL    HW2 2229   0.340   1.729   4.161
  444SOL     OW 2230   1.130   1.326   5.427
  444SOL    HW1 2231   1.219   1.290   5.456
  444SOL    HW2 2232   1.062   1.253   5.430
  445SOL     OW 2233   0.334   1.478   4.269
  445SOL    HW1 2234   0.296   1.569   4.286
  445SOL    HW2 2235   0.293   1.413   4.332
  446SOL     OW 2236   0.278   1.089   4.593
  446SOL    HW1 2237   0.288   0.990   4.606
  446SOL    HW2 2238   0.218   1.126   4.665
  447SOL     OW 2239   0.565   1.767   5.124
  447SOL    HW1 2240   0.497   1.764   5.197
  447SOL    HW2 2241   0.623   1.848   5.136
  448SOL     OW 2242   0.581   0.987   3.897
  448SOL    HW1 2243   0.625   1.040   3.825
  448SOL    HW2 2244   0.624   1.009   3.985
  449SOL     OW 2245   1.599   0.143   5.223
  449SOL    HW1 2246   1.662   0.216   5.196
  449SOL    HW2 2247   1.553   0.169   5.308
  450SOL     OW 2248   0.110   0.633   4.297
  450SOL    HW1 2249   0.074   0.547   4.331
  450SOL    HW2 2250   0.087   0.707   4.360
  451SOL     OW 2251   1.860   1.756   4.058
  451SOL    HW1 2252   1.937   1.743   4.120
  451SOL    HW2 2253   1.865   1.848   4.018
  452SOL     OW 2254   6.997   1.575   3.837
  452SOL    HW1 2255   0.006   1.489   3.888
  452SOL    HW2 2256   6.906   1.579   3.795
  453SOL     OW 2257   1.723   0.863   4.383
  453SOL    HW1 2258   1.803   0.856   4.442
  453SOL    HW2 2259   1.751   0.858   4.287
  454SOL     OW 2260   1.668   1.130   4.157
  454SOL    HW1 2261   1.757   1.104   4.119
  454SOL    HW2 2262   1.678   1.148   4.255
  455SOL     OW 2263   0.244   0.732   5.289
  455SOL    HW1 2264   0.344   0.732   5.285
  455SOL    HW2 2265   0.213   0.820   5.326
  456SOL     OW 2266   0.617   1.388   4.506
  456SOL    HW1 2267   0.572   1.300   4.493
  456SOL    HW2 2268   0.630   1.433   4.417
  457SOL     OW 2269   1.239   1.214   5.142
  457SOL    HW1 2270   1.256   1.144   5.073
  457SOL    HW2 2271   1.313   1.214   5.210
  458SOL     OW 2272   0.871   0.035   4.213
  458SOL    HW1 2273   0.912   0.124   4.192
  458SOL    HW2 2274   0.775   0.047   4.237
  459SOL     OW 2275   0.212   0.925   4.999
  459SOL    HW1 2276   0.302   0.882   4.986
  459SOL    HW2 2277   0.143   0.874   4.948
  460SOL     OW 2278   1.568   1.049   3.911
  460SOL    HW1 2279   1.495   0.983   3.932
  460SOL    HW2 2280   1.605   1.085   3.996
  461SOL     OW 2281   1.155   1.793   5.365
  461SOL    HW1 2282   1.178   1.866   5.301
  461SOL    HW2 2283   1.179   1.705   5.324
  462SOL     OW 2284   0.345   0.319   5.593
  462SOL    HW1 2285   0.369   0.369   5.676
  462SOL    HW2 2286   0.246   0.305   5.590
  463SOL     OW 2287   1.475   1.398   4.640
  463SOL    HW1 2288   1.414   1.428   4.713
  463SOL    HW2 2289   1.456   1.303   4.618
  464SOL     OW 2290   1.644   1.867   4.263
  464SOL    HW1 2291   1.633   1.799   4.191
  464SOL    HW2 2292   1.671   1.822   4.348
  465SOL     OW 2293   0.554   0.713   3.998
  465SOL    HW1 2294   0.571   0.805   3.963
  465SOL    HW2 2295   0.494   0.718   4.078
  466SOL     OW 2296   1.298   0.372   4.640
  466SOL    HW1 2297   1.207   0.333   4.653
  466SOL    HW2 2298   1.359   0.339   4.712
  467SOL     OW 2299   1.600   1.682   4.054
  467SOL    HW1 2300   1.698   1.698   4.050
  467SOL    HW2 2301   1.565   1.665   3.962
  468SOL     OW 2302   0.801   0.585   5.170
  468SOL    HW1 2303   0.773   0.549   5.259
  468SOL    HW2 2304   0.777   0.519   5.099
  469SOL     OW 2305   1.363   0.488   5.392
  469SOL    HW1 2306   1.367   0.539   5.478
  469SOL    HW2 2307   1.415   0.403   5.401
  470SOL     OW 2308   0.938   0.900   5.281
  470SOL    HW1 2309   0.994   0.833   5.232
  470SOL    HW2 2310   0.889   0.957   5.216
  471SOL     OW 2311   1.012   0.383   4.888
  471SOL    HW1 2312   0.920   0.405   4.921
  471SOL    HW2 2313   1.006   0.343   4.797
  472SOL     OW 2314   1.042   0.689   4.132
  472SOL    HW1 2315   1.068   0.697   4.228
  472SOL    HW2 2316   0.950   0.650   4.126
  473SOL     OW 2317   0.056   0.818   4.501
  473SOL    HW1 2318   0.151   0.821   4.533
  473SOL    HW2 2319   6.995   0.821   4.580
  474SOL     OW 2320   0.119   1.863   5.359
  474SOL    HW1 2321   0.131   1.833   5.454
  474SOL    HW2 2322   0.022   1.864   5.336
  475SOL     OW 2323   0.849   0.359   3.928
  475SOL    HW1 2324   0.909   0.403   3.862
  475SOL    HW2 2325   0.802   0.282   3.884
  476SOL     OW 2326   1.652   0.604   5.574
  476SOL    HW1 2327   1.638   0.689   5.524
  476SOL    HW2 2328   1.679   0.532   5.510
  477SOL     OW 2329   1.390   1.153   4.206
  477SOL    HW1 2330   1.485   1.153   4.175
  477SOL    HW2 2331   1.343   1.232   4.168
  478SOL     OW 2332   0.504   0.215   4.651
  478SOL    HW1 2333   0.549   0.217   4.740
  478SOL    HW2 2334   0.505   0.306   4.611
  479SOL     OW 2335   0.997   1.462   4.182
  479SOL    HW1 2336   0.977   1.537   4.119
  479SOL    HW2 2337   0.969   1.488   4.275
  480SOL     OW 2338   1.805   1.058   4.648
  480SOL    HW1 2339   1.774   1.101   4.564
  480SOL    HW2 2340   1.730   1.056   4.714
  481SOL     OW 2341   1.195   1.529   5.244
  481SOL    HW1 2342   1.185   1.460   5.315
  481SOL    HW2 2343   1.136   1.507   5.167
  482SOL     OW 2344   0.314   0.968   3.983
  482SOL    HW1 2345   0.406   0.978   3.946
  482SOL    HW2 2346   0.270   0.888   3.943
  483SOL     OW 2347   1.471   0.782   4.425
  483SOL    HW1 2348   1.462   0.728   4.508
  483SOL    HW2 2349   1.564   0.817   4.417
  484SOL     OW 2350   0.471   1.296   5.473
  484SOL    HW1 2351   0.450   1.297   5.375
  484SOL    HW2 2352   0.386   1.291   5.525
  485SOL     OW 2353   1.163   1.754   3.952
  485SOL    HW1 2354   1.071   1.732   3.985
  485SOL    HW2 2355   1.192   1.687   3.884
  486SOL     OW 2356   0.188   0.312   5.294
  486SOL    HW1 2357   0.150   0.396   5.254
  486SOL    HW2 2358   0.152   0.301   5.386
  487SOL     OW 2359   1.636   1.382   3.825
  487SOL    HW1 2360   1.612   1.478   3.815
  487SOL    HW2 2361   1.561   1.325   3.790
  488SOL     OW 2362   0.486   1.763   4.052
  488SOL    HW1 2363   0.538   1.810   4.123
  488SOL    HW2 2364   0.549   1.716   3.990
  489SOL     OW 2365   1.406   0.102   4.144
  489SOL    HW1 2366   1.368   0.061   4.061
  489SOL    HW2 2367   1.502   0.125   4.129
  490SOL     OW 2368   0.308   1.788   4.805
  490SOL    HW1 2369   0.311   1.710   4.868
  490SOL    HW2 2370   0.223   1.785   4.752
  491SOL     OW 2371   0.929   1.686   4.590
  491SOL    HW1 2372   1.022   1.648   4.592
  491SOL    HW2 2373   0.881   1.652   4.509
  492SOL     OW 2374   0.382   0.676   4.213
  492SOL    HW1 2375   0.410   0.581   4.229
  492SOL    HW2 2376   0.285   0.686   4.234
  493SOL     OW 2377   1.495   0.244   5.471
  493SOL    HW1 2378   1.551   0.231   5.553
  493SOL    HW2 2379   1.402   0.212   5.489
  494SOL     OW 2380   0.690   0.116   3.846
  494SOL    HW1 2381   0.725   0.039   3.899
  494SOL    HW2 2382   0.601   0.091   3.806
  495SOL     OW 2383   0.806   0.266   5.493
  495SOL    HW1 2384   0.900   0.235   5.479
  495SOL    HW2 2385   0.765   0.216   5.569
  496SOL     OW 2386   0.890   1.539   4.891
  496SOL    HW1 2387   0.870   1.479   4.813
  496SOL    HW2 2388   0.944   1.489   4.958
  497SOL     OW 2389   1.292   0.600   5.151
  497SOL    HW1 2390   1.327   0.567   5.239
  497SOL    HW2 2391   1.327   0.691   5.133
  498SOL     OW 2392   0.825   1.361   4.687
  498SOL    HW1 2393   0.914   1.368   4.643
  498SOL    HW2 2394   0.753   1.372   4.619
  499SOL     OW 2395   0.933   0.498   4.579
  499SOL    HW1 2396   0.901   0.498   4.484
  499SOL    HW2 2397   0.971   0.408   4.602
  500SOL     OW 2398   0.604   0.089   4.236
  500SOL    HW1 2399   0.523   0.066   4.290
  500SOL    HW2 2400   0.578   0.149   4.161
  501SOL     OW 2401   1.424   1.219   3.747
  501SOL    HW1 2402   1.473   1.151   3.802
  501SOL    HW2 2403   1.337   1.241   3.791
  502SOL     OW 2404   0.289   0.126   4.081
  502SOL    HW1 2405   0.372   0.175   4.053
  502SOL    HW2 2406   0.299   0.097   4.177
  503SOL     OW 2407   0.978   0.277   4.157
  503SOL    HW1 2408   0.937   0.310   4.072
  503SOL    HW2 2409   1.077   0.295   4.154
  504SOL     OW 2410   1.039   0.707   5.119
  504SOL    HW1 2411   0.963   0.646   5.142
  504SOL    HW2 2412   1.126   0.658   5.129
  505SOL     OW 2413   1.195   1.623   4.546
  505SOL    HW1 2414   1.229   1.671   4.464
  505SOL    HW2 2415   1.239   1.661   4.627
  506SOL     OW 2416   0.485   1.159   4.432
  506SOL    HW1 2417   0.414   1.130   4.496
  506SOL    HW2 2418   0.447   1.160   4.339
  507SOL     OW 2419   1.257   1.796   4.337
  507SOL    HW1 2420   1.307   1.859   4.278
  507SOL    HW2 2421   1.179   1.844   4.378
  508SOL     OW 2422   1.022   0.503   3.773
  508SOL    HW1 2423   0.991   0.592   3.739
  508SOL    HW2 2424   1.096   0.516   3.839
  509SOL     OW 2425   0.114   0.541   5.127
  509SOL    HW1 2426   0.199   0.524   5.078
  509SOL    HW2 2427   0.128   0.616   5.193
  510SOL     OW 2428   0.591   0.211   4.921
  510SOL    HW1 2429   0.637   0.157   4.991
  510SOL    HW2 2430   0.492   0.201   4.931
  511SOL     OW 2431   0.863   0.469   4.322
  511SOL    HW1 2432   0.816   0.523   4.252
  511SOL    HW2 2433   0.907   0.389   4.279
  512SOL     OW 2434   1.066   0.021   4.429
  512SOL    HW1 2435   1.000   0.028   4.354
  512SOL    HW2 2436   1.072   6.926   4.459
  513SOL     OW 2437   1.471   1.134   4.565
  513SOL    HW1 2438   1.398   1.082   4.521
  513SOL    HW2 2439   1.549   1.143   4.502
  514SOL     OW 2440   1.453   0.617   4.647
  514SOL    HW1 2441   1.391   0.538   4.651
  514SOL    HW2 2442   1.516   0.614   4.724
  515SOL     OW 2443   1.809   0.773   4.128
  515SOL    HW1 2444   1.886   0.744   4.185
  515SOL    HW2 2445   1.806   0.716   4.046
  516SOL     OW 2446   0.520   1.432   3.873
  516SOL    HW1 2447   0.441   1.408   3.929
  516SOL    HW2 2448   0.513   1.387   3.783
  517SOL     OW 2449   1.715   1.207   4.422
  517SOL    HW1 2450   1.814   1.200   4.406
  517SOL    HW2 2451   1.686   1.302   4.409
  518SOL     OW 2452   1.387   0.580   3.771
  518SOL    HW1 2453   1.339   0.560   3.856
  518SOL    HW2 2454   1.485   0.581   3.787
  519SOL     OW 2455   0.526   0.257   4.030
  519SOL    HW1 2456   0.593   0.222   3.964
  519SOL    HW2 2457   0.490   0.344   3.997
  520SOL     OW 2458   1.728   1.225   5.261
  520SOL    HW1 2459   1.817   1.180   5.269
  520SOL    HW2 2460   1.737   1.322   5.287
  521SOL     OW 2461   1.019   1.365   5.071
  521SOL    HW1 2462   0.932   1.338   5.112
  521SOL    HW2 2463   1.092   1.308   5.108
  522SOL     OW 2464   1.611   1.640   5.399
  522SOL    HW1 2465   1.593   1.686   5.312
  522SOL    HW2 2466   1.688   1.577   5.388
  523SOL     OW 2467   1.144   1.270   4.837
  523SOL    HW1 2468   1.082   1.301   4.909
  523SOL    HW2 2469   1.111   1.303   4.749
  524SOL     OW 2470   1.590   1.078   4.817
  524SOL    HW1 2471   1.582   1.152   4.883
  524SOL    HW2 2472   1.527   1.095   4.741
  525SOL     OW 2473   0.866   0.136   5.076
  525SOL    HW1 2474   0.884   0.135   4.978
  525SOL    HW2 2475   0.944   0.177   5.124
  526SOL     OW 2476   0.950   1.117   5.448
  526SOL    HW1 2477   0.857   1.132   5.480
  526SOL    HW2 2478   0.952   1.039   5.386
  527SOL     OW 2479   0.722   1.045   4.127
  527SOL    HW1 2480   0.703   1.017   4.221
  527SOL    HW2 2481   0.810   1.007   4.098
  528SOL     OW 2482   0.448   0.781   4.975
  528SOL    HW1 2483   0.518   0.796   5.044
  528SOL    HW2 2484   0.411   0.689   4.985
  529SOL     OW 2485   1.256   0.377   5.001
  529SOL    HW1 2486   1.273   0.459   5.054
  529SOL    HW2 2487   1.166   0.383   4.957
  530SOL     OW 2488   0.023   1.534   5.112
  530SOL    HW1 2489   6.941   1.561   5.162
  530SOL    HW2 2490   0.098   1.597   5.134
  531SOL     OW 2491   0.371   1.155   4.182
  531SOL    HW1 2492   0.351   1.233   4.124
  531SOL    HW2 2493   0.356   1.070   4.131
  532SOL     OW 2494   0.508   0.503   4.594
  532SOL    HW1 2495   0.508   0.558   4.510
  532SOL    HW2 2496   0.586   0.529   4.651
  533SOL     OW 2497   1.253   1.380   4.113
  533SOL    HW1 2498   1.316   1.448   4.150
  533SOL    HW2 2499   1.160   1.399   4.146
  534SOL     OW 2500   1.331   1.469   4.862
  534SOL    HW1 2501   1.374   1.478   4.952
  534SOL    HW2 2502   1.267   1.392   4.863
  535SOL     OW 2503   1.584   0.618   4.220
  535SOL    HW1 2504   1.514   0.671   4.268
  535SOL    HW2 2505   1.655   0.679   4.185
  536SOL     OW 2506   0.334   1.571   4.973
  536SOL    HW1 2507   0.319   1.489   4.918
  536SOL    HW2 2508   0.432   1.581   4.992
  537SOL     OW 2509   0.517   0.708   5.356
  537SOL    HW1 2510   0.564   0.755   5.282
  537SOL    HW2 2511   0.575   0.634   5.390
  538SOL     OW 2512   1.608   0.829   5.429
  538SOL    HW1 2513   1.512   0.858   5.420
  538SOL    HW2 2514   1.659   0.857   5.348
  539SOL     OW 2515   1.046   0.121   5.444
  539SOL    HW1 2516   1.068   0.160   5.354
  539SOL    HW2 2517   1.033   0.023   5.435
  540SOL     OW 2518   0.458   0.072   5.599
  540SOL    HW1 2519   0.385   0.018   5.640
  540SOL    HW2 2520   0.426   0.165   5.583
  541SOL     OW 2521   0.671   0.857   4.822
  541SOL    HW1 2522   0.679   0.956   4.812
  541SOL    HW2 2523   0.582   0.835   4.862
  542SOL     OW 2524   1.284   0.837   4.730
  542SOL    HW1 2525   1.194   0.810   4.696
  542SOL    HW2 2526   1.352   0.768   4.705
  543SOL     OW 2527   1.208   0.533   3.978
  543SOL    HW1 2528   1.231   0.455   4.036
  543SOL    HW2 2529   1.157   0.601   4.031
  544SOL     OW 2530   0.324   0.152   4.916
  544SOL    HW1 2531   0.251   0.140   4.984
  544SOL    HW2 2532   0.342   0.065   4.872
  545SOL     OW 2533   0.131   1.304   5.015
  545SOL    HW1 2534   0.136   1.232   5.084
  545SOL    HW2 2535   0.089   1.386   5.055
  546SOL     OW 2536   0.720   0.594   4.735
  546SOL    HW1 2537   0.799   0.575   4.677
  546SOL    HW2 2538   0.714   0.693   4.751
  547SOL     OW 2539   1.760   0.979   5.606
  547SOL    HW1 2540   1.708   0.920   5.544
  547SOL    HW2 2541   1.700   1.011   5.679
  548SOL     OW 2542   0.345   0.067   4.342
  548SOL    HW1 2543   0.327   0.152   4.391
  548SOL    HW2 2544   0.283   6.996   4.375
  549SOL     OW 2545   1.598   0.415   4.032
  549SOL    HW1 2546   1.625   0.332   4.081
  549SOL    HW2 2547   1.573   0.486   4.098
  550SOL     OW 2548   1.030   0.744   4.642
  550SOL    HW1 2549   1.004   0.768   4.735
  550SOL    HW2 2550   1.001   0.651   4.622
  551SOL     OW 2551   0.989   1.545   5.515
  551SOL    HW1 2552   0.959   1.605   5.441
  551SOL    HW2 2553   1.029   1.462   5.476
  552SOL     OW 2554   1.825   1.482   5.309
  552SOL    HW1 2555   1.846   1.515   5.217
  552SOL    HW2 2556   1.905   1.493   5.367
  553SOL     OW 2557   0.421   0.891   5.538
  553SOL    HW1 2558   0.487   0.917   5.609
  553SOL    HW2 2559   0.462   0.822   5.478
  554SOL     OW 2560   1.516   0.227   3.837
  554SOL    HW1 2561   1.418   0.232   3.818
  554SOL    HW2 2562   1.542   0.302   3.899
  555SOL     OW 2563   1.262   0.818   3.719
  555SOL    HW1 2564   1.303   0.727   3.729
  555SOL    HW2 2565   1.295   0.860   3.634
  556SOL     OW 2566   1.076   1.378   4.593
  556SOL    HW1 2567   1.090   1.298   4.534
  556SOL    HW2 2568   1.133   1.454   4.561
  557SOL     OW 2569   0.309   0.810   4.608
  557SOL    HW1 2570   0.389   0.794   4.550
  557SOL    HW2 2571   0.297   0.733   4.670
  558SOL     OW 2572   0.272   0.543   4.724
  558SOL    HW1 2573   0.221   0.457   4.718
  558SOL    HW2 2574   0.359   0.534   4.674
  559SOL     OW 2575   1.090   0.440   5.382
  559SOL    HW1 2576   1.051   0.458   5.473
  559SOL    HW2 2577   1.187   0.466   5.383
  560SOL     OW 2578   1.087   0.246   5.198
  560SOL    HW1 2579   1.079   0.325   5.259
  560SOL    HW2 2580   1.156   0.264   5.128
  561SOL     OW 2581   0.014   1.345   3.988
  561SOL    HW1 2582   6.942   1.374   4.051
  561SOL    HW2 2583   0.021   1.245   3.988
  562SOL     OW 2584   0.088   1.783   4.639
  562SOL    HW1 2585   0.079   1.695   4.593
  562SOL    HW2 2586   0.066   1.856   4.574
  563SOL     OW 2587   0.526   1.593   4.668
  563SOL    HW1 2588   0.563   1.583   4.760
  563SOL    HW2 2589   0.563   1.520   4.610
  564SOL     OW 2590   0.942   0.811   4.882
  564SOL    HW1 2591   0.979   0.781   4.970
  564SOL    HW2 2592   0.842   0.820   4.890
  565SOL     OW 2593   0.077   0.688   4.876
  565SOL    HW1 2594   0.145   0.640   4.820
  565SOL    HW2 2595   0.071   0.644   4.965
  566SOL     OW 2596   0.260   0.574   5.514
  566SOL    HW1 2597   0.319   0.494   5.520
  566SOL    HW2 2598   0.280   0.624   5.430
  567SOL     OW 2599   1.363   0.935   5.359
  567SOL    HW1 2600   1.386   1.032   5.356
  567SOL    HW2 2601   1.355   0.899   5.266
  568SOL     OW 2602   0.787   0.583   4.082
  568SOL    HW1 2603   0.801   0.503   4.024
  568SOL    HW2 2604   0.706   0.633   4.051
  569SOL     OW 2605   1.630   0.588   4.850
  569SOL    HW1 2606   1.598   0.504   4.892
  569SOL    HW2 2607   1.730   0.585   4.842
  570SOL     OW 2608   0.291   1.571   5.492
  570SOL    HW1 2609   0.233   1.636   5.540
  570SOL    HW2 2610   0.270   1.478   5.522
  571SOL     OW 2611   0.747   0.432   4.950
  571SOL    HW1 2612   0.686   0.354   4.943
  571SOL    HW2 2613   0.730   0.495   4.875
  572SOL     OW 2614   0.871   1.691   5.288
  572SOL    HW1 2615   0.820   1.624   5.234
  572SOL    HW2 2616   0.919   1.754   5.227
  573SOL     OW 2617   0.408   0.486   3.929
  573SOL    HW1 2618   0.470   0.563   3.939
  573SOL    HW2 2619   0.321   0.507   3.975
  574SOL     OW 2620   0.182   1.103   5.200
  574SOL    HW1 2621   0.192   1.050   5.285
  574SOL    HW2 2622   0.191   1.041   5.122
  575SOL     OW 2623   1.261   1.035   4.921
  575SOL    HW1 2624   1.271   0.965   4.850
  575SOL    HW2 2625   1.218   1.117   4.882
  576SOL     OW 2626   1.354   0.893   3.967
  576SOL    HW1 2627   1.282   0.901   4.036
  576SOL    HW2 2628   1.315   0.865   3.880
  577SOL     OW 2629   1.751   1.685   4.870
  577SOL    HW1 2630   1.818   1.722   4.805
  577SOL    HW2 2631   1.728   1.592   4.844
  578SOL     OW 2632   1.293   1.729   4.781
  578SOL    HW1 2633   1.379   1.780   4.784
  578SOL    HW2 2634   1.308   1.637   4.818
  579SOL     OW 2635   0.110   1.224   4.761
  579SOL    HW1 2636   0.117   1.248   4.858
  579SOL    HW2 2637   0.016   1.197   4.740
  580SOL     OW 2638   0.696   1.724   5.495
  580SOL    HW1 2639   0.634   1.802   5.482
  580SOL    HW2 2640   0.768   1.728   5.426
  581SOL     OW 2641   1.675   0.187   4.154
  581SOL    HW1 2642   1.760   0.151   4.115
  581SOL    HW2 2643   1.668   0.158   4.249
  582SOL     OW 2644   1.413   1.579   4.227
  582SOL    HW1 2645   1.477   1.616   4.160
  582SOL    HW2 2646   1.354   1.653   4.261
  583SOL     OW 2647   0.135   1.764   5.620
  583SOL    HW1 2648   0.080   1.698   5.670
  583SOL    HW2 2649   0.187   1.820   5.685
  584SOL     OW 2650   1.292   0.977   4.382
  584SOL    HW1 2651   1.360   0.905   4.396
  584SOL    HW2 2652   1.323   1.040   4.311
  585SOL     OW 2653   0.757   1.310   5.157
  585SOL    HW1 2654   0.731   1.363   5.238
  585SOL    HW2 2655   0.681   1.309   5.092
  586SOL     OW 2656   0.680   1.649   3.888
  586SOL    HW1 2657   0.691   1.678   3.793
  586SOL    HW2 2658   0.630   1.562   3.891
  587SOL     OW 2659   1.604   1.728   5.120
  587SOL    HW1 2660   1.664   1.720   5.040
  587SOL    HW2 2661   1.594   1.824   5.144
  588SOL     OW 2662   1.876   0.115   4.706
  588SOL    HW1 2663   1.866   0.021   4.676
  588SOL    HW2 2664   1.798   0.169   4.675
  589SOL     OW 2665   0.264   0.306   4.452
  589SOL    HW1 2666   0.179   0.349   4.421
  589SOL    HW2 2667   0.260   0.291   4.551
  590SOL     OW 2668   1.239   1.573   3.762
  590SOL    HW1 2669   1.223   1.480   3.795
  590SOL    HW2 2670   1.166   1.600   3.700
  591SOL     OW 2671   0.802   1.045   5.093
  591SOL    HW1 2672   0.815   1.053   4.994
  591SOL    HW2 2673   0.786   1.136   5.132
  592SOL     OW 2674   0.952   0.935   4.046
  592SOL    HW1 2675   0.981   0.947   3.951
  592SOL    HW2 2676   0.989   0.849   4.081
  593SOL     OW 2677   1.505   1.649   3.791
  593SOL    HW1 2678   1.410   1.620   3.776
  593SOL    HW2 2679   1.552   1.655   3.703
  594SOL     OW 2680   0.376   1.308   5.220
  594SOL    HW1 2681   0.356   1.381   5.155
  594SOL    HW2 2682   0.314   1.231   5.204
  595SOL     OW 2683   1.601   1.289   5.008
  595SOL    HW1 2684   1.662   1.260   5.081
  595SOL    HW2 2685   1.538   1.359   5.042
  596SOL     OW 2686   1.084   1.139   4.469
  596SOL    HW1 2687   1.008   1.084   4.502
  596SOL    HW2 2688   1.156   1.080   4.433
  597SOL     OW 2689   1.041   0.239   4.634
  597SOL    HW1 2690   1.047   0.190   4.547
  597SOL    HW2 2691   1.006   0.178   4.705
  598SOL     OW 2692   0.615   1.487   4.247
  598SOL    HW1 2693   0.657   1.428   4.178
  598SOL    HW2 2694   0.516   1.480   4.241
  599SOL     OW 2695   1.810   0.337   5.159
  599SOL    HW1 2696   1.863   0.418   5.135
  599SOL    HW2 2697   1.824   0.266   5.091
  600SOL     OW 2698   0.283   1.378   4.021
  600SOL    HW1 2699   0.183   1.373   4.017
  600SOL    HW2 2700   0.310   1.423   4.106
  601SOL     OW 2701   0.180   0.966   5.442
  601SOL    HW1 2702   0.131   1.028   5.503
  601SOL    HW2 2703   0.269   0.943   5.483
  602SOL     OW 2704   0.673   0.194   5.263
  602SOL    HW1 2705   0.743   0.179   5.193
  602SOL    HW2 2706   0.715   0.234   5.344
  603SOL     OW 2707   0.048   0.301   3.751
  603SOL    HW1 2708   6.979   0.230   3.736
  603SOL    HW2 2709   0.021   0.384   3.703
  604SOL     OW 2710   1.375   0.856   5.098
  604SOL    HW1 2711   1.318   0.915   5.041
  604SOL    HW2 2712   1.466   0.848   5.058
  605SOL     OW 2713   0.071   0.286   4.022
  605SOL    HW1 2714   0.057   0.282   3.923
  605SOL    HW2 2715   0.142   0.221   4.048
  606SOL     OW 2716   1.176   1.318   3.853
  606SOL    HW1 2717   1.077   1.303   3.853
  606SOL    HW2 2718   1.207   1.330   3.948
  607SOL     OW 2719   0.655   0.816   5.148
  607SOL    HW1 2720   0.704   0.901   5.133
  607SOL    HW2 2721   0.719   0.740   5.151
  608SOL     OW 2722   1.536   1.857   4.786
  608SOL    HW1 2723   1.572   1.918   4.715
  608SOL    HW2 2724   1.611   1.803   4.824
  609SOL     OW 2725   0.727   0.533   5.432
  609SOL    HW1 2726   0.786   0.601   5.475
  609SOL    HW2 2727   0.754   0.442   5.463
  610SOL     OW 2728   1.449   1.195   5.344
  610SOL    HW1 2729   1.443   1.212   5.442
  610SOL    HW2 2730   1.543   1.211   5.314
  611SOL     OW 2731   0.383   1.776   5.335
  611SOL    HW1 2732   0.292   1.815   5.320
  611SOL    HW2 2733   0.374   1.689   5.384
  612SOL     OW 2734   1.616   0.848   4.969
  612SOL    HW1 2735   1.626   0.762   4.919
  612SOL    HW2 2736   1.609   0.924   4.903
  613SOL     OW 2737   1.247   0.330   4.159
  613SOL    HW1 2738   1.307   0.249   4.162
  613SOL    HW2 2739   1.260   0.384   4.242
  614SOL     OW 2740   0.517   0.754   4.438
  614SOL    HW1 2741   0.586   0.824   4.423
  614SOL    HW2 2742   0.473   0.732   4.350
  615SOL     OW 2743   1.718   0.397   5.407
  615SOL    HW1 2744   1.751   0.382   5.314
  615SOL    HW2 2745   1.636   0.342   5.423
  616SOL     OW 2746   1.721   0.935   5.206
  616SOL    HW1 2747   1.706   1.033   5.214
  616SOL    HW2 2748   1.687   0.903   5.118
  617SOL     OW 2749   0.881   1.347   3.829
  617SOL    HW1 2750   0.833   1.359   3.916
  617SOL    HW2 2751   0.893   1.436   3.785
  618SOL     OW 2752   0.727   1.834   4.705
  618SOL    HW1 2753   0.770   1.906   4.760
  618SOL    HW2 2754   0.797   1.774   4.668
  619SOL     OW 2755   0.884   0.983   4.588
  619SOL    HW1 2756   0.934   0.898   4.603
  619SOL    HW2 2757   0.846   1.015   4.675
  620SOL     OW 2758   1.034   0.944   3.789
  620SOL    HW1 2759   1.012   1.017   3.724
  620SOL    HW2 2760   1.120   0.901   3.763
  621SOL     OW 2761   1.835   1.517   4.544
  621SOL    HW1 2762   1.758   1.507   4.480
  621SOL    HW2 2763   1.812   1.472   4.631
  622SOL     OW 2764   0.234   1.316   5.608
  622SOL    HW1 2765   0.146   1.270   5.596
  622SOL    HW2 2766   0.250   1.333   5.706
  623SOL     OW 2767   0.186   1.308   4.436
  623SOL    HW1 2768   0.225   1.237   4.494
  623SOL    HW2 2769   0.117   1.268   4.375
  624SOL     OW 2770   0.669   1.466   5.367
  624SOL    HW1 2771   0.597   1.412   5.408
  624SOL    HW2 2772   0.681   1.551   5.418
  625SOL     OW 2773   1.828   0.137   4.978
  625SOL    HW1 2774   1.732   0.111   4.973
  625SOL    HW2 2775   1.867   0.139   4.886
  626SOL     OW 2776   0.443   0.422   4.274
  626SOL    HW1 2777   0.502   0.354   4.231
  626SOL    HW2 2778   0.387   0.378   4.344
  627SOL     OW 2779   1.704   1.430   4.784
  627SOL    HW1 2780   1.623   1.421   4.727
  627SOL    HW2 2781   1.695   1.372   4.865
  628SOL     OW 2782   0.355   0.522   5.002
  628SOL    HW1 2783   0.399   0.452   5.057
  628SOL    HW2 2784   0.353   0.493   4.906
  629SOL     OW 2785   0.823   1.629   4.350
  629SOL    HW1 2786   0.838   1.715   4.301
  629SOL    HW2 2787   0.745   1.582   4.310
  630SOL     OW 2788   1.473   0.309   4.850
  630SOL    HW1 2789   1.512   0.222   4.880
  630SOL    HW2 2790   1.399   0.335   4.911
  631SOL     OW 2791   0.938   0.064   4.814
  631SOL    HW1 2792   0.863   0.009   4.776
  631SOL    HW2 2793   1.004   0.004   4.858
  632SOL     OW 2794   0.771   1.321   4.090
  632SOL    HW1 2795   0.753   1.223   4.102
  632SOL    HW2 2796   0.860   1.343   4.129
  633SOL     OW 2797   0.626   1.589   4.932
  633SOL    HW1 2798   0.608   1.659   5.002
  633SOL    HW2 2799   0.725   1.582   4.917
  634SOL     OW 2800   1.265   6.980   3.934
  634SOL    HW1 2801   1.307   6.904   3.884
  634SOL    HW2 2802   1.184   6.946   3.982
  635SOL     OW 2803   1.262   0.481   4.384
  635SOL    HW1 2804   1.222   0.573   4.381
  635SOL    HW2 2805   1.276   0.454   4.479
  636SOL     OW 2806   1.661   0.274   4.632
  636SOL    HW1 2807   1.599   0.287   4.709
  636SOL    HW2 2808   1.661   0.357   4.575
  637SOL     OW 2809   0.068   1.078   4.021
  637SOL    HW1 2810   0.161   1.041   4.019
  637SOL    HW2 2811   0.003   1.004   4.037
  638SOL     OW 2812   0.910   1.681   4.037
  638SOL    HW1 2813   0.830   1.665   3.981
  638SOL    HW2 2814   0.893   1.757   4.100
  639SOL     OW 2815   0.178   0.725   5.730
  639SOL    HW1 2816   0.158   0.657   5.800
  639SOL    HW2 2817   0.219   0.681   5.651
  640SOL     OW 2818   0.171   0.322   6.613
  640SOL    HW1 2819   0.231   0.268   6.672
  640SOL    HW2 2820   0.076   0.305   6.638
  641SOL     OW 2821   6.979   0.367   6.235
  641SOL    HW1 2822   6.914   0.385   6.309
  641SOL    HW2 2823   6.997   0.269   6.231
  642SOL     OW 2824   0.594   1.235   6.825
  642SOL    HW1 2825   0.518   1.247   6.761
  642SOL    HW2 2826   0.611   1.320   6.874
  643SOL     OW 2827   1.603   1.497   6.321
  643SOL    HW1 2828   1.537   1.460   6.387
  643SOL    HW2 2829   1.555   1.529   6.240
  644SOL     OW 2830   1.126   0.706   6.245
  644SOL    HW1 2831   1.165   0.797   6.234
  644SOL    HW2 2832   1.068   0.704   6.326
  645SOL     OW 2833   1.816   0.576   5.787
  645SOL    HW1 2834   1.763   0.597   5.705
  645SOL    HW2 2835   1.772   0.502   5.838
  646SOL     OW 2836   0.737   1.130   6.617
  646SOL    HW1 2837   0.689   1.152   6.701
  646SOL    HW2 2838   0.762   1.214   6.570
  647SOL     OW 2839   0.676   0.957   6.246
  647SOL    HW1 2840   0.750   0.963   6.312
  647SOL    HW2 2841   0.605   1.023   6.271
  648SOL     OW 2842   0.406   1.300   6.632
  648SOL    HW1 2843   0.371   1.222   6.580
  648SOL    HW2 2844   0.438   1.371   6.568
  649SOL     OW 2845   1.624   0.500   6.335
  649SOL    HW1 2846   1.608   0.532   6.241
  649SOL    HW2 2847   1.569   0.555   6.398
  650SOL     OW 2848   0.261   1.732   6.077
  650SOL    HW1 2849   0.280   1.807   6.141
  650SOL    HW2 2850   0.324   1.737   6.000
  651SOL     OW 2851   0.338   1.470   6.123
  651SOL    HW1 2852   0.305   1.564   6.123
  651SOL    HW2 2853   0.295   1.418   6.197
  652SOL     OW 2854   0.296   1.084   6.496
  652SOL    HW1 2855   0.305   0.985   6.504
  652SOL    HW2 2856   0.203   1.111   6.520
  653SOL     OW 2857   0.624   1.763   0.007
  653SOL    HW1 2858   0.532   1.791   0.036
  653SOL    HW2 2859   0.683   1.843   0.002
  654SOL     OW 2860   0.582   0.983   5.758
  654SOL    HW1 2861   0.626   1.036   5.686
  654SOL    HW2 2862   0.623   1.005   5.846
  655SOL     OW 2863   0.096   0.607   6.155
  655SOL    HW1 2864   0.050   0.523   6.186
  655SOL    HW2 2865   0.084   0.679   6.224
  656SOL     OW 2866   1.878   1.746   5.923
  656SOL    HW1 2867   1.959   1.733   5.980
  656SOL    HW2 2868   1.881   1.837   5.882
  657SOL     OW 2869   6.976   1.602   5.759
  657SOL    HW1 2870   6.985   1.506   5.785
  657SOL    HW2 2871   6.884   1.635   5.784
  658SOL     OW 2872   1.713   0.940   6.252
  658SOL    HW1 2873   1.792   0.885   6.227
  658SOL    HW2 2874   1.691   1.003   6.176
  659SOL     OW 2875   1.673   1.123   6.041
  659SOL    HW1 2876   1.751   1.088   5.988
  659SOL    HW2 2877   1.704   1.196   6.101
  660SOL     OW 2878   0.614   1.355   6.314
  660SOL    HW1 2879   0.562   1.270   6.302
  660SOL    HW2 2880   0.619   1.404   6.227
  661SOL     OW 2881   0.865   0.045   6.094
  661SOL    HW1 2882   0.918   0.129   6.077
  661SOL    HW2 2883   0.773   0.070   6.123
  662SOL     OW 2884   0.193   0.914   6.766
  662SOL    HW1 2885   0.290   0.891   6.771
  662SOL    HW2 2886   0.139   0.831   6.765
  663SOL     OW 2887   1.556   1.058   5.792
  663SOL    HW1 2888   1.479   0.997   5.814
  663SOL    HW2 2889   1.594   1.094   5.877
  664SOL     OW 2890   1.411   1.410   6.502
  664SOL    HW1 2891   1.363   1.423   6.588
  664SOL    HW2 2892   1.406   1.313   6.475
  665SOL     OW 2893   1.646   1.878   6.115
  665SOL    HW1 2894   1.637   1.807   6.046
  665SOL    HW2 2895   1.672   1.837   6.202
  666SOL     OW 2896   0.554   0.696   5.877
  666SOL    HW1 2897   0.570   0.787   5.837
  666SOL    HW2 2898   0.487   0.703   5.951
  667SOL     OW 2899   1.287   0.394   6.499
  667SOL    HW1 2900   1.198   0.349   6.500
  667SOL    HW2 2901   1.349   0.346   6.560
  668SOL     OW 2902   1.610   1.682   5.920
  668SOL    HW1 2903   1.710   1.691   5.915
  668SOL    HW2 2904   1.574   1.667   5.828
  669SOL     OW 2905   0.757   0.656   0.019
  669SOL    HW1 2906   0.697   0.676   0.097
  669SOL    HW2 2907   0.715   0.584   6.964
  670SOL     OW 2908   1.021   0.416   6.773
  670SOL    HW1 2909   1.002   0.452   6.864
  670SOL    HW2 2910   0.970   0.331   6.759
  671SOL     OW 2911   1.028   0.674   5.991
  671SOL    HW1 2912   1.061   0.678   6.085
  671SOL    HW2 2913   0.936   0.634   5.990
  672SOL     OW 2914   0.071   0.793   6.361
  672SOL    HW1 2915   0.164   0.805   6.395
  672SOL    HW2 2916   0.007   0.789   6.438
  673SOL     OW 2917   0.056   1.903   0.286
  673SOL    HW1 2918   0.111   1.845   0.346
  673SOL    HW2 2919   6.983   1.849   0.245
  674SOL     OW 2920   0.855   0.350   5.810
  674SOL    HW1 2921   0.904   0.400   5.739
  674SOL    HW2 2922   0.808   0.272   5.770
  675SOL     OW 2923   1.408   1.172   6.157
  675SOL    HW1 2924   1.495   1.161   6.110
  675SOL    HW2 2925   1.355   1.244   6.113
  676SOL     OW 2926   0.514   0.243   6.489
  676SOL    HW1 2927   0.612   0.225   6.491
  676SOL    HW2 2928   0.498   0.341   6.476
  677SOL     OW 2929   1.002   1.478   6.053
  677SOL    HW1 2930   0.983   1.547   5.982
  677SOL    HW2 2931   0.961   1.508   6.139
  678SOL     OW 2932   0.402   1.782   6.475
  678SOL    HW1 2933   0.430   1.686   6.481
  678SOL    HW2 2934   0.469   1.839   6.522
  679SOL     OW 2935   1.811   1.065   6.481
  679SOL    HW1 2936   1.772   1.034   6.394
  679SOL    HW2 2937   1.738   1.073   6.549
  680SOL     OW 2938   0.308   0.949   5.833
  680SOL    HW1 2939   0.400   0.961   5.796
  680SOL    HW2 2940   0.268   0.866   5.796
  681SOL     OW 2941   1.479   0.793   6.277
  681SOL    HW1 2942   1.463   0.746   6.364
  681SOL    HW2 2943   1.563   0.847   6.284
  682SOL     OW 2944   1.156   1.763   5.807
  682SOL    HW1 2945   1.064   1.744   5.842
  682SOL    HW2 2946   1.186   1.688   5.748
  683SOL     OW 2947   1.625   1.385   5.701
  683SOL    HW1 2948   1.602   1.482   5.687
  683SOL    HW2 2949   1.552   1.328   5.663
  684SOL     OW 2950   0.476   1.766   5.899
  684SOL    HW1 2951   0.524   1.813   5.973
  684SOL    HW2 2952   0.542   1.715   5.844
  685SOL     OW 2953   1.437   0.104   5.996
  685SOL    HW1 2954   1.370   0.045   5.951
  685SOL    HW2 2955   1.502   0.138   5.928
  686SOL     OW 2956   0.265   1.755   6.781
  686SOL    HW1 2957   0.307   1.665   6.795
  686SOL    HW2 2958   0.205   1.752   6.701
  687SOL     OW 2959   0.961   1.677   6.452
  687SOL    HW1 2960   1.049   1.631   6.445
  687SOL    HW2 2961   0.902   1.648   6.376
  688SOL     OW 2962   0.369   0.659   6.078
  688SOL    HW1 2963   0.399   0.566   6.102
  688SOL    HW2 2964   0.271   0.666   6.093
  689SOL     OW 2965   0.705   0.122   5.710
  689SOL    HW1 2966   0.738   0.045   5.764
  689SOL    HW2 2967   0.618   0.097   5.667
  690SOL     OW 2968   0.865   1.460   6.758
  690SOL    HW1 2969   0.824   1.451   6.667
  690SOL    HW2 2970   0.941   1.396   6.767
  691SOL     OW 2971   0.804   1.368   6.504
  691SOL    HW1 2972   0.897   1.367   6.468
  691SOL    HW2 2973   0.739   1.369   6.428
  692SOL     OW 2974   0.966   0.558   6.480
  692SOL    HW1 2975   0.937   0.527   6.390
  692SOL    HW2 2976   1.009   0.482   6.529
  693SOL     OW 2977   0.610   0.140   6.141
  693SOL    HW1 2978   0.528   0.114   6.193
  693SOL    HW2 2979   0.584   0.171   6.050
  694SOL     OW 2980   1.414   1.219   5.617
  694SOL    HW1 2981   1.466   1.153   5.670
  694SOL    HW2 2982   1.336   1.251   5.670
  695SOL     OW 2983   0.352   0.027   5.976
  695SOL    HW1 2984   0.413   0.092   5.931
  695SOL    HW2 2985   0.337   0.055   6.071
  696SOL     OW 2986   0.993   0.281   6.041
  696SOL    HW1 2987   0.947   0.311   5.957
  696SOL    HW2 2988   1.092   0.295   6.030
  697SOL     OW 2989   1.211   1.573   6.373
  697SOL    HW1 2990   1.236   1.647   6.311
  697SOL    HW2 2991   1.293   1.532   6.412
  698SOL     OW 2992   0.465   1.130   6.283
  698SOL    HW1 2993   0.400   1.114   6.357
  698SOL    HW2 2994   0.417   1.129   6.196
  699SOL     OW 2995   1.265   1.794   6.207
  699SOL    HW1 2996   1.310   1.858   6.144
  699SOL    HW2 2997   1.186   1.839   6.249
  700SOL     OW 2998   1.004   0.508   5.637
  700SOL    HW1 2999   0.973   0.597   5.604
  700SOL    HW2 3000   1.080   0.520   5.701
  701SOL     OW 3001   0.624   0.148   6.780
  701SOL    HW1 3002   0.623   0.051   6.754
  701SOL    HW2 3003   0.531   0.185   6.773
  702SOL     OW 3004   0.888   0.472   6.228
  702SOL    HW1 3005   0.829   0.517   6.161
  702SOL    HW2 3006   0.933   0.393   6.187
  703SOL     OW 3007   1.042   0.017   6.326
  703SOL    HW1 3008   0.979   0.015   6.249
  703SOL    HW2 3009   1.046   6.926   6.368
  704SOL     OW 3010   1.402   1.137   6.444
  704SOL    HW1 3011   1.346   1.059   6.472
  704SOL    HW2 3012   1.404   1.143   6.344
  705SOL     OW 3013   1.431   0.651   6.508
  705SOL    HW1 3014   1.372   0.571   6.517
  705SOL    HW2 3015   1.497   0.653   6.583
  706SOL     OW 3016   1.808   0.763   5.985
  706SOL    HW1 3017   1.878   0.740   6.053
  706SOL    HW2 3018   1.817   0.703   5.906
  707SOL     OW 3019   0.517   1.421   5.734
  707SOL    HW1 3020   0.436   1.398   5.788
  707SOL    HW2 3021   0.510   1.381   5.643
  708SOL     OW 3022   1.772   1.297   6.216
  708SOL    HW1 3023   1.868   1.298   6.243
  708SOL    HW2 3024   1.725   1.375   6.257
  709SOL     OW 3025   1.375   0.601   5.637
  709SOL    HW1 3026   1.327   0.572   5.720
  709SOL    HW2 3027   1.474   0.600   5.655
  710SOL     OW 3028   0.524   0.226   5.896
  710SOL    HW1 3029   0.594   0.207   5.827
  710SOL    HW2 3030   0.482   0.315   5.877
  711SOL     OW 3031   1.777   1.117   0.186
  711SOL    HW1 3032   1.861   1.102   0.135
  711SOL    HW2 3033   1.747   1.212   0.174
  712SOL     OW 3034   1.073   1.281   6.703
  712SOL    HW1 3035   1.050   1.185   6.718
  712SOL    HW2 3036   1.069   1.301   6.605
  713SOL     OW 3037   1.594   1.106   6.646
  713SOL    HW1 3038   1.584   1.182   6.710
  713SOL    HW2 3039   1.525   1.114   6.574
  714SOL     OW 3040   0.725   1.049   5.988
  714SOL    HW1 3041   0.700   1.016   6.079
  714SOL    HW2 3042   0.813   1.008   5.961
  715SOL     OW 3043   0.453   0.849   6.819
  715SOL    HW1 3044   0.514   0.902   6.878
  715SOL    HW2 3045   0.444   0.756   6.856
  716SOL     OW 3046   1.264   0.325   6.862
  716SOL    HW1 3047   1.301   0.396   6.921
  716SOL    HW2 3048   1.182   0.360   6.816
  717SOL     OW 3049   0.080   1.482   6.873
  717SOL    HW1 3050   0.057   1.510   6.966
  717SOL    HW2 3051   0.175   1.503   6.854
  718SOL     OW 3052   0.342   1.132   6.039
  718SOL    HW1 3053   0.329   1.214   5.984
  718SOL    HW2 3054   0.336   1.051   5.980
  719SOL     OW 3055   0.518   0.525   6.477
  719SOL    HW1 3056   0.514   0.587   6.399
  719SOL    HW2 3057   0.599   0.545   6.532
  720SOL     OW 3058   1.263   1.380   6.035
  720SOL    HW1 3059   1.326   1.453   6.061
  720SOL    HW2 3060   1.169   1.410   6.051
  721SOL     OW 3061   1.294   1.439   6.746
  721SOL    HW1 3062   1.344   1.411   6.827
  721SOL    HW2 3063   1.208   1.387   6.740
  722SOL     OW 3064   1.590   0.624   6.085
  722SOL    HW1 3065   1.524   0.681   6.135
  722SOL    HW2 3066   1.662   0.682   6.046
  723SOL     OW 3067   0.360   1.498   6.813
  723SOL    HW1 3068   0.361   1.433   6.738
  723SOL    HW2 3069   0.454   1.516   6.843
  724SOL     OW 3070   0.644   0.858   6.620
  724SOL    HW1 3071   0.676   0.952   6.611
  724SOL    HW2 3072   0.564   0.856   6.681
  725SOL     OW 3073   1.281   0.900   6.559
  725SOL    HW1 3074   1.186   0.876   6.576
  725SOL    HW2 3075   1.334   0.818   6.541
  726SOL     OW 3076   1.201   0.528   5.837
  726SOL    HW1 3077   1.229   0.450   5.894
  726SOL    HW2 3078   1.144   0.590   5.892
  727SOL     OW 3079   0.341   0.170   6.771
  727SOL    HW1 3080   0.294   0.143   6.855
  727SOL    HW2 3081   0.341   0.094   6.706
  728SOL     OW 3082   0.013   1.219   6.822
  728SOL    HW1 3083   0.075   1.170   6.884
  728SOL    HW2 3084   0.027   1.318   6.833
  729SOL     OW 3085   0.734   0.600   6.624
  729SOL    HW1 3086   0.819   0.587   6.574
  729SOL    HW2 3087   0.709   0.697   6.623
  730SOL     OW 3088   0.352   0.104   6.238
  730SOL    HW1 3089   0.318   0.188   6.279
  730SOL    HW2 3090   0.300   0.026   6.273
  731SOL     OW 3091   1.645   0.403   5.928
  731SOL    HW1 3092   1.704   0.347   5.986
  731SOL    HW2 3093   1.608   0.479   5.982
  732SOL     OW 3094   1.016   0.806   6.608
  732SOL    HW1 3095   0.972   0.818   6.697
  732SOL    HW2 3096   1.004   0.712   6.577
  733SOL     OW 3097   1.968   1.457   0.165
  733SOL    HW1 3098   1.969   1.476   0.067
  733SOL    HW2 3099   1.877   1.428   0.193
  734SOL     OW 3100   1.531   0.225   5.753
  734SOL    HW1 3101   1.436   0.246   5.731
  734SOL    HW2 3102   1.570   0.299   5.808
  735SOL     OW 3103   1.261   0.843   5.594
  735SOL    HW1 3104   1.300   0.752   5.606
  735SOL    HW2 3105   1.292   0.882   5.507
  736SOL     OW 3106   1.066   1.346   6.435
  736SOL    HW1 3107   1.079   1.264   6.379
  736SOL    HW2 3108   1.121   1.421   6.398
  737SOL     OW 3109   0.317   0.806   6.481
  737SOL    HW1 3110   0.395   0.787   6.421
  737SOL    HW2 3111   0.310   0.734   6.550
  738SOL     OW 3112   0.299   0.558   6.636
  738SOL    HW1 3113   0.243   0.475   6.626
  738SOL    HW2 3114   0.381   0.550   6.579
  739SOL     OW 3115   1.191   0.135   0.053
  739SOL    HW1 3116   1.232   0.171   0.137
  739SOL    HW2 3117   1.212   0.197   6.977
  740SOL     OW 3118   0.007   1.341   5.852
  740SOL    HW1 3119   6.940   1.366   5.923
  740SOL    HW2 3120   0.012   1.241   5.845
  741SOL     OW 3121   0.134   1.743   6.537
  741SOL    HW1 3122   0.098   1.676   6.473
  741SOL    HW2 3123   0.227   1.768   6.510
  742SOL     OW 3124   0.506   1.524   6.498
  742SOL    HW1 3125   0.581   1.576   6.539
  742SOL    HW2 3126   0.542   1.467   6.424
  743SOL     OW 3127   0.885   0.853   6.866
  743SOL    HW1 3128   0.951   0.896   6.927
  743SOL    HW2 3129   0.839   0.778   6.914
  744SOL     OW 3130   0.063   0.666   6.772
  744SOL    HW1 3131   0.141   0.616   6.734
  744SOL    HW2 3132   0.044   0.633   6.864
  745SOL     OW 3133   0.778   0.560   5.978
  745SOL    HW1 3134   0.794   0.481   5.919
  745SOL    HW2 3135   0.698   0.610   5.945
  746SOL     OW 3136   1.626   0.650   6.696
  746SOL    HW1 3137   1.604   0.585   6.769
  746SOL    HW2 3138   1.724   0.650   6.680
  747SOL     OW 3139   0.658   0.460   6.847
  747SOL    HW1 3140   0.663   0.362   6.831
  747SOL    HW2 3141   0.691   0.508   6.765
  748SOL     OW 3142   1.015   1.653   6.888
  748SOL    HW1 3143   0.954   1.589   6.842
  748SOL    HW2 3144   1.023   1.737   6.835
  749SOL     OW 3145   0.409   0.464   5.815
  749SOL    HW1 3146   0.469   0.543   5.826
  749SOL    HW2 3147   0.319   0.484   5.856
  750SOL     OW 3148   0.195   1.082   6.975
  750SOL    HW1 3149   0.222   1.032   0.057
  750SOL    HW2 3150   0.194   1.020   6.897
  751SOL     OW 3151   1.337   0.950   6.835
  751SOL    HW1 3152   1.329   0.951   6.735
  751SOL    HW2 3153   1.360   1.042   6.867
  752SOL     OW 3154   1.334   0.916   5.852
  752SOL    HW1 3155   1.264   0.900   5.922
  752SOL    HW2 3156   1.298   0.889   5.763
  753SOL     OW 3157   1.780   1.704   6.775
  753SOL    HW1 3158   1.837   1.729   6.697
  753SOL    HW2 3159   1.710   1.639   6.746
  754SOL     OW 3160   1.282   1.721   6.702
  754SOL    HW1 3161   1.368   1.754   6.663
  754SOL    HW2 3162   1.289   1.623   6.722
  755SOL     OW 3163   0.049   1.198   6.544
  755SOL    HW1 3164   0.043   1.209   6.643
  755SOL    HW2 3165   6.956   1.193   6.506
  756SOL     OW 3166   1.809   0.244   6.078
  756SOL    HW1 3167   1.860   0.193   6.009
  756SOL    HW2 3168   1.752   0.181   6.130
  757SOL     OW 3169   1.436   1.589   6.114
  757SOL    HW1 3170   1.495   1.617   6.038
  757SOL    HW2 3171   1.375   1.663   6.139
  758SOL     OW 3172   1.268   0.939   6.194
  758SOL    HW1 3173   1.342   0.877   6.220
  758SOL    HW2 3174   1.307   1.026   6.165
  759SOL     OW 3175   0.677   1.638   5.754
  759SOL    HW1 3176   0.692   1.668   5.660
  759SOL    HW2 3177   0.626   1.552   5.753
  760SOL     OW 3178   1.846   0.188   6.571
  760SOL    HW1 3179   1.865   0.090   6.580
  760SOL    HW2 3180   1.765   0.201   6.514
  761SOL     OW 3181   0.239   0.332   6.344
  761SOL    HW1 3182   0.153   0.358   6.301
  761SOL    HW2 3183   0.227   0.326   6.443
  762SOL     OW 3184   1.239   1.558   5.645
  762SOL    HW1 3185   1.233   1.468   5.689
  762SOL    HW2 3186   1.159   1.572   5.587
  763SOL     OW 3187   0.648   0.995   6.949
  763SOL    HW1 3188   0.734   0.960   6.912
  763SOL    HW2 3189   0.630   1.086   6.913
  764SOL     OW 3190   0.954   0.929   5.915
  764SOL    HW1 3191   0.978   0.941   5.819
  764SOL    HW2 3192   0.984   0.838   5.945
  765SOL     OW 3193   1.503   1.647   5.655
  765SOL    HW1 3194   1.409   1.615   5.646
  765SOL    HW2 3195   1.545   1.654   5.565
  766SOL     OW 3196   1.584   1.302   6.845
  766SOL    HW1 3197   1.679   1.281   6.869
  766SOL    HW2 3198   1.523   1.257   6.911
  767SOL     OW 3199   1.080   1.110   6.307
  767SOL    HW1 3200   1.002   1.061   6.346
  767SOL    HW2 3201   1.140   1.046   6.260
  768SOL     OW 3202   1.054   0.244   6.498
  768SOL    HW1 3203   1.046   0.170   6.431
  768SOL    HW2 3204   1.001   0.221   6.579
  769SOL     OW 3205   0.619   1.500   6.086
  769SOL    HW1 3206   0.662   1.444   6.014
  769SOL    HW2 3207   0.520   1.495   6.077
  770SOL     OW 3208   1.625   0.467   6.894
  770SOL    HW1 3209   1.673   0.497   6.976
  770SOL    HW2 3210   1.652   0.374   6.871
  771SOL     OW 3211   0.278   1.365   5.881
  771SOL    HW1 3212   0.178   1.367   5.876
  771SOL    HW2 3213   0.308   1.410   5.965
  772SOL     OW 3214   0.064   0.302   5.554
  772SOL    HW1 3215   6.993   0.231   5.555
  772SOL    HW2 3216   0.023   0.391   5.534
  773SOL     OW 3217   0.035   0.261   5.832
  773SOL    HW1 3218   0.048   0.282   5.735
  773SOL    HW2 3219   0.025   0.163   5.843
  774SOL     OW 3220   1.204   1.313   5.769
  774SOL    HW1 3221   1.110   1.280   5.763
  774SOL    HW2 3222   1.229   1.327   5.865
  775SOL     OW 3223   1.516   1.819   6.599
  775SOL    HW1 3224   1.548   1.886   6.532
  775SOL    HW2 3225   1.586   1.748   6.612
  776SOL     OW 3226   1.465   1.330   0.272
  776SOL    HW1 3227   1.389   1.363   0.327
  776SOL    HW2 3228   1.456   1.231   0.259
  777SOL     OW 3229   0.397   1.848   0.127
  777SOL    HW1 3230   0.323   1.915   0.121
  777SOL    HW2 3231   0.410   1.820   0.222
  778SOL     OW 3232   1.707   0.898   6.800
  778SOL    HW1 3233   1.668   0.811   6.769
  778SOL    HW2 3234   1.663   0.973   6.752
  779SOL     OW 3235   1.266   0.326   6.014
  779SOL    HW1 3236   1.328   0.247   6.018
  779SOL    HW2 3237   1.277   0.382   6.096
  780SOL     OW 3238   0.511   0.738   6.299
  780SOL    HW1 3239   0.581   0.808   6.281
  780SOL    HW2 3240   0.464   0.716   6.213
  781SOL     OW 3241   1.752   0.849   0.080
  781SOL    HW1 3242   1.742   0.936   0.128
  781SOL    HW2 3243   1.736   0.864   6.982
  782SOL     OW 3244   0.857   1.345   5.677
  782SOL    HW1 3245   0.825   1.359   5.771
  782SOL    HW2 3246   0.891   1.431   5.641
  783SOL     OW 3247   0.705   1.690   6.580
  783SOL    HW1 3248   0.679   1.786   6.588
  783SOL    HW2 3249   0.800   1.684   6.550
  784SOL     OW 3250   0.880   0.979   6.440
  784SOL    HW1 3251   0.929   0.909   6.492
  784SOL    HW2 3252   0.826   1.036   6.502
  785SOL     OW 3253   1.021   0.949   5.654
  785SOL    HW1 3254   1.000   1.023   5.591
  785SOL    HW2 3255   1.112   0.912   5.632
  786SOL     OW 3256   1.835   1.543   6.471
  786SOL    HW1 3257   1.754   1.531   6.414
  786SOL    HW2 3258   1.861   1.456   6.511
  787SOL     OW 3259   0.168   1.322   6.309
  787SOL    HW1 3260   0.156   1.279   6.398
  787SOL    HW2 3261   0.121   1.267   6.240
  788SOL     OW 3262   1.741   0.221   6.827
  788SOL    HW1 3263   1.673   0.147   6.826
  788SOL    HW2 3264   1.787   0.225   6.738
  789SOL     OW 3265   0.437   0.413   6.166
  789SOL    HW1 3266   0.513   0.348   6.166
  789SOL    HW2 3267   0.370   0.387   6.235
  790SOL     OW 3268   1.593   1.529   6.690
  790SOL    HW1 3269   1.541   1.506   6.607
  790SOL    HW2 3270   1.593   1.451   6.752
  791SOL     OW 3271   0.414   0.586   6.885
  791SOL    HW1 3272   0.497   0.531   6.890
  791SOL    HW2 3273   0.368   0.570   6.798
  792SOL     OW 3274   0.824   1.632   6.219
  792SOL    HW1 3275   0.834   1.722   6.177
  792SOL    HW2 3276   0.745   1.585   6.179
  793SOL     OW 3277   1.445   0.251   6.667
  793SOL    HW1 3278   1.489   0.165   6.691
  793SOL    HW2 3279   1.387   0.280   6.743
  794SOL     OW 3280   0.899   0.173   6.728
  794SOL    HW1 3281   0.799   0.167   6.737
  794SOL    HW2 3282   0.941   0.094   6.773
  795SOL     OW 3283   0.783   1.324   5.946
  795SOL    HW1 3284   0.762   1.227   5.961
  795SOL    HW2 3285   0.868   1.347   5.994
  796SOL     OW 3286   0.627   1.518   6.886
  796SOL    HW1 3287   0.628   1.610   6.924
  796SOL    HW2 3288   0.712   1.502   6.836
  797SOL     OW 3289   1.263   6.970   5.816
  797SOL    HW1 3290   1.308   6.898   5.763
  797SOL    HW2 3291   1.179   6.933   5.856
  798SOL     OW 3292   1.279   0.476   6.238
  798SOL    HW1 3293   1.226   0.560   6.233
  798SOL    HW2 3294   1.288   0.447   6.333
  799SOL     OW 3295   1.608   0.246   6.438
  799SOL    HW1 3296   1.548   0.247   6.518
  799SOL    HW2 3297   1.614   0.338   6.399
  800SOL     OW 3298   0.066   1.071   5.870
  800SOL    HW1 3299   0.158   1.031   5.865
  800SOL    HW2 3300   7.000   0.999   5.889
  801SOL     OW 3301   0.905   1.693   5.901
  801SOL    HW1 3302   0.824   1.670   5.847
  801SOL    HW2 3303   0.883   1.765   5.966
  802SOL     OW 3304   0.277   2.527   0.138
  802SOL    HW1 3305   0.219   2.473   0.198
  802SOL    HW2 3306   0.266   2.495   0.044
  803SOL     OW 3307   0.203   2.122   1.005
  803SOL    HW1 3308   0.247   2.088   1.088
  803SOL    HW2 3309   0.106   2.098   1.006
  804SOL     OW 3310   0.040   2.283   0.648
  804SOL    HW1 3311   6.965   2.258   0.709
  804SOL    HW2 3312   0.029   2.237   0.560
  805SOL     OW 3313   0.607   3.166   1.268
  805SOL    HW1 3314   0.533   3.157   1.201
  805SOL    HW2 3315   0.621   3.262   1.291
  806SOL     OW 3316   1.595   3.395   0.717
  806SOL    HW1 3317   1.531   3.373   0.790
  806SOL    HW2 3318   1.545   3.419   0.634
  807SOL     OW 3319   1.138   2.629   0.684
  807SOL    HW1 3320   1.196   2.711   0.683
  807SOL    HW2 3321   1.093   2.622   0.773
  808SOL     OW 3322   1.791   2.396   0.103
  808SOL    HW1 3323   1.769   2.492   0.088
  808SOL    HW2 3324   1.738   2.361   0.180
  809SOL     OW 3325   0.743   2.972   1.103
  809SOL    HW1 3326   0.692   3.007   1.181
  809SOL    HW2 3327   0.771   3.049   1.045
  810SOL     OW 3328   0.942   2.592   1.872
  810SOL    HW1 3329   0.882   2.643   1.933
  810SOL    HW2 3330   0.944   2.636   1.782
  811SOL     OW 3331   0.717   2.834   0.669
  811SOL    HW1 3332   0.786   2.836   0.741
  811SOL    HW2 3333   0.643   2.897   0.691
  812SOL     OW 3334   0.696   3.018   1.852
  812SOL    HW1 3335   0.753   3.088   1.894
  812SOL    HW2 3336   0.620   3.061   1.803
  813SOL     OW 3337   0.410   3.198   1.081
  813SOL    HW1 3338   0.380   3.115   1.033
  813SOL    HW2 3339   0.430   3.269   1.013
  814SOL     OW 3340   1.431   3.375   1.391
  814SOL    HW1 3341   1.495   3.448   1.412
  814SOL    HW2 3342   1.353   3.380   1.454
  815SOL     OW 3343   0.466   2.242   1.504
  815SOL    HW1 3344   0.544   2.181   1.509
  815SOL    HW2 3345   0.381   2.190   1.513
  816SOL     OW 3346   1.617   2.326   0.727
  816SOL    HW1 3347   1.602   2.372   0.640
  816SOL    HW2 3348   1.577   2.380   0.801
  817SOL     OW 3349   0.236   3.616   0.457
  817SOL    HW1 3350   0.265   3.686   0.523
  817SOL    HW2 3351   0.316   3.575   0.415
  818SOL     OW 3352   1.100   3.193   1.716
  818SOL    HW1 3353   1.148   3.191   1.804
  818SOL    HW2 3354   1.049   3.108   1.704
  819SOL     OW 3355   0.297   3.320   0.556
  819SOL    HW1 3356   0.282   3.416   0.581
  819SOL    HW2 3357   0.252   3.261   0.622
  820SOL     OW 3358   0.335   2.970   0.941
  820SOL    HW1 3359   0.347   2.871   0.943
  820SOL    HW2 3360   0.237   2.992   0.943
  821SOL     OW 3361   0.546   3.687   1.421
  821SOL    HW1 3362   0.467   3.664   1.477
  821SOL    HW2 3363   0.599   3.760   1.467
  822SOL     OW 3364   0.575   2.831   0.216
  822SOL    HW1 3365   0.614   2.849   0.126
  822SOL    HW2 3366   0.628   2.879   0.286
  823SOL     OW 3367   1.617   2.001   1.400
  823SOL    HW1 3368   1.698   2.026   1.346
  823SOL    HW2 3369   1.560   2.082   1.415
  824SOL     OW 3370   0.145   2.534   0.587
  824SOL    HW1 3371   0.106   2.447   0.618
  824SOL    HW2 3372   0.121   2.606   0.652
  825SOL     OW 3373   1.890   3.646   0.351
  825SOL    HW1 3374   1.963   3.605   0.405
  825SOL    HW2 3375   1.916   3.740   0.325
  826SOL     OW 3376   0.014   3.445   0.143
  826SOL    HW1 3377   6.983   3.354   0.169
  826SOL    HW2 3378   0.110   3.455   0.166
  827SOL     OW 3379   1.719   2.758   0.670
  827SOL    HW1 3380   1.797   2.723   0.722
  827SOL    HW2 3381   1.751   2.810   0.591
  828SOL     OW 3382   1.657   3.043   0.480
  828SOL    HW1 3383   1.742   2.992   0.462
  828SOL    HW2 3384   1.656   3.075   0.574
  829SOL     OW 3385   0.179   2.573   1.563
  829SOL    HW1 3386   0.276   2.572   1.539
  829SOL    HW2 3387   0.155   2.662   1.601
  830SOL     OW 3388   0.631   3.224   0.746
  830SOL    HW1 3389   0.585   3.136   0.739
  830SOL    HW2 3390   0.631   3.269   0.656
  831SOL     OW 3391   1.227   3.057   1.423
  831SOL    HW1 3392   1.248   2.995   1.347
  831SOL    HW2 3393   1.300   3.054   1.490
  832SOL     OW 3394   0.842   1.899   0.520
  832SOL    HW1 3395   0.889   1.982   0.490
  832SOL    HW2 3396   0.744   1.917   0.526
  833SOL     OW 3397   0.204   2.781   1.283
  833SOL    HW1 3398   0.299   2.751   1.276
  833SOL    HW2 3399   0.146   2.724   1.225
  834SOL     OW 3400   1.456   2.910   0.129
  834SOL    HW1 3401   1.388   2.865   0.186
  834SOL    HW2 3402   1.526   2.843   0.102
  835SOL     OW 3403   1.126   3.640   1.624
  835SOL    HW1 3404   1.152   3.714   1.563
  835SOL    HW2 3405   1.154   3.552   1.585
  836SOL     OW 3406   0.328   2.114   1.880
  836SOL    HW1 3407   0.359   2.193   1.932
  836SOL    HW2 3408   0.229   2.119   1.867
  837SOL     OW 3409   1.413   3.311   0.901
  837SOL    HW1 3410   1.384   3.333   0.994
  837SOL    HW2 3411   1.415   3.211   0.889
  838SOL     OW 3412   1.648   3.779   0.538
  838SOL    HW1 3413   1.645   3.708   0.467
  838SOL    HW2 3414   1.678   3.738   0.624
  839SOL     OW 3415   0.607   2.573   0.304
  839SOL    HW1 3416   0.604   2.668   0.273
  839SOL    HW2 3417   0.540   2.560   0.378
  840SOL     OW 3418   1.283   2.270   0.931
  840SOL    HW1 3419   1.191   2.231   0.928
  840SOL    HW2 3420   1.342   2.212   0.986
  841SOL     OW 3421   1.618   3.594   0.335
  841SOL    HW1 3422   1.718   3.593   0.336
  841SOL    HW2 3423   1.586   3.564   0.246
  842SOL     OW 3424   0.810   2.414   1.463
  842SOL    HW1 3425   0.833   2.376   1.552
  842SOL    HW2 3426   0.782   2.340   1.401
  843SOL     OW 3427   1.376   2.320   1.640
  843SOL    HW1 3428   1.398   2.371   1.723
  843SOL    HW2 3429   1.428   2.234   1.640
  844SOL     OW 3430   0.945   2.716   1.621
  844SOL    HW1 3431   1.004   2.655   1.568
  844SOL    HW2 3432   0.889   2.770   1.558
  845SOL     OW 3433   1.006   2.209   1.203
  845SOL    HW1 3434   0.912   2.218   1.235
  845SOL    HW2 3435   1.007   2.175   1.109
  846SOL     OW 3436   1.072   2.598   0.418
  846SOL    HW1 3437   1.097   2.612   0.514
  846SOL    HW2 3438   0.988   2.544   0.413
  847SOL     OW 3439   0.093   2.714   0.798
  847SOL    HW1 3440   0.186   2.713   0.834
  847SOL    HW2 3441   0.028   2.719   0.874
  848SOL     OW 3442   0.083   3.745   1.657
  848SOL    HW1 3443   0.096   3.712   1.750
  848SOL    HW2 3444   6.988   3.732   1.630
  849SOL     OW 3445   0.894   2.210   0.202
  849SOL    HW1 3446   0.926   2.282   0.141
  849SOL    HW2 3447   0.934   2.123   0.175
  850SOL     OW 3448   1.719   2.460   1.799
  850SOL    HW1 3449   1.700   2.545   1.750
  850SOL    HW2 3450   1.743   2.388   1.734
  851SOL     OW 3451   1.383   3.026   0.508
  851SOL    HW1 3452   1.481   3.026   0.486
  851SOL    HW2 3453   1.339   3.106   0.468
  852SOL     OW 3454   0.583   1.957   0.959
  852SOL    HW1 3455   0.578   1.987   1.054
  852SOL    HW2 3456   0.601   2.036   0.900
  853SOL     OW 3457   1.021   3.330   0.512
  853SOL    HW1 3458   0.992   3.408   0.456
  853SOL    HW2 3459   0.991   3.343   0.606
  854SOL     OW 3460   0.384   3.649   0.866
  854SOL    HW1 3461   0.413   3.554   0.878
  854SOL    HW2 3462   0.453   3.710   0.904
  855SOL     OW 3463   1.814   2.888   0.953
  855SOL    HW1 3464   1.813   2.931   0.862
  855SOL    HW2 3465   1.732   2.913   1.003
  856SOL     OW 3466   1.181   3.379   1.523
  856SOL    HW1 3467   1.170   3.311   1.596
  856SOL    HW2 3468   1.126   3.352   1.444
  857SOL     OW 3469   0.303   2.793   0.221
  857SOL    HW1 3470   0.401   2.811   0.222
  857SOL    HW2 3471   0.288   2.697   0.195
  858SOL     OW 3472   1.480   2.645   0.713
  858SOL    HW1 3473   1.482   2.588   0.795
  858SOL    HW2 3474   1.569   2.690   0.702
  859SOL     OW 3475   0.458   3.151   1.753
  859SOL    HW1 3476   0.437   3.144   1.656
  859SOL    HW2 3477   0.373   3.149   1.806
  860SOL     OW 3478   1.130   3.659   0.244
  860SOL    HW1 3479   1.066   3.615   0.306
  860SOL    HW2 3480   1.159   3.594   0.173
  861SOL     OW 3481   0.210   2.126   1.502
  861SOL    HW1 3482   0.138   2.195   1.492
  861SOL    HW2 3483   0.175   2.049   1.556
  862SOL     OW 3484   1.655   3.363   0.130
  862SOL    HW1 3485   1.573   3.414   0.103
  862SOL    HW2 3486   1.629   3.273   0.163
  863SOL     OW 3487   0.495   3.548   0.356
  863SOL    HW1 3488   0.518   3.634   0.401
  863SOL    HW2 3489   0.571   3.519   0.297
  864SOL     OW 3490   1.399   1.991   0.488
  864SOL    HW1 3491   1.387   1.957   0.395
  864SOL    HW2 3492   1.493   1.973   0.518
  865SOL     OW 3493   0.250   3.615   1.210
  865SOL    HW1 3494   0.285   3.528   1.244
  865SOL    HW2 3495   0.198   3.600   1.126
  866SOL     OW 3496   0.964   3.564   0.898
  866SOL    HW1 3497   1.057   3.528   0.897
  866SOL    HW2 3498   0.908   3.516   0.831
  867SOL     OW 3499   0.412   2.522   0.497
  867SOL    HW1 3500   0.413   2.422   0.495
  867SOL    HW2 3501   0.320   2.553   0.522
  868SOL     OW 3502   1.524   2.095   1.702
  868SOL    HW1 3503   1.510   2.110   1.799
  868SOL    HW2 3504   1.513   1.998   1.680
  869SOL     OW 3505   0.818   2.111   1.840
  869SOL    HW1 3506   0.895   2.053   1.812
  869SOL    HW2 3507   0.751   2.055   1.890
  870SOL     OW 3508   0.846   3.368   1.192
  870SOL    HW1 3509   0.824   3.314   1.111
  870SOL    HW2 3510   0.915   3.320   1.247
  871SOL     OW 3511   1.289   2.441   1.411
  871SOL    HW1 3512   1.331   2.409   1.496
  871SOL    HW2 3513   1.325   2.532   1.389
  872SOL     OW 3514   0.801   3.204   0.965
  872SOL    HW1 3515   0.893   3.218   0.928
  872SOL    HW2 3516   0.734   3.204   0.891
  873SOL     OW 3517   0.931   2.350   0.891
  873SOL    HW1 3518   0.906   2.350   0.794
  873SOL    HW2 3519   0.966   2.260   0.917
  874SOL     OW 3520   0.572   1.949   0.517
  874SOL    HW1 3521   0.490   1.941   0.574
  874SOL    HW2 3522   0.554   2.011   0.441
  875SOL     OW 3523   1.398   3.138   6.980
  875SOL    HW1 3524   1.419   3.047   0.014
  875SOL    HW2 3525   1.329   3.181   0.038
  876SOL     OW 3526   0.972   2.129   0.453
  876SOL    HW1 3527   0.938   2.160   0.364
  876SOL    HW2 3528   1.070   2.149   0.460
  877SOL     OW 3529   1.038   2.555   1.416
  877SOL    HW1 3530   0.963   2.490   1.427
  877SOL    HW2 3531   1.125   2.505   1.408
  878SOL     OW 3532   1.204   3.458   0.797
  878SOL    HW1 3533   1.228   3.527   0.729
  878SOL    HW2 3534   1.287   3.412   0.829
  879SOL     OW 3535   0.499   2.989   0.722
  879SOL    HW1 3536   0.437   2.986   0.801
  879SOL    HW2 3537   0.450   2.960   0.640
  880SOL     OW 3538   1.251   3.671   0.615
  880SOL    HW1 3539   1.299   3.739   0.562
  880SOL    HW2 3540   1.168   3.711   0.654
  881SOL     OW 3541   0.992   2.411   0.048
  881SOL    HW1 3542   0.924   2.483   0.056
  881SOL    HW2 3543   1.065   2.426   0.115
  882SOL     OW 3544   0.071   2.406   1.370
  882SOL    HW1 3545   0.164   2.389   1.337
  882SOL    HW2 3546   0.074   2.468   1.448
  883SOL     OW 3547   0.559   2.032   1.221
  883SOL    HW1 3548   0.585   1.957   1.282
  883SOL    HW2 3549   0.460   2.046   1.225
  884SOL     OW 3550   0.875   2.323   0.627
  884SOL    HW1 3551   0.853   2.390   0.557
  884SOL    HW2 3552   0.911   2.240   0.585
  885SOL     OW 3553   1.011   1.908   0.738
  885SOL    HW1 3554   0.950   1.906   0.659
  885SOL    HW2 3555   0.989   1.833   0.800
  886SOL     OW 3556   1.445   3.039   0.865
  886SOL    HW1 3557   1.388   2.974   0.816
  886SOL    HW2 3558   1.527   3.059   0.811
  887SOL     OW 3559   1.479   2.476   0.935
  887SOL    HW1 3560   1.408   2.406   0.947
  887SOL    HW2 3561   1.547   2.467   1.008
  888SOL     OW 3562   1.805   2.639   0.379
  888SOL    HW1 3563   1.875   2.594   0.434
  888SOL    HW2 3564   1.824   2.622   0.282
  889SOL     OW 3565   0.561   3.256   0.183
  889SOL    HW1 3566   0.508   3.207   0.252
  889SOL    HW2 3567   0.561   3.204   0.098
  890SOL     OW 3568   1.672   3.128   0.738
  890SOL    HW1 3569   1.769   3.104   0.739
  890SOL    HW2 3570   1.662   3.227   0.729
  891SOL     OW 3571   1.362   2.396   0.053
  891SOL    HW1 3572   1.295   2.407   0.126
  891SOL    HW2 3573   1.422   2.319   0.073
  892SOL     OW 3574   0.498   2.096   0.295
  892SOL    HW1 3575   0.479   2.030   0.222
  892SOL    HW2 3576   0.503   2.188   0.256
  893SOL     OW 3577   1.705   3.092   1.534
  893SOL    HW1 3578   1.778   3.029   1.507
  893SOL    HW2 3579   1.746   3.173   1.575
  894SOL     OW 3580   1.013   3.207   1.354
  894SOL    HW1 3581   0.931   3.179   1.404
  894SOL    HW2 3582   1.091   3.153   1.385
  895SOL     OW 3583   1.621   3.441   1.683
  895SOL    HW1 3584   1.609   3.492   1.597
  895SOL    HW2 3585   1.716   3.408   1.689
  896SOL     OW 3586   1.142   3.139   1.114
  896SOL    HW1 3587   1.079   3.161   1.188
  896SOL    HW2 3588   1.104   3.171   1.027
  897SOL     OW 3589   1.586   2.963   1.091
  897SOL    HW1 3590   1.572   3.024   1.169
  897SOL    HW2 3591   1.521   2.986   1.019
  898SOL     OW 3592   0.936   1.919   1.385
  898SOL    HW1 3593   0.944   1.902   1.287
  898SOL    HW2 3594   1.023   1.953   1.420
  899SOL     OW 3595   0.957   2.954   1.756
  899SOL    HW1 3596   0.862   2.974   1.780
  899SOL    HW2 3597   0.961   2.871   1.701
  900SOL     OW 3598   0.755   2.922   0.406
  900SOL    HW1 3599   0.745   2.886   0.499
  900SOL    HW2 3600   0.820   2.865   0.355
  901SOL     OW 3601   0.449   2.646   1.272
  901SOL    HW1 3602   0.520   2.653   1.342
  901SOL    HW2 3603   0.403   2.558   1.280
  902SOL     OW 3604   1.264   2.203   1.281
  902SOL    HW1 3605   1.285   2.290   1.325
  902SOL    HW2 3606   1.169   2.203   1.250
  903SOL     OW 3607   0.092   3.333   1.378
  903SOL    HW1 3608   0.071   3.366   1.471
  903SOL    HW2 3609   0.188   3.351   1.357
  904SOL     OW 3610   0.377   2.914   0.491
  904SOL    HW1 3611   0.384   3.001   0.442
  904SOL    HW2 3612   0.339   2.844   0.430
  905SOL     OW 3613   0.497   2.434   0.908
  905SOL    HW1 3614   0.517   2.494   0.831
  905SOL    HW2 3615   0.580   2.421   0.962
  906SOL     OW 3616   1.271   3.263   0.417
  906SOL    HW1 3617   1.334   3.334   0.449
  906SOL    HW2 3618   1.181   3.279   0.457
  907SOL     OW 3619   1.313   3.352   1.149
  907SOL    HW1 3620   1.358   3.358   1.238
  907SOL    HW2 3621   1.257   3.269   1.145
  908SOL     OW 3622   1.595   2.492   0.500
  908SOL    HW1 3623   1.529   2.545   0.553
  908SOL    HW2 3624   1.663   2.553   0.460
  909SOL     OW 3625   0.352   3.359   1.295
  909SOL    HW1 3626   0.356   3.298   1.215
  909SOL    HW2 3627   0.443   3.395   1.314
  910SOL     OW 3628   0.457   2.516   1.588
  910SOL    HW1 3629   0.531   2.567   1.545
  910SOL    HW2 3630   0.464   2.419   1.562
  911SOL     OW 3631   1.633   2.687   1.674
  911SOL    HW1 3632   1.537   2.707   1.656
  911SOL    HW2 3633   1.685   2.697   1.590
  912SOL     OW 3634   1.026   1.969   1.753
  912SOL    HW1 3635   1.077   2.050   1.723
  912SOL    HW2 3636   1.074   1.886   1.724
  913SOL     OW 3637   0.479   1.917   1.761
  913SOL    HW1 3638   0.429   1.866   1.691
  913SOL    HW2 3639   0.424   1.993   1.794
  914SOL     OW 3640   0.682   2.699   1.126
  914SOL    HW1 3641   0.695   2.796   1.107
  914SOL    HW2 3642   0.591   2.684   1.165
  915SOL     OW 3643   1.295   2.694   1.011
  915SOL    HW1 3644   1.206   2.658   0.981
  915SOL    HW2 3645   1.367   2.628   0.988
  916SOL     OW 3646   1.179   2.404   0.258
  916SOL    HW1 3647   1.205   2.325   0.313
  916SOL    HW2 3648   1.152   2.479   0.318
  917SOL     OW 3649   0.290   2.035   1.251
  917SOL    HW1 3650   0.256   2.066   1.340
  917SOL    HW2 3651   0.271   1.937   1.242
  918SOL     OW 3652   0.072   3.125   1.197
  918SOL    HW1 3653   0.006   3.056   1.225
  918SOL    HW2 3654   0.081   3.193   1.269
  919SOL     OW 3655   0.725   2.429   1.058
  919SOL    HW1 3656   0.802   2.409   0.999
  919SOL    HW2 3657   0.722   2.527   1.077
  920SOL     OW 3658   1.697   2.899   1.837
  920SOL    HW1 3659   1.673   2.824   1.775
  920SOL    HW2 3660   1.675   2.986   1.794
  921SOL     OW 3661   0.332   1.908   0.649
  921SOL    HW1 3662   0.300   1.998   0.677
  921SOL    HW2 3663   0.348   1.852   0.731
  922SOL     OW 3664   1.645   2.291   0.314
  922SOL    HW1 3665   1.701   2.223   0.362
  922SOL    HW2 3666   1.614   2.361   0.378
  923SOL     OW 3667   1.036   2.600   0.942
  923SOL    HW1 3668   1.014   2.626   1.036
  923SOL    HW2 3669   1.005   2.507   0.925
  924SOL     OW 3670   0.953   3.420   1.778
  924SOL    HW1 3671   0.928   3.483   1.704
  924SOL    HW2 3672   0.992   3.337   1.738
  925SOL     OW 3673   1.867   3.310   1.618
  925SOL    HW1 3674   1.906   3.346   1.533
  925SOL    HW2 3675   1.939   3.297   1.686
  926SOL     OW 3676   0.386   2.709   1.787
  926SOL    HW1 3677   0.461   2.737   1.848
  926SOL    HW2 3678   0.419   2.638   1.725
  927SOL     OW 3679   1.457   2.153   0.160
  927SOL    HW1 3680   1.434   2.063   0.198
  927SOL    HW2 3681   1.523   2.198   0.220
  928SOL     OW 3682   1.274   2.657   0.001
  928SOL    HW1 3683   1.320   2.568   0.000
  928SOL    HW2 3684   1.307   2.713   6.925
  929SOL     OW 3685   1.051   3.239   0.872
  929SOL    HW1 3686   1.069   3.155   0.820
  929SOL    HW2 3687   1.107   3.313   0.836
  930SOL     OW 3688   0.348   2.699   0.908
  930SOL    HW1 3689   0.415   2.683   0.835
  930SOL    HW2 3690   0.359   2.629   0.979
  931SOL     OW 3691   0.264   2.387   1.031
  931SOL    HW1 3692   0.231   2.294   1.014
  931SOL    HW2 3693   0.346   2.404   0.977
  932SOL     OW 3694   1.127   2.204   1.651
  932SOL    HW1 3695   1.050   2.267   1.667
  932SOL    HW2 3696   1.212   2.256   1.649
  933SOL     OW 3697   1.183   2.011   1.466
  933SOL    HW1 3698   1.161   2.078   1.537
  933SOL    HW2 3699   1.226   2.058   1.389
  934SOL     OW 3700   6.958   3.179   0.206
  934SOL    HW1 3701   6.903   3.212   0.283
  934SOL    HW2 3702   6.981   3.082   0.221
  935SOL     OW 3703   0.127   3.600   0.960
  935SOL    HW1 3704   0.094   3.528   0.898
  935SOL    HW2 3705   0.216   3.633   0.928
  936SOL     OW 3706   0.494   3.398   0.909
  936SOL    HW1 3707   0.567   3.454   0.950
  936SOL    HW2 3708   0.534   3.335   0.842
  937SOL     OW 3709   0.952   2.677   1.185
  937SOL    HW1 3710   0.986   2.639   1.271
  937SOL    HW2 3711   0.852   2.677   1.187
  938SOL     OW 3712   0.074   2.567   1.138
  938SOL    HW1 3713   0.138   2.511   1.084
  938SOL    HW2 3714   0.052   2.519   1.222
  939SOL     OW 3715   0.230   2.407   1.773
  939SOL    HW1 3716   0.308   2.346   1.760
  939SOL    HW2 3717   0.220   2.466   1.693
  940SOL     OW 3718   1.380   2.766   1.612
  940SOL    HW1 3719   1.391   2.865   1.615
  940SOL    HW2 3720   1.366   2.736   1.518
  941SOL     OW 3721   0.844   2.447   0.376
  941SOL    HW1 3722   0.848   2.364   0.320
  941SOL    HW2 3723   0.762   2.499   0.353
  942SOL     OW 3724   1.678   2.464   1.130
  942SOL    HW1 3725   1.672   2.411   1.214
  942SOL    HW2 3726   1.773   2.491   1.114
  943SOL     OW 3727   0.246   3.431   1.758
  943SOL    HW1 3728   0.187   3.488   1.815
  943SOL    HW2 3729   0.242   3.336   1.790
  944SOL     OW 3730   0.737   2.242   1.259
  944SOL    HW1 3731   0.674   2.166   1.247
  944SOL    HW2 3732   0.722   2.309   1.187
  945SOL     OW 3733   0.828   3.565   1.546
  945SOL    HW1 3734   0.790   3.497   1.483
  945SOL    HW2 3735   0.869   3.640   1.494
  946SOL     OW 3736   0.496   2.348   0.193
  946SOL    HW1 3737   0.550   2.419   0.238
  946SOL    HW2 3738   0.410   2.388   0.161
  947SOL     OW 3739   0.149   2.962   1.485
  947SOL    HW1 3740   0.151   2.900   1.563
  947SOL    HW2 3741   0.163   2.910   1.401
  948SOL     OW 3742   1.252   2.897   1.193
  948SOL    HW1 3743   1.270   2.829   1.121
  948SOL    HW2 3744   1.217   2.981   1.151
  949SOL     OW 3745   1.272   2.751   0.259
  949SOL    HW1 3746   1.216   2.702   0.326
  949SOL    HW2 3747   1.268   2.703   0.172
  950SOL     OW 3748   1.747   3.553   1.166
  950SOL    HW1 3749   1.828   3.594   1.125
  950SOL    HW2 3750   1.740   3.457   1.139
  951SOL     OW 3751   1.271   3.626   1.130
  951SOL    HW1 3752   1.363   3.662   1.114
  951SOL    HW2 3753   1.275   3.527   1.135
  952SOL     OW 3754   0.069   3.026   0.946
  952SOL    HW1 3755   0.071   3.071   1.035
  952SOL    HW2 3756   6.995   2.959   0.943
  953SOL     OW 3757   0.670   3.579   1.767
  953SOL    HW1 3758   0.602   3.652   1.762
  953SOL    HW2 3759   0.732   3.586   1.689
  954SOL     OW 3760   1.009   1.982   0.103
  954SOL    HW1 3761   1.086   2.026   0.057
  954SOL    HW2 3762   1.039   1.900   0.150
  955SOL     OW 3763   1.798   2.098   0.435
  955SOL    HW1 3764   1.862   2.060   0.369
  955SOL    HW2 3765   1.744   2.025   0.476
  956SOL     OW 3766   1.430   3.477   0.508
  956SOL    HW1 3767   1.493   3.518   0.443
  956SOL    HW2 3768   1.364   3.546   0.539
  957SOL     OW 3769   0.106   3.653   1.916
  957SOL    HW1 3770   0.070   3.568   1.953
  957SOL    HW2 3771   0.168   3.695   1.981
  958SOL     OW 3772   1.304   2.850   0.693
  958SOL    HW1 3773   1.372   2.777   0.700
  958SOL    HW2 3774   1.329   2.911   0.617
  959SOL     OW 3775   0.778   3.129   1.477
  959SOL    HW1 3776   0.752   3.188   1.553
  959SOL    HW2 3777   0.709   3.135   1.405
  960SOL     OW 3778   0.713   3.476   0.203
  960SOL    HW1 3779   0.690   3.530   0.122
  960SOL    HW2 3780   0.671   3.386   0.196
  961SOL     OW 3781   1.625   3.581   1.425
  961SOL    HW1 3782   1.672   3.562   1.339
  961SOL    HW2 3783   1.585   3.673   1.422
  962SOL     OW 3784   1.825   2.021   0.983
  962SOL    HW1 3785   1.859   1.930   0.959
  962SOL    HW2 3786   1.744   2.042   0.929
  963SOL     OW 3787   0.264   2.155   0.735
  963SOL    HW1 3788   0.186   2.209   0.705
  963SOL    HW2 3789   0.259   2.142   0.834
  964SOL     OW 3790   1.209   3.489   0.047
  964SOL    HW1 3791   1.209   3.394   0.078
  964SOL    HW2 3792   1.133   3.503   6.983
  965SOL     OW 3793   0.824   2.862   1.423
  965SOL    HW1 3794   0.882   2.861   1.341
  965SOL    HW2 3795   0.806   2.957   1.450
  966SOL     OW 3796   0.920   2.768   0.256
  966SOL    HW1 3797   0.962   2.787   0.168
  966SOL    HW2 3798   0.985   2.717   0.313
  967SOL     OW 3799   1.468   3.568   0.065
  967SOL    HW1 3800   1.374   3.537   0.056
  967SOL    HW2 3801   1.507   3.583   6.974
  968SOL     OW 3802   0.357   3.148   1.503
  968SOL    HW1 3803   0.362   3.213   1.427
  968SOL    HW2 3804   0.283   3.083   1.487
  969SOL     OW 3805   1.560   3.145   1.299
  969SOL    HW1 3806   1.618   3.116   1.376
  969SOL    HW2 3807   1.506   3.224   1.326
  970SOL     OW 3808   1.079   2.998   0.760
  970SOL    HW1 3809   1.010   2.937   0.798
  970SOL    HW2 3810   1.159   2.945   0.733
  971SOL     OW 3811   1.039   2.093   0.948
  971SOL    HW1 3812   1.034   2.053   0.857
  971SOL    HW2 3813   1.043   2.021   1.017
  972SOL     OW 3814   0.645   3.354   0.507
  972SOL    HW1 3815   0.696   3.296   0.444
  972SOL    HW2 3816   0.570   3.399   0.458
  973SOL     OW 3817   1.763   2.314   1.375
  973SOL    HW1 3818   1.843   2.372   1.389
  973SOL    HW2 3819   1.790   2.233   1.324
  974SOL     OW 3820   0.376   3.154   0.358
  974SOL    HW1 3821   0.310   3.162   0.283
  974SOL    HW2 3822   0.350   3.215   0.432
  975SOL     OW 3823   0.141   2.803   1.714
  975SOL    HW1 3824   0.095   2.866   1.777
  975SOL    HW2 3825   0.231   2.779   1.750
  976SOL     OW 3826   0.722   2.039   1.539
  976SOL    HW1 3827   0.799   2.011   1.482
  976SOL    HW2 3828   0.755   2.061   1.631
  977SOL     OW 3829   0.103   2.257   6.978
  977SOL    HW1 3830   0.017   2.282   6.932
  977SOL    HW2 3831   0.177   2.313   6.941
  978SOL     OW 3832   1.364   2.698   1.351
  978SOL    HW1 3833   1.304   2.762   1.303
  978SOL    HW2 3834   1.454   2.699   1.309
  979SOL     OW 3835   0.010   2.152   0.405
  979SOL    HW1 3836   0.057   2.225   0.356
  979SOL    HW2 3837   0.025   2.065   0.358
  980SOL     OW 3838   1.208   3.237   0.149
  980SOL    HW1 3839   1.108   3.233   0.144
  980SOL    HW2 3840   1.237   3.235   0.244
  981SOL     OW 3841   0.657   2.642   1.451
  981SOL    HW1 3842   0.711   2.726   1.442
  981SOL    HW2 3843   0.719   2.563   1.453
  982SOL     OW 3844   1.530   3.710   1.084
  982SOL    HW1 3845   1.560   3.756   1.000
  982SOL    HW2 3846   1.605   3.652   1.118
  983SOL     OW 3847   0.897   2.348   1.718
  983SOL    HW1 3848   0.905   2.425   1.780
  983SOL    HW2 3849   0.856   2.270   1.766
  984SOL     OW 3850   1.432   3.033   1.615
  984SOL    HW1 3851   1.413   3.057   1.710
  984SOL    HW2 3852   1.524   3.063   1.591
  985SOL     OW 3853   0.338   3.638   1.603
  985SOL    HW1 3854   0.248   3.681   1.593
  985SOL    HW2 3855   0.328   3.549   1.646
  986SOL     OW 3856   1.599   2.718   1.219
  986SOL    HW1 3857   1.628   2.639   1.165
  986SOL    HW2 3858   1.596   2.799   1.162
  987SOL     OW 3859   1.234   2.210   0.457
  987SOL    HW1 3860   1.298   2.135   0.468
  987SOL    HW2 3861   1.243   2.274   0.534
  988SOL     OW 3862   0.536   2.629   0.717
  988SOL    HW1 3863   0.608   2.695   0.696
  988SOL    HW2 3864   0.497   2.594   0.632
  989SOL     OW 3865   1.755   2.234   1.642
  989SOL    HW1 3866   1.756   2.262   1.546
  989SOL    HW2 3867   1.674   2.178   1.659
  990SOL     OW 3868   1.753   2.730   1.442
  990SOL    HW1 3869   1.823   2.799   1.426
  990SOL    HW2 3870   1.696   2.721   1.360
  991SOL     OW 3871   0.938   3.262   0.137
  991SOL    HW1 3872   0.886   3.231   0.216
  991SOL    HW2 3873   0.893   3.342   0.097
  992SOL     OW 3874   0.688   3.568   0.988
  992SOL    HW1 3875   0.662   3.664   0.976
  992SOL    HW2 3876   0.788   3.560   0.986
  993SOL     OW 3877   0.890   2.837   0.886
  993SOL    HW1 3878   0.939   2.753   0.907
  993SOL    HW2 3879   0.850   2.874   0.969
  994SOL     OW 3880   1.050   2.812   0.012
  994SOL    HW1 3881   1.079   2.907   0.012
  994SOL    HW2 3882   1.130   2.752   0.007
  995SOL     OW 3883   1.845   3.403   0.834
  995SOL    HW1 3884   1.760   3.412   0.781
  995SOL    HW2 3885   1.826   3.351   0.918
  996SOL     OW 3886   0.223   3.175   1.888
  996SOL    HW1 3887   0.131   3.136   1.877
  996SOL    HW2 3888   0.240   3.193   1.985
  997SOL     OW 3889   0.139   3.168   0.724
  997SOL    HW1 3890   0.121   3.116   0.807
  997SOL    HW2 3891   0.094   3.125   0.647
  998SOL     OW 3892   0.678   3.300   1.669
  998SOL    HW1 3893   0.591   3.260   1.696
  998SOL    HW2 3894   0.685   3.392   1.707
  999SOL     OW 3895   1.833   2.083   1.249
  999SOL    HW1 3896   1.930   2.070   1.268
  999SOL    HW2 3897   1.814   2.064   1.152
 1000SOL     OW 3898   0.368   2.252   0.490
 1000SOL    HW1 3899   0.414   2.184   0.433
 1000SOL    HW2 3900   0.348   2.212   0.579
 1001SOL     OW 3901   1.744   3.290   1.078
 1001SOL    HW1 3902   1.654   3.247   1.078
 1001SOL    HW2 3903   1.805   3.241   1.139
 1002SOL     OW 3904   0.337   2.396   1.298
 1002SOL    HW1 3905   0.396   2.330   1.344
 1002SOL    HW2 3906   0.329   2.372   1.202
 1003SOL     OW 3907   0.829   3.428   0.708
 1003SOL    HW1 3908   0.782   3.445   0.621
 1003SOL    HW2 3909   0.783   3.354   0.757
 1004SOL     OW 3910   1.433   2.108   1.089
 1004SOL    HW1 3911   1.461   2.014   1.105
 1004SOL    HW2 3912   1.378   2.140   1.167
 1005SOL     OW 3913   1.031   1.866   1.110
 1005SOL    HW1 3914   0.986   1.799   1.051
 1005SOL    HW2 3915   1.125   1.835   1.128
 1006SOL     OW 3916   0.819   3.187   0.374
 1006SOL    HW1 3917   0.795   3.090   0.386
 1006SOL    HW2 3918   0.900   3.208   0.429
 1007SOL     OW 3919   0.614   3.442   1.318
 1007SOL    HW1 3920   0.597   3.536   1.347
 1007SOL    HW2 3921   0.697   3.440   1.261
 1008SOL     OW 3922   1.363   1.899   0.237
 1008SOL    HW1 3923   1.416   1.832   0.184
 1008SOL    HW2 3924   1.267   1.869   0.240
 1009SOL     OW 3925   1.253   2.373   0.671
 1009SOL    HW1 3926   1.219   2.467   0.674
 1009SOL    HW2 3927   1.271   2.342   0.764
 1010SOL     OW 3928   1.590   2.076   0.862
 1010SOL    HW1 3929   1.529   2.101   0.937
 1010SOL    HW2 3930   1.597   2.153   0.798
 1011SOL     OW 3931   0.063   2.932   0.285
 1011SOL    HW1 3932   0.149   2.885   0.266
 1011SOL    HW2 3933   6.988   2.866   0.286
 1012SOL     OW 3934   0.916   3.547   0.380
 1012SOL    HW1 3935   0.845   3.518   0.316
 1012SOL    HW2 3936   0.883   3.624   0.434
 1013SOL     OW 3937   0.190   2.559   2.006
 1013SOL    HW1 3938   0.170   2.487   2.072
 1013SOL    HW2 3939   0.225   2.517   1.921
 1014SOL     OW 3940   0.174   2.162   2.894
 1014SOL    HW1 3941   0.225   2.119   2.969
 1014SOL    HW2 3942   0.078   2.136   2.900
 1015SOL     OW 3943   6.996   2.288   2.546
 1015SOL    HW1 3944   6.936   2.290   2.626
 1015SOL    HW2 3945   0.083   2.246   2.572
 1016SOL     OW 3946   0.575   3.173   3.096
 1016SOL    HW1 3947   0.488   3.171   3.046
 1016SOL    HW2 3948   0.600   3.268   3.114
 1017SOL     OW 3949   1.583   3.331   2.543
 1017SOL    HW1 3950   1.526   3.327   2.625
 1017SOL    HW2 3951   1.529   3.367   2.466
 1018SOL     OW 3952   1.094   2.590   2.524
 1018SOL    HW1 3953   1.149   2.670   2.500
 1018SOL    HW2 3954   1.061   2.600   2.618
 1019SOL     OW 3955   1.793   2.434   2.056
 1019SOL    HW1 3956   1.771   2.448   1.960
 1019SOL    HW2 3957   1.734   2.362   2.094
 1020SOL     OW 3958   0.716   2.969   2.953
 1020SOL    HW1 3959   0.651   3.010   3.016
 1020SOL    HW2 3960   0.760   3.040   2.899
 1021SOL     OW 3961   0.906   2.584   3.640
 1021SOL    HW1 3962   0.932   2.648   3.713
 1021SOL    HW2 3963   0.912   2.630   3.552
 1022SOL     OW 3964   0.689   2.821   2.509
 1022SOL    HW1 3965   0.758   2.826   2.580
 1022SOL    HW2 3966   0.613   2.882   2.531
 1023SOL     OW 3967   0.699   3.017   3.715
 1023SOL    HW1 3968   0.760   3.083   3.758
 1023SOL    HW2 3969   0.622   3.066   3.673
 1024SOL     OW 3970   0.348   3.238   2.949
 1024SOL    HW1 3971   0.261   3.201   2.916
 1024SOL    HW2 3972   0.388   3.297   2.879
 1025SOL     OW 3973   1.404   3.388   3.242
 1025SOL    HW1 3974   1.466   3.463   3.263
 1025SOL    HW2 3975   1.325   3.391   3.303
 1026SOL     OW 3976   0.482   2.203   3.330
 1026SOL    HW1 3977   0.563   2.145   3.340
 1026SOL    HW2 3978   0.401   2.154   3.363
 1027SOL     OW 3979   1.597   2.314   2.597
 1027SOL    HW1 3980   1.574   2.346   2.505
 1027SOL    HW2 3981   1.562   2.379   2.665
 1028SOL     OW 3982   0.258   3.600   2.350
 1028SOL    HW1 3983   0.270   3.680   2.409
 1028SOL    HW2 3984   0.322   3.605   2.274
 1029SOL     OW 3985   1.108   3.193   3.568
 1029SOL    HW1 3986   1.195   3.166   3.610
 1029SOL    HW2 3987   1.046   3.114   3.567
 1030SOL     OW 3988   0.353   3.346   2.394
 1030SOL    HW1 3989   0.316   3.439   2.394
 1030SOL    HW2 3990   0.307   3.291   2.464
 1031SOL     OW 3991   0.259   2.957   2.731
 1031SOL    HW1 3992   0.277   2.865   2.765
 1031SOL    HW2 3993   0.203   3.007   2.797
 1032SOL     OW 3994   0.569   3.690   3.267
 1032SOL    HW1 3995   0.492   3.666   3.326
 1032SOL    HW2 3996   0.623   3.763   3.310
 1033SOL     OW 3997   0.555   2.840   2.024
 1033SOL    HW1 3998   0.599   2.892   1.950
 1033SOL    HW2 3999   0.597   2.864   2.111
 1034SOL     OW 4000   1.607   1.966   3.370
 1034SOL    HW1 4001   1.657   2.043   3.328
 1034SOL    HW2 4002   1.549   2.001   3.444
 1035SOL     OW 4003   0.114   2.491   2.405
 1035SOL    HW1 4004   0.065   2.420   2.454
 1035SOL    HW2 4005   0.111   2.576   2.457
 1036SOL     OW 4006   1.831   3.620   2.149
 1036SOL    HW1 4007   1.910   3.600   2.206
 1036SOL    HW2 4008   1.838   3.713   2.113
 1037SOL     OW 4009   0.001   3.418   1.989
 1037SOL    HW1 4010   0.005   3.335   2.044
 1037SOL    HW2 4011   6.910   3.424   1.946
 1038SOL     OW 4012   1.693   2.755   2.477
 1038SOL    HW1 4013   1.767   2.752   2.544
 1038SOL    HW2 4014   1.720   2.702   2.396
 1039SOL     OW 4015   1.641   2.954   2.279
 1039SOL    HW1 4016   1.727   2.977   2.235
 1039SOL    HW2 4017   1.658   2.900   2.361
 1040SOL     OW 4018   0.247   2.586   3.440
 1040SOL    HW1 4019   0.347   2.584   3.438
 1040SOL    HW2 4020   0.216   2.675   3.472
 1041SOL     OW 4021   0.613   3.199   2.624
 1041SOL    HW1 4022   0.565   3.114   2.601
 1041SOL    HW2 4023   0.629   3.252   2.541
 1042SOL     OW 4024   1.220   3.065   3.283
 1042SOL    HW1 4025   1.242   2.996   3.214
 1042SOL    HW2 4026   1.291   3.065   3.354
 1043SOL     OW 4027   0.843   1.892   2.365
 1043SOL    HW1 4028   0.883   1.978   2.333
 1043SOL    HW2 4029   0.744   1.903   2.375
 1044SOL     OW 4030   0.212   2.788   3.141
 1044SOL    HW1 4031   0.301   2.744   3.132
 1044SOL    HW2 4032   0.143   2.734   3.095
 1045SOL     OW 4033   1.510   2.879   2.049
 1045SOL    HW1 4034   1.581   2.869   1.979
 1045SOL    HW2 4035   1.553   2.904   2.136
 1046SOL     OW 4036   1.155   3.650   3.489
 1046SOL    HW1 4037   1.171   3.720   3.419
 1046SOL    HW2 4038   1.161   3.559   3.447
 1047SOL     OW 4039   0.312   2.126   3.791
 1047SOL    HW1 4040   0.354   2.202   3.840
 1047SOL    HW2 4041   0.213   2.140   3.785
 1048SOL     OW 4042   1.422   3.299   2.763
 1048SOL    HW1 4043   1.375   3.322   2.849
 1048SOL    HW2 4044   1.423   3.199   2.753
 1049SOL     OW 4045   1.649   3.730   2.381
 1049SOL    HW1 4046   1.631   3.664   2.308
 1049SOL    HW2 4047   1.701   3.685   2.454
 1050SOL     OW 4048   0.532   2.563   2.107
 1050SOL    HW1 4049   0.545   2.657   2.075
 1050SOL    HW2 4050   0.473   2.564   2.188
 1051SOL     OW 4051   1.270   2.268   2.789
 1051SOL    HW1 4052   1.181   2.223   2.783
 1051SOL    HW2 4053   1.329   2.218   2.853
 1052SOL     OW 4054   1.573   3.549   2.171
 1052SOL    HW1 4055   1.672   3.560   2.161
 1052SOL    HW2 4056   1.531   3.542   2.081
 1053SOL     OW 4057   0.792   2.422   3.290
 1053SOL    HW1 4058   0.761   2.396   3.381
 1053SOL    HW2 4059   0.763   2.352   3.224
 1054SOL     OW 4060   1.363   2.331   3.516
 1054SOL    HW1 4061   1.366   2.383   3.601
 1054SOL    HW2 4062   1.415   2.247   3.525
 1055SOL     OW 4063   0.938   2.750   3.412
 1055SOL    HW1 4064   0.992   2.682   3.361
 1055SOL    HW2 4065   0.894   2.812   3.347
 1056SOL     OW 4066   0.994   2.224   3.045
 1056SOL    HW1 4067   0.898   2.235   3.070
 1056SOL    HW2 4068   1.000   2.188   2.952
 1057SOL     OW 4069   0.977   2.564   2.279
 1057SOL    HW1 4070   1.012   2.569   2.373
 1057SOL    HW2 4071   0.888   2.518   2.281
 1058SOL     OW 4072   0.124   2.714   2.571
 1058SOL    HW1 4073   0.190   2.694   2.642
 1058SOL    HW2 4074   0.139   2.807   2.536
 1059SOL     OW 4075   0.109   3.732   3.497
 1059SOL    HW1 4076   0.125   3.701   3.591
 1059SOL    HW2 4077   0.011   3.728   3.477
 1060SOL     OW 4078   0.884   2.265   2.062
 1060SOL    HW1 4079   0.974   2.307   2.052
 1060SOL    HW2 4080   0.864   2.210   1.981
 1061SOL     OW 4081   1.643   2.434   3.699
 1061SOL    HW1 4082   1.633   2.516   3.644
 1061SOL    HW2 4083   1.673   2.358   3.641
 1062SOL     OW 4084   1.371   3.013   2.338
 1062SOL    HW1 4085   1.469   3.013   2.316
 1062SOL    HW2 4086   1.331   3.100   2.307
 1063SOL     OW 4087   0.589   1.961   2.804
 1063SOL    HW1 4088   0.577   1.990   2.899
 1063SOL    HW2 4089   0.627   2.036   2.750
 1064SOL     OW 4090   0.984   3.332   2.329
 1064SOL    HW1 4091   0.961   3.406   2.265
 1064SOL    HW2 4092   0.961   3.361   2.422
 1065SOL     OW 4093   0.385   3.653   2.722
 1065SOL    HW1 4094   0.412   3.557   2.729
 1065SOL    HW2 4095   0.458   3.711   2.757
 1066SOL     OW 4096   1.778   2.924   2.789
 1066SOL    HW1 4097   1.741   2.971   2.710
 1066SOL    HW2 4098   1.715   2.932   2.866
 1067SOL     OW 4099   1.160   3.388   3.377
 1067SOL    HW1 4100   1.154   3.320   3.450
 1067SOL    HW2 4101   1.104   3.359   3.300
 1068SOL     OW 4102   0.286   2.800   2.110
 1068SOL    HW1 4103   0.375   2.822   2.070
 1068SOL    HW2 4104   0.255   2.712   2.075
 1069SOL     OW 4105   1.452   2.650   2.548
 1069SOL    HW1 4106   1.454   2.598   2.634
 1069SOL    HW2 4107   1.540   2.693   2.532
 1070SOL     OW 4108   0.472   3.161   3.621
 1070SOL    HW1 4109   0.452   3.161   3.523
 1070SOL    HW2 4110   0.386   3.159   3.673
 1071SOL     OW 4111   1.134   3.640   2.086
 1071SOL    HW1 4112   1.047   3.611   2.124
 1071SOL    HW2 4113   1.164   3.574   2.018
 1072SOL     OW 4114   0.215   2.115   3.374
 1072SOL    HW1 4115   0.161   2.198   3.377
 1072SOL    HW2 4116   0.173   2.045   3.431
 1073SOL     OW 4117   1.612   3.188   1.818
 1073SOL    HW1 4118   1.604   3.277   1.773
 1073SOL    HW2 4119   1.523   3.160   1.854
 1074SOL     OW 4120   0.471   3.640   2.176
 1074SOL    HW1 4121   0.520   3.696   2.242
 1074SOL    HW2 4122   0.537   3.587   2.122
 1075SOL     OW 4123   1.388   1.981   2.303
 1075SOL    HW1 4124   1.387   1.953   2.207
 1075SOL    HW2 4125   1.480   1.966   2.341
 1076SOL     OW 4126   0.230   3.625   3.076
 1076SOL    HW1 4127   0.268   3.543   3.119
 1076SOL    HW2 4128   0.186   3.600   2.990
 1077SOL     OW 4129   0.956   3.551   2.745
 1077SOL    HW1 4130   1.045   3.504   2.745
 1077SOL    HW2 4131   0.901   3.520   2.668
 1078SOL     OW 4132   0.381   2.516   2.332
 1078SOL    HW1 4133   0.411   2.421   2.345
 1078SOL    HW2 4134   0.283   2.523   2.347
 1079SOL     OW 4135   1.461   2.076   3.584
 1079SOL    HW1 4136   1.474   2.100   3.680
 1079SOL    HW2 4137   1.384   2.013   3.575
 1080SOL     OW 4138   0.647   1.943   1.974
 1080SOL    HW1 4139   0.679   1.853   2.003
 1080SOL    HW2 4140   0.584   1.932   1.897
 1081SOL     OW 4141   0.768   2.125   3.613
 1081SOL    HW1 4142   0.852   2.072   3.615
 1081SOL    HW2 4143   0.707   2.093   3.686
 1082SOL     OW 4144   0.847   3.366   3.031
 1082SOL    HW1 4145   0.828   3.306   2.954
 1082SOL    HW2 4146   0.912   3.320   3.093
 1083SOL     OW 4147   1.284   2.448   3.281
 1083SOL    HW1 4148   1.320   2.415   3.368
 1083SOL    HW2 4149   1.318   2.541   3.264
 1084SOL     OW 4150   0.808   3.188   2.818
 1084SOL    HW1 4151   0.898   3.200   2.774
 1084SOL    HW2 4152   0.736   3.198   2.749
 1085SOL     OW 4153   0.894   2.338   2.726
 1085SOL    HW1 4154   0.865   2.331   2.631
 1085SOL    HW2 4155   0.942   2.254   2.752
 1086SOL     OW 4156   0.572   1.937   2.364
 1086SOL    HW1 4157   0.495   1.946   2.428
 1086SOL    HW2 4158   0.567   2.010   2.296
 1087SOL     OW 4159   1.377   3.066   1.895
 1087SOL    HW1 4160   1.420   3.000   1.956
 1087SOL    HW2 4161   1.302   3.112   1.942
 1088SOL     OW 4162   0.273   1.923   2.076
 1088SOL    HW1 4163   0.306   1.990   2.008
 1088SOL    HW2 4164   0.350   1.867   2.107
 1089SOL     OW 4165   0.952   2.130   2.292
 1089SOL    HW1 4166   0.917   2.169   2.207
 1089SOL    HW2 4167   1.050   2.144   2.298
 1090SOL     OW 4168   1.030   2.551   3.249
 1090SOL    HW1 4169   0.957   2.484   3.266
 1090SOL    HW2 4170   1.119   2.506   3.256
 1091SOL     OW 4171   1.202   3.436   2.647
 1091SOL    HW1 4172   1.221   3.511   2.583
 1091SOL    HW2 4173   1.287   3.398   2.682
 1092SOL     OW 4174   0.468   2.977   2.550
 1092SOL    HW1 4175   0.401   2.968   2.624
 1092SOL    HW2 4176   0.420   2.981   2.462
 1093SOL     OW 4177   1.248   3.656   2.479
 1093SOL    HW1 4178   1.301   3.720   2.422
 1093SOL    HW2 4179   1.172   3.705   2.521
 1094SOL     OW 4180   0.124   2.413   3.260
 1094SOL    HW1 4181   0.209   2.386   3.215
 1094SOL    HW2 4182   0.143   2.479   3.332
 1095SOL     OW 4183   0.549   2.030   3.064
 1095SOL    HW1 4184   0.578   1.956   3.124
 1095SOL    HW2 4185   0.451   2.047   3.078
 1096SOL     OW 4186   0.820   2.300   2.468
 1096SOL    HW1 4187   0.768   2.354   2.402
 1096SOL    HW2 4188   0.872   2.229   2.420
 1097SOL     OW 4189   1.016   1.911   2.582
 1097SOL    HW1 4190   0.954   1.904   2.503
 1097SOL    HW2 4191   0.996   1.837   2.646
 1098SOL     OW 4192   1.454   3.030   2.718
 1098SOL    HW1 4193   1.386   2.970   2.676
 1098SOL    HW2 4194   1.535   3.036   2.659
 1099SOL     OW 4195   1.447   2.491   2.778
 1099SOL    HW1 4196   1.382   2.416   2.791
 1099SOL    HW2 4197   1.516   2.488   2.850
 1100SOL     OW 4198   1.770   2.584   2.282
 1100SOL    HW1 4199   1.853   2.566   2.335
 1100SOL    HW2 4200   1.781   2.546   2.190
 1101SOL     OW 4201   0.517   3.279   2.005
 1101SOL    HW1 4202   0.439   3.254   2.063
 1101SOL    HW2 4203   0.506   3.237   1.915
 1102SOL     OW 4204   1.690   3.073   2.577
 1102SOL    HW1 4205   1.779   3.048   2.540
 1102SOL    HW2 4206   1.663   3.163   2.542
 1103SOL     OW 4207   1.464   2.412   1.881
 1103SOL    HW1 4208   1.458   2.322   1.925
 1103SOL    HW2 4209   1.560   2.434   1.864
 1104SOL     OW 4210   0.551   2.119   2.162
 1104SOL    HW1 4211   0.594   2.058   2.095
 1104SOL    HW2 4212   0.504   2.193   2.114
 1105SOL     OW 4213   1.680   3.099   3.383
 1105SOL    HW1 4214   1.757   3.039   3.362
 1105SOL    HW2 4215   1.714   3.183   3.426
 1106SOL     OW 4216   1.004   3.211   3.205
 1106SOL    HW1 4217   0.919   3.187   3.253
 1106SOL    HW2 4218   1.079   3.157   3.241
 1107SOL     OW 4219   1.591   3.496   3.551
 1107SOL    HW1 4220   1.575   3.534   3.460
 1107SOL    HW2 4221   1.667   3.430   3.546
 1108SOL     OW 4222   1.135   3.132   2.968
 1108SOL    HW1 4223   1.070   3.157   3.040
 1108SOL    HW2 4224   1.098   3.156   2.879
 1109SOL     OW 4225   1.568   2.959   2.965
 1109SOL    HW1 4226   1.556   3.029   3.036
 1109SOL    HW2 4227   1.511   2.982   2.886
 1110SOL     OW 4228   0.933   1.914   3.237
 1110SOL    HW1 4229   0.951   1.899   3.140
 1110SOL    HW2 4230   1.014   1.955   3.280
 1111SOL     OW 4231   0.946   2.967   3.585
 1111SOL    HW1 4232   0.853   2.981   3.618
 1111SOL    HW2 4233   0.948   2.890   3.521
 1112SOL     OW 4234   0.710   2.907   2.245
 1112SOL    HW1 4235   0.705   2.873   2.339
 1112SOL    HW2 4236   0.781   2.857   2.196
 1113SOL     OW 4237   0.437   2.634   3.117
 1113SOL    HW1 4238   0.517   2.651   3.175
 1113SOL    HW2 4239   0.406   2.539   3.130
 1114SOL     OW 4240   1.241   2.210   3.156
 1114SOL    HW1 4241   1.264   2.297   3.199
 1114SOL    HW2 4242   1.149   2.216   3.116
 1115SOL     OW 4243   0.012   3.389   3.258
 1115SOL    HW1 4244   6.932   3.417   3.311
 1115SOL    HW2 4245   0.092   3.441   3.288
 1116SOL     OW 4246   0.309   2.992   2.321
 1116SOL    HW1 4247   0.317   3.071   2.260
 1116SOL    HW2 4248   0.303   2.908   2.266
 1117SOL     OW 4249   0.457   2.384   2.700
 1117SOL    HW1 4250   0.475   2.456   2.632
 1117SOL    HW2 4251   0.535   2.377   2.762
 1118SOL     OW 4252   1.238   3.249   2.259
 1118SOL    HW1 4253   1.303   3.317   2.291
 1118SOL    HW2 4254   1.147   3.270   2.294
 1119SOL     OW 4255   1.295   3.355   2.995
 1119SOL    HW1 4256   1.338   3.367   3.084
 1119SOL    HW2 4257   1.240   3.272   2.996
 1120SOL     OW 4258   1.545   2.450   2.363
 1120SOL    HW1 4259   1.480   2.511   2.407
 1120SOL    HW2 4260   1.624   2.502   2.332
 1121SOL     OW 4261   0.345   3.388   3.179
 1121SOL    HW1 4262   0.330   3.328   3.100
 1121SOL    HW2 4263   0.441   3.415   3.183
 1122SOL     OW 4264   0.520   2.575   3.480
 1122SOL    HW1 4265   0.566   2.619   3.403
 1122SOL    HW2 4266   0.578   2.501   3.515
 1123SOL     OW 4267   1.602   2.662   3.555
 1123SOL    HW1 4268   1.510   2.700   3.540
 1123SOL    HW2 4269   1.658   2.681   3.474
 1124SOL     OW 4270   0.987   1.969   3.621
 1124SOL    HW1 4271   1.050   2.046   3.612
 1124SOL    HW2 4272   1.033   1.885   3.592
 1125SOL     OW 4273   0.475   1.939   3.665
 1125SOL    HW1 4274   0.430   1.889   3.592
 1125SOL    HW2 4275   0.414   2.009   3.701
 1126SOL     OW 4276   0.620   2.694   2.918
 1126SOL    HW1 4277   0.647   2.790   2.918
 1126SOL    HW2 4278   0.542   2.681   2.979
 1127SOL     OW 4279   1.254   2.697   2.854
 1127SOL    HW1 4280   1.166   2.656   2.832
 1127SOL    HW2 4281   1.328   2.634   2.830
 1128SOL     OW 4282   1.124   2.403   2.119
 1128SOL    HW1 4283   1.177   2.329   2.161
 1128SOL    HW2 4284   1.074   2.453   2.190
 1129SOL     OW 4285   0.280   2.042   3.114
 1129SOL    HW1 4286   0.256   2.069   3.207
 1129SOL    HW2 4287   0.264   1.944   3.102
 1130SOL     OW 4288   0.086   3.150   3.144
 1130SOL    HW1 4289   0.116   3.085   3.214
 1130SOL    HW2 4290   0.059   3.236   3.189
 1131SOL     OW 4291   0.670   2.421   2.869
 1131SOL    HW1 4292   0.754   2.400   2.819
 1131SOL    HW2 4293   0.662   2.520   2.880
 1132SOL     OW 4294   1.720   2.849   3.726
 1132SOL    HW1 4295   1.676   2.775   3.674
 1132SOL    HW2 4296   1.665   2.871   3.806
 1133SOL     OW 4297   0.342   1.959   2.520
 1133SOL    HW1 4298   0.298   2.042   2.556
 1133SOL    HW2 4299   0.354   1.893   2.594
 1134SOL     OW 4300   1.616   2.257   2.177
 1134SOL    HW1 4301   1.681   2.198   2.226
 1134SOL    HW2 4302   1.573   2.320   2.242
 1135SOL     OW 4303   0.999   2.587   2.784
 1135SOL    HW1 4304   0.970   2.611   2.877
 1135SOL    HW2 4305   0.968   2.495   2.762
 1136SOL     OW 4306   0.970   3.416   3.653
 1136SOL    HW1 4307   0.941   3.477   3.580
 1136SOL    HW2 4308   1.008   3.332   3.614
 1137SOL     OW 4309   1.803   3.331   3.465
 1137SOL    HW1 4310   1.819   3.366   3.373
 1137SOL    HW2 4311   1.888   3.336   3.518
 1138SOL     OW 4312   0.422   2.749   3.674
 1138SOL    HW1 4313   0.486   2.777   3.745
 1138SOL    HW2 4314   0.468   2.687   3.610
 1139SOL     OW 4315   1.479   2.147   1.969
 1139SOL    HW1 4316   1.434   2.061   1.995
 1139SOL    HW2 4317   1.531   2.182   2.047
 1140SOL     OW 4318   1.296   2.615   1.821
 1140SOL    HW1 4319   1.368   2.548   1.840
 1140SOL    HW2 4320   1.323   2.671   1.743
 1141SOL     OW 4321   1.056   3.210   2.714
 1141SOL    HW1 4322   1.071   3.129   2.657
 1141SOL    HW2 4323   1.109   3.287   2.678
 1142SOL     OW 4324   0.317   2.686   2.765
 1142SOL    HW1 4325   0.404   2.671   2.719
 1142SOL    HW2 4326   0.299   2.611   2.828
 1143SOL     OW 4327   0.251   2.424   2.869
 1143SOL    HW1 4328   0.210   2.334   2.884
 1143SOL    HW2 4329   0.327   2.416   2.804
 1144SOL     OW 4330   1.128   2.198   3.564
 1144SOL    HW1 4331   1.076   2.248   3.632
 1144SOL    HW2 4332   1.210   2.250   3.539
 1145SOL     OW 4333   1.160   2.026   3.348
 1145SOL    HW1 4334   1.141   2.087   3.425
 1145SOL    HW2 4335   1.201   2.078   3.274
 1146SOL     OW 4336   0.017   3.186   2.144
 1146SOL    HW1 4337   6.949   3.214   2.211
 1146SOL    HW2 4338   0.018   3.086   2.138
 1147SOL     OW 4339   0.130   3.585   2.813
 1147SOL    HW1 4340   0.103   3.506   2.757
 1147SOL    HW2 4341   0.218   3.620   2.780
 1148SOL     OW 4342   0.481   3.394   2.766
 1148SOL    HW1 4343   0.555   3.450   2.804
 1148SOL    HW2 4344   0.521   3.319   2.712
 1149SOL     OW 4345   0.903   2.649   3.024
 1149SOL    HW1 4346   0.956   2.622   3.105
 1149SOL    HW2 4347   0.806   2.651   3.047
 1150SOL     OW 4348   0.078   2.564   3.028
 1150SOL    HW1 4349   0.143   2.519   2.967
 1150SOL    HW2 4350   0.082   2.521   3.118
 1151SOL     OW 4351   0.240   2.400   3.638
 1151SOL    HW1 4352   0.320   2.340   3.640
 1151SOL    HW2 4353   0.249   2.465   3.562
 1152SOL     OW 4354   1.364   2.783   3.491
 1152SOL    HW1 4355   1.381   2.882   3.492
 1152SOL    HW2 4356   1.351   2.752   3.397
 1153SOL     OW 4357   0.742   2.429   2.231
 1153SOL    HW1 4358   0.781   2.363   2.167
 1153SOL    HW2 4359   0.666   2.477   2.187
 1154SOL     OW 4360   1.643   2.473   2.973
 1154SOL    HW1 4361   1.620   2.396   3.033
 1154SOL    HW2 4362   1.741   2.490   2.978
 1155SOL     OW 4363   0.285   3.440   3.618
 1155SOL    HW1 4364   0.231   3.505   3.670
 1155SOL    HW2 4365   0.269   3.348   3.653
 1156SOL     OW 4366   0.720   2.253   3.083
 1156SOL    HW1 4367   0.660   2.173   3.084
 1156SOL    HW2 4368   0.694   2.313   3.008
 1157SOL     OW 4369   0.849   3.570   3.421
 1157SOL    HW1 4370   0.804   3.500   3.366
 1157SOL    HW2 4371   0.886   3.642   3.362
 1158SOL     OW 4372   0.405   2.320   2.046
 1158SOL    HW1 4373   0.455   2.406   2.051
 1158SOL    HW2 4374   0.318   2.329   2.095
 1159SOL     OW 4375   0.180   2.969   3.338
 1159SOL    HW1 4376   0.193   2.918   3.423
 1159SOL    HW2 4377   0.192   2.908   3.260
 1160SOL     OW 4378   1.238   2.889   3.055
 1160SOL    HW1 4379   1.246   2.822   2.981
 1160SOL    HW2 4380   1.205   2.976   3.017
 1161SOL     OW 4381   1.295   2.721   2.156
 1161SOL    HW1 4382   1.282   2.744   2.252
 1161SOL    HW2 4383   1.377   2.767   2.121
 1162SOL     OW 4384   1.738   3.582   3.020
 1162SOL    HW1 4385   1.799   3.603   2.943
 1162SOL    HW2 4386   1.691   3.495   3.002
 1163SOL     OW 4387   1.267   3.633   2.967
 1163SOL    HW1 4388   1.358   3.671   2.950
 1163SOL    HW2 4389   1.274   3.533   2.974
 1164SOL     OW 4390   0.101   3.128   2.878
 1164SOL    HW1 4391   0.093   3.126   2.978
 1164SOL    HW2 4392   0.020   3.171   2.839
 1165SOL     OW 4393   0.686   3.591   3.639
 1165SOL    HW1 4394   0.616   3.661   3.629
 1165SOL    HW2 4395   0.753   3.599   3.565
 1166SOL     OW 4396   1.797   2.096   2.301
 1166SOL    HW1 4397   1.857   2.067   2.226
 1166SOL    HW2 4398   1.745   2.017   2.334
 1167SOL     OW 4399   1.404   3.447   2.359
 1167SOL    HW1 4400   1.464   3.483   2.288
 1167SOL    HW2 4401   1.347   3.520   2.395
 1168SOL     OW 4402   0.134   3.632   3.756
 1168SOL    HW1 4403   0.078   3.564   3.803
 1168SOL    HW2 4404   0.185   3.685   3.823
 1169SOL     OW 4405   1.254   2.801   2.447
 1169SOL    HW1 4406   1.328   2.746   2.486
 1169SOL    HW2 4407   1.292   2.884   2.407
 1170SOL     OW 4408   0.754   3.155   3.312
 1170SOL    HW1 4409   0.733   3.214   3.391
 1170SOL    HW2 4410   0.678   3.159   3.247
 1171SOL     OW 4411   0.665   3.504   2.028
 1171SOL    HW1 4412   0.678   3.531   1.933
 1171SOL    HW2 4413   0.617   3.416   2.032
 1172SOL     OW 4414   1.592   3.594   3.282
 1172SOL    HW1 4415   1.636   3.581   3.193
 1172SOL    HW2 4416   1.625   3.678   3.324
 1173SOL     OW 4417   1.818   2.023   2.834
 1173SOL    HW1 4418   1.854   1.936   2.803
 1173SOL    HW2 4419   1.733   2.043   2.785
 1174SOL     OW 4420   0.256   2.196   2.634
 1174SOL    HW1 4421   0.330   2.263   2.637
 1174SOL    HW2 4422   0.227   2.173   2.727
 1175SOL     OW 4423   1.209   3.452   1.900
 1175SOL    HW1 4424   1.199   3.360   1.939
 1175SOL    HW2 4425   1.132   3.471   1.839
 1176SOL     OW 4426   0.803   2.898   3.227
 1176SOL    HW1 4427   0.811   2.909   3.128
 1176SOL    HW2 4428   0.787   2.988   3.269
 1177SOL     OW 4429   0.898   2.763   2.111
 1177SOL    HW1 4430   0.975   2.811   2.069
 1177SOL    HW2 4431   0.932   2.698   2.179
 1178SOL     OW 4432   1.470   3.549   1.912
 1178SOL    HW1 4433   1.379   3.513   1.896
 1178SOL    HW2 4434   1.532   3.518   1.840
 1179SOL     OW 4435   0.374   3.175   3.369
 1179SOL    HW1 4436   0.360   3.254   3.310
 1179SOL    HW2 4437   0.308   3.103   3.346
 1180SOL     OW 4438   1.540   3.163   3.154
 1180SOL    HW1 4439   1.596   3.131   3.230
 1180SOL    HW2 4440   1.480   3.236   3.186
 1181SOL     OW 4441   1.072   2.972   2.585
 1181SOL    HW1 4442   0.999   2.919   2.629
 1181SOL    HW2 4443   1.130   2.910   2.532
 1182SOL     OW 4444   1.033   2.097   2.794
 1182SOL    HW1 4445   1.034   2.054   2.703
 1182SOL    HW2 4446   1.037   2.026   2.864
 1183SOL     OW 4447   0.629   3.347   2.395
 1183SOL    HW1 4448   0.668   3.294   2.319
 1183SOL    HW2 4449   0.530   3.352   2.384
 1184SOL     OW 4450   1.773   2.181   3.290
 1184SOL    HW1 4451   1.838   2.256   3.279
 1184SOL    HW2 4452   1.788   2.113   3.217
 1185SOL     OW 4453   0.285   3.223   2.160
 1185SOL    HW1 4454   0.185   3.221   2.162
 1185SOL    HW2 4455   0.319   3.277   2.238
 1186SOL     OW 4456   0.180   2.824   3.577
 1186SOL    HW1 4457   0.127   2.881   3.640
 1186SOL    HW2 4458   0.269   2.803   3.618
 1187SOL     OW 4459   0.710   2.038   3.359
 1187SOL    HW1 4460   0.792   2.006   3.313
 1187SOL    HW2 4461   0.734   2.074   3.449
 1188SOL     OW 4462   0.057   2.125   1.868
 1188SOL    HW1 4463   6.992   2.061   1.910
 1188SOL    HW2 4464   0.008   2.208   1.842
 1189SOL     OW 4465   1.357   2.709   3.228
 1189SOL    HW1 4466   1.298   2.769   3.173
 1189SOL    HW2 4467   1.449   2.709   3.189
 1190SOL     OW 4468   0.053   2.075   2.180
 1190SOL    HW1 4469   6.988   2.031   2.119
 1190SOL    HW2 4470   0.142   2.028   2.173
 1191SOL     OW 4471   1.156   3.195   2.000
 1191SOL    HW1 4472   1.056   3.187   1.996
 1191SOL    HW2 4473   1.184   3.209   2.095
 1192SOL     OW 4474   0.662   2.664   3.262
 1192SOL    HW1 4475   0.715   2.748   3.259
 1192SOL    HW2 4476   0.724   2.586   3.272
 1193SOL     OW 4477   1.520   3.739   2.921
 1193SOL    HW1 4478   1.549   3.785   2.838
 1193SOL    HW2 4479   1.595   3.685   2.958
 1194SOL     OW 4480   0.718   2.394   3.556
 1194SOL    HW1 4481   0.784   2.455   3.599
 1194SOL    HW2 4482   0.738   2.300   3.583
 1195SOL     OW 4483   1.425   3.051   3.487
 1195SOL    HW1 4484   1.426   3.071   3.584
 1195SOL    HW2 4485   1.515   3.068   3.448
 1196SOL     OW 4486   0.368   3.640   3.450
 1196SOL    HW1 4487   0.277   3.679   3.438
 1196SOL    HW2 4488   0.361   3.553   3.497
 1197SOL     OW 4489   1.596   2.720   3.099
 1197SOL    HW1 4490   1.614   2.642   3.039
 1197SOL    HW2 4491   1.590   2.803   3.045
 1198SOL     OW 4492   1.218   2.201   2.293
 1198SOL    HW1 4493   1.282   2.124   2.295
 1198SOL    HW2 4494   1.229   2.255   2.377
 1199SOL     OW 4495   0.509   2.611   2.555
 1199SOL    HW1 4496   0.585   2.675   2.538
 1199SOL    HW2 4497   0.468   2.585   2.467
 1200SOL     OW 4498   1.709   2.206   3.556
 1200SOL    HW1 4499   1.734   2.202   3.459
 1200SOL    HW2 4500   1.626   2.152   3.571
 1201SOL     OW 4501   1.743   2.725   3.330
 1201SOL    HW1 4502   1.800   2.807   3.325
 1201SOL    HW2 4503   1.689   2.716   3.246
 1202SOL     OW 4504   0.872   3.212   1.964
 1202SOL    HW1 4505   0.820   3.225   2.049
 1202SOL    HW2 4506   0.875   3.298   1.914
 1203SOL     OW 4507   0.682   3.558   2.836
 1203SOL    HW1 4508   0.663   3.656   2.825
 1203SOL    HW2 4509   0.780   3.542   2.835
 1204SOL     OW 4510   0.870   2.830   2.720
 1204SOL    HW1 4511   0.912   2.742   2.742
 1204SOL    HW2 4512   0.830   2.869   2.803
 1205SOL     OW 4513   1.107   2.850   1.958
 1205SOL    HW1 4514   1.057   2.895   1.884
 1205SOL    HW2 4515   1.200   2.887   1.962
 1206SOL     OW 4516   1.837   3.383   2.644
 1206SOL    HW1 4517   1.747   3.364   2.603
 1206SOL    HW2 4518   1.859   3.310   2.709
 1207SOL     OW 4519   0.232   3.190   3.748
 1207SOL    HW1 4520   0.138   3.158   3.735
 1207SOL    HW2 4521   0.250   3.203   3.845
 1208SOL     OW 4522   0.209   3.156   2.542
 1208SOL    HW1 4523   0.223   3.097   2.621
 1208SOL    HW2 4524   0.214   3.101   2.458
 1209SOL     OW 4525   0.676   3.324   3.518
 1209SOL    HW1 4526   0.598   3.275   3.557
 1209SOL    HW2 4527   0.686   3.412   3.565
 1210SOL     OW 4528   1.799   1.990   3.103
 1210SOL    HW1 4529   1.805   1.891   3.109
 1210SOL    HW2 4530   1.806   2.019   3.008
 1211SOL     OW 4531   0.436   2.255   2.375
 1211SOL    HW1 4532   0.490   2.209   2.305
 1211SOL    HW2 4533   0.384   2.188   2.427
 1212SOL     OW 4534   1.621   3.351   2.965
 1212SOL    HW1 4535   1.569   3.331   2.882
 1212SOL    HW2 4536   1.609   3.276   3.030
 1213SOL     OW 4537   0.369   2.369   3.150
 1213SOL    HW1 4538   0.419   2.315   3.218
 1213SOL    HW2 4539   0.386   2.332   3.059
 1214SOL     OW 4540   0.826   3.498   2.511
 1214SOL    HW1 4541   0.826   3.587   2.465
 1214SOL    HW2 4542   0.750   3.443   2.477
 1215SOL     OW 4543   1.416   2.119   2.966
 1215SOL    HW1 4544   1.448   2.026   2.982
 1215SOL    HW2 4545   1.360   2.149   3.043
 1216SOL     OW 4546   1.030   1.872   2.962
 1216SOL    HW1 4547   0.987   1.807   2.900
 1216SOL    HW2 4548   1.123   1.842   2.983
 1217SOL     OW 4549   0.767   3.184   2.223
 1217SOL    HW1 4550   0.749   3.086   2.231
 1217SOL    HW2 4551   0.854   3.205   2.268
 1218SOL     OW 4552   0.616   3.444   3.154
 1218SOL    HW1 4553   0.606   3.537   3.189
 1218SOL    HW2 4554   0.701   3.436   3.102
 1219SOL     OW 4555   1.382   1.899   2.039
 1219SOL    HW1 4556   1.436   1.830   1.993
 1219SOL    HW2 4557   1.291   1.862   2.061
 1220SOL     OW 4558   1.230   2.347   2.521
 1220SOL    HW1 4559   1.182   2.435   2.522
 1220SOL    HW2 4560   1.255   2.322   2.614
 1221SOL     OW 4561   1.570   2.074   2.736
 1221SOL    HW1 4562   1.510   2.103   2.811
 1221SOL    HW2 4563   1.578   2.149   2.669
 1222SOL     OW 4564   0.035   2.912   2.141
 1222SOL    HW1 4565   0.127   2.873   2.137
 1222SOL    HW2 4566   6.968   2.838   2.141
 1223SOL     OW 4567   0.889   3.549   2.184
 1223SOL    HW1 4568   0.810   3.528   2.127
 1223SOL    HW2 4569   0.865   3.619   2.251
 1224SOL     OW 4570   0.173   2.575   3.850
 1224SOL    HW1 4571   0.157   2.515   3.928
 1224SOL    HW2 4572   0.212   2.522   3.775
 1225SOL     OW 4573   0.204   2.144   4.741
 1225SOL    HW1 4574   0.265   2.106   4.811
 1225SOL    HW2 4575   0.109   2.120   4.763
 1226SOL     OW 4576   0.037   2.206   4.354
 1226SOL    HW1 4577   6.979   2.170   4.427
 1226SOL    HW2 4578   0.034   2.145   4.275
 1227SOL     OW 4579   0.579   3.175   4.962
 1227SOL    HW1 4580   0.491   3.171   4.914
 1227SOL    HW2 4581   0.604   3.271   4.977
 1228SOL     OW 4582   1.607   3.340   4.431
 1228SOL    HW1 4583   1.548   3.312   4.507
 1228SOL    HW2 4584   1.551   3.372   4.355
 1229SOL     OW 4585   1.104   2.579   4.386
 1229SOL    HW1 4586   1.153   2.663   4.362
 1229SOL    HW2 4587   1.066   2.589   4.479
 1230SOL     OW 4588   1.779   2.412   3.930
 1230SOL    HW1 4589   1.737   2.429   3.841
 1230SOL    HW2 4590   1.726   2.344   3.980
 1231SOL     OW 4591   0.714   2.975   4.824
 1231SOL    HW1 4592   0.651   3.024   4.884
 1231SOL    HW2 4593   0.761   3.041   4.765
 1232SOL     OW 4594   0.903   2.585   5.497
 1232SOL    HW1 4595   0.934   2.648   5.568
 1232SOL    HW2 4596   0.904   2.632   5.408
 1233SOL     OW 4597   0.677   2.810   4.391
 1233SOL    HW1 4598   0.747   2.819   4.462
 1233SOL    HW2 4599   0.603   2.875   4.407
 1234SOL     OW 4600   0.691   3.018   5.573
 1234SOL    HW1 4601   0.751   3.087   5.615
 1234SOL    HW2 4602   0.614   3.063   5.529
 1235SOL     OW 4603   0.353   3.232   4.813
 1235SOL    HW1 4604   0.267   3.192   4.781
 1235SOL    HW2 4605   0.393   3.287   4.740
 1236SOL     OW 4606   1.433   3.375   5.099
 1236SOL    HW1 4607   1.509   3.435   5.122
 1236SOL    HW2 4608   1.355   3.395   5.158
 1237SOL     OW 4609   0.446   2.217   5.185
 1237SOL    HW1 4610   0.521   2.191   5.245
 1237SOL    HW2 4611   0.367   2.158   5.201
 1238SOL     OW 4612   1.611   2.329   4.479
 1238SOL    HW1 4613   1.591   2.363   4.387
 1238SOL    HW2 4614   1.568   2.389   4.546
 1239SOL     OW 4615   0.255   3.596   4.214
 1239SOL    HW1 4616   0.275   3.672   4.277
 1239SOL    HW2 4617   0.316   3.601   4.135
 1240SOL     OW 4618   1.091   3.186   5.373
 1240SOL    HW1 4619   1.152   3.144   5.306
 1240SOL    HW2 4620   1.035   3.116   5.416
 1241SOL     OW 4621   0.344   3.337   4.257
 1241SOL    HW1 4622   0.308   3.430   4.259
 1241SOL    HW2 4623   0.299   3.282   4.327
 1242SOL     OW 4624   0.270   2.958   4.596
 1242SOL    HW1 4625   0.278   2.861   4.618
 1242SOL    HW2 4626   0.211   3.003   4.663
 1243SOL     OW 4627   0.573   3.686   5.134
 1243SOL    HW1 4628   0.491   3.669   5.189
 1243SOL    HW2 4629   0.625   3.762   5.174
 1244SOL     OW 4630   0.574   2.844   3.899
 1244SOL    HW1 4631   0.620   2.898   3.829
 1244SOL    HW2 4632   0.613   2.866   3.989
 1245SOL     OW 4633   1.589   1.990   5.195
 1245SOL    HW1 4634   1.664   2.052   5.172
 1245SOL    HW2 4635   1.540   2.025   5.275
 1246SOL     OW 4636   0.102   2.474   4.297
 1246SOL    HW1 4637   0.080   2.384   4.334
 1246SOL    HW2 4638   0.083   2.544   4.365
 1247SOL     OW 4639   1.853   3.627   4.022
 1247SOL    HW1 4640   1.922   3.607   4.091
 1247SOL    HW2 4641   1.861   3.722   3.993
 1248SOL     OW 4642   6.969   3.463   3.879
 1248SOL    HW1 4643   6.979   3.369   3.912
 1248SOL    HW2 4644   6.874   3.492   3.890
 1249SOL     OW 4645   1.666   2.756   4.388
 1249SOL    HW1 4646   1.758   2.741   4.424
 1249SOL    HW2 4647   1.670   2.819   4.310
 1250SOL     OW 4648   1.663   2.966   4.189
 1250SOL    HW1 4649   1.740   2.934   4.133
 1250SOL    HW2 4650   1.697   3.023   4.264
 1251SOL     OW 4651   0.230   2.596   5.296
 1251SOL    HW1 4652   0.330   2.597   5.291
 1251SOL    HW2 4653   0.197   2.684   5.331
 1252SOL     OW 4654   0.632   3.205   4.468
 1252SOL    HW1 4655   0.579   3.120   4.455
 1252SOL    HW2 4656   0.631   3.257   4.383
 1253SOL     OW 4657   1.237   3.078   5.163
 1253SOL    HW1 4658   1.251   3.016   5.086
 1253SOL    HW2 4659   1.319   3.080   5.220
 1254SOL     OW 4660   0.857   1.879   4.225
 1254SOL    HW1 4661   0.903   1.962   4.193
 1254SOL    HW2 4662   0.760   1.897   4.238
 1255SOL     OW 4663   0.196   2.824   5.010
 1255SOL    HW1 4664   0.273   2.765   4.986
 1255SOL    HW2 4665   0.123   2.813   4.943
 1256SOL     OW 4666   1.541   2.921   3.936
 1256SOL    HW1 4667   1.464   2.860   3.952
 1256SOL    HW2 4668   1.584   2.944   4.024
 1257SOL     OW 4669   1.228   3.705   5.339
 1257SOL    HW1 4670   1.209   3.769   5.264
 1257SOL    HW2 4671   1.222   3.611   5.305
 1258SOL     OW 4672   0.343   2.123   5.611
 1258SOL    HW1 4673   0.366   2.202   5.668
 1258SOL    HW2 4674   0.245   2.125   5.589
 1259SOL     OW 4675   1.436   3.265   4.631
 1259SOL    HW1 4676   1.391   3.302   4.713
 1259SOL    HW2 4677   1.414   3.168   4.622
 1260SOL     OW 4678   1.656   3.737   4.261
 1260SOL    HW1 4679   1.637   3.668   4.190
 1260SOL    HW2 4680   1.703   3.693   4.337
 1261SOL     OW 4681   0.548   2.561   4.006
 1261SOL    HW1 4682   0.566   2.653   3.971
 1261SOL    HW2 4683   0.487   2.567   4.085
 1262SOL     OW 4684   1.275   2.260   4.664
 1262SOL    HW1 4685   1.187   2.212   4.660
 1262SOL    HW2 4686   1.337   2.210   4.724
 1263SOL     OW 4687   1.594   3.554   4.055
 1263SOL    HW1 4688   1.691   3.571   4.040
 1263SOL    HW2 4689   1.548   3.541   3.967
 1264SOL     OW 4690   0.809   2.460   5.155
 1264SOL    HW1 4691   0.772   2.427   5.242
 1264SOL    HW2 4692   0.788   2.393   5.083
 1265SOL     OW 4693   1.353   2.332   5.373
 1265SOL    HW1 4694   1.359   2.384   5.459
 1265SOL    HW2 4695   1.407   2.248   5.382
 1266SOL     OW 4696   0.932   2.761   5.273
 1266SOL    HW1 4697   0.995   2.703   5.222
 1266SOL    HW2 4698   0.883   2.820   5.209
 1267SOL     OW 4699   1.015   2.220   4.916
 1267SOL    HW1 4700   0.922   2.252   4.934
 1267SOL    HW2 4701   1.018   2.175   4.826
 1268SOL     OW 4702   1.021   2.530   4.129
 1268SOL    HW1 4703   1.048   2.540   4.225
 1268SOL    HW2 4704   0.930   2.490   4.124
 1269SOL     OW 4705   0.074   2.665   4.502
 1269SOL    HW1 4706   0.167   2.677   4.537
 1269SOL    HW2 4707   0.009   2.674   4.577
 1270SOL     OW 4708   0.106   3.769   5.377
 1270SOL    HW1 4709   0.123   3.737   5.470
 1270SOL    HW2 4710   0.011   3.752   5.353
 1271SOL     OW 4711   0.839   2.212   3.928
 1271SOL    HW1 4712   0.897   2.254   3.858
 1271SOL    HW2 4713   0.787   2.137   3.887
 1272SOL     OW 4714   1.642   2.444   5.547
 1272SOL    HW1 4715   1.647   2.526   5.490
 1272SOL    HW2 4716   1.677   2.366   5.495
 1273SOL     OW 4717   1.401   3.028   4.299
 1273SOL    HW1 4718   1.488   3.010   4.254
 1273SOL    HW2 4719   1.351   3.097   4.247
 1274SOL     OW 4720   0.517   2.067   4.666
 1274SOL    HW1 4721   0.554   2.078   4.758
 1274SOL    HW2 4722   0.515   2.156   4.620
 1275SOL     OW 4723   0.999   3.323   4.204
 1275SOL    HW1 4724   0.976   3.400   4.144
 1275SOL    HW2 4725   0.966   3.341   4.296
 1276SOL     OW 4726   0.386   3.639   4.604
 1276SOL    HW1 4727   0.414   3.544   4.608
 1276SOL    HW2 4728   0.462   3.698   4.634
 1277SOL     OW 4729   1.794   2.950   4.626
 1277SOL    HW1 4730   1.760   2.992   4.542
 1277SOL    HW2 4731   1.720   2.944   4.693
 1278SOL     OW 4732   1.196   3.426   5.237
 1278SOL    HW1 4733   1.175   3.358   5.307
 1278SOL    HW2 4734   1.129   3.421   5.163
 1279SOL     OW 4735   0.294   2.805   3.962
 1279SOL    HW1 4736   0.387   2.820   3.929
 1279SOL    HW2 4737   0.257   2.722   3.921
 1280SOL     OW 4738   1.436   2.627   4.427
 1280SOL    HW1 4739   1.436   2.578   4.514
 1280SOL    HW2 4740   1.523   2.678   4.418
 1281SOL     OW 4741   0.475   3.170   5.482
 1281SOL    HW1 4742   0.455   3.166   5.384
 1281SOL    HW2 4743   0.389   3.178   5.533
 1282SOL     OW 4744   1.145   3.631   3.967
 1282SOL    HW1 4745   1.057   3.608   4.009
 1282SOL    HW2 4746   1.170   3.560   3.902
 1283SOL     OW 4747   0.208   2.071   5.200
 1283SOL    HW1 4748   0.137   2.142   5.195
 1283SOL    HW2 4749   0.178   1.998   5.262
 1284SOL     OW 4750   1.625   3.275   3.826
 1284SOL    HW1 4751   1.576   3.362   3.826
 1284SOL    HW2 4752   1.564   3.203   3.793
 1285SOL     OW 4753   0.472   3.638   4.037
 1285SOL    HW1 4754   0.519   3.686   4.112
 1285SOL    HW2 4755   0.538   3.585   3.985
 1286SOL     OW 4756   1.401   1.966   4.176
 1286SOL    HW1 4757   1.402   1.940   4.080
 1286SOL    HW2 4758   1.492   1.951   4.216
 1287SOL     OW 4759   0.209   3.607   4.971
 1287SOL    HW1 4760   0.266   3.530   4.999
 1287SOL    HW2 4761   0.174   3.592   4.879
 1288SOL     OW 4762   0.974   3.544   4.610
 1288SOL    HW1 4763   1.065   3.503   4.612
 1288SOL    HW2 4764   0.919   3.498   4.540
 1289SOL     OW 4765   0.373   2.519   4.218
 1289SOL    HW1 4766   0.391   2.422   4.235
 1289SOL    HW2 4767   0.278   2.539   4.239
 1290SOL     OW 4768   1.465   2.082   5.434
 1290SOL    HW1 4769   1.477   2.105   5.531
 1290SOL    HW2 4770   1.395   2.011   5.425
 1291SOL     OW 4771   0.674   1.991   3.848
 1291SOL    HW1 4772   0.740   1.915   3.853
 1291SOL    HW2 4773   0.597   1.963   3.790
 1292SOL     OW 4774   0.728   2.111   5.397
 1292SOL    HW1 4775   0.813   2.069   5.427
 1292SOL    HW2 4776   0.650   2.061   5.435
 1293SOL     OW 4777   0.853   3.367   4.891
 1293SOL    HW1 4778   0.831   3.306   4.815
 1293SOL    HW2 4779   0.916   3.320   4.954
 1294SOL     OW 4780   1.302   2.465   5.138
 1294SOL    HW1 4781   1.329   2.430   5.228
 1294SOL    HW2 4782   1.340   2.557   5.126
 1295SOL     OW 4783   0.809   3.186   4.679
 1295SOL    HW1 4784   0.901   3.196   4.640
 1295SOL    HW2 4785   0.742   3.187   4.605
 1296SOL     OW 4786   0.917   2.351   4.594
 1296SOL    HW1 4787   0.890   2.340   4.499
 1296SOL    HW2 4788   0.951   2.264   4.630
 1297SOL     OW 4789   0.592   1.921   4.249
 1297SOL    HW1 4790   0.532   1.916   4.328
 1297SOL    HW2 4791   0.570   2.002   4.195
 1298SOL     OW 4792   1.418   3.093   3.761
 1298SOL    HW1 4793   1.464   3.025   3.817
 1298SOL    HW2 4794   1.334   3.123   3.808
 1299SOL     OW 4795   0.273   1.924   3.975
 1299SOL    HW1 4796   0.295   1.999   3.913
 1299SOL    HW2 4797   0.356   1.871   3.994
 1300SOL     OW 4798   0.968   2.114   4.152
 1300SOL    HW1 4799   0.928   2.153   4.069
 1300SOL    HW2 4800   1.065   2.135   4.155
 1301SOL     OW 4801   1.052   2.579   5.108
 1301SOL    HW1 4802   0.977   2.516   5.130
 1301SOL    HW2 4803   1.139   2.531   5.115
 1302SOL     OW 4804   1.221   3.429   4.521
 1302SOL    HW1 4805   1.240   3.504   4.457
 1302SOL    HW2 4806   1.307   3.386   4.548
 1303SOL     OW 4807   0.473   2.989   4.415
 1303SOL    HW1 4808   0.402   2.975   4.483
 1303SOL    HW2 4809   0.432   2.989   4.323
 1304SOL     OW 4810   1.261   3.648   4.348
 1304SOL    HW1 4811   1.311   3.714   4.292
 1304SOL    HW2 4812   1.177   3.691   4.383
 1305SOL     OW 4813   1.007   2.349   3.758
 1305SOL    HW1 4814   0.980   2.437   3.719
 1305SOL    HW2 4815   1.077   2.364   3.828
 1306SOL     OW 4816   0.095   2.433   5.098
 1306SOL    HW1 4817   0.186   2.411   5.064
 1306SOL    HW2 4818   0.102   2.497   5.174
 1307SOL     OW 4819   0.594   2.076   4.929
 1307SOL    HW1 4820   0.647   2.041   5.007
 1307SOL    HW2 4821   0.497   2.065   4.947
 1308SOL     OW 4822   0.853   2.293   4.337
 1308SOL    HW1 4823   0.805   2.353   4.272
 1308SOL    HW2 4824   0.902   2.222   4.286
 1309SOL     OW 4825   1.025   1.908   4.453
 1309SOL    HW1 4826   0.969   1.912   4.370
 1309SOL    HW2 4827   0.992   1.834   4.512
 1310SOL     OW 4828   1.392   2.992   4.589
 1310SOL    HW1 4829   1.338   2.911   4.612
 1310SOL    HW2 4830   1.399   3.001   4.490
 1311SOL     OW 4831   1.437   2.491   4.664
 1311SOL    HW1 4832   1.373   2.415   4.672
 1311SOL    HW2 4833   1.505   2.486   4.738
 1312SOL     OW 4834   1.771   2.610   4.115
 1312SOL    HW1 4835   1.844   2.590   4.180
 1312SOL    HW2 4836   1.775   2.544   4.040
 1313SOL     OW 4837   0.521   3.290   3.878
 1313SOL    HW1 4838   0.441   3.264   3.932
 1313SOL    HW2 4839   0.516   3.248   3.788
 1314SOL     OW 4840   1.759   3.105   4.397
 1314SOL    HW1 4841   1.859   3.112   4.405
 1314SOL    HW2 4842   1.719   3.197   4.406
 1315SOL     OW 4843   1.368   2.440   3.765
 1315SOL    HW1 4844   1.321   2.406   3.847
 1315SOL    HW2 4845   1.466   2.428   3.776
 1316SOL     OW 4846   0.535   2.115   4.064
 1316SOL    HW1 4847   0.593   2.073   3.994
 1316SOL    HW2 4848   0.491   2.196   4.026
 1317SOL     OW 4849   1.702   3.104   5.247
 1317SOL    HW1 4850   1.771   3.036   5.223
 1317SOL    HW2 4851   1.746   3.185   5.286
 1318SOL     OW 4852   1.008   3.215   5.066
 1318SOL    HW1 4853   0.925   3.196   5.118
 1318SOL    HW2 4854   1.085   3.169   5.110
 1319SOL     OW 4855   1.591   3.425   5.423
 1319SOL    HW1 4856   1.529   3.347   5.413
 1319SOL    HW2 4857   1.686   3.394   5.416
 1320SOL     OW 4858   1.148   3.149   4.838
 1320SOL    HW1 4859   1.081   3.171   4.909
 1320SOL    HW2 4860   1.109   3.167   4.748
 1321SOL     OW 4861   1.578   2.957   4.801
 1321SOL    HW1 4862   1.559   3.017   4.879
 1321SOL    HW2 4863   1.507   2.970   4.731
 1322SOL     OW 4864   0.975   1.878   5.098
 1322SOL    HW1 4865   0.999   1.861   5.003
 1322SOL    HW2 4866   1.046   1.933   5.141
 1323SOL     OW 4867   0.941   2.968   5.454
 1323SOL    HW1 4868   0.848   2.984   5.488
 1323SOL    HW2 4869   0.940   2.894   5.387
 1324SOL     OW 4870   0.719   2.904   4.130
 1324SOL    HW1 4871   0.699   2.871   4.223
 1324SOL    HW2 4872   0.802   2.860   4.096
 1325SOL     OW 4873   0.420   2.658   4.972
 1325SOL    HW1 4874   0.498   2.673   5.034
 1325SOL    HW2 4875   0.385   2.565   4.985
 1326SOL     OW 4876   1.259   2.217   5.031
 1326SOL    HW1 4877   1.281   2.307   5.068
 1326SOL    HW2 4878   1.168   2.220   4.989
 1327SOL     OW 4879   0.032   3.408   5.110
 1327SOL    HW1 4880   6.955   3.433   5.169
 1327SOL    HW2 4881   0.095   3.486   5.104
 1328SOL     OW 4882   0.355   2.989   4.167
 1328SOL    HW1 4883   0.338   3.072   4.114
 1328SOL    HW2 4884   0.337   2.909   4.110
 1329SOL     OW 4885   0.522   2.339   4.585
 1329SOL    HW1 4886   0.528   2.395   4.502
 1329SOL    HW2 4887   0.588   2.372   4.652
 1330SOL     OW 4888   1.258   3.230   4.161
 1330SOL    HW1 4889   1.320   3.304   4.185
 1330SOL    HW2 4890   1.164   3.257   4.184
 1331SOL     OW 4891   1.316   3.364   4.854
 1331SOL    HW1 4892   1.367   3.368   4.940
 1331SOL    HW2 4893   1.253   3.286   4.856
 1332SOL     OW 4894   1.563   2.466   4.238
 1332SOL    HW1 4895   1.495   2.520   4.287
 1332SOL    HW2 4896   1.631   2.527   4.198
 1333SOL     OW 4897   0.355   3.386   5.039
 1333SOL    HW1 4898   0.339   3.325   4.961
 1333SOL    HW2 4899   0.452   3.411   5.041
 1334SOL     OW 4900   0.508   2.583   5.341
 1334SOL    HW1 4901   0.551   2.631   5.264
 1334SOL    HW2 4902   0.568   2.509   5.371
 1335SOL     OW 4903   1.640   2.678   5.402
 1335SOL    HW1 4904   1.550   2.718   5.388
 1335SOL    HW2 4905   1.701   2.704   5.327
 1336SOL     OW 4906   0.956   1.977   5.472
 1336SOL    HW1 4907   1.018   2.055   5.467
 1336SOL    HW2 4908   1.007   1.893   5.453
 1337SOL     OW 4909   0.520   1.954   5.492
 1337SOL    HW1 4910   0.470   1.891   5.433
 1337SOL    HW2 4911   0.456   2.018   5.534
 1338SOL     OW 4912   0.586   2.726   4.762
 1338SOL    HW1 4913   0.625   2.817   4.777
 1338SOL    HW2 4914   0.520   2.707   4.835
 1339SOL     OW 4915   1.272   2.738   4.698
 1339SOL    HW1 4916   1.182   2.699   4.676
 1339SOL    HW2 4917   1.342   2.667   4.692
 1340SOL     OW 4918   1.185   2.375   3.970
 1340SOL    HW1 4919   1.214   2.300   4.029
 1340SOL    HW2 4920   1.134   2.442   4.024
 1341SOL     OW 4921   0.329   2.022   4.953
 1341SOL    HW1 4922   0.282   2.030   5.041
 1341SOL    HW2 4923   0.317   1.929   4.917
 1342SOL     OW 4924   0.095   3.163   5.015
 1342SOL    HW1 4925   0.116   3.098   5.089
 1342SOL    HW2 4926   0.077   3.253   5.054
 1343SOL     OW 4927   0.702   2.470   4.741
 1343SOL    HW1 4928   0.779   2.454   4.680
 1343SOL    HW2 4929   0.671   2.564   4.732
 1344SOL     OW 4930   1.743   2.845   5.600
 1344SOL    HW1 4931   1.705   2.777   5.538
 1344SOL    HW2 4932   1.678   2.865   5.673
 1345SOL     OW 4933   0.389   1.873   4.439
 1345SOL    HW1 4934   0.346   1.962   4.455
 1345SOL    HW2 4935   0.336   1.821   4.372
 1346SOL     OW 4936   1.602   2.253   4.068
 1346SOL    HW1 4937   1.664   2.193   4.118
 1346SOL    HW2 4938   1.570   2.326   4.128
 1347SOL     OW 4939   1.019   2.600   4.651
 1347SOL    HW1 4940   0.990   2.625   4.744
 1347SOL    HW2 4941   0.993   2.505   4.633
 1348SOL     OW 4942   0.995   3.410   5.500
 1348SOL    HW1 4943   0.954   3.473   5.434
 1348SOL    HW2 4944   1.018   3.324   5.454
 1349SOL     OW 4945   1.835   3.326   5.344
 1349SOL    HW1 4946   1.886   3.384   5.281
 1349SOL    HW2 4947   1.899   3.283   5.409
 1350SOL     OW 4948   0.414   2.746   5.546
 1350SOL    HW1 4949   0.484   2.773   5.613
 1350SOL    HW2 4950   0.455   2.687   5.477
 1351SOL     OW 4951   1.489   2.133   3.844
 1351SOL    HW1 4952   1.452   2.047   3.877
 1351SOL    HW2 4953   1.529   2.183   3.921
 1352SOL     OW 4954   1.263   2.686   3.725
 1352SOL    HW1 4955   1.300   2.594   3.736
 1352SOL    HW2 4956   1.296   2.725   3.639
 1353SOL     OW 4957   1.060   3.213   4.585
 1353SOL    HW1 4958   1.071   3.131   4.529
 1353SOL    HW2 4959   1.117   3.286   4.548
 1354SOL     OW 4960   0.321   2.681   4.637
 1354SOL    HW1 4961   0.419   2.698   4.642
 1354SOL    HW2 4962   0.301   2.589   4.672
 1355SOL     OW 4963   0.288   2.402   4.712
 1355SOL    HW1 4964   0.241   2.314   4.719
 1355SOL    HW2 4965   0.372   2.390   4.659
 1356SOL     OW 4966   1.117   2.200   5.426
 1356SOL    HW1 4967   1.069   2.251   5.497
 1356SOL    HW2 4968   1.199   2.249   5.399
 1357SOL     OW 4969   1.173   2.029   5.215
 1357SOL    HW1 4970   1.144   2.087   5.291
 1357SOL    HW2 4971   1.218   2.085   5.145
 1358SOL     OW 4972   0.008   3.208   3.987
 1358SOL    HW1 4973   6.944   3.237   4.057
 1358SOL    HW2 4974   0.015   3.108   3.987
 1359SOL     OW 4975   0.133   3.587   4.701
 1359SOL    HW1 4976   0.100   3.515   4.641
 1359SOL    HW2 4977   0.221   3.620   4.668
 1360SOL     OW 4978   0.492   3.383   4.629
 1360SOL    HW1 4979   0.566   3.440   4.664
 1360SOL    HW2 4980   0.529   3.314   4.567
 1361SOL     OW 4981   0.915   2.670   4.888
 1361SOL    HW1 4982   0.975   2.650   4.965
 1361SOL    HW2 4983   0.820   2.658   4.916
 1362SOL     OW 4984   0.059   2.519   4.835
 1362SOL    HW1 4985   0.140   2.482   4.791
 1362SOL    HW2 4986   0.061   2.497   4.933
 1363SOL     OW 4987   0.242   2.411   5.492
 1363SOL    HW1 4988   0.321   2.351   5.481
 1363SOL    HW2 4989   0.239   2.477   5.417
 1364SOL     OW 4990   1.398   2.798   5.351
 1364SOL    HW1 4991   1.410   2.898   5.353
 1364SOL    HW2 4992   1.384   2.768   5.256
 1365SOL     OW 4993   0.771   2.418   4.099
 1365SOL    HW1 4994   0.787   2.343   4.035
 1365SOL    HW2 4995   0.694   2.473   4.067
 1366SOL     OW 4996   1.626   2.466   4.863
 1366SOL    HW1 4997   1.588   2.412   4.938
 1366SOL    HW2 4998   1.724   2.451   4.857
 1367SOL     OW 4999   0.294   3.469   5.489
 1367SOL    HW1 5000   0.233   3.530   5.539
 1367SOL    HW2 5001   0.282   3.375   5.523
 1368SOL     OW 5002   0.753   2.299   4.944
 1368SOL    HW1 5003   0.690   2.221   4.939
 1368SOL    HW2 5004   0.731   2.364   4.872
 1369SOL     OW 5005   0.871   3.572   5.285
 1369SOL    HW1 5006   0.817   3.506   5.234
 1369SOL    HW2 5007   0.899   3.647   5.225
 1370SOL     OW 5008   0.404   2.329   3.949
 1370SOL    HW1 5009   0.463   2.409   3.955
 1370SOL    HW2 5010   0.315   2.350   3.989
 1371SOL     OW 5011   0.167   2.987   5.219
 1371SOL    HW1 5012   0.180   2.934   5.303
 1371SOL    HW2 5013   0.178   2.928   5.139
 1372SOL     OW 5014   1.253   2.908   4.921
 1372SOL    HW1 5015   1.261   2.844   4.845
 1372SOL    HW2 5016   1.221   2.996   4.888
 1373SOL     OW 5017   1.323   2.770   3.981
 1373SOL    HW1 5018   1.254   2.743   4.048
 1373SOL    HW2 5019   1.297   2.737   3.891
 1374SOL     OW 5020   1.712   3.607   4.862
 1374SOL    HW1 5021   1.785   3.629   4.798
 1374SOL    HW2 5022   1.685   3.511   4.852
 1375SOL     OW 5023   1.268   3.642   4.859
 1375SOL    HW1 5024   1.352   3.694   4.847
 1375SOL    HW2 5025   1.287   3.544   4.849
 1376SOL     OW 5026   0.106   3.113   4.752
 1376SOL    HW1 5027   0.101   3.121   4.851
 1376SOL    HW2 5028   0.016   3.134   4.713
 1377SOL     OW 5029   0.695   3.599   5.497
 1377SOL    HW1 5030   0.625   3.670   5.485
 1377SOL    HW2 5031   0.765   3.610   5.427
 1378SOL     OW 5032   1.787   2.094   4.191
 1378SOL    HW1 5033   1.841   2.070   4.111
 1378SOL    HW2 5034   1.739   2.012   4.224
 1379SOL     OW 5035   1.424   3.442   4.241
 1379SOL    HW1 5036   1.484   3.478   4.170
 1379SOL    HW2 5037   1.362   3.514   4.273
 1380SOL     OW 5038   0.126   3.652   5.631
 1380SOL    HW1 5039   0.082   3.568   5.661
 1380SOL    HW2 5040   0.175   3.693   5.707
 1381SOL     OW 5041   1.252   2.805   4.346
 1381SOL    HW1 5042   1.320   2.738   4.374
 1381SOL    HW2 5043   1.298   2.888   4.314
 1382SOL     OW 5044   0.758   3.168   5.179
 1382SOL    HW1 5045   0.737   3.227   5.257
 1382SOL    HW2 5046   0.682   3.170   5.114
 1383SOL     OW 5047   0.679   3.510   3.900
 1383SOL    HW1 5048   0.694   3.537   3.805
 1383SOL    HW2 5049   0.630   3.423   3.902
 1384SOL     OW 5050   1.643   3.548   5.175
 1384SOL    HW1 5051   1.731   3.509   5.150
 1384SOL    HW2 5052   1.623   3.527   5.271
 1385SOL     OW 5053   1.839   1.993   4.748
 1385SOL    HW1 5054   1.865   1.909   4.699
 1385SOL    HW2 5055   1.763   2.036   4.700
 1386SOL     OW 5056   0.265   2.111   4.473
 1386SOL    HW1 5057   0.188   2.155   4.428
 1386SOL    HW2 5058   0.258   2.124   4.572
 1387SOL     OW 5059   1.215   3.434   3.789
 1387SOL    HW1 5060   1.212   3.341   3.826
 1387SOL    HW2 5061   1.136   3.450   3.730
 1388SOL     OW 5062   0.793   2.910   5.092
 1388SOL    HW1 5063   0.793   2.922   4.993
 1388SOL    HW2 5064   0.783   3.000   5.136
 1389SOL     OW 5065   0.935   2.776   4.039
 1389SOL    HW1 5066   0.966   2.788   3.945
 1389SOL    HW2 5067   0.971   2.689   4.074
 1390SOL     OW 5068   1.478   3.519   3.800
 1390SOL    HW1 5069   1.383   3.490   3.791
 1390SOL    HW2 5070   1.521   3.521   3.710
 1391SOL     OW 5071   0.376   3.177   5.232
 1391SOL    HW1 5072   0.362   3.255   5.170
 1391SOL    HW2 5073   0.303   3.110   5.218
 1392SOL     OW 5074   1.534   3.123   5.019
 1392SOL    HW1 5075   1.600   3.104   5.092
 1392SOL    HW2 5076   1.489   3.210   5.038
 1393SOL     OW 5077   1.060   2.974   4.460
 1393SOL    HW1 5078   0.984   2.922   4.500
 1393SOL    HW2 5079   1.122   2.912   4.412
 1394SOL     OW 5080   1.041   2.079   4.676
 1394SOL    HW1 5081   1.039   2.044   4.583
 1394SOL    HW2 5082   1.048   2.003   4.741
 1395SOL     OW 5083   0.623   3.352   4.238
 1395SOL    HW1 5084   0.664   3.299   4.164
 1395SOL    HW2 5085   0.523   3.352   4.228
 1396SOL     OW 5086   1.820   2.152   5.165
 1396SOL    HW1 5087   1.880   2.230   5.148
 1396SOL    HW2 5088   1.849   2.074   5.109
 1397SOL     OW 5089   0.280   3.227   4.019
 1397SOL    HW1 5090   0.181   3.231   4.015
 1397SOL    HW2 5091   0.312   3.272   4.103
 1398SOL     OW 5092   0.178   2.831   5.441
 1398SOL    HW1 5093   0.107   2.854   5.507
 1398SOL    HW2 5094   0.262   2.808   5.490
 1399SOL     OW 5095   0.730   1.987   5.149
 1399SOL    HW1 5096   0.820   1.949   5.129
 1399SOL    HW2 5097   0.734   2.042   5.232
 1400SOL     OW 5098   0.040   2.166   3.812
 1400SOL    HW1 5099   6.975   2.095   3.838
 1400SOL    HW2 5100   6.995   2.234   3.755
 1401SOL     OW 5101   1.385   2.727   5.088
 1401SOL    HW1 5102   1.326   2.788   5.035
 1401SOL    HW2 5103   1.477   2.728   5.050
 1402SOL     OW 5104   0.037   2.060   4.114
 1402SOL    HW1 5105   6.981   2.010   4.047
 1402SOL    HW2 5106   0.133   2.059   4.086
 1403SOL     OW 5107   1.188   3.180   3.891
 1403SOL    HW1 5108   1.091   3.156   3.881
 1403SOL    HW2 5109   1.211   3.185   3.988
 1404SOL     OW 5110   0.647   2.680   5.123
 1404SOL    HW1 5111   0.695   2.768   5.120
 1404SOL    HW2 5112   0.714   2.607   5.135
 1405SOL     OW 5113   1.508   3.781   4.827
 1405SOL    HW1 5114   1.518   3.858   4.763
 1405SOL    HW2 5115   1.576   3.711   4.805
 1406SOL     OW 5116   0.708   2.396   5.402
 1406SOL    HW1 5117   0.774   2.448   5.457
 1406SOL    HW2 5118   0.723   2.298   5.416
 1407SOL     OW 5119   1.446   3.070   5.347
 1407SOL    HW1 5120   1.442   3.079   5.447
 1407SOL    HW2 5121   1.541   3.080   5.317
 1408SOL     OW 5122   0.362   3.662   5.312
 1408SOL    HW1 5123   0.272   3.705   5.302
 1408SOL    HW2 5124   0.353   3.576   5.361
 1409SOL     OW 5125   1.627   2.732   4.961
 1409SOL    HW1 5126   1.636   2.646   4.911
 1409SOL    HW2 5127   1.620   2.808   4.897
 1410SOL     OW 5128   1.231   2.184   4.166
 1410SOL    HW1 5129   1.298   2.109   4.170
 1410SOL    HW2 5130   1.239   2.240   4.249
 1411SOL     OW 5131   0.560   2.557   4.416
 1411SOL    HW1 5132   0.612   2.642   4.408
 1411SOL    HW2 5133   0.492   2.553   4.342
 1412SOL     OW 5134   1.715   2.208   5.415
 1412SOL    HW1 5135   1.756   2.193   5.325
 1412SOL    HW2 5136   1.630   2.156   5.422
 1413SOL     OW 5137   1.791   2.757   5.183
 1413SOL    HW1 5138   1.849   2.837   5.169
 1413SOL    HW2 5139   1.733   2.744   5.103
 1414SOL     OW 5140   0.874   3.201   3.827
 1414SOL    HW1 5141   0.834   3.212   3.918
 1414SOL    HW2 5142   0.891   3.291   3.787
 1415SOL     OW 5143   0.693   3.550   4.690
 1415SOL    HW1 5144   0.671   3.647   4.680
 1415SOL    HW2 5145   0.792   3.539   4.700
 1416SOL     OW 5146   0.864   2.828   4.596
 1416SOL    HW1 5147   0.917   2.745   4.611
 1416SOL    HW2 5148   0.826   2.859   4.683
 1417SOL     OW 5149   1.022   2.791   3.784
 1417SOL    HW1 5150   1.002   2.869   3.724
 1417SOL    HW2 5151   1.113   2.756   3.763
 1418SOL     OW 5152   1.851   3.413   4.539
 1418SOL    HW1 5153   1.759   3.397   4.501
 1418SOL    HW2 5154   1.873   3.341   4.605
 1419SOL     OW 5155   0.240   3.218   5.610
 1419SOL    HW1 5156   0.142   3.209   5.592
 1419SOL    HW2 5157   0.256   3.215   5.709
 1420SOL     OW 5158   0.193   3.174   4.429
 1420SOL    HW1 5159   0.231   3.106   4.492
 1420SOL    HW2 5160   0.126   3.131   4.368
 1421SOL     OW 5161   0.678   3.338   5.382
 1421SOL    HW1 5162   0.603   3.284   5.420
 1421SOL    HW2 5163   0.683   3.426   5.428
 1422SOL     OW 5164   1.892   1.941   5.013
 1422SOL    HW1 5165   1.971   1.880   5.004
 1422SOL    HW2 5166   1.859   1.965   4.921
 1423SOL     OW 5167   0.408   2.258   4.275
 1423SOL    HW1 5168   0.466   2.200   4.218
 1423SOL    HW2 5169   0.377   2.206   4.355
 1424SOL     OW 5170   1.642   3.353   4.821
 1424SOL    HW1 5171   1.584   3.303   4.755
 1424SOL    HW2 5172   1.694   3.287   4.875
 1425SOL     OW 5173   0.346   2.394   5.002
 1425SOL    HW1 5174   0.393   2.331   5.063
 1425SOL    HW2 5175   0.358   2.364   4.907
 1426SOL     OW 5176   0.835   3.409   4.418
 1426SOL    HW1 5177   0.773   3.434   4.344
 1426SOL    HW2 5178   0.794   3.336   4.472
 1427SOL     OW 5179   1.428   2.117   4.841
 1427SOL    HW1 5180   1.454   2.022   4.856
 1427SOL    HW2 5181   1.375   2.150   4.919
 1428SOL     OW 5182   1.042   1.833   4.830
 1428SOL    HW1 5183   0.984   1.755   4.809
 1428SOL    HW2 5184   1.138   1.807   4.818
 1429SOL     OW 5185   0.781   3.178   4.089
 1429SOL    HW1 5186   0.759   3.082   4.104
 1429SOL    HW2 5187   0.866   3.201   4.137
 1430SOL     OW 5188   0.623   3.444   5.016
 1430SOL    HW1 5189   0.613   3.536   5.054
 1430SOL    HW2 5190   0.708   3.438   4.964
 1431SOL     OW 5191   1.395   1.886   3.913
 1431SOL    HW1 5192   1.450   1.816   3.867
 1431SOL    HW2 5193   1.303   1.852   3.929
 1432SOL     OW 5194   1.238   2.333   4.392
 1432SOL    HW1 5195   1.194   2.423   4.388
 1432SOL    HW2 5196   1.261   2.311   4.487
 1433SOL     OW 5197   1.612   2.093   4.635
 1433SOL    HW1 5198   1.547   2.120   4.706
 1433SOL    HW2 5199   1.616   2.165   4.565
 1434SOL     OW 5200   0.057   2.938   4.013
 1434SOL    HW1 5201   0.145   2.890   4.006
 1434SOL    HW2 5202   6.984   2.872   4.027
 1435SOL     OW 5203   0.900   3.544   4.070
 1435SOL    HW1 5204   0.821   3.529   4.010
 1435SOL    HW2 5205   0.879   3.617   4.135
 1436SOL     OW 5206   0.186   2.552   5.727
 1436SOL    HW1 5207   0.171   2.483   5.796
 1436SOL    HW2 5208   0.223   2.510   5.644
 1437SOL     OW 5209   0.212   2.131   6.630
 1437SOL    HW1 5210   0.268   2.088   6.701
 1437SOL    HW2 5211   0.116   2.109   6.646
 1438SOL     OW 5212   0.038   2.250   6.251
 1438SOL    HW1 5213   6.974   2.233   6.326
 1438SOL    HW2 5214   0.129   2.218   6.277
 1439SOL     OW 5215   0.582   3.099   6.840
 1439SOL    HW1 5216   0.503   3.108   6.780
 1439SOL    HW2 5217   0.616   3.190   6.864
 1440SOL     OW 5218   1.613   3.369   6.313
 1440SOL    HW1 5219   1.548   3.344   6.384
 1440SOL    HW2 5220   1.564   3.396   6.230
 1441SOL     OW 5221   1.097   2.584   6.260
 1441SOL    HW1 5222   1.153   2.665   6.246
 1441SOL    HW2 5223   1.040   2.597   6.341
 1442SOL     OW 5224   1.760   2.445   5.791
 1442SOL    HW1 5225   1.726   2.457   5.698
 1442SOL    HW2 5226   1.708   2.373   5.837
 1443SOL     OW 5227   0.704   2.970   6.622
 1443SOL    HW1 5228   0.660   2.998   6.708
 1443SOL    HW2 5229   0.739   3.051   6.575
 1444SOL     OW 5230   0.674   2.827   6.243
 1444SOL    HW1 5231   0.745   2.827   6.313
 1444SOL    HW2 5232   0.602   2.892   6.268
 1445SOL     OW 5233   0.394   3.164   6.649
 1445SOL    HW1 5234   0.360   3.090   6.591
 1445SOL    HW2 5235   0.430   3.238   6.591
 1446SOL     OW 5236   1.615   2.316   6.318
 1446SOL    HW1 5237   1.603   2.360   6.229
 1446SOL    HW2 5238   1.563   2.367   6.387
 1447SOL     OW 5239   0.264   3.586   6.078
 1447SOL    HW1 5240   0.286   3.656   6.146
 1447SOL    HW2 5241   0.327   3.593   6.001
 1448SOL     OW 5242   0.337   3.324   6.127
 1448SOL    HW1 5243   0.305   3.419   6.124
 1448SOL    HW2 5244   0.290   3.275   6.199
 1449SOL     OW 5245   0.286   2.957   6.492
 1449SOL    HW1 5246   0.288   2.858   6.505
 1449SOL    HW2 5247   0.193   2.990   6.506
 1450SOL     OW 5248   0.603   3.617   6.994
 1450SOL    HW1 5249   0.510   3.642   0.021
 1450SOL    HW2 5250   0.659   3.699   6.988
 1451SOL     OW 5251   0.577   2.841   5.758
 1451SOL    HW1 5252   0.620   2.897   5.687
 1451SOL    HW2 5253   0.615   2.865   5.847
 1452SOL     OW 5254   0.107   2.493   6.148
 1452SOL    HW1 5255   0.074   2.407   6.187
 1452SOL    HW2 5256   0.086   2.568   6.210
 1453SOL     OW 5257   1.874   3.623   5.909
 1453SOL    HW1 5258   1.952   3.609   5.970
 1453SOL    HW2 5259   1.882   3.713   5.866
 1454SOL     OW 5260   6.994   3.428   5.693
 1454SOL    HW1 5261   0.001   3.344   5.746
 1454SOL    HW2 5262   6.902   3.435   5.653
 1455SOL     OW 5263   1.698   2.789   6.264
 1455SOL    HW1 5264   1.789   2.748   6.275
 1455SOL    HW2 5265   1.693   2.833   6.174
 1456SOL     OW 5266   1.668   2.974   6.040
 1456SOL    HW1 5267   1.752   2.957   5.989
 1456SOL    HW2 5268   1.689   3.032   6.119
 1457SOL     OW 5269   0.605   3.219   6.323
 1457SOL    HW1 5270   0.553   3.135   6.306
 1457SOL    HW2 5271   0.615   3.270   6.237
 1458SOL     OW 5272   0.845   1.885   6.098
 1458SOL    HW1 5273   0.890   1.969   6.067
 1458SOL    HW2 5274   0.746   1.900   6.104
 1459SOL     OW 5275   0.267   2.784   6.789
 1459SOL    HW1 5276   0.350   2.741   6.822
 1459SOL    HW2 5277   0.249   2.757   6.695
 1460SOL     OW 5278   1.548   2.905   5.795
 1460SOL    HW1 5279   1.471   2.844   5.816
 1460SOL    HW2 5280   1.593   2.932   5.880
 1461SOL     OW 5281   1.422   3.296   6.505
 1461SOL    HW1 5282   1.379   3.291   6.595
 1461SOL    HW2 5283   1.440   3.203   6.472
 1462SOL     OW 5284   1.655   3.745   6.121
 1462SOL    HW1 5285   1.645   3.673   6.052
 1462SOL    HW2 5286   1.686   3.705   6.207
 1463SOL     OW 5287   0.550   2.560   5.855
 1463SOL    HW1 5288   0.566   2.652   5.818
 1463SOL    HW2 5289   0.484   2.565   5.930
 1464SOL     OW 5290   1.272   2.249   6.492
 1464SOL    HW1 5291   1.180   2.211   6.500
 1464SOL    HW2 5292   1.336   2.192   6.545
 1465SOL     OW 5293   1.612   3.549   5.926
 1465SOL    HW1 5294   1.711   3.562   5.916
 1465SOL    HW2 5295   1.571   3.532   5.837
 1466SOL     OW 5296   0.735   2.530   0.028
 1466SOL    HW1 5297   0.692   2.548   0.117
 1466SOL    HW2 5298   0.684   2.458   6.980
 1467SOL     OW 5299   1.033   2.354   6.782
 1467SOL    HW1 5300   1.018   2.376   6.879
 1467SOL    HW2 5301   0.949   2.316   6.743
 1468SOL     OW 5302   1.026   2.540   5.996
 1468SOL    HW1 5303   1.051   2.549   6.092
 1468SOL    HW2 5304   0.934   2.500   5.989
 1469SOL     OW 5305   0.071   2.680   6.364
 1469SOL    HW1 5306   0.163   2.683   6.402
 1469SOL    HW2 5307   0.004   2.682   6.438
 1470SOL     OW 5308   0.061   3.705   0.263
 1470SOL    HW1 5309   0.130   3.670   0.326
 1470SOL    HW2 5310   0.012   3.628   0.222
 1471SOL     OW 5311   0.845   2.221   5.795
 1471SOL    HW1 5312   0.903   2.266   5.727
 1471SOL    HW2 5313   0.797   2.144   5.753
 1472SOL     OW 5314   1.397   3.021   6.135
 1472SOL    HW1 5315   1.482   3.005   6.087
 1472SOL    HW2 5316   1.347   3.096   6.092
 1473SOL     OW 5317   0.607   1.952   6.576
 1473SOL    HW1 5318   0.600   2.000   6.664
 1473SOL    HW2 5319   0.642   2.015   6.506
 1474SOL     OW 5320   1.002   3.338   6.059
 1474SOL    HW1 5321   0.983   3.407   5.989
 1474SOL    HW2 5322   0.962   3.367   6.146
 1475SOL     OW 5323   0.407   3.637   6.486
 1475SOL    HW1 5324   0.434   3.541   6.496
 1475SOL    HW2 5325   0.476   3.695   6.529
 1476SOL     OW 5326   1.788   2.905   6.508
 1476SOL    HW1 5327   1.747   2.890   6.418
 1476SOL    HW2 5328   1.717   2.905   6.578
 1477SOL     OW 5329   0.281   2.796   5.826
 1477SOL    HW1 5330   0.370   2.817   5.785
 1477SOL    HW2 5331   0.250   2.706   5.794
 1478SOL     OW 5332   1.471   2.639   6.288
 1478SOL    HW1 5333   1.465   2.582   6.370
 1478SOL    HW2 5334   1.554   2.695   6.292
 1479SOL     OW 5335   1.157   3.618   5.813
 1479SOL    HW1 5336   1.065   3.600   5.847
 1479SOL    HW2 5337   1.185   3.545   5.751
 1480SOL     OW 5338   1.627   3.251   5.714
 1480SOL    HW1 5339   1.594   3.345   5.708
 1480SOL    HW2 5340   1.558   3.188   5.677
 1481SOL     OW 5341   0.475   3.632   5.903
 1481SOL    HW1 5342   0.525   3.676   5.977
 1481SOL    HW2 5343   0.538   3.582   5.844
 1482SOL     OW 5344   1.396   1.965   6.037
 1482SOL    HW1 5345   1.396   1.940   5.940
 1482SOL    HW2 5346   1.489   1.956   6.073
 1483SOL     OW 5347   0.269   3.620   6.780
 1483SOL    HW1 5348   0.311   3.532   6.801
 1483SOL    HW2 5349   0.210   3.611   6.700
 1484SOL     OW 5350   0.961   3.540   6.454
 1484SOL    HW1 5351   1.049   3.492   6.448
 1484SOL    HW2 5352   0.903   3.512   6.378
 1485SOL     OW 5353   0.369   2.523   6.059
 1485SOL    HW1 5354   0.396   2.428   6.074
 1485SOL    HW2 5355   0.273   2.535   6.081
 1486SOL     OW 5356   0.714   1.997   5.698
 1486SOL    HW1 5357   0.796   1.946   5.675
 1486SOL    HW2 5358   0.640   1.971   5.636
 1487SOL     OW 5359   0.877   3.306   6.756
 1487SOL    HW1 5360   0.832   3.288   6.669
 1487SOL    HW2 5361   0.955   3.245   6.767
 1488SOL     OW 5362   0.795   3.204   6.513
 1488SOL    HW1 5363   0.888   3.212   6.476
 1488SOL    HW2 5364   0.729   3.214   6.439
 1489SOL     OW 5365   0.900   2.343   6.479
 1489SOL    HW1 5366   0.880   2.342   6.381
 1489SOL    HW2 5367   0.950   2.260   6.503
 1490SOL     OW 5368   0.577   1.929   6.096
 1490SOL    HW1 5369   0.500   1.929   6.159
 1490SOL    HW2 5370   0.567   2.003   6.030
 1491SOL     OW 5371   1.429   3.083   5.622
 1491SOL    HW1 5372   1.473   3.011   5.676
 1491SOL    HW2 5373   1.343   3.110   5.665
 1492SOL     OW 5374   0.278   1.923   5.792
 1492SOL    HW1 5375   0.314   1.995   5.733
 1492SOL    HW2 5376   0.354   1.869   5.829
 1493SOL     OW 5377   0.960   2.120   6.025
 1493SOL    HW1 5378   0.919   2.158   5.942
 1493SOL    HW2 5379   1.058   2.137   6.025
 1494SOL     OW 5380   1.211   3.436   6.378
 1494SOL    HW1 5381   1.238   3.509   6.315
 1494SOL    HW2 5382   1.293   3.397   6.420
 1495SOL     OW 5383   0.459   2.995   6.280
 1495SOL    HW1 5384   0.392   2.983   6.354
 1495SOL    HW2 5385   0.413   2.985   6.192
 1496SOL     OW 5386   1.268   3.658   6.213
 1496SOL    HW1 5387   1.316   3.722   6.153
 1496SOL    HW2 5388   1.188   3.704   6.253
 1497SOL     OW 5389   1.006   2.356   5.620
 1497SOL    HW1 5390   0.978   2.443   5.579
 1497SOL    HW2 5391   1.077   2.374   5.688
 1498SOL     OW 5392   0.585   2.089   6.818
 1498SOL    HW1 5393   0.645   2.053   6.890
 1498SOL    HW2 5394   0.492   2.057   6.834
 1499SOL     OW 5395   0.851   2.309   6.210
 1499SOL    HW1 5396   0.806   2.367   6.142
 1499SOL    HW2 5397   0.899   2.234   6.163
 1500SOL     OW 5398   1.030   1.906   6.312
 1500SOL    HW1 5399   0.969   1.910   6.233
 1500SOL    HW2 5400   1.002   1.829   6.371
 1501SOL     OW 5401   1.498   3.051   6.404
 1501SOL    HW1 5402   1.435   3.022   6.331
 1501SOL    HW2 5403   1.589   3.066   6.365
 1502SOL     OW 5404   1.448   2.468   6.501
 1502SOL    HW1 5405   1.386   2.391   6.516
 1502SOL    HW2 5406   1.516   2.471   6.574
 1503SOL     OW 5407   1.800   2.645   5.972
 1503SOL    HW1 5408   1.870   2.609   6.034
 1503SOL    HW2 5409   1.789   2.584   5.894
 1504SOL     OW 5410   0.523   3.289   5.747
 1504SOL    HW1 5411   0.445   3.256   5.800
 1504SOL    HW2 5412   0.524   3.244   5.658
 1505SOL     OW 5413   1.729   3.112   6.267
 1505SOL    HW1 5414   1.826   3.090   6.274
 1505SOL    HW2 5415   1.718   3.211   6.264
 1506SOL     OW 5416   1.369   2.448   5.619
 1506SOL    HW1 5417   1.327   2.415   5.703
 1506SOL    HW2 5418   1.468   2.438   5.625
 1507SOL     OW 5419   0.548   2.113   5.899
 1507SOL    HW1 5420   0.614   2.072   5.835
 1507SOL    HW2 5421   0.502   2.190   5.856
 1508SOL     OW 5422   1.784   2.916   0.143
 1508SOL    HW1 5423   1.865   2.941   0.088
 1508SOL    HW2 5424   1.737   3.000   0.171
 1509SOL     OW 5425   1.091   3.134   6.696
 1509SOL    HW1 5426   1.112   3.037   6.703
 1509SOL    HW2 5427   1.074   3.158   6.600
 1510SOL     OW 5428   1.552   2.950   6.664
 1510SOL    HW1 5429   1.575   3.033   6.715
 1510SOL    HW2 5430   1.520   2.974   6.573
 1511SOL     OW 5431   0.724   2.916   5.984
 1511SOL    HW1 5432   0.702   2.883   6.076
 1511SOL    HW2 5433   0.806   2.870   5.951
 1512SOL     OW 5434   0.503   2.676   6.865
 1512SOL    HW1 5435   0.561   2.743   6.911
 1512SOL    HW2 5436   0.512   2.587   6.911
 1513SOL     OW 5437   1.296   2.285   6.809
 1513SOL    HW1 5438   1.329   2.340   6.885
 1513SOL    HW2 5439   1.205   2.316   6.782
 1514SOL     OW 5440   0.095   3.356   6.888
 1514SOL    HW1 5441   0.070   3.397   6.975
 1514SOL    HW2 5442   0.194   3.365   6.874
 1515SOL     OW 5443   0.337   2.975   6.035
 1515SOL    HW1 5444   0.329   3.057   5.979
 1515SOL    HW2 5445   0.320   2.894   5.978
 1516SOL     OW 5446   0.460   2.394   6.439
 1516SOL    HW1 5447   0.472   2.467   6.372
 1516SOL    HW2 5448   0.539   2.391   6.500
 1517SOL     OW 5449   1.262   3.242   6.028
 1517SOL    HW1 5450   1.326   3.313   6.055
 1517SOL    HW2 5451   1.169   3.272   6.047
 1518SOL     OW 5452   1.308   3.289   6.756
 1518SOL    HW1 5453   1.355   3.245   6.832
 1518SOL    HW2 5454   1.221   3.242   6.739
 1519SOL     OW 5455   1.591   2.482   6.092
 1519SOL    HW1 5456   1.527   2.536   6.146
 1519SOL    HW2 5457   1.657   2.543   6.048
 1520SOL     OW 5458   0.365   3.366   6.834
 1520SOL    HW1 5459   0.359   3.292   6.767
 1520SOL    HW2 5460   0.460   3.375   6.865
 1521SOL     OW 5461   0.578   2.712   6.604
 1521SOL    HW1 5462   0.621   2.802   6.595
 1521SOL    HW2 5463   0.550   2.699   6.699
 1522SOL     OW 5464   1.249   2.660   6.590
 1522SOL    HW1 5465   1.154   2.631   6.578
 1522SOL    HW2 5466   1.309   2.592   6.548
 1523SOL     OW 5467   1.185   2.385   5.830
 1523SOL    HW1 5468   1.211   2.306   5.885
 1523SOL    HW2 5469   1.136   2.451   5.887
 1524SOL     OW 5470   0.329   2.006   6.851
 1524SOL    HW1 5471   0.285   2.026   6.939
 1524SOL    HW2 5472   0.310   1.912   6.825
 1525SOL     OW 5473   0.091   3.088   6.818
 1525SOL    HW1 5474   0.152   3.042   6.882
 1525SOL    HW2 5475   0.084   3.185   6.842
 1526SOL     OW 5476   0.674   2.447   6.605
 1526SOL    HW1 5477   0.756   2.416   6.556
 1526SOL    HW2 5478   0.661   2.545   6.589
 1527SOL     OW 5479   0.352   1.930   6.253
 1527SOL    HW1 5480   0.320   2.019   6.287
 1527SOL    HW2 5481   0.368   1.869   6.331
 1528SOL     OW 5482   1.599   2.264   5.920
 1528SOL    HW1 5483   1.664   2.202   5.964
 1528SOL    HW2 5484   1.574   2.337   5.983
 1529SOL     OW 5485   0.973   2.600   6.574
 1529SOL    HW1 5486   0.946   2.618   6.668
 1529SOL    HW2 5487   0.959   2.503   6.553
 1530SOL     OW 5488   1.923   3.314   0.163
 1530SOL    HW1 5489   1.956   3.343   0.073
 1530SOL    HW2 5490   1.824   3.329   0.168
 1531SOL     OW 5491   1.489   2.134   5.698
 1531SOL    HW1 5492   1.452   2.048   5.733
 1531SOL    HW2 5493   1.527   2.187   5.773
 1532SOL     OW 5494   1.278   2.699   5.577
 1532SOL    HW1 5495   1.310   2.605   5.587
 1532SOL    HW2 5496   1.320   2.740   5.496
 1533SOL     OW 5497   1.054   3.215   6.434
 1533SOL    HW1 5498   1.070   3.128   6.388
 1533SOL    HW2 5499   1.114   3.285   6.397
 1534SOL     OW 5500   0.299   2.677   6.530
 1534SOL    HW1 5501   0.398   2.680   6.516
 1534SOL    HW2 5502   0.272   2.585   6.558
 1535SOL     OW 5503   0.253   2.398   6.612
 1535SOL    HW1 5504   0.228   2.302   6.624
 1535SOL    HW2 5505   0.328   2.405   6.547
 1536SOL     OW 5506   1.230   2.099   0.003
 1536SOL    HW1 5507   1.307   2.114   0.065
 1536SOL    HW2 5508   1.240   2.157   6.922
 1537SOL     OW 5509   0.011   3.190   5.831
 1537SOL    HW1 5510   6.943   3.222   5.897
 1537SOL    HW2 5511   0.014   3.090   5.832
 1538SOL     OW 5512   0.136   3.613   6.533
 1538SOL    HW1 5513   0.099   3.547   6.467
 1538SOL    HW2 5514   0.232   3.632   6.512
 1539SOL     OW 5515   0.507   3.381   6.518
 1539SOL    HW1 5516   0.584   3.431   6.557
 1539SOL    HW2 5517   0.539   3.325   6.441
 1540SOL     OW 5518   0.876   2.684   6.840
 1540SOL    HW1 5519   0.947   2.730   6.893
 1540SOL    HW2 5520   0.822   2.625   6.901
 1541SOL     OW 5521   6.992   2.474   6.696
 1541SOL    HW1 5522   0.078   2.440   6.660
 1541SOL    HW2 5523   6.942   2.400   6.740
 1542SOL     OW 5524   0.775   2.428   5.963
 1542SOL    HW1 5525   0.793   2.351   5.903
 1542SOL    HW2 5526   0.696   2.480   5.929
 1543SOL     OW 5527   1.658   2.484   6.679
 1543SOL    HW1 5528   1.656   2.408   6.744
 1543SOL    HW2 5529   1.753   2.513   6.666
 1544SOL     OW 5530   0.588   2.364   6.851
 1544SOL    HW1 5531   0.590   2.264   6.847
 1544SOL    HW2 5532   0.620   2.402   6.764
 1545SOL     OW 5533   0.986   3.524   6.889
 1545SOL    HW1 5534   0.944   3.448   6.840
 1545SOL    HW2 5535   0.994   3.603   6.828
 1546SOL     OW 5536   0.410   2.323   5.788
 1546SOL    HW1 5537   0.464   2.406   5.797
 1546SOL    HW2 5538   0.324   2.334   5.837
 1547SOL     OW 5539   0.251   2.953   6.998
 1547SOL    HW1 5540   0.265   2.898   0.080
 1547SOL    HW2 5541   0.256   2.893   6.917
 1548SOL     OW 5542   1.322   2.828   6.786
 1548SOL    HW1 5543   1.290   2.767   6.713
 1548SOL    HW2 5544   1.402   2.879   6.755
 1549SOL     OW 5545   1.328   2.755   5.843
 1549SOL    HW1 5546   1.260   2.716   5.905
 1549SOL    HW2 5547   1.304   2.734   5.749
 1550SOL     OW 5548   1.828   3.567   6.743
 1550SOL    HW1 5549   1.881   3.589   6.661
 1550SOL    HW2 5550   1.751   3.509   6.717
 1551SOL     OW 5551   1.272   3.571   6.719
 1551SOL    HW1 5552   1.359   3.611   6.690
 1551SOL    HW2 5553   1.286   3.474   6.739
 1552SOL     OW 5554   0.050   3.094   6.548
 1552SOL    HW1 5555   0.079   3.093   6.644
 1552SOL    HW2 5556   6.953   3.117   6.543
 1553SOL     OW 5557   1.787   2.099   6.032
 1553SOL    HW1 5558   1.845   2.070   5.955
 1553SOL    HW2 5559   1.738   2.020   6.068
 1554SOL     OW 5560   1.434   3.450   6.112
 1554SOL    HW1 5561   1.495   3.482   6.039
 1554SOL    HW2 5562   1.373   3.525   6.139
 1555SOL     OW 5563   1.263   2.799   6.223
 1555SOL    HW1 5564   1.337   2.736   6.247
 1555SOL    HW2 5565   1.301   2.880   6.178
 1556SOL     OW 5566   0.678   3.512   5.754
 1556SOL    HW1 5567   0.690   3.539   5.659
 1556SOL    HW2 5568   0.629   3.424   5.758
 1557SOL     OW 5569   1.839   2.013   6.589
 1557SOL    HW1 5570   1.877   1.925   6.561
 1557SOL    HW2 5571   1.759   2.034   6.532
 1558SOL     OW 5572   0.298   2.178   6.365
 1558SOL    HW1 5573   0.359   2.256   6.379
 1558SOL    HW2 5574   0.262   2.148   6.454
 1559SOL     OW 5575   1.232   3.415   5.645
 1559SOL    HW1 5576   1.231   3.324   5.685
 1559SOL    HW2 5577   1.153   3.427   5.585
 1560SOL     OW 5578   0.670   2.869   6.960
 1560SOL    HW1 5579   0.755   2.840   6.917
 1560SOL    HW2 5580   0.642   2.957   6.923
 1561SOL     OW 5581   0.938   2.782   5.894
 1561SOL    HW1 5582   0.971   2.789   5.800
 1561SOL    HW2 5583   0.974   2.698   5.935
 1562SOL     OW 5584   1.494   3.507   5.674
 1562SOL    HW1 5585   1.399   3.477   5.663
 1562SOL    HW2 5586   1.540   3.502   5.585
 1563SOL     OW 5587   1.615   3.178   6.809
 1563SOL    HW1 5588   1.709   3.166   6.839
 1563SOL    HW2 5589   1.553   3.167   6.887
 1564SOL     OW 5590   1.078   2.963   6.346
 1564SOL    HW1 5591   0.998   2.910   6.376
 1564SOL    HW2 5592   1.144   2.903   6.301
 1565SOL     OW 5593   1.036   2.098   6.518
 1565SOL    HW1 5594   1.039   2.047   6.431
 1565SOL    HW2 5595   1.038   2.033   6.594
 1566SOL     OW 5596   0.619   3.360   6.090
 1566SOL    HW1 5597   0.664   3.305   6.020
 1566SOL    HW2 5598   0.520   3.351   6.082
 1567SOL     OW 5599   1.672   2.289   6.867
 1567SOL    HW1 5600   1.702   2.325   6.956
 1567SOL    HW2 5601   1.687   2.190   6.865
 1568SOL     OW 5602   0.281   3.214   5.886
 1568SOL    HW1 5603   0.182   3.211   5.879
 1568SOL    HW2 5604   0.307   3.258   5.972
 1569SOL     OW 5605   0.746   2.013   0.030
 1569SOL    HW1 5606   0.842   1.988   0.036
 1569SOL    HW2 5607   0.727   2.088   0.094
 1570SOL     OW 5608   0.072   2.120   5.568
 1570SOL    HW1 5609   0.006   2.055   5.606
 1570SOL    HW2 5610   0.026   2.206   5.547
 1571SOL     OW 5611   0.053   2.072   5.882
 1571SOL    HW1 5612   6.989   2.031   5.817
 1571SOL    HW2 5613   0.141   2.024   5.878
 1572SOL     OW 5614   1.207   3.169   5.764
 1572SOL    HW1 5615   1.118   3.124   5.758
 1572SOL    HW2 5616   1.230   3.185   5.860
 1573SOL     OW 5617   1.514   3.682   6.641
 1573SOL    HW1 5618   1.553   3.728   6.561
 1573SOL    HW2 5619   1.563   3.597   6.657
 1574SOL     OW 5620   1.604   3.117   0.226
 1574SOL    HW1 5621   1.538   3.049   0.194
 1574SOL    HW2 5622   1.622   3.102   0.323
 1575SOL     OW 5623   0.364   3.710   0.104
 1575SOL    HW1 5624   0.286   3.765   0.073
 1575SOL    HW2 5625   0.332   3.618   0.127
 1576SOL     OW 5626   1.626   2.718   6.826
 1576SOL    HW1 5627   1.624   2.636   6.768
 1576SOL    HW2 5628   1.601   2.798   6.772
 1577SOL     OW 5629   1.226   2.184   6.019
 1577SOL    HW1 5630   1.291   2.109   6.026
 1577SOL    HW2 5631   1.237   2.245   6.098
 1578SOL     OW 5632   0.506   2.608   6.281
 1578SOL    HW1 5633   0.573   2.681   6.267
 1578SOL    HW2 5634   0.459   2.589   6.194
 1579SOL     OW 5635   1.747   2.660   0.065
 1579SOL    HW1 5636   1.765   2.749   0.106
 1579SOL    HW2 5637   1.700   2.673   6.977
 1580SOL     OW 5638   0.853   3.211   5.675
 1580SOL    HW1 5639   0.826   3.223   5.770
 1580SOL    HW2 5640   0.892   3.296   5.640
 1581SOL     OW 5641   0.711   3.546   6.591
 1581SOL    HW1 5642   0.685   3.642   6.596
 1581SOL    HW2 5643   0.804   3.539   6.557
 1582SOL     OW 5644   0.863   2.822   6.451
 1582SOL    HW1 5645   0.903   2.740   6.494
 1582SOL    HW2 5646   0.811   2.873   6.520
 1583SOL     OW 5647   1.031   2.786   5.639
 1583SOL    HW1 5648   1.006   2.865   5.582
 1583SOL    HW2 5649   1.124   2.757   5.617
 1584SOL     OW 5650   1.879   3.368   6.402
 1584SOL    HW1 5651   1.783   3.371   6.376
 1584SOL    HW2 5652   1.896   3.288   6.460
 1585SOL     OW 5653   0.155   3.190   6.305
 1585SOL    HW1 5654   0.131   3.152   6.395
 1585SOL    HW2 5655   0.110   3.136   6.234
 1586SOL     OW 5656   1.773   2.022   6.854
 1586SOL    HW1 5657   1.755   1.926   6.876
 1586SOL    HW2 5658   1.797   2.031   6.758
 1587SOL     OW 5659   0.423   2.263   6.108
 1587SOL    HW1 5660   0.476   2.203   6.048
 1587SOL    HW2 5661   0.384   2.210   6.183
 1588SOL     OW 5662   1.608   3.419   6.674
 1588SOL    HW1 5663   1.550   3.394   6.597
 1588SOL    HW2 5664   1.620   3.341   6.735
 1589SOL     OW 5665   0.314   2.408   6.884
 1589SOL    HW1 5666   0.411   2.383   6.887
 1589SOL    HW2 5667   0.286   2.426   6.790
 1590SOL     OW 5668   0.822   3.495   6.224
 1590SOL    HW1 5669   0.834   3.584   6.179
 1590SOL    HW2 5670   0.745   3.447   6.183
 1591SOL     OW 5671   1.434   2.104   6.659
 1591SOL    HW1 5672   1.427   2.011   6.695
 1591SOL    HW2 5673   1.395   2.169   6.725
 1592SOL     OW 5674   1.044   1.845   6.664
 1592SOL    HW1 5675   1.003   1.786   6.594
 1592SOL    HW2 5676   1.137   1.812   6.683
 1593SOL     OW 5677   0.785   3.189   5.946
 1593SOL    HW1 5678   0.763   3.092   5.959
 1593SOL    HW2 5679   0.870   3.210   5.994
 1594SOL     OW 5680   0.642   3.367   6.887
 1594SOL    HW1 5681   0.633   3.461   6.919
 1594SOL    HW2 5682   0.728   3.355   6.839
 1595SOL     OW 5683   1.394   1.887   5.773
 1595SOL    HW1 5684   1.447   1.816   5.728
 1595SOL    HW2 5685   1.300   1.856   5.785
 1596SOL     OW 5686   1.238   2.345   6.235
 1596SOL    HW1 5687   1.190   2.432   6.242
 1596SOL    HW2 5688   1.259   2.311   6.327
 1597SOL     OW 5689   1.608   2.063   6.455
 1597SOL    HW1 5690   1.544   2.087   6.528
 1597SOL    HW2 5691   1.612   2.137   6.388
 1598SOL     OW 5692   0.034   2.918   5.863
 1598SOL    HW1 5693   0.124   2.876   5.857
 1598SOL    HW2 5694   6.965   2.847   5.879
 1599SOL     OW 5695   0.906   3.551   5.905
 1599SOL    HW1 5696   0.824   3.531   5.851
 1599SOL    HW2 5697   0.886   3.623   5.971
 1600SOL     OW 5698   0.182   4.357   0.207
 1600SOL    HW1 5699   0.101   4.408   0.236
 1600SOL    HW2 5700   0.166   4.318   0.117
 1601SOL     OW 5701   0.195   4.011   1.030
 1601SOL    HW1 5702   0.244   3.965   1.104
 1601SOL    HW2 5703   0.099   3.984   1.031
 1602SOL     OW 5704   0.019   4.100   0.648
 1602SOL    HW1 5705   6.955   4.074   0.720
 1602SOL    HW2 5706   0.020   4.029   0.577
 1603SOL     OW 5707   0.594   5.031   1.211
 1603SOL    HW1 5708   0.504   5.028   1.167
 1603SOL    HW2 5709   0.619   5.126   1.228
 1604SOL     OW 5710   1.642   5.260   0.753
 1604SOL    HW1 5711   1.585   5.256   0.836
 1604SOL    HW2 5712   1.583   5.273   0.673
 1605SOL     OW 5713   1.144   4.443   0.672
 1605SOL    HW1 5714   1.200   4.526   0.665
 1605SOL    HW2 5715   1.095   4.444   0.759
 1606SOL     OW 5716   1.780   4.376   0.171
 1606SOL    HW1 5717   1.719   4.446   0.135
 1606SOL    HW2 5718   1.726   4.300   0.207
 1607SOL     OW 5719   0.759   4.848   1.089
 1607SOL    HW1 5720   0.690   4.901   1.139
 1607SOL    HW2 5721   0.809   4.909   1.028
 1608SOL     OW 5722   0.925   4.449   1.777
 1608SOL    HW1 5723   0.953   4.515   1.846
 1608SOL    HW2 5724   0.925   4.492   1.686
 1609SOL     OW 5725   0.707   4.692   0.667
 1609SOL    HW1 5726   0.781   4.699   0.734
 1609SOL    HW2 5727   0.633   4.754   0.694
 1610SOL     OW 5728   0.719   4.899   1.837
 1610SOL    HW1 5729   0.779   4.963   1.884
 1610SOL    HW2 5730   0.644   4.949   1.793
 1611SOL     OW 5731   0.356   5.092   1.078
 1611SOL    HW1 5732   0.269   5.053   1.049
 1611SOL    HW2 5733   0.390   5.155   1.008
 1612SOL     OW 5734   1.392   5.271   1.375
 1612SOL    HW1 5735   1.462   5.342   1.383
 1612SOL    HW2 5736   1.319   5.288   1.442
 1613SOL     OW 5737   0.441   4.057   1.505
 1613SOL    HW1 5738   0.527   4.005   1.503
 1613SOL    HW2 5739   0.364   3.994   1.506
 1614SOL     OW 5740   1.587   4.167   0.759
 1614SOL    HW1 5741   1.515   4.175   0.689
 1614SOL    HW2 5742   1.568   4.232   0.832
 1615SOL     OW 5743   0.211   5.419   0.465
 1615SOL    HW1 5744   0.257   5.503   0.495
 1615SOL    HW2 5745   0.240   5.397   0.372
 1616SOL     OW 5746   1.134   5.060   1.664
 1616SOL    HW1 5747   1.226   5.026   1.648
 1616SOL    HW2 5748   1.073   4.982   1.680
 1617SOL     OW 5749   0.328   5.180   0.542
 1617SOL    HW1 5750   0.281   5.267   0.529
 1617SOL    HW2 5751   0.276   5.125   0.608
 1618SOL     OW 5752   0.267   4.818   0.879
 1618SOL    HW1 5753   0.265   4.719   0.891
 1618SOL    HW2 5754   0.207   4.861   0.947
 1619SOL     OW 5755   0.590   5.536   1.405
 1619SOL    HW1 5756   0.506   5.516   1.456
 1619SOL    HW2 5757   0.637   5.614   1.447
 1620SOL     OW 5758   0.561   4.661   0.229
 1620SOL    HW1 5759   0.575   4.695   0.137
 1620SOL    HW2 5760   0.615   4.715   0.294
 1621SOL     OW 5761   1.556   3.845   1.414
 1621SOL    HW1 5762   1.638   3.878   1.366
 1621SOL    HW2 5763   1.507   3.924   1.452
 1622SOL     OW 5764   0.134   4.341   0.572
 1622SOL    HW1 5765   0.092   4.255   0.601
 1622SOL    HW2 5766   0.097   4.417   0.626
 1623SOL     OW 5767   1.901   5.437   0.333
 1623SOL    HW1 5768   1.980   5.434   0.395
 1623SOL    HW2 5769   1.893   5.529   0.295
 1624SOL     OW 5770   0.017   5.233   0.152
 1624SOL    HW1 5771   6.996   5.138   0.177
 1624SOL    HW2 5772   0.107   5.258   0.189
 1625SOL     OW 5773   1.708   4.660   0.701
 1625SOL    HW1 5774   1.802   4.628   0.714
 1625SOL    HW2 5775   1.700   4.708   0.613
 1626SOL     OW 5776   1.660   4.840   0.490
 1626SOL    HW1 5777   1.686   4.880   0.402
 1626SOL    HW2 5778   1.689   4.900   0.565
 1627SOL     OW 5779   0.260   4.477   1.586
 1627SOL    HW1 5780   0.359   4.478   1.599
 1627SOL    HW2 5781   0.220   4.560   1.623
 1628SOL     OW 5782   0.636   5.062   0.786
 1628SOL    HW1 5783   0.584   4.978   0.775
 1628SOL    HW2 5784   0.633   5.115   0.702
 1629SOL     OW 5785   1.248   4.929   1.400
 1629SOL    HW1 5786   1.281   4.866   1.330
 1629SOL    HW2 5787   1.316   4.936   1.473
 1630SOL     OW 5788   0.827   3.768   0.517
 1630SOL    HW1 5789   0.874   3.852   0.489
 1630SOL    HW2 5790   0.729   3.778   0.502
 1631SOL     OW 5791   0.214   4.646   1.285
 1631SOL    HW1 5792   0.301   4.599   1.274
 1631SOL    HW2 5793   0.146   4.607   1.223
 1632SOL     OW 5794   1.446   4.786   0.174
 1632SOL    HW1 5795   1.377   4.731   0.221
 1632SOL    HW2 5796   1.524   4.728   0.150
 1633SOL     OW 5797   1.308   5.590   1.636
 1633SOL    HW1 5798   1.249   5.648   1.579
 1633SOL    HW2 5799   1.284   5.494   1.621
 1634SOL     OW 5800   0.336   3.990   1.898
 1634SOL    HW1 5801   0.385   4.075   1.920
 1634SOL    HW2 5802   0.241   4.011   1.878
 1635SOL     OW 5803   1.466   5.206   0.960
 1635SOL    HW1 5804   1.395   5.208   1.031
 1635SOL    HW2 5805   1.469   5.114   0.920
 1636SOL     OW 5806   1.671   5.577   0.541
 1636SOL    HW1 5807   1.659   5.503   0.475
 1636SOL    HW2 5808   1.706   5.539   0.627
 1637SOL     OW 5809   0.578   4.396   0.282
 1637SOL    HW1 5810   0.579   4.493   0.258
 1637SOL    HW2 5811   0.516   4.381   0.359
 1638SOL     OW 5812   1.282   4.116   0.946
 1638SOL    HW1 5813   1.191   4.074   0.940
 1638SOL    HW2 5814   1.339   4.063   1.008
 1639SOL     OW 5815   1.634   5.371   0.360
 1639SOL    HW1 5816   1.733   5.380   0.346
 1639SOL    HW2 5817   1.595   5.316   0.286
 1640SOL     OW 5818   0.794   4.296   1.441
 1640SOL    HW1 5819   0.766   4.272   1.534
 1640SOL    HW2 5820   0.769   4.221   1.378
 1641SOL     OW 5821   1.379   4.182   1.654
 1641SOL    HW1 5822   1.381   4.237   1.737
 1641SOL    HW2 5823   1.445   4.107   1.662
 1642SOL     OW 5824   0.946   4.621   1.548
 1642SOL    HW1 5825   0.997   4.552   1.496
 1642SOL    HW2 5826   0.893   4.677   1.484
 1643SOL     OW 5827   1.001   4.089   1.193
 1643SOL    HW1 5828   0.906   4.094   1.225
 1643SOL    HW2 5829   1.003   4.048   1.102
 1644SOL     OW 5830   1.051   4.450   0.416
 1644SOL    HW1 5831   1.083   4.447   0.510
 1644SOL    HW2 5832   0.965   4.401   0.408
 1645SOL     OW 5833   0.035   4.526   0.767
 1645SOL    HW1 5834   0.129   4.539   0.796
 1645SOL    HW2 5835   6.975   4.527   0.847
 1646SOL     OW 5836   0.107   5.598   1.639
 1646SOL    HW1 5837   0.125   5.559   1.730
 1646SOL    HW2 5838   0.009   5.596   1.621
 1647SOL     OW 5839   0.896   4.089   0.207
 1647SOL    HW1 5840   0.936   4.151   0.139
 1647SOL    HW2 5841   0.913   3.994   0.180
 1648SOL     OW 5842   1.663   4.313   1.815
 1648SOL    HW1 5843   1.655   4.401   1.768
 1648SOL    HW2 5844   1.710   4.248   1.756
 1649SOL     OW 5845   1.397   4.878   0.531
 1649SOL    HW1 5846   1.493   4.852   0.520
 1649SOL    HW2 5847   1.365   4.923   0.447
 1650SOL     OW 5848   0.584   3.823   0.955
 1650SOL    HW1 5849   0.574   3.851   1.051
 1650SOL    HW2 5850   0.615   3.901   0.901
 1651SOL     OW 5851   0.941   5.199   0.451
 1651SOL    HW1 5852   0.943   5.276   0.387
 1651SOL    HW2 5853   0.909   5.232   0.540
 1652SOL     OW 5854   0.360   5.506   0.841
 1652SOL    HW1 5855   0.399   5.415   0.854
 1652SOL    HW2 5856   0.423   5.575   0.877
 1653SOL     OW 5857   1.769   4.784   0.948
 1653SOL    HW1 5858   1.736   4.758   0.857
 1653SOL    HW2 5859   1.692   4.815   1.003
 1654SOL     OW 5860   1.186   5.322   1.555
 1654SOL    HW1 5861   1.178   5.230   1.592
 1654SOL    HW2 5862   1.095   5.363   1.545
 1655SOL     OW 5863   0.299   4.606   0.284
 1655SOL    HW1 5864   0.393   4.625   0.255
 1655SOL    HW2 5865   0.275   4.512   0.259
 1656SOL     OW 5866   1.496   4.495   0.737
 1656SOL    HW1 5867   1.496   4.442   0.822
 1656SOL    HW2 5868   1.578   4.552   0.734
 1657SOL     OW 5869   0.484   5.035   1.746
 1657SOL    HW1 5870   0.465   5.028   1.648
 1657SOL    HW2 5871   0.398   5.033   1.797
 1658SOL     OW 5872   1.134   5.503   0.220
 1658SOL    HW1 5873   1.053   5.473   0.270
 1658SOL    HW2 5874   1.160   5.433   0.153
 1659SOL     OW 5875   0.181   3.945   1.501
 1659SOL    HW1 5876   0.121   4.023   1.517
 1659SOL    HW2 5877   0.150   3.866   1.554
 1660SOL     OW 5878   1.513   5.232   0.154
 1660SOL    HW1 5879   1.492   5.313   0.101
 1660SOL    HW2 5880   1.524   5.153   0.093
 1661SOL     OW 5881   0.484   5.512   0.341
 1661SOL    HW1 5882   0.517   5.567   0.417
 1661SOL    HW2 5883   0.560   5.457   0.305
 1662SOL     OW 5884   1.394   3.847   0.458
 1662SOL    HW1 5885   1.394   3.829   0.360
 1662SOL    HW2 5886   1.487   3.836   0.494
 1663SOL     OW 5887   0.202   5.453   1.240
 1663SOL    HW1 5888   0.266   5.381   1.266
 1663SOL    HW2 5889   0.172   5.438   1.146
 1664SOL     OW 5890   0.932   5.456   0.876
 1664SOL    HW1 5891   1.016   5.426   0.920
 1664SOL    HW2 5892   0.908   5.392   0.803
 1665SOL     OW 5893   0.400   4.359   0.488
 1665SOL    HW1 5894   0.426   4.269   0.523
 1665SOL    HW2 5895   0.304   4.376   0.506
 1666SOL     OW 5896   1.548   3.970   1.705
 1666SOL    HW1 5897   1.531   3.983   1.803
 1666SOL    HW2 5898   1.553   3.872   1.686
 1667SOL     OW 5899   0.762   3.995   1.757
 1667SOL    HW1 5900   0.847   3.943   1.753
 1667SOL    HW2 5901   0.703   3.956   1.828
 1668SOL     OW 5902   0.875   5.215   1.157
 1668SOL    HW1 5903   0.872   5.165   1.071
 1668SOL    HW2 5904   0.928   5.163   1.224
 1669SOL     OW 5905   1.287   4.316   1.432
 1669SOL    HW1 5906   1.326   4.275   1.515
 1669SOL    HW2 5907   1.330   4.405   1.416
 1670SOL     OW 5908   0.875   5.046   0.924
 1670SOL    HW1 5909   0.946   5.068   0.857
 1670SOL    HW2 5910   0.785   5.055   0.881
 1671SOL     OW 5911   0.910   4.203   0.874
 1671SOL    HW1 5912   0.871   4.194   0.782
 1671SOL    HW2 5913   0.955   4.118   0.900
 1672SOL     OW 5914   0.556   3.797   0.460
 1672SOL    HW1 5915   0.481   3.810   0.525
 1672SOL    HW2 5916   0.541   3.854   0.380
 1673SOL     OW 5917   1.424   4.995   6.987
 1673SOL    HW1 5918   1.447   4.911   0.036
 1673SOL    HW2 5919   1.329   5.020   0.008
 1674SOL     OW 5920   0.963   3.997   0.457
 1674SOL    HW1 5921   0.937   4.031   0.366
 1674SOL    HW2 5922   1.061   4.012   0.470
 1675SOL     OW 5923   1.034   4.420   1.387
 1675SOL    HW1 5924   0.960   4.356   1.407
 1675SOL    HW2 5925   1.122   4.373   1.400
 1676SOL     OW 5926   1.243   5.235   0.778
 1676SOL    HW1 5927   1.232   5.314   0.718
 1676SOL    HW2 5928   1.305   5.259   0.852
 1677SOL     OW 5929   0.486   4.843   0.721
 1677SOL    HW1 5930   0.415   4.835   0.790
 1677SOL    HW2 5931   0.447   4.826   0.631
 1678SOL     OW 5932   1.254   5.486   0.638
 1678SOL    HW1 5933   1.311   5.547   0.582
 1678SOL    HW2 5934   1.191   5.541   0.693
 1679SOL     OW 5935   1.008   4.273   0.031
 1679SOL    HW1 5936   0.925   4.327   0.048
 1679SOL    HW2 5937   1.073   4.288   0.105
 1680SOL     OW 5938   0.121   4.327   1.396
 1680SOL    HW1 5939   0.202   4.281   1.359
 1680SOL    HW2 5940   0.150   4.399   1.459
 1681SOL     OW 5941   0.553   3.893   1.217
 1681SOL    HW1 5942   0.588   3.820   1.275
 1681SOL    HW2 5943   0.454   3.899   1.226
 1682SOL     OW 5944   0.813   4.161   0.620
 1682SOL    HW1 5945   0.803   4.234   0.553
 1682SOL    HW2 5946   0.866   4.086   0.581
 1683SOL     OW 5947   1.011   3.775   0.727
 1683SOL    HW1 5948   0.945   3.771   0.653
 1683SOL    HW2 5949   0.993   3.702   0.792
 1684SOL     OW 5950   1.475   4.962   0.839
 1684SOL    HW1 5951   1.488   4.909   0.923
 1684SOL    HW2 5952   1.559   4.960   0.785
 1685SOL     OW 5953   1.476   4.332   0.966
 1685SOL    HW1 5954   1.409   4.259   0.978
 1685SOL    HW2 5955   1.544   4.328   1.039
 1686SOL     OW 5956   1.814   4.516   0.408
 1686SOL    HW1 5957   1.878   4.481   0.477
 1686SOL    HW2 5958   1.818   4.458   0.327
 1687SOL     OW 5959   0.512   5.159   0.213
 1687SOL    HW1 5960   0.583   5.108   0.262
 1687SOL    HW2 5961   0.453   5.095   0.164
 1688SOL     OW 5962   1.716   4.991   0.707
 1688SOL    HW1 5963   1.810   4.960   0.706
 1688SOL    HW2 5964   1.714   5.091   0.710
 1689SOL     OW 5965   1.356   4.254   0.066
 1689SOL    HW1 5966   1.291   4.253   0.143
 1689SOL    HW2 5967   1.427   4.186   0.082
 1690SOL     OW 5968   0.506   3.924   0.218
 1690SOL    HW1 5969   0.451   3.851   0.177
 1690SOL    HW2 5970   0.465   4.012   0.197
 1691SOL     OW 5971   1.682   4.999   1.538
 1691SOL    HW1 5972   1.742   4.919   1.545
 1691SOL    HW2 5973   1.733   5.080   1.568
 1692SOL     OW 5974   1.002   5.039   1.331
 1692SOL    HW1 5975   0.923   5.028   1.392
 1692SOL    HW2 5976   1.084   5.006   1.378
 1693SOL     OW 5977   1.613   5.377   1.675
 1693SOL    HW1 5978   1.587   5.416   1.587
 1693SOL    HW2 5979   1.692   5.317   1.663
 1694SOL     OW 5980   1.122   4.961   1.101
 1694SOL    HW1 5981   1.071   4.981   1.184
 1694SOL    HW2 5982   1.060   4.958   1.023
 1695SOL     OW 5983   1.542   4.861   1.096
 1695SOL    HW1 5984   1.563   4.931   1.163
 1695SOL    HW2 5985   1.458   4.813   1.123
 1696SOL     OW 5986   0.913   3.785   1.381
 1696SOL    HW1 5987   0.934   3.766   1.285
 1696SOL    HW2 5988   0.994   3.823   1.425
 1697SOL     OW 5989   0.966   4.842   1.712
 1697SOL    HW1 5990   0.873   4.858   1.745
 1697SOL    HW2 5991   0.967   4.763   1.652
 1698SOL     OW 5992   0.734   4.785   0.404
 1698SOL    HW1 5993   0.727   4.749   0.497
 1698SOL    HW2 5994   0.809   4.739   0.356
 1699SOL     OW 5995   0.444   4.492   1.261
 1699SOL    HW1 5996   0.515   4.510   1.329
 1699SOL    HW2 5997   0.411   4.398   1.272
 1700SOL     OW 5998   1.247   4.076   1.304
 1700SOL    HW1 5999   1.270   4.163   1.348
 1700SOL    HW2 6000   1.157   4.081   1.263
 1701SOL     OW 6001   0.025   5.272   1.373
 1701SOL    HW1 6002   6.952   5.300   1.434
 1701SOL    HW2 6003   0.082   5.351   1.351
 1702SOL     OW 6004   0.359   4.788   0.487
 1702SOL    HW1 6005   0.320   4.868   0.442
 1702SOL    HW2 6006   0.341   4.707   0.432
 1703SOL     OW 6007   0.494   4.278   0.873
 1703SOL    HW1 6008   0.507   4.351   0.807
 1703SOL    HW2 6009   0.572   4.275   0.935
 1704SOL     OW 6010   1.184   5.087   0.496
 1704SOL    HW1 6011   1.241   5.083   0.413
 1704SOL    HW2 6012   1.095   5.125   0.474
 1705SOL     OW 6013   1.266   5.202   1.140
 1705SOL    HW1 6014   1.303   5.221   1.231
 1705SOL    HW2 6015   1.220   5.114   1.140
 1706SOL     OW 6016   1.580   4.382   0.491
 1706SOL    HW1 6017   1.535   4.415   0.573
 1706SOL    HW2 6018   1.653   4.446   0.466
 1707SOL     OW 6019   0.371   5.244   1.302
 1707SOL    HW1 6020   0.353   5.184   1.225
 1707SOL    HW2 6021   0.468   5.270   1.302
 1708SOL     OW 6022   0.526   4.456   1.655
 1708SOL    HW1 6023   0.570   4.498   1.575
 1708SOL    HW2 6024   0.582   4.380   1.687
 1709SOL     OW 6025   1.633   4.555   1.692
 1709SOL    HW1 6026   1.538   4.587   1.685
 1709SOL    HW2 6027   1.685   4.587   1.614
 1710SOL     OW 6028   0.981   3.838   1.761
 1710SOL    HW1 6029   1.050   3.910   1.753
 1710SOL    HW2 6030   1.019   3.751   1.728
 1711SOL     OW 6031   0.479   3.784   1.789
 1711SOL    HW1 6032   0.427   3.732   1.721
 1711SOL    HW2 6033   0.425   3.862   1.820
 1712SOL     OW 6034   0.670   4.568   1.108
 1712SOL    HW1 6035   0.678   4.667   1.092
 1712SOL    HW2 6036   0.581   4.548   1.148
 1713SOL     OW 6037   1.284   4.539   1.011
 1713SOL    HW1 6038   1.197   4.504   0.975
 1713SOL    HW2 6039   1.355   4.471   0.997
 1714SOL     OW 6040   1.172   4.254   0.267
 1714SOL    HW1 6041   1.195   4.179   0.328
 1714SOL    HW2 6042   1.139   4.332   0.320
 1715SOL     OW 6043   0.284   3.880   1.253
 1715SOL    HW1 6044   0.241   3.905   1.340
 1715SOL    HW2 6045   0.274   3.782   1.238
 1716SOL     OW 6046   0.089   5.020   1.290
 1716SOL    HW1 6047   0.119   4.958   1.362
 1716SOL    HW2 6048   0.071   5.111   1.330
 1717SOL     OW 6049   0.708   4.295   1.040
 1717SOL    HW1 6050   0.787   4.272   0.985
 1717SOL    HW2 6051   0.708   4.393   1.060
 1718SOL     OW 6052   1.759   4.734   1.862
 1718SOL    HW1 6053   1.719   4.662   1.806
 1718SOL    HW2 6054   1.698   4.755   1.939
 1719SOL     OW 6055   0.340   3.793   0.638
 1719SOL    HW1 6056   0.308   3.881   0.673
 1719SOL    HW2 6057   0.358   3.732   0.716
 1720SOL     OW 6058   1.639   4.181   0.315
 1720SOL    HW1 6059   1.697   4.116   0.364
 1720SOL    HW2 6060   1.604   4.250   0.379
 1721SOL     OW 6061   1.026   4.448   0.920
 1721SOL    HW1 6062   1.002   4.479   1.012
 1721SOL    HW2 6063   0.990   4.357   0.904
 1722SOL     OW 6064   0.986   5.257   1.785
 1722SOL    HW1 6065   0.947   5.317   1.715
 1722SOL    HW2 6066   1.028   5.178   1.741
 1723SOL     OW 6067   1.838   5.230   1.589
 1723SOL    HW1 6068   1.865   5.258   1.498
 1723SOL    HW2 6069   1.918   5.229   1.649
 1724SOL     OW 6070   0.424   4.625   1.847
 1724SOL    HW1 6071   0.495   4.672   1.900
 1724SOL    HW2 6072   0.466   4.562   1.782
 1725SOL     OW 6073   1.519   4.039   0.116
 1725SOL    HW1 6074   1.475   3.955   0.148
 1725SOL    HW2 6075   1.565   4.084   0.192
 1726SOL     OW 6076   1.257   4.509   0.034
 1726SOL    HW1 6077   1.300   4.419   0.038
 1726SOL    HW2 6078   1.293   4.560   6.956
 1727SOL     OW 6079   0.289   4.539   0.872
 1727SOL    HW1 6080   0.370   4.532   0.814
 1727SOL    HW2 6081   0.283   4.459   0.931
 1728SOL     OW 6082   0.259   4.278   1.003
 1728SOL    HW1 6083   0.222   4.185   1.011
 1728SOL    HW2 6084   0.345   4.275   0.953
 1729SOL     OW 6085   1.141   4.055   1.704
 1729SOL    HW1 6086   1.094   4.111   1.773
 1729SOL    HW2 6087   1.228   4.097   1.681
 1730SOL     OW 6088   1.147   3.887   1.485
 1730SOL    HW1 6089   1.140   3.944   1.567
 1730SOL    HW2 6090   1.193   3.938   1.412
 1731SOL     OW 6091   6.920   4.979   0.204
 1731SOL    HW1 6092   6.878   5.013   0.288
 1731SOL    HW2 6093   6.970   4.894   0.223
 1732SOL     OW 6094   0.124   5.431   0.968
 1732SOL    HW1 6095   0.089   5.356   0.912
 1732SOL    HW2 6096   0.204   5.470   0.924
 1733SOL     OW 6097   0.491   5.266   0.909
 1733SOL    HW1 6098   0.558   5.331   0.945
 1733SOL    HW2 6099   0.539   5.190   0.866
 1734SOL     OW 6100   0.943   4.536   1.156
 1734SOL    HW1 6101   0.980   4.500   1.242
 1734SOL    HW2 6102   0.844   4.545   1.164
 1735SOL     OW 6103   0.067   4.421   1.144
 1735SOL    HW1 6104   0.137   4.374   1.089
 1735SOL    HW2 6105   0.077   4.395   1.240
 1736SOL     OW 6106   0.282   4.220   1.674
 1736SOL    HW1 6107   0.353   4.167   1.629
 1736SOL    HW2 6108   0.281   4.313   1.637
 1737SOL     OW 6109   1.385   4.664   1.636
 1737SOL    HW1 6110   1.395   4.764   1.632
 1737SOL    HW2 6111   1.376   4.628   1.543
 1738SOL     OW 6112   0.822   4.301   0.376
 1738SOL    HW1 6113   0.844   4.223   0.318
 1738SOL    HW2 6114   0.736   4.342   0.346
 1739SOL     OW 6115   1.677   4.334   1.157
 1739SOL    HW1 6116   1.683   4.270   1.234
 1739SOL    HW2 6117   1.769   4.364   1.132
 1740SOL     OW 6118   0.316   5.321   1.758
 1740SOL    HW1 6119   0.246   5.378   1.803
 1740SOL    HW2 6120   0.304   5.226   1.785
 1741SOL     OW 6121   0.727   4.112   1.246
 1741SOL    HW1 6122   0.666   4.034   1.240
 1741SOL    HW2 6123   0.708   4.175   1.171
 1742SOL     OW 6124   0.910   5.412   1.555
 1742SOL    HW1 6125   0.840   5.351   1.516
 1742SOL    HW2 6126   0.919   5.493   1.497
 1743SOL     OW 6127   0.418   4.199   0.157
 1743SOL    HW1 6128   0.489   4.257   0.198
 1743SOL    HW2 6129   0.331   4.217   0.202
 1744SOL     OW 6130   0.182   4.838   1.477
 1744SOL    HW1 6131   0.198   4.792   1.564
 1744SOL    HW2 6132   0.192   4.772   1.402
 1745SOL     OW 6133   1.295   4.758   1.170
 1745SOL    HW1 6134   1.288   4.677   1.111
 1745SOL    HW2 6135   1.230   4.827   1.139
 1746SOL     OW 6136   1.256   4.621   0.283
 1746SOL    HW1 6137   1.202   4.568   0.349
 1746SOL    HW2 6138   1.259   4.572   0.196
 1747SOL     OW 6139   1.812   5.479   1.174
 1747SOL    HW1 6140   1.877   5.494   1.100
 1747SOL    HW2 6141   1.757   5.397   1.155
 1748SOL     OW 6142   1.174   5.436   1.022
 1748SOL    HW1 6143   1.259   5.481   0.995
 1748SOL    HW2 6144   1.195   5.351   1.070
 1749SOL     OW 6145   0.102   4.981   1.027
 1749SOL    HW1 6146   0.096   4.986   1.127
 1749SOL    HW2 6147   0.018   5.016   0.987
 1750SOL     OW 6148   0.707   5.470   1.761
 1750SOL    HW1 6149   0.636   5.539   1.749
 1750SOL    HW2 6150   0.786   5.493   1.704
 1751SOL     OW 6151   0.971   3.846   0.114
 1751SOL    HW1 6152   1.042   3.884   0.055
 1751SOL    HW2 6153   1.009   3.771   0.168
 1752SOL     OW 6154   1.792   3.995   0.443
 1752SOL    HW1 6155   1.866   3.962   0.385
 1752SOL    HW2 6156   1.741   3.917   0.480
 1753SOL     OW 6157   1.459   5.295   0.558
 1753SOL    HW1 6158   1.511   5.322   0.477
 1753SOL    HW2 6159   1.380   5.356   0.569
 1754SOL     OW 6160   0.121   5.474   1.890
 1754SOL    HW1 6161   0.080   5.389   1.924
 1754SOL    HW2 6162   0.166   5.521   1.965
 1755SOL     OW 6163   1.297   4.666   0.670
 1755SOL    HW1 6164   1.372   4.606   0.698
 1755SOL    HW2 6165   1.332   4.733   0.604
 1756SOL     OW 6166   0.749   5.020   1.453
 1756SOL    HW1 6167   0.731   5.088   1.524
 1756SOL    HW2 6168   0.678   5.025   1.383
 1757SOL     OW 6169   0.676   5.375   0.190
 1757SOL    HW1 6170   0.664   5.428   0.106
 1757SOL    HW2 6171   0.615   5.295   0.188
 1758SOL     OW 6172   1.586   5.471   1.404
 1758SOL    HW1 6173   1.654   5.459   1.331
 1758SOL    HW2 6174   1.568   5.569   1.416
 1759SOL     OW 6175   1.837   3.866   1.024
 1759SOL    HW1 6176   1.875   3.779   0.994
 1759SOL    HW2 6177   1.753   3.886   0.972
 1760SOL     OW 6178   0.261   4.026   0.759
 1760SOL    HW1 6179   0.177   4.065   0.722
 1760SOL    HW2 6180   0.252   4.016   0.858
 1761SOL     OW 6181   1.200   5.326   0.020
 1761SOL    HW1 6182   1.200   5.228   0.039
 1761SOL    HW2 6183   1.120   5.349   6.964
 1762SOL     OW 6184   0.797   4.763   1.367
 1762SOL    HW1 6185   0.811   4.778   1.269
 1762SOL    HW2 6186   0.778   4.850   1.412
 1763SOL     OW 6187   0.925   4.653   0.268
 1763SOL    HW1 6188   0.973   4.676   0.184
 1763SOL    HW2 6189   0.979   4.586   0.320
 1764SOL     OW 6190   1.440   5.455   0.002
 1764SOL    HW1 6191   1.348   5.415   0.001
 1764SOL    HW2 6192   1.460   5.494   6.912
 1765SOL     OW 6193   0.389   5.035   1.493
 1765SOL    HW1 6194   0.375   5.114   1.433
 1765SOL    HW2 6195   0.318   4.967   1.476
 1766SOL     OW 6196   1.554   5.053   1.299
 1766SOL    HW1 6197   1.609   5.026   1.379
 1766SOL    HW2 6198   1.488   5.123   1.327
 1767SOL     OW 6199   1.127   4.851   0.780
 1767SOL    HW1 6200   1.039   4.814   0.807
 1767SOL    HW2 6201   1.187   4.776   0.749
 1768SOL     OW 6202   1.036   3.957   0.942
 1768SOL    HW1 6203   1.035   3.914   0.852
 1768SOL    HW2 6204   1.037   3.887   1.013
 1769SOL     OW 6205   0.602   5.199   0.554
 1769SOL    HW1 6206   0.639   5.149   0.475
 1769SOL    HW2 6207   0.502   5.200   0.549
 1770SOL     OW 6208   1.777   4.175   1.371
 1770SOL    HW1 6209   1.866   4.221   1.374
 1770SOL    HW2 6210   1.789   4.082   1.337
 1771SOL     OW 6211   0.246   4.995   0.350
 1771SOL    HW1 6212   0.266   5.012   0.253
 1771SOL    HW2 6213   0.279   5.072   0.405
 1772SOL     OW 6214   0.197   4.711   1.719
 1772SOL    HW1 6215   0.126   4.743   1.782
 1772SOL    HW2 6216   0.280   4.692   1.771
 1773SOL     OW 6217   0.688   3.904   1.509
 1773SOL    HW1 6218   0.769   3.874   1.459
 1773SOL    HW2 6219   0.714   3.942   1.597
 1774SOL     OW 6220   0.140   4.233   6.963
 1774SOL    HW1 6221   0.077   4.168   0.004
 1774SOL    HW2 6222   0.105   4.262   6.873
 1775SOL     OW 6223   1.382   4.575   1.375
 1775SOL    HW1 6224   1.323   4.628   1.314
 1775SOL    HW2 6225   1.475   4.574   1.338
 1776SOL     OW 6226   0.016   3.927   0.423
 1776SOL    HW1 6227   0.097   3.984   0.406
 1776SOL    HW2 6228   0.020   3.846   0.366
 1777SOL     OW 6229   1.174   5.057   0.086
 1777SOL    HW1 6230   1.079   5.085   0.100
 1777SOL    HW2 6231   1.216   5.037   0.175
 1778SOL     OW 6232   0.654   4.534   1.428
 1778SOL    HW1 6233   0.704   4.618   1.409
 1778SOL    HW2 6234   0.716   4.456   1.426
 1779SOL     OW 6235   1.423   5.536   0.963
 1779SOL    HW1 6236   1.462   5.620   0.928
 1779SOL    HW2 6237   1.495   5.480   1.005
 1780SOL     OW 6238   0.723   4.266   1.707
 1780SOL    HW1 6239   0.794   4.323   1.748
 1780SOL    HW2 6240   0.738   4.170   1.732
 1781SOL     OW 6241   1.420   4.944   1.622
 1781SOL    HW1 6242   1.418   4.948   1.722
 1781SOL    HW2 6243   1.512   4.967   1.589
 1782SOL     OW 6244   0.373   5.513   1.576
 1782SOL    HW1 6245   0.281   5.550   1.562
 1782SOL    HW2 6246   0.368   5.429   1.629
 1783SOL     OW 6247   1.621   4.590   1.241
 1783SOL    HW1 6248   1.641   4.497   1.209
 1783SOL    HW2 6249   1.639   4.656   1.168
 1784SOL     OW 6250   1.229   4.066   0.467
 1784SOL    HW1 6251   1.289   3.986   0.460
 1784SOL    HW2 6252   1.258   4.122   0.545
 1785SOL     OW 6253   0.511   4.493   0.704
 1785SOL    HW1 6254   0.585   4.559   0.688
 1785SOL    HW2 6255   0.475   4.461   0.617
 1786SOL     OW 6256   1.771   4.114   1.642
 1786SOL    HW1 6257   1.766   4.146   1.547
 1786SOL    HW2 6258   1.692   4.056   1.662
 1787SOL     OW 6259   1.748   4.663   1.473
 1787SOL    HW1 6260   1.840   4.696   1.450
 1787SOL    HW2 6261   1.701   4.634   1.389
 1788SOL     OW 6262   0.930   5.180   0.111
 1788SOL    HW1 6263   0.840   5.170   0.154
 1788SOL    HW2 6264   0.929   5.257   0.047
 1789SOL     OW 6265   0.672   5.459   0.968
 1789SOL    HW1 6266   0.633   5.549   0.949
 1789SOL    HW2 6267   0.767   5.457   0.935
 1790SOL     OW 6268   0.902   4.704   0.871
 1790SOL    HW1 6269   0.946   4.615   0.881
 1790SOL    HW2 6270   0.857   4.728   0.957
 1791SOL     OW 6271   1.058   4.699   0.027
 1791SOL    HW1 6272   1.101   4.788   0.017
 1791SOL    HW2 6273   1.127   4.627   0.026
 1792SOL     OW 6274   1.904   5.239   0.826
 1792SOL    HW1 6275   1.808   5.250   0.799
 1792SOL    HW2 6276   1.912   5.159   0.886
 1793SOL     OW 6277   0.247   5.075   1.879
 1793SOL    HW1 6278   0.151   5.098   1.865
 1793SOL    HW2 6279   0.268   5.076   1.977
 1794SOL     OW 6280   0.173   5.010   0.700
 1794SOL    HW1 6281   0.214   4.943   0.762
 1794SOL    HW2 6282   0.113   4.963   0.636
 1795SOL     OW 6283   0.680   5.214   1.643
 1795SOL    HW1 6284   0.602   5.163   1.678
 1795SOL    HW2 6285   0.686   5.303   1.689
 1796SOL     OW 6286   1.795   3.912   1.293
 1796SOL    HW1 6287   1.849   3.850   1.350
 1796SOL    HW2 6288   1.815   3.894   1.196
 1797SOL     OW 6289   0.454   4.111   0.580
 1797SOL    HW1 6290   0.551   4.100   0.606
 1797SOL    HW2 6291   0.396   4.088   0.658
 1798SOL     OW 6292   1.664   5.261   1.138
 1798SOL    HW1 6293   1.595   5.244   1.067
 1798SOL    HW2 6294   1.666   5.183   1.201
 1799SOL     OW 6295   0.359   4.228   1.304
 1799SOL    HW1 6296   0.400   4.170   1.374
 1799SOL    HW2 6297   0.367   4.184   1.215
 1800SOL     OW 6298   0.815   5.342   0.653
 1800SOL    HW1 6299   0.813   5.436   0.619
 1800SOL    HW2 6300   0.730   5.296   0.627
 1801SOL     OW 6301   1.427   3.971   1.125
 1801SOL    HW1 6302   1.455   3.877   1.145
 1801SOL    HW2 6303   1.370   4.005   1.199
 1802SOL     OW 6304   1.023   3.738   1.113
 1802SOL    HW1 6305   0.982   3.673   1.049
 1802SOL    HW2 6306   1.116   3.709   1.135
 1803SOL     OW 6307   0.726   5.053   0.352
 1803SOL    HW1 6308   0.726   4.955   0.367
 1803SOL    HW2 6309   0.813   5.092   0.380
 1804SOL     OW 6310   0.641   5.296   1.277
 1804SOL    HW1 6311   0.633   5.387   1.318
 1804SOL    HW2 6312   0.728   5.289   1.228
 1805SOL     OW 6313   1.365   3.799   0.185
 1805SOL    HW1 6314   1.419   3.725   0.146
 1805SOL    HW2 6315   1.275   3.765   0.212
 1806SOL     OW 6316   1.302   4.211   0.686
 1806SOL    HW1 6317   1.253   4.298   0.678
 1806SOL    HW2 6318   1.296   4.177   0.780
 1807SOL     OW 6319   1.598   3.929   0.908
 1807SOL    HW1 6320   1.537   3.956   0.983
 1807SOL    HW2 6321   1.600   4.002   0.839
 1808SOL     OW 6322   0.061   4.740   0.250
 1808SOL    HW1 6323   0.154   4.711   0.273
 1808SOL    HW2 6324   7.000   4.661   0.252
 1809SOL     OW 6325   0.896   5.442   0.331
 1809SOL    HW1 6326   0.817   5.419   0.274
 1809SOL    HW2 6327   0.865   5.500   0.407
 1810SOL     OW 6328   0.195   4.284   1.927
 1810SOL    HW1 6329   0.134   4.207   1.947
 1810SOL    HW2 6330   0.231   4.274   1.834
 1811SOL     OW 6331   0.187   4.022   2.892
 1811SOL    HW1 6332   0.239   3.975   2.964
 1811SOL    HW2 6333   0.091   3.998   2.900
 1812SOL     OW 6334   6.977   4.158   2.545
 1812SOL    HW1 6335   6.920   4.140   2.625
 1812SOL    HW2 6336   0.067   4.115   2.558
 1813SOL     OW 6337   0.586   5.027   3.105
 1813SOL    HW1 6338   0.500   5.019   3.056
 1813SOL    HW2 6339   0.607   5.123   3.122
 1814SOL     OW 6340   1.617   5.241   2.566
 1814SOL    HW1 6341   1.558   5.229   2.646
 1814SOL    HW2 6342   1.560   5.262   2.486
 1815SOL     OW 6343   1.109   4.454   2.534
 1815SOL    HW1 6344   1.160   4.540   2.521
 1815SOL    HW2 6345   1.062   4.456   2.621
 1816SOL     OW 6346   1.743   4.337   2.073
 1816SOL    HW1 6347   1.722   4.338   1.975
 1816SOL    HW2 6348   1.697   4.260   2.116
 1817SOL     OW 6349   0.734   4.832   2.961
 1817SOL    HW1 6350   0.667   4.871   3.024
 1817SOL    HW2 6351   0.775   4.905   2.907
 1818SOL     OW 6352   0.913   4.446   3.642
 1818SOL    HW1 6353   0.939   4.510   3.715
 1818SOL    HW2 6354   0.920   4.491   3.554
 1819SOL     OW 6355   0.700   4.691   2.527
 1819SOL    HW1 6356   0.766   4.694   2.602
 1819SOL    HW2 6357   0.623   4.752   2.548
 1820SOL     OW 6358   0.704   4.882   3.709
 1820SOL    HW1 6359   0.765   4.948   3.752
 1820SOL    HW2 6360   0.627   4.930   3.666
 1821SOL     OW 6361   0.359   5.079   2.954
 1821SOL    HW1 6362   0.273   5.046   2.915
 1821SOL    HW2 6363   0.403   5.140   2.889
 1822SOL     OW 6364   1.427   5.231   3.251
 1822SOL    HW1 6365   1.487   5.310   3.266
 1822SOL    HW2 6366   1.349   5.237   3.313
 1823SOL     OW 6367   0.473   4.062   3.325
 1823SOL    HW1 6368   0.556   4.007   3.334
 1823SOL    HW2 6369   0.394   4.010   3.357
 1824SOL     OW 6370   1.603   4.205   2.605
 1824SOL    HW1 6371   1.582   4.241   2.514
 1824SOL    HW2 6372   1.557   4.261   2.674
 1825SOL     OW 6373   0.246   5.451   2.350
 1825SOL    HW1 6374   0.268   5.526   2.413
 1825SOL    HW2 6375   0.301   5.461   2.267
 1826SOL     OW 6376   1.111   5.055   3.576
 1826SOL    HW1 6377   1.174   5.038   3.652
 1826SOL    HW2 6378   1.053   4.975   3.563
 1827SOL     OW 6379   0.354   5.203   2.393
 1827SOL    HW1 6380   0.315   5.295   2.389
 1827SOL    HW2 6381   0.308   5.150   2.464
 1828SOL     OW 6382   0.262   4.812   2.722
 1828SOL    HW1 6383   0.273   4.717   2.751
 1828SOL    HW2 6384   0.207   4.861   2.790
 1829SOL     OW 6385   0.577   5.541   3.279
 1829SOL    HW1 6386   0.499   5.519   3.338
 1829SOL    HW2 6387   0.627   5.619   3.318
 1830SOL     OW 6388   0.586   4.771   2.043
 1830SOL    HW1 6389   0.635   4.814   1.968
 1830SOL    HW2 6390   0.640   4.777   2.127
 1831SOL     OW 6391   1.692   3.822   3.399
 1831SOL    HW1 6392   1.726   3.901   3.348
 1831SOL    HW2 6393   1.626   3.853   3.467
 1832SOL     OW 6394   1.863   5.464   2.196
 1832SOL    HW1 6395   1.943   5.454   2.255
 1832SOL    HW2 6396   1.861   5.556   2.157
 1833SOL     OW 6397   0.005   5.233   1.956
 1833SOL    HW1 6398   0.003   5.167   2.031
 1833SOL    HW2 6399   6.912   5.245   1.920
 1834SOL     OW 6400   1.721   4.614   2.541
 1834SOL    HW1 6401   1.806   4.582   2.582
 1834SOL    HW2 6402   1.727   4.605   2.442
 1835SOL     OW 6403   1.650   4.868   2.304
 1835SOL    HW1 6404   1.732   4.835   2.259
 1835SOL    HW2 6405   1.674   4.910   2.392
 1836SOL     OW 6406   0.248   4.451   3.423
 1836SOL    HW1 6407   0.348   4.449   3.422
 1836SOL    HW2 6408   0.217   4.540   3.457
 1837SOL     OW 6409   0.626   5.068   2.630
 1837SOL    HW1 6410   0.579   4.983   2.609
 1837SOL    HW2 6411   0.640   5.120   2.546
 1838SOL     OW 6412   1.238   4.930   3.289
 1838SOL    HW1 6413   1.254   4.858   3.221
 1838SOL    HW2 6414   1.312   4.930   3.356
 1839SOL     OW 6415   0.828   3.744   2.378
 1839SOL    HW1 6416   0.885   3.818   2.342
 1839SOL    HW2 6417   0.732   3.774   2.378
 1840SOL     OW 6418   0.213   4.646   3.121
 1840SOL    HW1 6419   0.304   4.604   3.121
 1840SOL    HW2 6420   0.149   4.589   3.070
 1841SOL     OW 6421   1.546   4.780   2.060
 1841SOL    HW1 6422   1.477   4.711   2.083
 1841SOL    HW2 6423   1.582   4.819   2.145
 1842SOL     OW 6424   1.173   5.521   3.493
 1842SOL    HW1 6425   1.182   5.589   3.420
 1842SOL    HW2 6426   1.181   5.429   3.454
 1843SOL     OW 6427   0.328   3.991   3.747
 1843SOL    HW1 6428   0.351   4.070   3.804
 1843SOL    HW2 6429   0.231   3.994   3.722
 1844SOL     OW 6430   1.443   5.181   2.770
 1844SOL    HW1 6431   1.391   5.190   2.856
 1844SOL    HW2 6432   1.449   5.084   2.745
 1845SOL     OW 6433   1.634   5.585   2.398
 1845SOL    HW1 6434   1.627   5.523   2.320
 1845SOL    HW2 6435   1.660   5.533   2.479
 1846SOL     OW 6436   0.656   4.427   2.080
 1846SOL    HW1 6437   0.730   4.495   2.079
 1846SOL    HW2 6438   0.589   4.452   2.150
 1847SOL     OW 6439   1.264   4.131   2.795
 1847SOL    HW1 6440   1.176   4.084   2.792
 1847SOL    HW2 6441   1.325   4.082   2.858
 1848SOL     OW 6442   1.596   5.411   2.184
 1848SOL    HW1 6443   1.696   5.413   2.182
 1848SOL    HW2 6444   1.561   5.396   2.091
 1849SOL     OW 6445   0.797   4.280   3.285
 1849SOL    HW1 6446   0.767   4.255   3.377
 1849SOL    HW2 6447   0.763   4.213   3.219
 1850SOL     OW 6448   1.376   4.193   3.519
 1850SOL    HW1 6449   1.375   4.243   3.606
 1850SOL    HW2 6450   1.434   4.112   3.528
 1851SOL     OW 6451   0.945   4.606   3.412
 1851SOL    HW1 6452   0.998   4.538   3.361
 1851SOL    HW2 6453   0.902   4.669   3.347
 1852SOL     OW 6454   0.990   4.101   3.046
 1852SOL    HW1 6455   0.893   4.110   3.068
 1852SOL    HW2 6456   1.001   4.055   2.958
 1853SOL     OW 6457   1.048   4.409   2.267
 1853SOL    HW1 6458   1.071   4.423   2.364
 1853SOL    HW2 6459   0.970   4.347   2.260
 1854SOL     OW 6460   0.098   4.488   2.600
 1854SOL    HW1 6461   0.190   4.512   2.632
 1854SOL    HW2 6462   0.031   4.511   2.671
 1855SOL     OW 6463   0.125   5.611   3.504
 1855SOL    HW1 6464   0.136   5.581   3.599
 1855SOL    HW2 6465   0.031   5.592   3.474
 1856SOL     OW 6466   0.878   4.044   2.055
 1856SOL    HW1 6467   0.933   4.095   1.989
 1856SOL    HW2 6468   0.823   3.976   2.007
 1857SOL     OW 6469   1.645   4.315   3.704
 1857SOL    HW1 6470   1.639   4.400   3.652
 1857SOL    HW2 6471   1.678   4.241   3.645
 1858SOL     OW 6472   1.390   4.898   2.411
 1858SOL    HW1 6473   1.476   4.884   2.361
 1858SOL    HW2 6474   1.337   4.970   2.366
 1859SOL     OW 6475   0.595   3.819   2.803
 1859SOL    HW1 6476   0.581   3.846   2.898
 1859SOL    HW2 6477   0.643   3.892   2.754
 1860SOL     OW 6478   1.001   5.221   2.329
 1860SOL    HW1 6479   0.985   5.291   2.260
 1860SOL    HW2 6480   0.964   5.252   2.417
 1861SOL     OW 6481   0.365   5.490   2.749
 1861SOL    HW1 6482   0.403   5.398   2.757
 1861SOL    HW2 6483   0.432   5.557   2.779
 1862SOL     OW 6484   1.794   4.776   2.768
 1862SOL    HW1 6485   1.751   4.755   2.680
 1862SOL    HW2 6486   1.723   4.786   2.838
 1863SOL     OW 6487   1.182   5.250   3.387
 1863SOL    HW1 6488   1.174   5.181   3.459
 1863SOL    HW2 6489   1.124   5.225   3.310
 1864SOL     OW 6490   0.339   4.671   2.111
 1864SOL    HW1 6491   0.428   4.715   2.104
 1864SOL    HW2 6492   0.318   4.624   2.024
 1865SOL     OW 6493   1.465   4.520   2.579
 1865SOL    HW1 6494   1.457   4.465   2.662
 1865SOL    HW2 6495   1.557   4.561   2.575
 1866SOL     OW 6496   0.474   5.022   3.611
 1866SOL    HW1 6497   0.453   5.015   3.513
 1866SOL    HW2 6498   0.389   5.023   3.664
 1867SOL     OW 6499   1.114   5.526   2.004
 1867SOL    HW1 6500   1.042   5.500   2.069
 1867SOL    HW2 6501   1.159   5.444   1.970
 1868SOL     OW 6502   0.216   3.955   3.374
 1868SOL    HW1 6503   0.159   4.034   3.395
 1868SOL    HW2 6504   0.179   3.874   3.421
 1869SOL     OW 6505   1.619   5.119   1.958
 1869SOL    HW1 6506   1.592   5.214   1.942
 1869SOL    HW2 6507   1.546   5.058   1.927
 1870SOL     OW 6508   0.468   5.487   2.170
 1870SOL    HW1 6509   0.513   5.534   2.246
 1870SOL    HW2 6510   0.537   5.443   2.112
 1871SOL     OW 6511   1.397   3.826   2.320
 1871SOL    HW1 6512   1.392   3.807   2.222
 1871SOL    HW2 6513   1.490   3.807   2.353
 1872SOL     OW 6514   0.196   5.448   3.104
 1872SOL    HW1 6515   0.260   5.378   3.134
 1872SOL    HW2 6516   0.166   5.428   3.010
 1873SOL     OW 6517   0.959   5.416   2.749
 1873SOL    HW1 6518   1.047   5.369   2.753
 1873SOL    HW2 6519   0.906   5.382   2.671
 1874SOL     OW 6520   0.451   4.456   2.257
 1874SOL    HW1 6521   0.414   4.364   2.268
 1874SOL    HW2 6522   0.383   4.514   2.212
 1875SOL     OW 6523   1.499   3.941   3.578
 1875SOL    HW1 6524   1.505   3.960   3.676
 1875SOL    HW2 6525   1.424   3.878   3.561
 1876SOL     OW 6526   0.673   3.841   1.977
 1876SOL    HW1 6527   0.739   3.766   1.988
 1876SOL    HW2 6528   0.598   3.811   1.918
 1877SOL     OW 6529   0.769   3.992   3.609
 1877SOL    HW1 6530   0.854   3.940   3.608
 1877SOL    HW2 6531   0.709   3.958   3.681
 1878SOL     OW 6532   0.857   5.229   3.046
 1878SOL    HW1 6533   0.837   5.172   2.966
 1878SOL    HW2 6534   0.923   5.182   3.105
 1879SOL     OW 6535   1.295   4.315   3.286
 1879SOL    HW1 6536   1.331   4.280   3.373
 1879SOL    HW2 6537   1.332   4.406   3.269
 1880SOL     OW 6538   0.817   5.057   2.828
 1880SOL    HW1 6539   0.907   5.072   2.788
 1880SOL    HW2 6540   0.746   5.065   2.758
 1881SOL     OW 6541   0.885   4.191   2.724
 1881SOL    HW1 6542   0.869   4.179   2.626
 1881SOL    HW2 6543   0.935   4.112   2.760
 1882SOL     OW 6544   0.565   3.826   2.356
 1882SOL    HW1 6545   0.486   3.825   2.417
 1882SOL    HW2 6546   0.559   3.905   2.294
 1883SOL     OW 6547   1.410   4.948   1.893
 1883SOL    HW1 6548   1.458   4.880   1.947
 1883SOL    HW2 6549   1.327   4.976   1.940
 1884SOL     OW 6550   0.269   3.799   2.083
 1884SOL    HW1 6551   0.303   3.869   2.021
 1884SOL    HW2 6552   0.345   3.742   2.114
 1885SOL     OW 6553   0.979   3.952   2.293
 1885SOL    HW1 6554   0.945   3.980   2.203
 1885SOL    HW2 6555   1.075   3.977   2.302
 1886SOL     OW 6556   1.039   4.409   3.247
 1886SOL    HW1 6557   0.968   4.340   3.262
 1886SOL    HW2 6558   1.129   4.368   3.257
 1887SOL     OW 6559   1.214   5.307   2.656
 1887SOL    HW1 6560   1.231   5.379   2.589
 1887SOL    HW2 6561   1.301   5.274   2.692
 1888SOL     OW 6562   0.480   4.850   2.560
 1888SOL    HW1 6563   0.409   4.831   2.627
 1888SOL    HW2 6564   0.439   4.855   2.468
 1889SOL     OW 6565   1.253   5.521   2.478
 1889SOL    HW1 6566   1.302   5.586   2.420
 1889SOL    HW2 6567   1.176   5.566   2.522
 1890SOL     OW 6568   1.028   4.214   1.897
 1890SOL    HW1 6569   1.000   4.301   1.856
 1890SOL    HW2 6570   1.099   4.230   1.966
 1891SOL     OW 6571   0.110   4.291   3.233
 1891SOL    HW1 6572   0.196   4.255   3.196
 1891SOL    HW2 6573   0.130   4.352   3.309
 1892SOL     OW 6574   0.552   3.887   3.062
 1892SOL    HW1 6575   0.586   3.814   3.122
 1892SOL    HW2 6576   0.454   3.900   3.076
 1893SOL     OW 6577   0.850   4.133   2.463
 1893SOL    HW1 6578   0.824   4.196   2.390
 1893SOL    HW2 6579   0.902   4.057   2.424
 1894SOL     OW 6580   1.017   3.775   2.594
 1894SOL    HW1 6581   0.953   3.772   2.517
 1894SOL    HW2 6582   0.997   3.700   2.657
 1895SOL     OW 6583   1.497   4.927   2.680
 1895SOL    HW1 6584   1.433   4.900   2.607
 1895SOL    HW2 6585   1.588   4.940   2.640
 1896SOL     OW 6586   1.439   4.352   2.795
 1896SOL    HW1 6587   1.374   4.277   2.804
 1896SOL    HW2 6588   1.504   4.350   2.871
 1897SOL     OW 6589   1.772   4.511   2.281
 1897SOL    HW1 6590   1.853   4.477   2.329
 1897SOL    HW2 6591   1.760   4.459   2.196
 1898SOL     OW 6592   0.538   5.155   2.003
 1898SOL    HW1 6593   0.460   5.126   2.059
 1898SOL    HW2 6594   0.529   5.114   1.911
 1899SOL     OW 6595   1.728   4.988   2.538
 1899SOL    HW1 6596   1.827   4.981   2.528
 1899SOL    HW2 6597   1.702   5.085   2.534
 1900SOL     OW 6598   1.388   4.309   1.895
 1900SOL    HW1 6599   1.347   4.271   1.978
 1900SOL    HW2 6600   1.487   4.299   1.898
 1901SOL     OW 6601   0.546   4.019   2.158
 1901SOL    HW1 6602   0.598   3.955   2.102
 1901SOL    HW2 6603   0.518   4.097   2.101
 1902SOL     OW 6604   1.734   4.950   3.373
 1902SOL    HW1 6605   1.824   4.915   3.348
 1902SOL    HW2 6606   1.744   5.038   3.419
 1903SOL     OW 6607   1.018   5.074   3.215
 1903SOL    HW1 6608   0.934   5.049   3.263
 1903SOL    HW2 6609   1.095   5.021   3.251
 1904SOL     OW 6610   1.611   5.357   3.547
 1904SOL    HW1 6611   1.589   5.397   3.458
 1904SOL    HW2 6612   1.687   5.293   3.537
 1905SOL     OW 6613   1.145   4.993   2.978
 1905SOL    HW1 6614   1.083   5.020   3.052
 1905SOL    HW2 6615   1.108   5.023   2.890
 1906SOL     OW 6616   1.583   4.826   2.938
 1906SOL    HW1 6617   1.573   4.893   3.013
 1906SOL    HW2 6618   1.528   4.856   2.860
 1907SOL     OW 6619   0.931   3.777   3.240
 1907SOL    HW1 6620   0.947   3.758   3.143
 1907SOL    HW2 6621   1.013   3.819   3.280
 1908SOL     OW 6622   0.951   4.827   3.580
 1908SOL    HW1 6623   0.858   4.842   3.612
 1908SOL    HW2 6624   0.954   4.749   3.519
 1909SOL     OW 6625   0.750   4.779   2.267
 1909SOL    HW1 6626   0.735   4.749   2.361
 1909SOL    HW2 6627   0.808   4.713   2.220
 1910SOL     OW 6628   0.443   4.493   3.112
 1910SOL    HW1 6629   0.523   4.508   3.170
 1910SOL    HW2 6630   0.408   4.400   3.127
 1911SOL     OW 6631   1.238   4.082   3.156
 1911SOL    HW1 6632   1.264   4.168   3.201
 1911SOL    HW2 6633   1.146   4.092   3.117
 1912SOL     OW 6634   0.009   5.252   3.202
 1912SOL    HW1 6635   6.940   5.279   3.270
 1912SOL    HW2 6636   0.076   5.326   3.192
 1913SOL     OW 6637   0.341   4.870   2.321
 1913SOL    HW1 6638   0.343   4.945   2.254
 1913SOL    HW2 6639   0.339   4.782   2.273
 1914SOL     OW 6640   0.451   4.245   2.647
 1914SOL    HW1 6641   0.474   4.327   2.596
 1914SOL    HW2 6642   0.521   4.228   2.717
 1915SOL     OW 6643   1.251   5.110   2.296
 1915SOL    HW1 6644   1.319   5.178   2.323
 1915SOL    HW2 6645   1.159   5.144   2.318
 1916SOL     OW 6646   1.314   5.208   3.005
 1916SOL    HW1 6647   1.358   5.216   3.095
 1916SOL    HW2 6648   1.256   5.127   3.004
 1917SOL     OW 6649   1.556   4.349   2.373
 1917SOL    HW1 6650   1.492   4.405   2.427
 1917SOL    HW2 6651   1.627   4.408   2.334
 1918SOL     OW 6652   0.354   5.236   3.175
 1918SOL    HW1 6653   0.344   5.174   3.098
 1918SOL    HW2 6654   0.449   5.265   3.183
 1919SOL     OW 6655   0.523   4.439   3.470
 1919SOL    HW1 6656   0.571   4.481   3.393
 1919SOL    HW2 6657   0.580   4.366   3.507
 1920SOL     OW 6658   1.619   4.543   3.561
 1920SOL    HW1 6659   1.525   4.573   3.547
 1920SOL    HW2 6660   1.674   4.570   3.481
 1921SOL     OW 6661   0.990   3.837   3.615
 1921SOL    HW1 6662   1.055   3.913   3.608
 1921SOL    HW2 6663   1.035   3.752   3.588
 1922SOL     OW 6664   0.490   3.795   3.643
 1922SOL    HW1 6665   0.445   3.742   3.571
 1922SOL    HW2 6666   0.431   3.870   3.671
 1923SOL     OW 6667   0.583   4.551   2.885
 1923SOL    HW1 6668   0.634   4.637   2.894
 1923SOL    HW2 6669   0.528   4.536   2.967
 1924SOL     OW 6670   1.240   4.546   2.878
 1924SOL    HW1 6671   1.154   4.508   2.845
 1924SOL    HW2 6672   1.316   4.489   2.849
 1925SOL     OW 6673   1.207   4.243   2.109
 1925SOL    HW1 6674   1.228   4.164   2.166
 1925SOL    HW2 6675   1.161   4.313   2.163
 1926SOL     OW 6676   0.284   3.889   3.111
 1926SOL    HW1 6677   0.257   3.916   3.203
 1926SOL    HW2 6678   0.264   3.791   3.098
 1927SOL     OW 6679   0.052   4.996   3.119
 1927SOL    HW1 6680   0.090   4.936   3.189
 1927SOL    HW2 6681   0.041   5.088   3.157
 1928SOL     OW 6682   0.648   4.272   2.844
 1928SOL    HW1 6683   0.736   4.252   2.801
 1928SOL    HW2 6684   0.637   4.371   2.852
 1929SOL     OW 6685   1.737   4.740   3.717
 1929SOL    HW1 6686   1.696   4.661   3.671
 1929SOL    HW2 6687   1.685   4.760   3.800
 1930SOL     OW 6688   0.333   3.816   2.509
 1930SOL    HW1 6689   0.289   3.901   2.539
 1930SOL    HW2 6690   0.348   3.757   2.588
 1931SOL     OW 6691   1.593   4.139   2.192
 1931SOL    HW1 6692   1.655   4.074   2.236
 1931SOL    HW2 6693   1.559   4.204   2.260
 1932SOL     OW 6694   0.988   4.441   2.788
 1932SOL    HW1 6695   0.957   4.460   2.881
 1932SOL    HW2 6696   0.958   4.349   2.762
 1933SOL     OW 6697   0.979   5.284   3.650
 1933SOL    HW1 6698   0.946   5.344   3.577
 1933SOL    HW2 6699   1.014   5.199   3.611
 1934SOL     OW 6700   1.824   5.202   3.454
 1934SOL    HW1 6701   1.840   5.233   3.361
 1934SOL    HW2 6702   1.906   5.217   3.509
 1935SOL     OW 6703   0.424   4.616   3.659
 1935SOL    HW1 6704   0.487   4.642   3.732
 1935SOL    HW2 6705   0.468   4.552   3.598
 1936SOL     OW 6706   1.495   4.004   1.968
 1936SOL    HW1 6707   1.443   3.925   2.002
 1936SOL    HW2 6708   1.531   4.056   2.046
 1937SOL     OW 6709   1.275   4.553   1.860
 1937SOL    HW1 6710   1.313   4.461   1.868
 1937SOL    HW2 6711   1.312   4.597   1.778
 1938SOL     OW 6712   1.066   5.087   2.731
 1938SOL    HW1 6713   1.073   5.005   2.675
 1938SOL    HW2 6714   1.120   5.160   2.690
 1939SOL     OW 6715   0.322   4.546   2.768
 1939SOL    HW1 6716   0.421   4.556   2.781
 1939SOL    HW2 6717   0.291   4.463   2.814
 1940SOL     OW 6718   0.260   4.283   2.846
 1940SOL    HW1 6719   0.224   4.192   2.868
 1940SOL    HW2 6720   0.327   4.275   2.772
 1941SOL     OW 6721   1.139   4.062   3.560
 1941SOL    HW1 6722   1.087   4.112   3.629
 1941SOL    HW2 6723   1.222   4.112   3.538
 1942SOL     OW 6724   1.160   3.892   3.341
 1942SOL    HW1 6725   1.145   3.950   3.422
 1942SOL    HW2 6726   1.199   3.948   3.268
 1943SOL     OW 6727   0.028   5.039   2.158
 1943SOL    HW1 6728   6.955   5.066   2.219
 1943SOL    HW2 6729   0.036   4.940   2.157
 1944SOL     OW 6730   0.114   5.405   2.836
 1944SOL    HW1 6731   0.089   5.330   2.774
 1944SOL    HW2 6732   0.198   5.448   2.803
 1945SOL     OW 6733   0.493   5.247   2.785
 1945SOL    HW1 6734   0.564   5.310   2.819
 1945SOL    HW2 6735   0.535   5.178   2.727
 1946SOL     OW 6736   0.891   4.499   3.031
 1946SOL    HW1 6737   0.958   4.476   3.102
 1946SOL    HW2 6738   0.799   4.498   3.071
 1947SOL     OW 6739   0.081   4.430   2.994
 1947SOL    HW1 6740   0.145   4.377   2.938
 1947SOL    HW2 6741   0.071   4.388   3.084
 1948SOL     OW 6742   0.246   4.273   3.628
 1948SOL    HW1 6743   0.323   4.210   3.629
 1948SOL    HW2 6744   0.253   4.334   3.550
 1949SOL     OW 6745   1.376   4.650   3.495
 1949SOL    HW1 6746   1.397   4.748   3.493
 1949SOL    HW2 6747   1.365   4.616   3.401
 1950SOL     OW 6748   0.823   4.258   2.218
 1950SOL    HW1 6749   0.842   4.176   2.163
 1950SOL    HW2 6750   0.759   4.317   2.168
 1951SOL     OW 6751   1.626   4.341   2.995
 1951SOL    HW1 6752   1.599   4.271   3.062
 1951SOL    HW2 6753   1.725   4.338   2.982
 1952SOL     OW 6754   0.278   5.300   3.621
 1952SOL    HW1 6755   0.222   5.365   3.672
 1952SOL    HW2 6756   0.260   5.207   3.653
 1953SOL     OW 6757   0.713   4.120   3.072
 1953SOL    HW1 6758   0.658   4.037   3.080
 1953SOL    HW2 6759   0.681   4.174   2.994
 1954SOL     OW 6760   0.861   5.433   3.425
 1954SOL    HW1 6761   0.814   5.364   3.371
 1954SOL    HW2 6762   0.895   5.506   3.366
 1955SOL     OW 6763   0.463   4.227   2.001
 1955SOL    HW1 6764   0.535   4.297   2.005
 1955SOL    HW2 6765   0.374   4.272   1.986
 1956SOL     OW 6766   0.159   4.825   3.317
 1956SOL    HW1 6767   0.176   4.778   3.403
 1956SOL    HW2 6768   0.178   4.764   3.240
 1957SOL     OW 6769   1.244   4.749   3.065
 1957SOL    HW1 6770   1.242   4.678   2.995
 1957SOL    HW2 6771   1.212   4.835   3.026
 1958SOL     OW 6772   1.341   4.612   2.121
 1958SOL    HW1 6773   1.278   4.569   2.186
 1958SOL    HW2 6774   1.313   4.589   2.027
 1959SOL     OW 6775   1.757   5.447   3.024
 1959SOL    HW1 6776   1.828   5.466   2.956
 1959SOL    HW2 6777   1.715   5.359   3.004
 1960SOL     OW 6778   1.278   5.487   2.978
 1960SOL    HW1 6779   1.369   5.527   2.964
 1960SOL    HW2 6780   1.286   5.388   2.987
 1961SOL     OW 6781   0.110   5.000   2.858
 1961SOL    HW1 6782   0.082   4.989   2.953
 1961SOL    HW2 6783   0.053   5.069   2.813
 1962SOL     OW 6784   0.690   5.451   3.640
 1962SOL    HW1 6785   0.621   5.522   3.630
 1962SOL    HW2 6786   0.759   5.462   3.568
 1963SOL     OW 6787   1.775   3.965   2.302
 1963SOL    HW1 6788   1.831   3.941   2.222
 1963SOL    HW2 6789   1.731   3.883   2.338
 1964SOL     OW 6790   1.423   5.315   2.375
 1964SOL    HW1 6791   1.480   5.347   2.299
 1964SOL    HW2 6792   1.363   5.389   2.405
 1965SOL     OW 6793   0.131   5.499   3.761
 1965SOL    HW1 6794   0.076   5.429   3.809
 1965SOL    HW2 6795   0.186   5.549   3.827
 1966SOL     OW 6796   1.261   4.681   2.508
 1966SOL    HW1 6797   1.335   4.621   2.538
 1966SOL    HW2 6798   1.299   4.760   2.461
 1967SOL     OW 6799   0.767   5.016   3.319
 1967SOL    HW1 6800   0.744   5.076   3.396
 1967SOL    HW2 6801   0.693   5.018   3.252
 1968SOL     OW 6802   0.683   5.382   2.020
 1968SOL    HW1 6803   0.697   5.410   1.925
 1968SOL    HW2 6804   0.637   5.293   2.022
 1969SOL     OW 6805   1.599   5.451   3.275
 1969SOL    HW1 6806   1.649   5.442   3.190
 1969SOL    HW2 6807   1.616   5.541   3.315
 1970SOL     OW 6808   1.837   3.893   2.817
 1970SOL    HW1 6809   1.846   3.797   2.791
 1970SOL    HW2 6810   1.749   3.928   2.785
 1971SOL     OW 6811   0.236   4.056   2.620
 1971SOL    HW1 6812   0.312   4.120   2.617
 1971SOL    HW2 6813   0.218   4.031   2.715
 1972SOL     OW 6814   1.228   5.291   1.915
 1972SOL    HW1 6815   1.234   5.203   1.962
 1972SOL    HW2 6816   1.148   5.291   1.854
 1973SOL     OW 6817   0.812   4.759   3.231
 1973SOL    HW1 6818   0.817   4.771   3.132
 1973SOL    HW2 6819   0.799   4.848   3.275
 1974SOL     OW 6820   0.887   4.587   2.129
 1974SOL    HW1 6821   0.937   4.625   2.051
 1974SOL    HW2 6822   0.948   4.529   2.183
 1975SOL     OW 6823   1.491   5.384   1.923
 1975SOL    HW1 6824   1.398   5.348   1.911
 1975SOL    HW2 6825   1.536   5.391   1.835
 1976SOL     OW 6826   0.363   5.022   3.362
 1976SOL    HW1 6827   0.354   5.104   3.307
 1976SOL    HW2 6828   0.293   4.956   3.336
 1977SOL     OW 6829   1.573   5.015   3.148
 1977SOL    HW1 6830   1.637   4.983   3.218
 1977SOL    HW2 6831   1.510   5.082   3.189
 1978SOL     OW 6832   1.062   4.846   2.610
 1978SOL    HW1 6833   0.991   4.792   2.654
 1978SOL    HW2 6834   1.133   4.786   2.573
 1979SOL     OW 6835   1.028   3.959   2.806
 1979SOL    HW1 6836   1.034   3.917   2.715
 1979SOL    HW2 6837   1.026   3.887   2.876
 1980SOL     OW 6838   0.634   5.210   2.396
 1980SOL    HW1 6839   0.678   5.159   2.323
 1980SOL    HW2 6840   0.535   5.213   2.382
 1981SOL     OW 6841   1.816   4.063   3.288
 1981SOL    HW1 6842   1.864   4.148   3.266
 1981SOL    HW2 6843   1.812   4.005   3.207
 1982SOL     OW 6844   0.297   5.090   2.152
 1982SOL    HW1 6845   0.198   5.079   2.155
 1982SOL    HW2 6846   0.327   5.144   2.231
 1983SOL     OW 6847   0.183   4.690   3.560
 1983SOL    HW1 6848   0.134   4.752   3.621
 1983SOL    HW2 6849   0.272   4.669   3.599
 1984SOL     OW 6850   0.709   3.907   3.354
 1984SOL    HW1 6851   0.792   3.872   3.311
 1984SOL    HW2 6852   0.731   3.941   3.446
 1985SOL     OW 6853   0.059   4.037   1.867
 1985SOL    HW1 6854   6.999   3.970   1.911
 1985SOL    HW2 6855   0.027   4.054   1.774
 1986SOL     OW 6856   1.377   4.574   3.232
 1986SOL    HW1 6857   1.315   4.630   3.178
 1986SOL    HW2 6858   1.469   4.580   3.194
 1987SOL     OW 6859   0.056   3.963   2.183
 1987SOL    HW1 6860   6.993   3.922   2.117
 1987SOL    HW2 6861   0.143   3.913   2.182
 1988SOL     OW 6862   1.192   5.043   2.032
 1988SOL    HW1 6863   1.095   5.021   2.020
 1988SOL    HW2 6864   1.212   5.053   2.129
 1989SOL     OW 6865   0.673   4.522   3.250
 1989SOL    HW1 6866   0.725   4.607   3.256
 1989SOL    HW2 6867   0.733   4.444   3.268
 1990SOL     OW 6868   1.530   5.599   2.935
 1990SOL    HW1 6869   1.557   5.643   2.849
 1990SOL    HW2 6870   1.609   5.552   2.974
 1991SOL     OW 6871   0.722   4.260   3.551
 1991SOL    HW1 6872   0.788   4.320   3.597
 1991SOL    HW2 6873   0.739   4.165   3.578
 1992SOL     OW 6874   1.457   4.911   3.479
 1992SOL    HW1 6875   1.448   4.937   3.575
 1992SOL    HW2 6876   1.551   4.928   3.448
 1993SOL     OW 6877   0.373   5.498   3.458
 1993SOL    HW1 6878   0.284   5.544   3.447
 1993SOL    HW2 6879   0.359   5.411   3.504
 1994SOL     OW 6880   1.617   4.603   3.102
 1994SOL    HW1 6881   1.627   4.516   3.053
 1994SOL    HW2 6882   1.607   4.678   3.037
 1995SOL     OW 6883   1.235   4.049   2.309
 1995SOL    HW1 6884   1.300   3.973   2.316
 1995SOL    HW2 6885   1.245   4.108   2.389
 1996SOL     OW 6886   0.541   4.462   2.514
 1996SOL    HW1 6887   0.608   4.535   2.530
 1996SOL    HW2 6888   0.512   4.464   2.418
 1997SOL     OW 6889   1.720   4.102   3.546
 1997SOL    HW1 6890   1.756   4.097   3.453
 1997SOL    HW2 6891   1.641   4.041   3.555
 1998SOL     OW 6892   1.741   4.656   3.343
 1998SOL    HW1 6893   1.728   4.754   3.362
 1998SOL    HW2 6894   1.703   4.634   3.253
 1999SOL     OW 6895   0.893   5.064   1.970
 1999SOL    HW1 6896   0.848   5.084   2.057
 1999SOL    HW2 6897   0.914   5.150   1.923
 2000SOL     OW 6898   0.684   5.429   2.837
 2000SOL    HW1 6899   0.657   5.524   2.822
 2000SOL    HW2 6900   0.784   5.421   2.831
 2001SOL     OW 6901   0.871   4.693   2.744
 2001SOL    HW1 6902   0.912   4.604   2.760
 2001SOL    HW2 6903   0.837   4.730   2.831
 2002SOL     OW 6904   1.034   4.663   1.915
 2002SOL    HW1 6905   1.018   4.743   1.856
 2002SOL    HW2 6906   1.126   4.627   1.900
 2003SOL     OW 6907   1.863   5.247   2.713
 2003SOL    HW1 6908   1.780   5.241   2.657
 2003SOL    HW2 6909   1.885   5.156   2.749
 2004SOL     OW 6910   0.235   5.046   3.739
 2004SOL    HW1 6911   0.155   4.988   3.724
 2004SOL    HW2 6912   0.247   5.061   3.837
 2005SOL     OW 6913   0.191   4.988   2.525
 2005SOL    HW1 6914   0.213   4.931   2.604
 2005SOL    HW2 6915   0.235   4.949   2.443
 2006SOL     OW 6916   0.680   5.187   3.519
 2006SOL    HW1 6917   0.600   5.137   3.553
 2006SOL    HW2 6918   0.686   5.275   3.567
 2007SOL     OW 6919   1.801   3.876   3.091
 2007SOL    HW1 6920   1.793   3.777   3.103
 2007SOL    HW2 6921   1.821   3.897   2.995
 2008SOL     OW 6922   0.407   4.190   2.339
 2008SOL    HW1 6923   0.459   4.125   2.282
 2008SOL    HW2 6924   0.447   4.192   2.431
 2009SOL     OW 6925   1.644   5.214   2.968
 2009SOL    HW1 6926   1.581   5.204   2.891
 2009SOL    HW2 6927   1.633   5.137   3.031
 2010SOL     OW 6928   0.364   4.230   3.143
 2010SOL    HW1 6929   0.409   4.175   3.213
 2010SOL    HW2 6930   0.380   4.190   3.053
 2011SOL     OW 6931   0.834   5.362   2.511
 2011SOL    HW1 6932   0.833   5.451   2.466
 2011SOL    HW2 6933   0.756   5.308   2.479
 2012SOL     OW 6934   1.421   3.997   2.972
 2012SOL    HW1 6935   1.447   3.901   2.981
 2012SOL    HW2 6936   1.361   4.023   3.049
 2013SOL     OW 6937   1.015   3.731   2.966
 2013SOL    HW1 6938   0.970   3.664   2.908
 2013SOL    HW2 6939   1.110   3.705   2.980
 2014SOL     OW 6940   0.793   5.055   2.233
 2014SOL    HW1 6941   0.784   4.956   2.247
 2014SOL    HW2 6942   0.878   5.087   2.276
 2015SOL     OW 6943   0.621   5.299   3.160
 2015SOL    HW1 6944   0.611   5.391   3.199
 2015SOL    HW2 6945   0.708   5.292   3.112
 2016SOL     OW 6946   1.370   3.773   2.052
 2016SOL    HW1 6947   1.420   3.705   1.998
 2016SOL    HW2 6948   1.276   3.742   2.066
 2017SOL     OW 6949   1.246   4.211   2.528
 2017SOL    HW1 6950   1.200   4.300   2.527
 2017SOL    HW2 6951   1.261   4.182   2.622
 2018SOL     OW 6952   1.587   3.969   2.751
 2018SOL    HW1 6953   1.527   3.995   2.827
 2018SOL    HW2 6954   1.590   4.044   2.685
 2019SOL     OW 6955   0.083   4.767   2.148
 2019SOL    HW1 6956   0.178   4.735   2.139
 2019SOL    HW2 6957   0.030   4.701   2.201
 2020SOL     OW 6958   0.909   5.435   2.171
 2020SOL    HW1 6959   0.828   5.410   2.119
 2020SOL    HW2 6960   0.884   5.497   2.245
 2021SOL     OW 6961   0.172   4.431   3.850
 2021SOL    HW1 6962   0.150   4.367   3.923
 2021SOL    HW2 6963   0.211   4.381   3.772
 2022SOL     OW 6964   0.197   3.973   4.736
 2022SOL    HW1 6965   0.247   3.933   4.813
 2022SOL    HW2 6966   0.099   3.956   4.746
 2023SOL     OW 6967   0.032   4.120   4.385
 2023SOL    HW1 6968   6.968   4.100   4.458
 2023SOL    HW2 6969   0.123   4.088   4.411
 2024SOL     OW 6970   0.579   5.037   4.961
 2024SOL    HW1 6971   0.492   5.033   4.912
 2024SOL    HW2 6972   0.603   5.132   4.979
 2025SOL     OW 6973   1.605   5.231   4.430
 2025SOL    HW1 6974   1.546   5.209   4.508
 2025SOL    HW2 6975   1.548   5.252   4.351
 2026SOL     OW 6976   1.107   4.438   4.378
 2026SOL    HW1 6977   1.158   4.521   4.355
 2026SOL    HW2 6978   1.067   4.447   4.469
 2027SOL     OW 6979   1.771   4.312   3.942
 2027SOL    HW1 6980   1.733   4.323   3.851
 2027SOL    HW2 6981   1.725   4.238   3.990
 2028SOL     OW 6982   0.725   4.834   4.825
 2028SOL    HW1 6983   0.658   4.878   4.886
 2028SOL    HW2 6984   0.767   4.903   4.767
 2029SOL     OW 6985   0.907   4.450   5.506
 2029SOL    HW1 6986   0.936   4.514   5.577
 2029SOL    HW2 6987   0.912   4.495   5.417
 2030SOL     OW 6988   0.683   4.687   4.388
 2030SOL    HW1 6989   0.756   4.695   4.456
 2030SOL    HW2 6990   0.614   4.757   4.404
 2031SOL     OW 6991   0.710   4.883   5.572
 2031SOL    HW1 6992   0.771   4.951   5.612
 2031SOL    HW2 6993   0.632   4.930   5.530
 2032SOL     OW 6994   0.348   5.107   4.819
 2032SOL    HW1 6995   0.263   5.068   4.784
 2032SOL    HW2 6996   0.393   5.160   4.747
 2033SOL     OW 6997   1.435   5.236   5.112
 2033SOL    HW1 6998   1.493   5.316   5.125
 2033SOL    HW2 6999   1.357   5.241   5.174
 2034SOL     OW 7000   0.473   4.061   5.167
 2034SOL    HW1 7001   0.555   4.006   5.184
 2034SOL    HW2 7002   0.393   4.015   5.204
 2035SOL     OW 7003   1.616   4.207   4.478
 2035SOL    HW1 7004   1.599   4.244   4.387
 2035SOL    HW2 7005   1.573   4.265   4.547
 2036SOL     OW 7006   0.254   5.459   4.208
 2036SOL    HW1 7007   0.274   5.533   4.272
 2036SOL    HW2 7008   0.316   5.465   4.129
 2037SOL     OW 7009   1.114   5.055   5.431
 2037SOL    HW1 7010   1.181   5.037   5.504
 2037SOL    HW2 7011   1.055   4.976   5.420
 2038SOL     OW 7012   0.343   5.200   4.245
 2038SOL    HW1 7013   0.306   5.293   4.247
 2038SOL    HW2 7014   0.295   5.144   4.312
 2039SOL     OW 7015   0.274   4.846   4.587
 2039SOL    HW1 7016   0.283   4.749   4.607
 2039SOL    HW2 7017   0.212   4.888   4.652
 2040SOL     OW 7018   0.568   5.549   5.139
 2040SOL    HW1 7019   0.484   5.535   5.192
 2040SOL    HW2 7020   0.620   5.626   5.179
 2041SOL     OW 7021   0.577   4.706   3.889
 2041SOL    HW1 7022   0.623   4.760   3.820
 2041SOL    HW2 7023   0.614   4.727   3.980
 2042SOL     OW 7024   1.566   3.925   5.180
 2042SOL    HW1 7025   1.630   4.001   5.174
 2042SOL    HW2 7026   1.516   3.931   5.267
 2043SOL     OW 7027   0.099   4.366   4.287
 2043SOL    HW1 7028   0.069   4.278   4.324
 2043SOL    HW2 7029   0.084   4.438   4.355
 2044SOL     OW 7030   1.861   5.487   4.049
 2044SOL    HW1 7031   1.940   5.475   4.109
 2044SOL    HW2 7032   1.862   5.578   4.009
 2045SOL     OW 7033   6.972   5.330   3.893
 2045SOL    HW1 7034   6.981   5.232   3.915
 2045SOL    HW2 7035   6.882   5.362   3.923
 2046SOL     OW 7036   1.665   4.629   4.399
 2046SOL    HW1 7037   1.755   4.617   4.441
 2046SOL    HW2 7038   1.675   4.682   4.314
 2047SOL     OW 7039   1.669   4.846   4.188
 2047SOL    HW1 7040   1.749   4.818   4.135
 2047SOL    HW2 7041   1.698   4.905   4.263
 2048SOL     OW 7042   0.234   4.448   5.305
 2048SOL    HW1 7043   0.334   4.445   5.303
 2048SOL    HW2 7044   0.204   4.536   5.341
 2049SOL     OW 7045   0.632   5.081   4.465
 2049SOL    HW1 7046   0.581   4.996   4.453
 2049SOL    HW2 7047   0.629   5.134   4.380
 2050SOL     OW 7048   1.243   4.937   5.145
 2050SOL    HW1 7049   1.257   4.865   5.076
 2050SOL    HW2 7050   1.317   4.934   5.212
 2051SOL     OW 7051   0.844   3.756   4.238
 2051SOL    HW1 7052   0.887   3.840   4.205
 2051SOL    HW2 7053   0.745   3.769   4.246
 2052SOL     OW 7054   0.200   4.639   4.999
 2052SOL    HW1 7055   0.291   4.599   4.989
 2052SOL    HW2 7056   0.134   4.584   4.947
 2053SOL     OW 7057   1.556   4.792   3.932
 2053SOL    HW1 7058   1.478   4.731   3.950
 2053SOL    HW2 7059   1.598   4.819   4.019
 2054SOL     OW 7060   1.170   5.518   5.355
 2054SOL    HW1 7061   1.177   5.589   5.285
 2054SOL    HW2 7062   1.181   5.428   5.313
 2055SOL     OW 7063   0.327   3.986   5.630
 2055SOL    HW1 7064   0.365   4.064   5.680
 2055SOL    HW2 7065   0.228   3.995   5.625
 2056SOL     OW 7066   1.431   5.164   4.632
 2056SOL    HW1 7067   1.387   5.187   4.719
 2056SOL    HW2 7068   1.412   5.069   4.609
 2057SOL     OW 7069   1.636   5.581   4.268
 2057SOL    HW1 7070   1.625   5.517   4.192
 2057SOL    HW2 7071   1.655   5.529   4.352
 2058SOL     OW 7072   0.538   4.425   3.988
 2058SOL    HW1 7073   0.561   4.516   3.952
 2058SOL    HW2 7074   0.477   4.434   4.066
 2059SOL     OW 7075   1.292   4.099   4.706
 2059SOL    HW1 7076   1.215   4.045   4.671
 2059SOL    HW2 7077   1.287   4.103   4.806
 2060SOL     OW 7078   1.599   5.409   4.052
 2060SOL    HW1 7079   1.698   5.425   4.045
 2060SOL    HW2 7080   1.561   5.395   3.961
 2061SOL     OW 7081   0.779   4.290   5.145
 2061SOL    HW1 7082   0.752   4.264   5.238
 2061SOL    HW2 7083   0.750   4.218   5.082
 2062SOL     OW 7084   1.368   4.199   5.371
 2062SOL    HW1 7085   1.371   4.250   5.457
 2062SOL    HW2 7086   1.412   4.110   5.383
 2063SOL     OW 7087   0.937   4.610   5.275
 2063SOL    HW1 7088   0.987   4.541   5.223
 2063SOL    HW2 7089   0.887   4.670   5.213
 2064SOL     OW 7090   0.983   4.095   4.900
 2064SOL    HW1 7091   0.887   4.101   4.926
 2064SOL    HW2 7092   0.991   4.048   4.812
 2065SOL     OW 7093   1.015   4.389   4.123
 2065SOL    HW1 7094   1.043   4.397   4.219
 2065SOL    HW2 7095   0.923   4.351   4.118
 2066SOL     OW 7096   0.068   4.548   4.503
 2066SOL    HW1 7097   0.161   4.558   4.539
 2066SOL    HW2 7098   0.003   4.553   4.578
 2067SOL     OW 7099   0.095   5.635   5.371
 2067SOL    HW1 7100   0.113   5.605   5.464
 2067SOL    HW2 7101   6.999   5.619   5.349
 2068SOL     OW 7102   0.841   4.075   3.922
 2068SOL    HW1 7103   0.901   4.115   3.853
 2068SOL    HW2 7104   0.791   3.999   3.882
 2069SOL     OW 7105   1.639   4.309   5.556
 2069SOL    HW1 7106   1.642   4.388   5.494
 2069SOL    HW2 7107   1.669   4.227   5.506
 2070SOL     OW 7108   1.404   4.891   4.281
 2070SOL    HW1 7109   1.494   4.874   4.239
 2070SOL    HW2 7110   1.354   4.957   4.225
 2071SOL     OW 7111   0.599   3.809   4.665
 2071SOL    HW1 7112   0.585   3.839   4.759
 2071SOL    HW2 7113   0.635   3.885   4.611
 2072SOL     OW 7114   1.000   5.184   4.201
 2072SOL    HW1 7115   0.978   5.261   4.140
 2072SOL    HW2 7116   0.968   5.204   4.293
 2073SOL     OW 7117   0.374   5.502   4.607
 2073SOL    HW1 7118   0.405   5.407   4.613
 2073SOL    HW2 7119   0.446   5.563   4.639
 2074SOL     OW 7120   1.791   4.845   4.615
 2074SOL    HW1 7121   1.763   4.892   4.531
 2074SOL    HW2 7122   1.712   4.838   4.676
 2075SOL     OW 7123   1.186   5.251   5.244
 2075SOL    HW1 7124   1.176   5.180   5.314
 2075SOL    HW2 7125   1.129   5.228   5.165
 2076SOL     OW 7126   0.294   4.665   3.955
 2076SOL    HW1 7127   0.386   4.680   3.919
 2076SOL    HW2 7128   0.257   4.580   3.918
 2077SOL     OW 7129   1.441   4.490   4.442
 2077SOL    HW1 7130   1.439   4.442   4.530
 2077SOL    HW2 7131   1.525   4.544   4.436
 2078SOL     OW 7132   0.477   5.024   5.479
 2078SOL    HW1 7133   0.459   5.007   5.382
 2078SOL    HW2 7134   0.391   5.036   5.528
 2079SOL     OW 7135   1.155   5.487   3.971
 2079SOL    HW1 7136   1.065   5.465   4.010
 2079SOL    HW2 7137   1.180   5.418   3.904
 2080SOL     OW 7138   0.210   3.973   5.224
 2080SOL    HW1 7139   0.145   4.049   5.218
 2080SOL    HW2 7140   0.172   3.902   5.284
 2081SOL     OW 7141   1.644   5.122   3.825
 2081SOL    HW1 7142   1.613   5.217   3.813
 2081SOL    HW2 7143   1.572   5.060   3.793
 2082SOL     OW 7144   0.477   5.497   4.036
 2082SOL    HW1 7145   0.523   5.543   4.112
 2082SOL    HW2 7146   0.543   5.443   3.985
 2083SOL     OW 7147   1.402   3.826   4.190
 2083SOL    HW1 7148   1.398   3.803   4.093
 2083SOL    HW2 7149   1.495   3.813   4.224
 2084SOL     OW 7150   0.236   5.481   4.950
 2084SOL    HW1 7151   0.276   5.398   4.990
 2084SOL    HW2 7152   0.185   5.456   4.867
 2085SOL     OW 7153   0.967   5.414   4.608
 2085SOL    HW1 7154   1.059   5.376   4.612
 2085SOL    HW2 7155   0.914   5.367   4.537
 2086SOL     OW 7156   0.365   4.401   4.201
 2086SOL    HW1 7157   0.390   4.305   4.214
 2086SOL    HW2 7158   0.267   4.412   4.220
 2087SOL     OW 7159   1.448   3.935   5.431
 2087SOL    HW1 7160   1.460   3.959   5.527
 2087SOL    HW2 7161   1.384   3.859   5.423
 2088SOL     OW 7162   0.676   3.854   3.839
 2088SOL    HW1 7163   0.738   3.778   3.857
 2088SOL    HW2 7164   0.603   3.823   3.777
 2089SOL     OW 7165   0.777   3.991   5.471
 2089SOL    HW1 7166   0.864   3.943   5.466
 2089SOL    HW2 7167   0.722   3.954   5.546
 2090SOL     OW 7168   0.849   5.225   4.903
 2090SOL    HW1 7169   0.829   5.168   4.824
 2090SOL    HW2 7170   0.916   5.179   4.962
 2091SOL     OW 7171   1.283   4.322   5.140
 2091SOL    HW1 7172   1.322   4.285   5.224
 2091SOL    HW2 7173   1.321   4.413   5.123
 2092SOL     OW 7174   0.808   5.053   4.681
 2092SOL    HW1 7175   0.899   5.065   4.640
 2092SOL    HW2 7176   0.738   5.059   4.609
 2093SOL     OW 7177   0.909   4.197   4.588
 2093SOL    HW1 7178   0.880   4.191   4.492
 2093SOL    HW2 7179   0.961   4.115   4.612
 2094SOL     OW 7180   0.573   3.803   4.233
 2094SOL    HW1 7181   0.496   3.799   4.296
 2094SOL    HW2 7182   0.561   3.879   4.169
 2095SOL     OW 7183   1.428   4.957   3.754
 2095SOL    HW1 7184   1.475   4.889   3.811
 2095SOL    HW2 7185   1.341   4.982   3.797
 2096SOL     OW 7186   0.270   3.792   3.932
 2096SOL    HW1 7187   0.305   3.862   3.869
 2096SOL    HW2 7188   0.347   3.740   3.969
 2097SOL     OW 7189   0.960   3.987   4.156
 2097SOL    HW1 7190   0.925   4.020   4.068
 2097SOL    HW2 7191   1.059   4.002   4.159
 2098SOL     OW 7192   1.023   4.415   5.108
 2098SOL    HW1 7193   0.950   4.348   5.122
 2098SOL    HW2 7194   1.112   4.370   5.118
 2099SOL     OW 7195   1.213   5.301   4.517
 2099SOL    HW1 7196   1.231   5.373   4.450
 2099SOL    HW2 7197   1.299   5.265   4.551
 2100SOL     OW 7198   0.479   4.865   4.407
 2100SOL    HW1 7199   0.407   4.856   4.476
 2100SOL    HW2 7200   0.438   4.860   4.316
 2101SOL     OW 7201   1.254   5.516   4.340
 2101SOL    HW1 7202   1.304   5.583   4.284
 2101SOL    HW2 7203   1.172   5.558   4.377
 2102SOL     OW 7204   1.017   4.210   3.756
 2102SOL    HW1 7205   0.988   4.298   3.719
 2102SOL    HW2 7206   1.084   4.224   3.828
 2103SOL     OW 7207   0.091   4.284   5.119
 2103SOL    HW1 7208   0.181   4.262   5.081
 2103SOL    HW2 7209   0.101   4.349   5.194
 2104SOL     OW 7210   0.553   3.877   4.923
 2104SOL    HW1 7211   0.586   3.805   4.984
 2104SOL    HW2 7212   0.455   3.890   4.938
 2105SOL     OW 7213   0.836   4.163   4.330
 2105SOL    HW1 7214   0.789   4.220   4.262
 2105SOL    HW2 7215   0.886   4.090   4.283
 2106SOL     OW 7216   1.024   3.761   4.449
 2106SOL    HW1 7217   0.960   3.760   4.372
 2106SOL    HW2 7218   1.002   3.687   4.512
 2107SOL     OW 7219   1.376   4.907   4.564
 2107SOL    HW1 7220   1.285   4.868   4.575
 2107SOL    HW2 7221   1.405   4.898   4.469
 2108SOL     OW 7222   1.442   4.338   4.674
 2108SOL    HW1 7223   1.386   4.257   4.690
 2108SOL    HW2 7224   1.510   4.346   4.747
 2109SOL     OW 7225   1.775   4.509   4.128
 2109SOL    HW1 7226   1.845   4.484   4.195
 2109SOL    HW2 7227   1.775   4.443   4.053
 2110SOL     OW 7228   0.520   5.149   3.872
 2110SOL    HW1 7229   0.439   5.123   3.924
 2110SOL    HW2 7230   0.514   5.110   3.780
 2111SOL     OW 7231   1.760   5.002   4.389
 2111SOL    HW1 7232   1.859   5.015   4.387
 2111SOL    HW2 7233   1.715   5.091   4.397
 2112SOL     OW 7234   1.369   4.305   3.769
 2112SOL    HW1 7235   1.323   4.270   3.850
 2112SOL    HW2 7236   1.468   4.298   3.781
 2113SOL     OW 7237   0.531   3.989   4.038
 2113SOL    HW1 7238   0.589   3.942   3.971
 2113SOL    HW2 7239   0.483   4.064   3.993
 2114SOL     OW 7240   1.744   4.960   5.236
 2114SOL    HW1 7241   1.833   4.917   5.220
 2114SOL    HW2 7242   1.757   5.050   5.278
 2115SOL     OW 7243   1.016   5.074   5.073
 2115SOL    HW1 7244   0.932   5.049   5.121
 2115SOL    HW2 7245   1.093   5.022   5.110
 2116SOL     OW 7246   1.624   5.372   5.397
 2116SOL    HW1 7247   1.604   5.411   5.307
 2116SOL    HW2 7248   1.699   5.306   5.388
 2117SOL     OW 7249   1.142   4.999   4.835
 2117SOL    HW1 7250   1.081   5.023   4.911
 2117SOL    HW2 7251   1.100   5.028   4.749
 2118SOL     OW 7252   1.567   4.844   4.777
 2118SOL    HW1 7253   1.557   4.902   4.858
 2118SOL    HW2 7254   1.489   4.858   4.716
 2119SOL     OW 7255   0.934   3.780   5.099
 2119SOL    HW1 7256   0.944   3.759   5.002
 2119SOL    HW2 7257   1.014   3.832   5.130
 2120SOL     OW 7258   0.953   4.829   5.441
 2120SOL    HW1 7259   0.860   4.843   5.475
 2120SOL    HW2 7260   0.955   4.751   5.379
 2121SOL     OW 7261   0.723   4.768   4.122
 2121SOL    HW1 7262   0.703   4.737   4.215
 2121SOL    HW2 7263   0.807   4.725   4.090
 2122SOL     OW 7264   0.437   4.501   4.970
 2122SOL    HW1 7265   0.507   4.521   5.039
 2122SOL    HW2 7266   0.398   4.411   4.988
 2123SOL     OW 7267   1.240   4.111   4.975
 2123SOL    HW1 7268   1.262   4.189   5.033
 2123SOL    HW2 7269   1.142   4.111   4.954
 2124SOL     OW 7270   0.078   5.237   5.134
 2124SOL    HW1 7271   0.033   5.286   5.208
 2124SOL    HW2 7272   0.176   5.260   5.134
 2125SOL     OW 7273   0.359   4.850   4.160
 2125SOL    HW1 7274   0.338   4.932   4.106
 2125SOL    HW2 7275   0.340   4.769   4.105
 2126SOL     OW 7276   0.454   4.258   4.574
 2126SOL    HW1 7277   0.464   4.334   4.510
 2126SOL    HW2 7278   0.536   4.251   4.631
 2127SOL     OW 7279   1.257   5.093   4.142
 2127SOL    HW1 7280   1.319   5.166   4.171
 2127SOL    HW2 7281   1.164   5.117   4.169
 2128SOL     OW 7282   1.313   5.212   4.870
 2128SOL    HW1 7283   1.360   5.218   4.957
 2128SOL    HW2 7284   1.254   5.131   4.869
 2129SOL     OW 7285   1.569   4.345   4.240
 2129SOL    HW1 7286   1.500   4.394   4.293
 2129SOL    HW2 7287   1.635   4.410   4.202
 2130SOL     OW 7288   0.350   5.242   5.055
 2130SOL    HW1 7289   0.337   5.189   4.971
 2130SOL    HW2 7290   0.445   5.271   5.062
 2131SOL     OW 7291   0.509   4.437   5.355
 2131SOL    HW1 7292   0.553   4.483   5.278
 2131SOL    HW2 7293   0.568   4.362   5.387
 2132SOL     OW 7294   1.628   4.538   5.408
 2132SOL    HW1 7295   1.532   4.567   5.405
 2132SOL    HW2 7296   1.676   4.575   5.328
 2133SOL     OW 7297   1.008   3.850   5.458
 2133SOL    HW1 7298   1.057   3.935   5.438
 2133SOL    HW2 7299   1.068   3.772   5.442
 2134SOL     OW 7300   0.492   3.801   5.512
 2134SOL    HW1 7301   0.447   3.753   5.437
 2134SOL    HW2 7302   0.431   3.871   5.547
 2135SOL     OW 7303   0.657   4.555   4.813
 2135SOL    HW1 7304   0.669   4.654   4.806
 2135SOL    HW2 7305   0.573   4.535   4.862
 2136SOL     OW 7306   1.259   4.557   4.732
 2136SOL    HW1 7307   1.173   4.523   4.694
 2136SOL    HW2 7308   1.331   4.489   4.719
 2137SOL     OW 7309   1.189   4.235   3.974
 2137SOL    HW1 7310   1.216   4.160   4.035
 2137SOL    HW2 7311   1.133   4.300   4.025
 2138SOL     OW 7312   0.284   3.870   4.975
 2138SOL    HW1 7313   0.257   3.912   5.062
 2138SOL    HW2 7314   0.257   3.774   4.975
 2139SOL     OW 7315   0.088   5.000   5.006
 2139SOL    HW1 7316   0.108   4.925   5.070
 2139SOL    HW2 7317   0.081   5.086   5.057
 2140SOL     OW 7318   0.682   4.282   4.726
 2140SOL    HW1 7319   0.765   4.258   4.677
 2140SOL    HW2 7320   0.684   4.380   4.749
 2141SOL     OW 7321   1.776   4.696   5.581
 2141SOL    HW1 7322   1.726   4.633   5.522
 2141SOL    HW2 7323   1.716   4.727   5.655
 2142SOL     OW 7324   0.344   3.794   4.385
 2142SOL    HW1 7325   0.316   3.885   4.417
 2142SOL    HW2 7326   0.354   3.733   4.464
 2143SOL     OW 7327   1.606   4.130   4.067
 2143SOL    HW1 7328   1.668   4.068   4.116
 2143SOL    HW2 7329   1.573   4.200   4.129
 2144SOL     OW 7330   1.010   4.448   4.636
 2144SOL    HW1 7331   0.987   4.475   4.730
 2144SOL    HW2 7332   0.978   4.355   4.620
 2145SOL     OW 7333   0.979   5.284   5.508
 2145SOL    HW1 7334   0.946   5.344   5.436
 2145SOL    HW2 7335   1.015   5.200   5.467
 2146SOL     OW 7336   1.839   5.212   5.322
 2146SOL    HW1 7337   1.860   5.248   5.232
 2146SOL    HW2 7338   1.920   5.217   5.380
 2147SOL     OW 7339   0.421   4.614   5.549
 2147SOL    HW1 7340   0.493   4.642   5.613
 2147SOL    HW2 7341   0.458   4.549   5.483
 2148SOL     OW 7342   1.503   3.993   3.843
 2148SOL    HW1 7343   1.453   3.914   3.879
 2148SOL    HW2 7344   1.540   4.047   3.918
 2149SOL     OW 7345   1.273   4.555   3.729
 2149SOL    HW1 7346   1.306   4.462   3.740
 2149SOL    HW2 7347   1.307   4.593   3.643
 2150SOL     OW 7348   1.057   5.081   4.583
 2150SOL    HW1 7349   1.084   4.995   4.539
 2150SOL    HW2 7350   1.112   5.156   4.546
 2151SOL     OW 7351   0.318   4.576   4.622
 2151SOL    HW1 7352   0.385   4.546   4.555
 2151SOL    HW2 7353   0.342   4.539   4.712
 2152SOL     OW 7354   0.253   4.240   4.759
 2152SOL    HW1 7355   0.220   4.146   4.749
 2152SOL    HW2 7356   0.322   4.258   4.689
 2153SOL     OW 7357   1.119   4.090   5.391
 2153SOL    HW1 7358   1.072   4.133   5.468
 2153SOL    HW2 7359   1.208   4.134   5.378
 2154SOL     OW 7360   1.160   3.921   5.172
 2154SOL    HW1 7361   1.140   3.985   5.247
 2154SOL    HW2 7362   1.205   3.970   5.097
 2155SOL     OW 7363   0.004   5.065   3.980
 2155SOL    HW1 7364   6.939   5.093   4.051
 2155SOL    HW2 7365   0.001   4.966   3.968
 2156SOL     OW 7366   0.118   5.439   4.698
 2156SOL    HW1 7367   0.088   5.369   4.633
 2156SOL    HW2 7368   0.205   5.477   4.666
 2157SOL     OW 7369   0.491   5.251   4.635
 2157SOL    HW1 7370   0.565   5.309   4.668
 2157SOL    HW2 7371   0.527   5.185   4.569
 2158SOL     OW 7372   0.929   4.528   4.876
 2158SOL    HW1 7373   0.967   4.496   4.962
 2158SOL    HW2 7374   0.829   4.528   4.881
 2159SOL     OW 7375   0.067   4.417   4.872
 2159SOL    HW1 7376   0.129   4.360   4.819
 2159SOL    HW2 7377   0.056   4.378   4.963
 2160SOL     OW 7378   0.229   4.250   5.487
 2160SOL    HW1 7379   0.299   4.180   5.474
 2160SOL    HW2 7380   0.235   4.318   5.414
 2161SOL     OW 7381   1.381   4.653   5.351
 2161SOL    HW1 7382   1.407   4.750   5.348
 2161SOL    HW2 7383   1.371   4.618   5.258
 2162SOL     OW 7384   0.761   4.284   4.087
 2162SOL    HW1 7385   0.781   4.207   4.027
 2162SOL    HW2 7386   0.683   4.335   4.052
 2163SOL     OW 7387   1.627   4.349   4.872
 2163SOL    HW1 7388   1.605   4.303   4.958
 2163SOL    HW2 7389   1.725   4.343   4.856
 2164SOL     OW 7390   0.270   5.325   5.471
 2164SOL    HW1 7391   0.214   5.387   5.525
 2164SOL    HW2 7392   0.267   5.234   5.510
 2165SOL     OW 7393   0.712   4.111   4.943
 2165SOL    HW1 7394   0.652   4.031   4.945
 2165SOL    HW2 7395   0.686   4.170   4.866
 2166SOL     OW 7396   0.856   5.435   5.283
 2166SOL    HW1 7397   0.812   5.363   5.228
 2166SOL    HW2 7398   0.889   5.508   5.223
 2167SOL     OW 7399   0.392   4.195   3.920
 2167SOL    HW1 7400   0.450   4.276   3.929
 2167SOL    HW2 7401   0.305   4.209   3.967
 2168SOL     OW 7402   0.165   4.817   5.198
 2168SOL    HW1 7403   0.180   4.769   5.285
 2168SOL    HW2 7404   0.175   4.753   5.122
 2169SOL     OW 7405   1.248   4.758   4.921
 2169SOL    HW1 7406   1.251   4.687   4.851
 2169SOL    HW2 7407   1.211   4.842   4.882
 2170SOL     OW 7408   1.335   4.646   3.983
 2170SOL    HW1 7409   1.267   4.619   4.051
 2170SOL    HW2 7410   1.308   4.611   3.893
 2171SOL     OW 7411   1.751   5.432   4.881
 2171SOL    HW1 7412   1.821   5.457   4.814
 2171SOL    HW2 7413   1.711   5.343   4.856
 2172SOL     OW 7414   1.273   5.487   4.841
 2172SOL    HW1 7415   1.364   5.526   4.827
 2172SOL    HW2 7416   1.280   5.388   4.851
 2173SOL     OW 7417   0.102   4.993   4.740
 2173SOL    HW1 7418   0.094   4.986   4.840
 2173SOL    HW2 7419   0.014   5.021   4.702
 2174SOL     OW 7420   0.680   5.456   5.493
 2174SOL    HW1 7421   0.611   5.528   5.483
 2174SOL    HW2 7422   0.750   5.466   5.421
 2175SOL     OW 7423   1.791   3.968   4.188
 2175SOL    HW1 7424   1.844   3.945   4.106
 2175SOL    HW2 7425   1.745   3.886   4.222
 2176SOL     OW 7426   1.418   5.306   4.233
 2176SOL    HW1 7427   1.478   5.341   4.160
 2176SOL    HW2 7428   1.355   5.378   4.261
 2177SOL     OW 7429   0.119   5.516   5.625
 2177SOL    HW1 7430   0.077   5.431   5.658
 2177SOL    HW2 7431   0.170   5.558   5.700
 2178SOL     OW 7432   1.261   4.663   4.341
 2178SOL    HW1 7433   1.329   4.599   4.378
 2178SOL    HW2 7434   1.309   4.744   4.305
 2179SOL     OW 7435   0.762   5.021   5.175
 2179SOL    HW1 7436   0.739   5.080   5.253
 2179SOL    HW2 7437   0.687   5.024   5.108
 2180SOL     OW 7438   0.682   5.365   3.899
 2180SOL    HW1 7439   0.696   5.395   3.805
 2180SOL    HW2 7440   0.631   5.279   3.900
 2181SOL     OW 7441   1.601   5.463   5.128
 2181SOL    HW1 7442   1.655   5.451   5.045
 2181SOL    HW2 7443   1.583   5.560   5.143
 2182SOL     OW 7444   1.816   3.928   4.725
 2182SOL    HW1 7445   1.836   3.839   4.682
 2182SOL    HW2 7446   1.728   3.961   4.692
 2183SOL     OW 7447   0.293   4.047   4.489
 2183SOL    HW1 7448   0.354   4.123   4.510
 2183SOL    HW2 7449   0.256   4.010   4.574
 2184SOL     OW 7450   1.227   5.300   3.784
 2184SOL    HW1 7451   1.220   5.206   3.818
 2184SOL    HW2 7452   1.149   5.319   3.725
 2185SOL     OW 7453   0.798   4.760   5.096
 2185SOL    HW1 7454   0.806   4.770   4.997
 2185SOL    HW2 7455   0.787   4.850   5.138
 2186SOL     OW 7456   0.943   4.641   4.039
 2186SOL    HW1 7457   0.974   4.654   3.944
 2186SOL    HW2 7458   0.973   4.552   4.072
 2187SOL     OW 7459   1.493   5.381   3.794
 2187SOL    HW1 7460   1.399   5.351   3.785
 2187SOL    HW2 7461   1.537   5.382   3.705
 2188SOL     OW 7462   0.375   5.009   5.228
 2188SOL    HW1 7463   0.365   5.088   5.169
 2188SOL    HW2 7464   0.305   4.942   5.207
 2189SOL     OW 7465   1.575   5.016   5.008
 2189SOL    HW1 7466   1.644   4.985   5.074
 2189SOL    HW2 7467   1.515   5.083   5.051
 2190SOL     OW 7468   1.109   4.824   4.506
 2190SOL    HW1 7469   1.023   4.782   4.534
 2190SOL    HW2 7470   1.155   4.765   4.440
 2191SOL     OW 7471   1.044   3.950   4.659
 2191SOL    HW1 7472   1.045   3.907   4.568
 2191SOL    HW2 7473   1.036   3.879   4.729
 2192SOL     OW 7474   0.621   5.219   4.230
 2192SOL    HW1 7475   0.664   5.164   4.158
 2192SOL    HW2 7476   0.522   5.217   4.220
 2193SOL     OW 7477   1.789   4.100   5.166
 2193SOL    HW1 7478   1.856   4.174   5.161
 2193SOL    HW2 7479   1.819   4.023   5.109
 2194SOL     OW 7480   0.276   5.083   4.011
 2194SOL    HW1 7481   0.176   5.085   4.007
 2194SOL    HW2 7482   0.307   5.132   4.093
 2195SOL     OW 7483   0.185   4.687   5.437
 2195SOL    HW1 7484   0.116   4.721   5.501
 2195SOL    HW2 7485   0.270   4.670   5.486
 2196SOL     OW 7486   0.709   3.905   5.218
 2196SOL    HW1 7487   0.792   3.875   5.172
 2196SOL    HW2 7488   0.731   3.942   5.308
 2197SOL     OW 7489   0.060   3.993   3.694
 2197SOL    HW1 7490   6.994   3.926   3.729
 2197SOL    HW2 7491   0.012   4.078   3.672
 2198SOL     OW 7492   1.375   4.578   5.088
 2198SOL    HW1 7493   1.311   4.635   5.037
 2198SOL    HW2 7494   1.467   4.587   5.048
 2199SOL     OW 7495   0.042   3.944   4.009
 2199SOL    HW1 7496   6.980   3.900   3.944
 2199SOL    HW2 7497   0.130   3.896   4.008
 2200SOL     OW 7498   1.185   5.041   3.871
 2200SOL    HW1 7499   1.087   5.023   3.864
 2200SOL    HW2 7500   1.211   5.044   3.968
 2201SOL     OW 7501   0.646   4.533   5.140
 2201SOL    HW1 7502   0.701   4.616   5.130
 2201SOL    HW2 7503   0.706   4.453   5.137
 2202SOL     OW 7504   1.528   5.588   4.797
 2202SOL    HW1 7505   1.554   5.630   4.710
 2202SOL    HW2 7506   1.604   5.536   4.834
 2203SOL     OW 7507   0.719   4.259   5.415
 2203SOL    HW1 7508   0.784   4.321   5.460
 2203SOL    HW2 7509   0.740   4.165   5.441
 2204SOL     OW 7510   1.463   4.916   5.334
 2204SOL    HW1 7511   1.454   4.937   5.432
 2204SOL    HW2 7512   1.557   4.933   5.304
 2205SOL     OW 7513   0.351   5.528   5.310
 2205SOL    HW1 7514   0.263   5.574   5.299
 2205SOL    HW2 7515   0.338   5.440   5.356
 2206SOL     OW 7516   1.607   4.621   4.944
 2206SOL    HW1 7517   1.625   4.533   4.901
 2206SOL    HW2 7518   1.599   4.691   4.874
 2207SOL     OW 7519   1.229   4.045   4.176
 2207SOL    HW1 7520   1.293   3.968   4.181
 2207SOL    HW2 7521   1.233   4.097   4.261
 2208SOL     OW 7522   0.491   4.489   4.427
 2208SOL    HW1 7523   0.569   4.550   4.412
 2208SOL    HW2 7524   0.449   4.466   4.340
 2209SOL     OW 7525   1.711   4.075   5.431
 2209SOL    HW1 7526   1.750   4.082   5.339
 2209SOL    HW2 7527   1.643   4.001   5.433
 2210SOL     OW 7528   1.708   4.679   5.193
 2210SOL    HW1 7529   1.712   4.779   5.204
 2210SOL    HW2 7530   1.682   4.658   5.098
 2211SOL     OW 7531   0.884   5.066   3.825
 2211SOL    HW1 7532   0.839   5.075   3.914
 2211SOL    HW2 7533   0.895   5.157   3.785
 2212SOL     OW 7534   0.691   5.422   4.689
 2212SOL    HW1 7535   0.664   5.517   4.681
 2212SOL    HW2 7536   0.791   5.415   4.688
 2213SOL     OW 7537   0.877   4.696   4.593
 2213SOL    HW1 7538   0.918   4.605   4.602
 2213SOL    HW2 7539   0.840   4.725   4.682
 2214SOL     OW 7540   1.029   4.656   3.783
 2214SOL    HW1 7541   1.009   4.732   3.721
 2214SOL    HW2 7542   1.121   4.622   3.765
 2215SOL     OW 7543   1.843   5.281   4.573
 2215SOL    HW1 7544   1.759   5.261   4.522
 2215SOL    HW2 7545   1.871   5.199   4.624
 2216SOL     OW 7546   0.240   5.076   5.602
 2216SOL    HW1 7547   0.143   5.063   5.584
 2216SOL    HW2 7548   0.256   5.074   5.701
 2217SOL     OW 7549   0.186   5.039   4.409
 2217SOL    HW1 7550   0.226   4.974   4.474
 2217SOL    HW2 7551   0.120   4.991   4.351
 2218SOL     OW 7552   0.677   5.190   5.378
 2218SOL    HW1 7553   0.600   5.138   5.414
 2218SOL    HW2 7554   0.680   5.280   5.421
 2219SOL     OW 7555   1.818   3.883   4.991
 2219SOL    HW1 7556   1.896   3.820   5.000
 2219SOL    HW2 7557   1.813   3.916   4.897
 2220SOL     OW 7558   0.413   4.140   4.244
 2220SOL    HW1 7559   0.464   4.079   4.184
 2220SOL    HW2 7560   0.372   4.087   4.318
 2221SOL     OW 7561   1.643   5.199   4.814
 2221SOL    HW1 7562   1.578   5.183   4.740
 2221SOL    HW2 7563   1.633   5.126   4.883
 2222SOL     OW 7564   0.343   4.251   5.021
 2222SOL    HW1 7565   0.399   4.183   5.067
 2222SOL    HW2 7566   0.328   4.223   4.926
 2223SOL     OW 7567   0.835   5.278   4.412
 2223SOL    HW1 7568   0.776   5.307   4.336
 2223SOL    HW2 7569   0.790   5.205   4.463
 2224SOL     OW 7570   1.014   3.728   4.826
 2224SOL    HW1 7571   0.979   3.660   4.762
 2224SOL    HW2 7572   1.108   3.705   4.851
 2225SOL     OW 7573   0.781   5.043   4.083
 2225SOL    HW1 7574   0.759   4.947   4.096
 2225SOL    HW2 7575   0.865   5.065   4.132
 2226SOL     OW 7576   0.619   5.305   5.027
 2226SOL    HW1 7577   0.609   5.398   5.062
 2226SOL    HW2 7578   0.704   5.297   4.976
 2227SOL     OW 7579   1.380   3.760   3.923
 2227SOL    HW1 7580   1.429   3.688   3.873
 2227SOL    HW2 7581   1.286   3.730   3.941
 2228SOL     OW 7582   1.230   4.188   4.408
 2228SOL    HW1 7583   1.189   4.278   4.394
 2228SOL    HW2 7584   1.265   4.182   4.502
 2229SOL     OW 7585   1.549   3.998   4.650
 2229SOL    HW1 7586   1.455   4.025   4.672
 2229SOL    HW2 7587   1.584   4.055   4.576
 2230SOL     OW 7588   0.052   4.787   4.003
 2230SOL    HW1 7589   0.143   4.745   3.998
 2230SOL    HW2 7590   6.983   4.715   4.018
 2231SOL     OW 7591   0.904   5.406   4.066
 2231SOL    HW1 7592   0.825   5.388   4.007
 2231SOL    HW2 7593   0.882   5.481   4.129
 2232SOL     OW 7594   0.189   4.410   5.715
 2232SOL    HW1 7595   0.171   4.341   5.785
 2232SOL    HW2 7596   0.224   4.365   5.632
 2233SOL     OW 7597   0.196   4.003   6.624
 2233SOL    HW1 7598   0.252   3.955   6.690
 2233SOL    HW2 7599   0.102   3.969   6.629
 2234SOL     OW 7600   0.048   4.066   6.204
 2234SOL    HW1 7601   6.985   4.043   6.278
 2234SOL    HW2 7602   0.043   3.996   6.133
 2235SOL     OW 7603   0.597   4.960   6.827
 2235SOL    HW1 7604   0.521   4.980   6.765
 2235SOL    HW2 7605   0.633   5.046   6.864
 2236SOL     OW 7606   1.614   5.243   6.295
 2236SOL    HW1 7607   1.549   5.218   6.367
 2236SOL    HW2 7608   1.564   5.264   6.211
 2237SOL     OW 7609   1.111   4.448   6.258
 2237SOL    HW1 7610   1.167   4.528   6.238
 2237SOL    HW2 7611   1.068   4.459   6.347
 2238SOL     OW 7612   1.785   4.312   5.783
 2238SOL    HW1 7613   1.741   4.325   5.694
 2238SOL    HW2 7614   1.743   4.234   5.830
 2239SOL     OW 7615   0.755   4.855   6.624
 2239SOL    HW1 7616   0.707   4.882   6.707
 2239SOL    HW2 7617   0.775   4.936   6.569
 2240SOL     OW 7618   0.674   4.689   6.244
 2240SOL    HW1 7619   0.750   4.688   6.309
 2240SOL    HW2 7620   0.608   4.759   6.271
 2241SOL     OW 7621   0.398   5.033   6.650
 2241SOL    HW1 7622   0.350   4.968   6.592
 2241SOL    HW2 7623   0.433   5.109   6.594
 2242SOL     OW 7624   1.620   4.177   6.321
 2242SOL    HW1 7625   1.601   4.219   6.232
 2242SOL    HW2 7626   1.576   4.231   6.393
 2243SOL     OW 7627   0.259   5.439   6.062
 2243SOL    HW1 7628   0.279   5.512   6.128
 2243SOL    HW2 7629   0.320   5.449   5.984
 2244SOL     OW 7630   0.344   5.183   6.114
 2244SOL    HW1 7631   0.308   5.276   6.110
 2244SOL    HW2 7632   0.297   5.131   6.185
 2245SOL     OW 7633   0.268   4.837   6.492
 2245SOL    HW1 7634   0.313   4.759   6.535
 2245SOL    HW2 7635   0.171   4.836   6.516
 2246SOL     OW 7636   0.613   5.556   6.987
 2246SOL    HW1 7637   0.516   5.555   0.012
 2246SOL    HW2 7638   0.657   5.635   0.029
 2247SOL     OW 7639   0.589   4.706   5.754
 2247SOL    HW1 7640   0.635   4.760   5.684
 2247SOL    HW2 7641   0.626   4.729   5.844
 2248SOL     OW 7642   0.105   4.324   6.127
 2248SOL    HW1 7643   0.083   4.235   6.168
 2248SOL    HW2 7644   0.088   4.396   6.195
 2249SOL     OW 7645   1.881   5.479   5.894
 2249SOL    HW1 7646   1.958   5.469   5.957
 2249SOL    HW2 7647   1.879   5.572   5.857
 2250SOL     OW 7648   6.998   5.286   5.691
 2250SOL    HW1 7649   0.004   5.202   5.745
 2250SOL    HW2 7650   6.906   5.293   5.651
 2251SOL     OW 7651   1.711   4.652   6.254
 2251SOL    HW1 7652   1.798   4.604   6.269
 2251SOL    HW2 7653   1.706   4.682   6.158
 2252SOL     OW 7654   1.678   4.849   6.029
 2252SOL    HW1 7655   1.763   4.822   5.982
 2252SOL    HW2 7656   1.701   4.906   6.108
 2253SOL     OW 7657   0.603   5.084   6.313
 2253SOL    HW1 7658   0.551   5.000   6.298
 2253SOL    HW2 7659   0.612   5.133   6.226
 2254SOL     OW 7660   0.851   3.745   6.100
 2254SOL    HW1 7661   0.896   3.827   6.064
 2254SOL    HW2 7662   0.752   3.762   6.106
 2255SOL     OW 7663   0.227   4.614   6.828
 2255SOL    HW1 7664   0.290   4.622   6.751
 2255SOL    HW2 7665   0.133   4.611   6.795
 2256SOL     OW 7666   1.575   4.778   5.776
 2256SOL    HW1 7667   1.499   4.715   5.795
 2256SOL    HW2 7668   1.614   4.810   5.863
 2257SOL     OW 7669   1.426   5.164   6.488
 2257SOL    HW1 7670   1.379   5.154   6.576
 2257SOL    HW2 7671   1.446   5.074   6.450
 2258SOL     OW 7672   1.654   5.592   6.110
 2258SOL    HW1 7673   1.645   5.526   6.035
 2258SOL    HW2 7674   1.683   5.545   6.193
 2259SOL     OW 7675   0.555   4.425   5.855
 2259SOL    HW1 7676   0.571   4.517   5.818
 2259SOL    HW2 7677   0.489   4.431   5.929
 2260SOL     OW 7678   1.279   4.121   6.507
 2260SOL    HW1 7679   1.187   4.081   6.508
 2260SOL    HW2 7680   1.342   4.060   6.554
 2261SOL     OW 7681   1.616   5.408   5.904
 2261SOL    HW1 7682   1.715   5.418   5.895
 2261SOL    HW2 7683   1.576   5.393   5.813
 2262SOL     OW 7684   0.747   4.368   0.048
 2262SOL    HW1 7685   0.689   4.378   0.128
 2262SOL    HW2 7686   0.701   4.310   6.980
 2263SOL     OW 7687   1.053   4.259   6.760
 2263SOL    HW1 7688   1.041   4.269   6.859
 2263SOL    HW2 7689   0.998   4.183   6.726
 2264SOL     OW 7690   1.028   4.399   5.996
 2264SOL    HW1 7691   1.053   4.408   6.092
 2264SOL    HW2 7692   0.938   4.358   5.988
 2265SOL     OW 7693   0.095   4.509   6.333
 2265SOL    HW1 7694   0.191   4.516   6.362
 2265SOL    HW2 7695   0.039   4.483   6.412
 2266SOL     OW 7696   6.993   5.640   0.204
 2266SOL    HW1 7697   0.023   5.674   0.293
 2266SOL    HW2 7698   6.921   5.572   0.216
 2267SOL     OW 7699   0.849   4.074   5.787
 2267SOL    HW1 7700   0.906   4.116   5.717
 2267SOL    HW2 7701   0.795   4.000   5.746
 2268SOL     OW 7702   1.404   4.883   6.114
 2268SOL    HW1 7703   1.491   4.869   6.068
 2268SOL    HW2 7704   1.351   4.952   6.065
 2269SOL     OW 7705   0.612   3.808   6.578
 2269SOL    HW1 7706   0.602   3.859   6.663
 2269SOL    HW2 7707   0.648   3.869   6.507
 2270SOL     OW 7708   1.007   5.200   6.043
 2270SOL    HW1 7709   0.986   5.270   5.975
 2270SOL    HW2 7710   0.970   5.227   6.132
 2271SOL     OW 7711   0.395   5.489   6.463
 2271SOL    HW1 7712   0.425   5.395   6.480
 2271SOL    HW2 7713   0.464   5.553   6.499
 2272SOL     OW 7714   1.814   4.788   6.480
 2272SOL    HW1 7715   1.776   4.769   6.389
 2272SOL    HW2 7716   1.741   4.790   6.547
 2273SOL     OW 7717   0.285   4.650   5.823
 2273SOL    HW1 7718   0.369   4.676   5.775
 2273SOL    HW2 7719   0.254   4.561   5.789
 2274SOL     OW 7720   1.485   4.504   6.301
 2274SOL    HW1 7721   1.488   4.447   6.384
 2274SOL    HW2 7722   1.568   4.560   6.297
 2275SOL     OW 7723   1.165   5.482   5.816
 2275SOL    HW1 7724   1.070   5.466   5.846
 2275SOL    HW2 7725   1.191   5.412   5.749
 2276SOL     OW 7726   1.647   5.118   5.681
 2276SOL    HW1 7727   1.616   5.213   5.670
 2276SOL    HW2 7728   1.576   5.056   5.649
 2277SOL     OW 7729   0.473   5.494   5.890
 2277SOL    HW1 7730   0.521   5.538   5.965
 2277SOL    HW2 7731   0.538   5.443   5.834
 2278SOL     OW 7732   1.403   3.830   6.047
 2278SOL    HW1 7733   1.400   3.804   5.950
 2278SOL    HW2 7734   1.496   3.820   6.082
 2279SOL     OW 7735   0.277   5.455   6.767
 2279SOL    HW1 7736   0.307   5.366   6.801
 2279SOL    HW2 7737   0.214   5.441   6.690
 2280SOL     OW 7738   0.960   5.399   6.445
 2280SOL    HW1 7739   1.050   5.355   6.438
 2280SOL    HW2 7740   0.904   5.372   6.367
 2281SOL     OW 7741   0.370   4.383   6.057
 2281SOL    HW1 7742   0.404   4.293   6.083
 2281SOL    HW2 7743   0.271   4.386   6.066
 2282SOL     OW 7744   0.683   3.854   5.702
 2282SOL    HW1 7745   0.744   3.775   5.714
 2282SOL    HW2 7746   0.607   3.829   5.642
 2283SOL     OW 7747   0.845   5.167   6.756
 2283SOL    HW1 7748   0.810   5.161   6.662
 2283SOL    HW2 7749   0.925   5.109   6.765
 2284SOL     OW 7750   0.800   5.090   6.496
 2284SOL    HW1 7751   0.892   5.094   6.459
 2284SOL    HW2 7752   0.733   5.093   6.422
 2285SOL     OW 7753   0.891   4.194   6.458
 2285SOL    HW1 7754   0.869   4.188   6.360
 2285SOL    HW2 7755   0.942   4.113   6.486
 2286SOL     OW 7756   0.584   3.788   6.102
 2286SOL    HW1 7757   0.507   3.782   6.165
 2286SOL    HW2 7758   0.570   3.866   6.040
 2287SOL     OW 7759   1.437   4.950   5.610
 2287SOL    HW1 7760   1.485   4.880   5.663
 2287SOL    HW2 7761   1.350   4.971   5.654
 2288SOL     OW 7762   0.268   3.794   5.823
 2288SOL    HW1 7763   0.297   3.863   5.756
 2288SOL    HW2 7764   0.346   3.738   5.850
 2289SOL     OW 7765   0.967   3.976   6.016
 2289SOL    HW1 7766   0.928   4.012   5.932
 2289SOL    HW2 7767   1.065   3.995   6.019
 2290SOL     OW 7768   1.211   5.300   6.366
 2290SOL    HW1 7769   1.235   5.372   6.301
 2290SOL    HW2 7770   1.295   5.262   6.406
 2291SOL     OW 7771   0.458   4.857   6.280
 2291SOL    HW1 7772   0.389   4.839   6.351
 2291SOL    HW2 7773   0.416   4.845   6.190
 2292SOL     OW 7774   1.261   5.518   6.200
 2292SOL    HW1 7775   1.310   5.580   6.138
 2292SOL    HW2 7776   1.185   5.566   6.243
 2293SOL     OW 7777   1.013   4.214   5.613
 2293SOL    HW1 7778   0.982   4.303   5.579
 2293SOL    HW2 7779   1.083   4.228   5.684
 2294SOL     OW 7780   0.573   3.949   6.815
 2294SOL    HW1 7781   0.629   3.914   6.889
 2294SOL    HW2 7782   0.478   3.920   6.827
 2295SOL     OW 7783   0.846   4.157   6.192
 2295SOL    HW1 7784   0.803   4.217   6.124
 2295SOL    HW2 7785   0.896   4.084   6.146
 2296SOL     OW 7786   1.031   3.771   6.317
 2296SOL    HW1 7787   0.972   3.773   6.236
 2296SOL    HW2 7788   1.005   3.693   6.374
 2297SOL     OW 7789   1.508   4.929   6.374
 2297SOL    HW1 7790   1.449   4.900   6.299
 2297SOL    HW2 7791   1.601   4.943   6.340
 2298SOL     OW 7792   1.476   4.330   6.521
 2298SOL    HW1 7793   1.409   4.257   6.532
 2298SOL    HW2 7794   1.540   4.328   6.599
 2299SOL     OW 7795   1.790   4.502   5.976
 2299SOL    HW1 7796   1.862   4.469   6.038
 2299SOL    HW2 7797   1.786   4.443   5.896
 2300SOL     OW 7798   0.526   5.141   5.739
 2300SOL    HW1 7799   0.449   5.109   5.793
 2300SOL    HW2 7800   0.524   5.098   5.649
 2301SOL     OW 7801   1.748   4.994   6.251
 2301SOL    HW1 7802   1.846   4.980   6.264
 2301SOL    HW2 7803   1.727   5.092   6.251
 2302SOL     OW 7804   1.368   4.310   5.621
 2302SOL    HW1 7805   1.325   4.271   5.703
 2302SOL    HW2 7806   1.467   4.300   5.628
 2303SOL     OW 7807   0.547   3.980   5.915
 2303SOL    HW1 7808   0.602   3.935   5.845
 2303SOL    HW2 7809   0.500   4.059   5.876
 2304SOL     OW 7810   1.740   4.972   0.261
 2304SOL    HW1 7811   1.788   4.887   0.238
 2304SOL    HW2 7812   1.799   5.050   0.242
 2305SOL     OW 7813   1.072   5.009   6.696
 2305SOL    HW1 7814   1.074   4.910   6.704
 2305SOL    HW2 7815   1.065   5.034   6.599
 2306SOL     OW 7816   1.588   4.820   6.626
 2306SOL    HW1 7817   1.591   4.900   6.686
 2306SOL    HW2 7818   1.538   4.843   6.543
 2307SOL     OW 7819   0.728   4.777   5.986
 2307SOL    HW1 7820   0.704   4.743   6.077
 2307SOL    HW2 7821   0.812   4.731   5.954
 2308SOL     OW 7822   0.428   4.494   6.963
 2308SOL    HW1 7823   0.500   4.563   6.974
 2308SOL    HW2 7824   0.346   4.537   6.925
 2309SOL     OW 7825   1.299   4.134   6.828
 2309SOL    HW1 7826   1.329   4.188   6.907
 2309SOL    HW2 7827   1.225   4.182   6.781
 2310SOL     OW 7828   0.084   5.213   6.889
 2310SOL    HW1 7829   0.059   5.226   6.985
 2310SOL    HW2 7830   0.183   5.220   6.879
 2311SOL     OW 7831   0.342   4.831   6.033
 2311SOL    HW1 7832   0.333   4.912   5.976
 2311SOL    HW2 7833   0.327   4.749   5.977
 2312SOL     OW 7834   0.440   4.373   6.508
 2312SOL    HW1 7835   0.446   4.412   6.416
 2312SOL    HW2 7836   0.530   4.342   6.538
 2313SOL     OW 7837   1.262   5.099   5.994
 2313SOL    HW1 7838   1.328   5.168   6.023
 2313SOL    HW2 7839   1.170   5.128   6.018
 2314SOL     OW 7840   1.309   5.142   6.737
 2314SOL    HW1 7841   1.364   5.096   6.807
 2314SOL    HW2 7842   1.219   5.098   6.731
 2315SOL     OW 7843   1.586   4.339   6.095
 2315SOL    HW1 7844   1.524   4.394   6.151
 2315SOL    HW2 7845   1.651   4.399   6.049
 2316SOL     OW 7846   0.360   5.200   6.861
 2316SOL    HW1 7847   0.363   5.137   6.783
 2316SOL    HW2 7848   0.451   5.236   6.878
 2317SOL     OW 7849   0.690   4.596   6.679
 2317SOL    HW1 7850   0.708   4.687   6.643
 2317SOL    HW2 7851   0.742   4.583   6.763
 2318SOL     OW 7852   1.277   4.525   6.589
 2318SOL    HW1 7853   1.189   4.498   6.550
 2318SOL    HW2 7854   1.349   4.463   6.557
 2319SOL     OW 7855   1.187   4.241   5.831
 2319SOL    HW1 7856   1.214   4.164   5.887
 2319SOL    HW2 7857   1.137   4.308   5.886
 2320SOL     OW 7858   0.310   3.878   6.842
 2320SOL    HW1 7859   0.249   3.894   6.921
 2320SOL    HW2 7860   0.305   3.782   6.816
 2321SOL     OW 7861   0.012   4.960   6.816
 2321SOL    HW1 7862   0.065   4.906   6.881
 2321SOL    HW2 7863   0.031   5.057   6.831
 2322SOL     OW 7864   0.691   4.323   6.611
 2322SOL    HW1 7865   0.762   4.282   6.554
 2322SOL    HW2 7866   0.707   4.421   6.620
 2323SOL     OW 7867   0.360   3.772   6.257
 2323SOL    HW1 7868   0.326   3.862   6.286
 2323SOL    HW2 7869   0.376   3.716   6.338
 2324SOL     OW 7870   1.615   4.128   5.910
 2324SOL    HW1 7871   1.678   4.065   5.955
 2324SOL    HW2 7872   1.584   4.197   5.975
 2325SOL     OW 7873   1.011   4.431   6.532
 2325SOL    HW1 7874   1.035   4.408   6.626
 2325SOL    HW2 7875   0.968   4.351   6.488
 2326SOL     OW 7876   1.911   5.189   0.207
 2326SOL    HW1 7877   1.924   5.209   0.110
 2326SOL    HW2 7878   1.905   5.274   0.258
 2327SOL     OW 7879   1.484   3.995   5.694
 2327SOL    HW1 7880   1.448   3.911   5.735
 2327SOL    HW2 7881   1.532   4.048   5.764
 2328SOL     OW 7882   1.273   4.559   5.582
 2328SOL    HW1 7883   1.304   4.465   5.592
 2328SOL    HW2 7884   1.308   4.597   5.497
 2329SOL     OW 7885   1.061   5.077   6.429
 2329SOL    HW1 7886   1.080   4.991   6.382
 2329SOL    HW2 7887   1.120   5.149   6.390
 2330SOL     OW 7888   0.405   4.623   6.619
 2330SOL    HW1 7889   0.498   4.637   6.653
 2330SOL    HW2 7890   0.400   4.535   6.572
 2331SOL     OW 7891   0.319   4.233   6.706
 2331SOL    HW1 7892   0.276   4.151   6.669
 2331SOL    HW2 7893   0.357   4.287   6.631
 2332SOL     OW 7894   1.195   3.939   6.995
 2332SOL    HW1 7895   1.269   3.902   0.051
 2332SOL    HW2 7896   1.232   4.006   6.930
 2333SOL     OW 7897   0.013   5.048   5.834
 2333SOL    HW1 7898   6.944   5.079   5.899
 2333SOL    HW2 7899   0.016   4.948   5.833
 2334SOL     OW 7900   0.131   5.443   6.530
 2334SOL    HW1 7901   0.095   5.375   6.466
 2334SOL    HW2 7902   0.222   5.472   6.499
 2335SOL     OW 7903   0.506   5.242   6.512
 2335SOL    HW1 7904   0.582   5.296   6.548
 2335SOL    HW2 7905   0.538   5.188   6.434
 2336SOL     OW 7906   0.831   4.592   6.913
 2336SOL    HW1 7907   0.915   4.633   6.947
 2336SOL    HW2 7908   0.811   4.509   6.965
 2337SOL     OW 7909   6.992   4.239   6.712
 2337SOL    HW1 7910   0.047   4.172   6.663
 2337SOL    HW2 7911   6.908   4.196   6.746
 2338SOL     OW 7912   0.779   4.286   5.953
 2338SOL    HW1 7913   0.797   4.209   5.891
 2338SOL    HW2 7914   0.701   4.339   5.918
 2339SOL     OW 7915   1.669   4.337   6.730
 2339SOL    HW1 7916   1.661   4.255   6.786
 2339SOL    HW2 7917   1.766   4.361   6.720
 2340SOL     OW 7918   0.609   4.219   6.852
 2340SOL    HW1 7919   0.607   4.120   6.839
 2340SOL    HW2 7920   0.639   4.263   6.767
 2341SOL     OW 7921   0.957   5.371   6.899
 2341SOL    HW1 7922   0.914   5.299   6.843
 2341SOL    HW2 7923   0.968   5.454   6.844
 2342SOL     OW 7924   0.417   4.187   5.794
 2342SOL    HW1 7925   0.471   4.271   5.801
 2342SOL    HW2 7926   0.328   4.201   5.836
 2343SOL     OW 7927   0.159   4.818   7.000
 2343SOL    HW1 7928   0.118   4.787   0.085
 2343SOL    HW2 7929   0.191   4.739   6.947
 2344SOL     OW 7930   1.342   4.650   6.822
 2344SOL    HW1 7931   1.312   4.614   6.734
 2344SOL    HW2 7932   1.442   4.648   6.827
 2345SOL     OW 7933   1.354   4.632   5.834
 2345SOL    HW1 7934   1.293   4.595   5.904
 2345SOL    HW2 7935   1.322   4.606   5.744
 2346SOL     OW 7936   1.811   5.424   6.772
 2346SOL    HW1 7937   1.868   5.452   6.696
 2346SOL    HW2 7938   1.734   5.369   6.738
 2347SOL     OW 7939   1.261   5.420   6.718
 2347SOL    HW1 7940   1.347   5.467   6.699
 2347SOL    HW2 7941   1.279   5.322   6.730
 2348SOL     OW 7942   7.000   4.857   6.565
 2348SOL    HW1 7943   6.998   4.913   6.648
 2348SOL    HW2 7944   6.912   4.865   6.517
 2349SOL     OW 7945   1.798   3.962   6.029
 2349SOL    HW1 7946   1.855   3.934   5.952
 2349SOL    HW2 7947   1.749   3.883   6.065
 2350SOL     OW 7948   1.433   5.309   6.088
 2350SOL    HW1 7949   1.493   5.342   6.015
 2350SOL    HW2 7950   1.369   5.381   6.114
 2351SOL     OW 7951   1.280   4.662   6.219
 2351SOL    HW1 7952   1.354   4.602   6.251
 2351SOL    HW2 7953   1.319   4.739   6.169
 2352SOL     OW 7954   0.678   5.367   5.750
 2352SOL    HW1 7955   0.687   5.396   5.654
 2352SOL    HW2 7956   0.630   5.279   5.754
 2353SOL     OW 7957   1.852   3.862   6.548
 2353SOL    HW1 7958   1.885   3.773   6.519
 2353SOL    HW2 7959   1.766   3.884   6.501
 2354SOL     OW 7960   0.277   4.015   6.348
 2354SOL    HW1 7961   0.196   4.045   6.297
 2354SOL    HW2 7962   0.257   4.015   6.446
 2355SOL     OW 7963   1.239   5.295   5.631
 2355SOL    HW1 7964   1.230   5.201   5.665
 2355SOL    HW2 7965   1.162   5.317   5.571
 2356SOL     OW 7966   0.599   4.722   6.968
 2356SOL    HW1 7967   0.689   4.684   6.947
 2356SOL    HW2 7968   0.589   4.811   6.923
 2357SOL     OW 7969   0.947   4.646   5.902
 2357SOL    HW1 7970   0.977   4.657   5.807
 2357SOL    HW2 7971   0.981   4.559   5.938
 2358SOL     OW 7972   1.507   5.375   5.646
 2358SOL    HW1 7973   1.412   5.344   5.634
 2358SOL    HW2 7974   1.550   5.382   5.556
 2359SOL     OW 7975   1.614   5.038   6.797
 2359SOL    HW1 7976   1.709   5.025   6.825
 2359SOL    HW2 7977   1.554   5.015   6.874
 2360SOL     OW 7978   1.090   4.828   6.332
 2360SOL    HW1 7979   1.011   4.772   6.358
 2360SOL    HW2 7980   1.159   4.770   6.289
 2361SOL     OW 7981   1.041   3.962   6.522
 2361SOL    HW1 7982   1.045   3.912   6.436
 2361SOL    HW2 7983   1.042   3.898   6.598
 2362SOL     OW 7984   0.623   5.221   6.079
 2362SOL    HW1 7985   0.668   5.165   6.010
 2362SOL    HW2 7986   0.524   5.214   6.069
 2363SOL     OW 7987   1.668   4.096   6.885
 2363SOL    HW1 7988   1.610   4.079   6.964
 2363SOL    HW2 7989   1.700   4.009   6.848
 2364SOL     OW 7990   0.284   5.067   5.878
 2364SOL    HW1 7991   0.184   5.066   5.872
 2364SOL    HW2 7992   0.312   5.114   5.962
 2365SOL     OW 7993   0.712   3.865   0.032
 2365SOL    HW1 7994   0.808   3.855   0.056
 2365SOL    HW2 7995   0.660   3.894   0.113
 2366SOL     OW 7996   0.055   4.003   5.645
 2366SOL    HW1 7997   6.989   3.935   5.675
 2366SOL    HW2 7998   0.006   4.079   5.601
 2367SOL     OW 7999   0.042   3.919   5.950
 2367SOL    HW1 8000   6.980   3.873   5.886
 2367SOL    HW2 8001   0.135   3.886   5.936
 2368SOL     OW 8002   1.192   5.039   5.724
 2368SOL    HW1 8003   1.094   5.021   5.717
 2368SOL    HW2 8004   1.217   5.046   5.820
 2369SOL     OW 8005   1.505   5.542   6.682
 2369SOL    HW1 8006   1.540   5.597   6.605
 2369SOL    HW2 8007   1.549   5.453   6.682
 2370SOL     OW 8008   1.366   5.024   0.291
 2370SOL    HW1 8009   1.405   4.941   0.252
 2370SOL    HW2 8010   1.425   5.102   0.269
 2371SOL     OW 8011   0.365   5.557   0.102
 2371SOL    HW1 8012   0.301   5.633   0.088
 2371SOL    HW2 8013   0.399   5.559   0.196
 2372SOL     OW 8014   1.617   4.610   6.810
 2372SOL    HW1 8015   1.634   4.517   6.775
 2372SOL    HW2 8016   1.620   4.675   6.734
 2373SOL     OW 8017   1.231   4.047   6.027
 2373SOL    HW1 8018   1.297   3.971   6.033
 2373SOL    HW2 8019   1.243   4.107   6.105
 2374SOL     OW 8020   0.463   4.511   6.279
 2374SOL    HW1 8021   0.542   4.569   6.261
 2374SOL    HW2 8022   0.431   4.470   6.193
 2375SOL     OW 8023   1.653   4.616   0.085
 2375SOL    HW1 8024   1.735   4.665   0.117
 2375SOL    HW2 8025   1.650   4.619   6.985
 2376SOL     OW 8026   0.891   5.069   5.682
 2376SOL    HW1 8027   0.845   5.079   5.770
 2376SOL    HW2 8028   0.903   5.159   5.640
 2377SOL     OW 8029   0.708   5.411   6.576
 2377SOL    HW1 8030   0.678   5.505   6.565
 2377SOL    HW2 8031   0.801   5.401   6.540
 2378SOL     OW 8032   0.881   4.681   6.440
 2378SOL    HW1 8033   0.917   4.597   6.481
 2378SOL    HW2 8034   0.845   4.740   6.512
 2379SOL     OW 8035   1.030   4.658   5.645
 2379SOL    HW1 8036   1.009   4.733   5.582
 2379SOL    HW2 8037   1.122   4.623   5.624
 2380SOL     OW 8038   1.851   5.272   6.449
 2380SOL    HW1 8039   1.770   5.263   6.391
 2380SOL    HW2 8040   1.873   5.183   6.490
 2381SOL     OW 8041   0.183   5.028   6.289
 2381SOL    HW1 8042   0.215   4.965   6.360
 2381SOL    HW2 8043   0.122   4.979   6.227
 2382SOL     OW 8044   1.790   3.843   6.815
 2382SOL    HW1 8045   1.797   3.744   6.828
 2382SOL    HW2 8046   1.813   3.866   6.720
 2383SOL     OW 8047   0.433   4.134   6.137
 2383SOL    HW1 8048   0.484   4.069   6.081
 2383SOL    HW2 8049   0.395   4.087   6.216
 2384SOL     OW 8050   1.597   5.283   6.674
 2384SOL    HW1 8051   1.548   5.261   6.590
 2384SOL    HW2 8052   1.609   5.200   6.729
 2385SOL     OW 8053   0.826   5.353   6.213
 2385SOL    HW1 8054   0.836   5.444   6.172
 2385SOL    HW2 8055   0.749   5.306   6.171
 2386SOL     OW 8056   1.438   3.961   6.660
 2386SOL    HW1 8057   1.447   3.866   6.690
 2386SOL    HW2 8058   1.401   4.016   6.735
 2387SOL     OW 8059   1.042   3.705   6.666
 2387SOL    HW1 8060   1.003   3.649   6.594
 2387SOL    HW2 8061   1.131   3.669   6.693
 2388SOL     OW 8062   0.788   5.047   5.940
 2388SOL    HW1 8063   0.766   4.951   5.955
 2388SOL    HW2 8064   0.874   5.070   5.986
 2389SOL     OW 8065   0.619   5.284   6.880
 2389SOL    HW1 8066   0.623   5.383   6.895
 2389SOL    HW2 8067   0.700   5.255   6.829
 2390SOL     OW 8068   1.392   3.751   5.785
 2390SOL    HW1 8069   1.447   3.681   5.741
 2390SOL    HW2 8070   1.298   3.719   5.796
 2391SOL     OW 8071   1.251   4.208   6.244
 2391SOL    HW1 8072   1.202   4.295   6.246
 2391SOL    HW2 8073   1.269   4.178   6.337
 2392SOL     OW 8074   1.607   3.922   6.448
 2392SOL    HW1 8075   1.544   3.944   6.523
 2392SOL    HW2 8076   1.612   3.999   6.384
 2393SOL     OW 8077   0.043   4.776   5.864
 2393SOL    HW1 8078   0.132   4.732   5.858
 2393SOL    HW2 8079   6.972   4.706   5.876
 2394SOL     OW 8080   0.907   5.417   5.898
 2394SOL    HW1 8081   0.826   5.395   5.843
 2394SOL    HW2 8082   0.884   5.488   5.964
 2395SOL     OW 8083   0.260   6.296   0.145
 2395SOL    HW1 8084   0.163   6.297   0.171
 2395SOL    HW2 8085   0.268   6.267   0.049
 2396SOL     OW 8086   0.203   5.831   1.023
 2396SOL    HW1 8087   0.249   5.787   1.100
 2396SOL    HW2 8088   0.104   5.819   1.031
 2397SOL     OW 8089   0.013   6.003   0.682
 2397SOL    HW1 8090   6.950   5.985   0.757
 2397SOL    HW2 8091   0.101   5.959   0.702
 2398SOL     OW 8092   0.568   6.817   1.191
 2398SOL    HW1 8093   0.519   6.880   1.130
 2398SOL    HW2 8094   0.518   6.810   1.277
 2399SOL     OW 8095   1.674   0.081   0.661
 2399SOL    HW1 8096   1.676   0.146   0.737
 2399SOL    HW2 8097   1.581   0.047   0.649
 2400SOL     OW 8098   1.130   6.302   0.685
 2400SOL    HW1 8099   1.171   6.392   0.670
 2400SOL    HW2 8100   1.078   6.302   0.771
 2401SOL     OW 8101   1.760   6.086   0.099
 2401SOL    HW1 8102   1.744   6.182   0.074
 2401SOL    HW2 8103   1.709   6.064   0.182
 2402SOL     OW 8104   0.631   6.634   0.987
 2402SOL    HW1 8105   0.617   6.697   1.064
 2402SOL    HW2 8106   0.573   6.662   0.911
 2403SOL     OW 8107   0.883   6.320   1.853
 2403SOL    HW1 8108   0.891   6.379   1.934
 2403SOL    HW2 8109   0.896   6.375   1.771
 2404SOL     OW 8110   0.677   6.552   0.656
 2404SOL    HW1 8111   0.757   6.552   0.716
 2404SOL    HW2 8112   0.606   6.610   0.697
 2405SOL     OW 8113   0.681   6.774   1.857
 2405SOL    HW1 8114   0.684   6.827   1.942
 2405SOL    HW2 8115   0.652   6.833   1.782
 2406SOL     OW 8116   0.423   6.976   1.021
 2406SOL    HW1 8117   0.368   6.912   0.968
 2406SOL    HW2 8118   0.451   0.053   0.963
 2407SOL     OW 8119   0.474   5.910   1.452
 2407SOL    HW1 8120   0.554   5.854   1.472
 2407SOL    HW2 8121   0.392   5.864   1.486
 2408SOL     OW 8122   1.586   6.017   0.762
 2408SOL    HW1 8123   1.505   6.032   0.705
 2408SOL    HW2 8124   1.593   6.091   0.829
 2409SOL     OW 8125   0.258   6.763   0.926
 2409SOL    HW1 8126   0.247   6.668   0.953
 2409SOL    HW2 8127   0.180   6.817   0.958
 2410SOL     OW 8128   0.615   6.522   0.148
 2410SOL    HW1 8129   0.672   6.546   0.070
 2410SOL    HW2 8130   0.651   6.565   0.231
 2411SOL     OW 8131   1.563   5.743   1.442
 2411SOL    HW1 8132   1.634   5.812   1.425
 2411SOL    HW2 8133   1.523   5.757   1.532
 2412SOL     OW 8134   0.131   6.228   0.579
 2412SOL    HW1 8135   0.078   6.152   0.617
 2412SOL    HW2 8136   0.114   6.311   0.632
 2413SOL     OW 8137   1.701   6.432   0.633
 2413SOL    HW1 8138   1.784   6.431   0.689
 2413SOL    HW2 8139   1.697   6.517   0.581
 2414SOL     OW 8140   1.689   6.679   0.512
 2414SOL    HW1 8141   1.723   6.710   0.424
 2414SOL    HW2 8142   1.732   6.732   0.585
 2415SOL     OW 8143   0.226   6.312   1.569
 2415SOL    HW1 8144   0.326   6.312   1.567
 2415SOL    HW2 8145   0.192   6.401   1.599
 2416SOL     OW 8146   1.234   6.789   1.424
 2416SOL    HW1 8147   1.265   6.720   1.359
 2416SOL    HW2 8148   1.298   6.794   1.501
 2417SOL     OW 8149   0.803   5.596   0.542
 2417SOL    HW1 8150   0.865   5.674   0.529
 2417SOL    HW2 8151   0.709   5.629   0.548
 2418SOL     OW 8152   0.192   6.550   1.288
 2418SOL    HW1 8153   0.255   6.481   1.252
 2418SOL    HW2 8154   0.111   6.555   1.230
 2419SOL     OW 8155   1.449   6.638   0.302
 2419SOL    HW1 8156   1.383   6.563   0.309
 2419SOL    HW2 8157   1.528   6.617   0.360
 2420SOL     OW 8158   0.320   5.838   1.892
 2420SOL    HW1 8159   0.346   5.919   1.945
 2420SOL    HW2 8160   0.224   5.845   1.866
 2421SOL     OW 8161   1.419   6.918   0.949
 2421SOL    HW1 8162   1.331   6.914   0.997
 2421SOL    HW2 8163   1.448   6.825   0.924
 2422SOL     OW 8164   0.600   6.266   0.264
 2422SOL    HW1 8165   0.612   6.356   0.222
 2422SOL    HW2 8166   0.523   6.269   0.327
 2423SOL     OW 8167   1.299   5.984   0.966
 2423SOL    HW1 8168   1.211   5.936   0.968
 2423SOL    HW2 8169   1.361   5.942   1.032
 2424SOL     OW 8170   0.774   6.148   1.431
 2424SOL    HW1 8171   0.750   6.128   1.526
 2424SOL    HW2 8172   0.746   6.072   1.373
 2425SOL     OW 8173   1.365   6.044   1.659
 2425SOL    HW1 8174   1.371   6.092   1.747
 2425SOL    HW2 8175   1.415   5.958   1.665
 2426SOL     OW 8176   0.923   6.464   1.616
 2426SOL    HW1 8177   0.980   6.396   1.570
 2426SOL    HW2 8178   0.874   6.519   1.549
 2427SOL     OW 8179   0.993   5.966   1.208
 2427SOL    HW1 8180   0.896   5.965   1.229
 2427SOL    HW2 8181   1.007   5.932   1.114
 2428SOL     OW 8182   1.067   6.276   0.417
 2428SOL    HW1 8183   1.091   6.282   0.514
 2428SOL    HW2 8184   0.977   6.233   0.407
 2429SOL     OW 8185   0.079   6.426   0.776
 2429SOL    HW1 8186   0.168   6.433   0.820
 2429SOL    HW2 8187   0.010   6.402   0.844
 2430SOL     OW 8188   0.952   5.930   0.268
 2430SOL    HW1 8189   1.030   5.989   0.250
 2430SOL    HW2 8190   0.957   5.849   0.209
 2431SOL     OW 8191   1.638   6.159   1.833
 2431SOL    HW1 8192   1.636   6.248   1.787
 2431SOL    HW2 8193   1.670   6.089   1.768
 2432SOL     OW 8194   1.446   6.741   0.634
 2432SOL    HW1 8195   1.528   6.721   0.579
 2432SOL    HW2 8196   1.431   6.840   0.636
 2433SOL     OW 8197   0.542   5.699   0.931
 2433SOL    HW1 8198   0.545   5.715   1.029
 2433SOL    HW2 8199   0.555   5.785   0.882
 2434SOL     OW 8200   1.826   6.665   0.915
 2434SOL    HW1 8201   1.801   6.725   0.840
 2434SOL    HW2 8202   1.748   6.653   0.977
 2435SOL     OW 8203   0.353   6.537   0.257
 2435SOL    HW1 8204   0.440   6.551   0.210
 2435SOL    HW2 8205   0.319   6.445   0.235
 2436SOL     OW 8206   1.454   6.361   0.722
 2436SOL    HW1 8207   1.458   6.307   0.806
 2436SOL    HW2 8208   1.546   6.389   0.695
 2437SOL     OW 8209   0.213   5.817   1.507
 2437SOL    HW1 8210   0.152   5.896   1.509
 2437SOL    HW2 8211   0.173   5.743   1.563
 2438SOL     OW 8212   1.733   6.993   0.106
 2438SOL    HW1 8213   1.776   0.069   0.155
 2438SOL    HW2 8214   1.636   0.013   0.092
 2439SOL     OW 8215   1.413   5.657   0.491
 2439SOL    HW1 8216   1.404   5.648   0.392
 2439SOL    HW2 8217   1.508   5.641   0.517
 2440SOL     OW 8218   0.390   6.261   0.463
 2440SOL    HW1 8219   0.421   6.167   0.479
 2440SOL    HW2 8220   0.293   6.268   0.485
 2441SOL     OW 8221   1.482   5.794   1.708
 2441SOL    HW1 8222   1.493   5.810   1.806
 2441SOL    HW2 8223   1.423   5.715   1.693
 2442SOL     OW 8224   0.775   5.863   1.755
 2442SOL    HW1 8225   0.862   5.817   1.773
 2442SOL    HW2 8226   0.705   5.829   1.819
 2443SOL     OW 8227   1.279   6.184   1.439
 2443SOL    HW1 8228   1.318   6.143   1.522
 2443SOL    HW2 8229   1.324   6.271   1.420
 2444SOL     OW 8230   0.924   6.070   0.884
 2444SOL    HW1 8231   0.892   6.061   0.790
 2444SOL    HW2 8232   0.974   5.987   0.911
 2445SOL     OW 8233   0.550   5.697   0.529
 2445SOL    HW1 8234   0.457   5.693   0.567
 2445SOL    HW2 8235   0.551   5.761   0.452
 2446SOL     OW 8236   1.438   6.727   0.037
 2446SOL    HW1 8237   1.436   6.688   0.129
 2446SOL    HW2 8238   1.382   6.671   6.976
 2447SOL     OW 8239   0.973   5.809   0.512
 2447SOL    HW1 8240   0.948   5.846   0.423
 2447SOL    HW2 8241   1.070   5.824   0.528
 2448SOL     OW 8242   1.018   6.281   1.425
 2448SOL    HW1 8243   0.945   6.213   1.431
 2448SOL    HW2 8244   1.107   6.236   1.428
 2449SOL     OW 8245   1.409   0.009   0.689
 2449SOL    HW1 8246   1.334   0.070   0.666
 2449SOL    HW2 8247   1.408   6.990   0.787
 2450SOL     OW 8248   0.466   6.694   0.757
 2450SOL    HW1 8249   0.390   6.724   0.815
 2450SOL    HW2 8250   0.440   6.704   0.661
 2451SOL     OW 8251   0.968   6.176   0.024
 2451SOL    HW1 8252   0.883   6.138   0.059
 2451SOL    HW2 8253   1.042   6.157   0.089
 2452SOL     OW 8254   0.093   6.128   1.390
 2452SOL    HW1 8255   0.186   6.108   1.358
 2452SOL    HW2 8256   0.096   6.200   1.460
 2453SOL     OW 8257   0.551   5.729   1.201
 2453SOL    HW1 8258   0.588   5.653   1.254
 2453SOL    HW2 8259   0.454   5.741   1.223
 2454SOL     OW 8260   0.839   6.023   0.631
 2454SOL    HW1 8261   0.824   6.085   0.554
 2454SOL    HW2 8262   0.884   5.940   0.599
 2455SOL     OW 8263   1.059   5.665   0.750
 2455SOL    HW1 8264   1.018   5.700   0.666
 2455SOL    HW2 8265   0.999   5.595   0.790
 2456SOL     OW 8266   1.446   6.649   0.898
 2456SOL    HW1 8267   1.381   6.576   0.919
 2456SOL    HW2 8268   1.447   6.666   0.799
 2457SOL     OW 8269   1.454   6.215   0.957
 2457SOL    HW1 8270   1.393   6.136   0.965
 2457SOL    HW2 8271   1.523   6.211   1.029
 2458SOL     OW 8272   1.899   6.364   0.319
 2458SOL    HW1 8273   1.908   6.331   0.413
 2458SOL    HW2 8274   1.947   6.301   0.258
 2459SOL     OW 8275   1.804   6.839   0.702
 2459SOL    HW1 8276   1.902   6.842   0.685
 2459SOL    HW2 8277   1.765   6.930   0.689
 2460SOL     OW 8278   1.369   6.137   6.988
 2460SOL    HW1 8279   1.333   6.105   0.075
 2460SOL    HW2 8280   1.450   6.084   6.964
 2461SOL     OW 8281   0.565   5.863   0.310
 2461SOL    HW1 8282   0.628   5.824   0.243
 2461SOL    HW2 8283   0.500   5.923   0.265
 2462SOL     OW 8284   1.701   6.774   1.622
 2462SOL    HW1 8285   1.736   6.739   1.709
 2462SOL    HW2 8286   1.736   6.866   1.606
 2463SOL     OW 8287   1.025   6.883   1.264
 2463SOL    HW1 8288   0.936   6.875   1.308
 2463SOL    HW2 8289   1.097   6.861   1.329
 2464SOL     OW 8290   1.185   6.822   1.052
 2464SOL    HW1 8291   1.117   6.845   1.122
 2464SOL    HW2 8292   1.139   6.788   0.971
 2465SOL     OW 8293   1.628   6.653   1.102
 2465SOL    HW1 8294   1.615   6.722   1.173
 2465SOL    HW2 8295   1.550   6.655   1.039
 2466SOL     OW 8296   0.940   5.641   1.400
 2466SOL    HW1 8297   0.951   5.632   1.301
 2466SOL    HW2 8298   1.018   5.688   1.439
 2467SOL     OW 8299   0.938   6.671   1.803
 2467SOL    HW1 8300   0.846   6.704   1.821
 2467SOL    HW2 8301   0.935   6.601   1.732
 2468SOL     OW 8302   0.717   6.628   0.393
 2468SOL    HW1 8303   0.700   6.600   0.487
 2468SOL    HW2 8304   0.798   6.581   0.358
 2469SOL     OW 8305   0.407   6.362   1.239
 2469SOL    HW1 8306   0.476   6.391   1.305
 2469SOL    HW2 8307   0.373   6.272   1.264
 2470SOL     OW 8308   1.247   5.951   1.302
 2470SOL    HW1 8309   1.268   6.037   1.348
 2470SOL    HW2 8310   1.154   5.955   1.265
 2471SOL     OW 8311   0.108   0.158   1.374
 2471SOL    HW1 8312   0.025   0.207   1.348
 2471SOL    HW2 8313   0.149   0.202   1.454
 2472SOL     OW 8314   0.423   6.704   0.475
 2472SOL    HW1 8315   0.518   6.724   0.451
 2472SOL    HW2 8316   0.386   6.636   0.412
 2473SOL     OW 8317   0.476   6.088   0.819
 2473SOL    HW1 8318   0.478   6.176   0.772
 2473SOL    HW2 8319   0.551   6.083   0.885
 2474SOL     OW 8320   1.580   6.210   0.496
 2474SOL    HW1 8321   1.491   6.235   0.534
 2474SOL    HW2 8322   1.648   6.279   0.524
 2475SOL     OW 8323   0.503   6.294   1.627
 2475SOL    HW1 8324   0.543   6.337   1.546
 2475SOL    HW2 8325   0.567   6.227   1.664
 2476SOL     OW 8326   1.622   6.405   1.718
 2476SOL    HW1 8327   1.526   6.433   1.706
 2476SOL    HW2 8328   1.676   6.436   1.639
 2477SOL     OW 8329   0.993   5.714   1.831
 2477SOL    HW1 8330   1.059   5.777   1.791
 2477SOL    HW2 8331   1.040   5.647   1.887
 2478SOL     OW 8332   0.495   5.662   1.774
 2478SOL    HW1 8333   0.453   5.611   1.700
 2478SOL    HW2 8334   0.431   5.730   1.809
 2479SOL     OW 8335   0.630   6.373   1.075
 2479SOL    HW1 8336   0.635   6.465   1.038
 2479SOL    HW2 8337   0.549   6.364   1.134
 2480SOL     OW 8338   1.281   6.432   0.992
 2480SOL    HW1 8339   1.188   6.401   0.971
 2480SOL    HW2 8340   1.345   6.356   0.982
 2481SOL     OW 8341   1.167   6.092   0.223
 2481SOL    HW1 8342   1.242   6.029   0.243
 2481SOL    HW2 8343   1.159   6.158   0.298
 2482SOL     OW 8344   0.284   5.715   1.258
 2482SOL    HW1 8345   0.255   5.756   1.345
 2482SOL    HW2 8346   0.253   5.620   1.254
 2483SOL     OW 8347   0.136   6.898   1.301
 2483SOL    HW1 8348   0.166   6.835   1.372
 2483SOL    HW2 8349   0.121   6.989   1.340
 2484SOL     OW 8350   0.679   6.113   1.002
 2484SOL    HW1 8351   0.769   6.103   0.961
 2484SOL    HW2 8352   0.664   6.209   1.027
 2485SOL     OW 8353   1.756   6.612   1.853
 2485SOL    HW1 8354   1.714   6.530   1.814
 2485SOL    HW2 8355   1.716   6.631   1.942
 2486SOL     OW 8356   0.287   5.660   0.624
 2486SOL    HW1 8357   0.272   5.750   0.665
 2486SOL    HW2 8358   0.303   5.592   0.696
 2487SOL     OW 8359   1.621   6.006   0.321
 2487SOL    HW1 8360   1.676   5.935   0.365
 2487SOL    HW2 8361   1.606   6.081   0.385
 2488SOL     OW 8362   1.016   6.323   0.948
 2488SOL    HW1 8363   0.989   6.349   1.041
 2488SOL    HW2 8364   0.985   6.229   0.930
 2489SOL     OW 8365   1.948   0.043   1.553
 2489SOL    HW1 8366   1.988   0.134   1.549
 2489SOL    HW2 8367   1.979   6.997   1.637
 2490SOL     OW 8368   0.390   6.460   1.816
 2490SOL    HW1 8369   0.457   6.493   1.882
 2490SOL    HW2 8370   0.435   6.397   1.752
 2491SOL     OW 8371   1.383   5.913   0.211
 2491SOL    HW1 8372   1.381   5.814   0.223
 2491SOL    HW2 8373   1.468   5.950   0.249
 2492SOL     OW 8374   1.283   6.398   0.026
 2492SOL    HW1 8375   1.319   6.307   0.004
 2492SOL    HW2 8376   1.296   6.459   6.948
 2493SOL     OW 8377   0.319   6.428   0.910
 2493SOL    HW1 8378   0.390   6.404   0.844
 2493SOL    HW2 8379   0.344   6.391   1.000
 2494SOL     OW 8380   0.296   6.085   1.033
 2494SOL    HW1 8381   0.256   5.994   1.027
 2494SOL    HW2 8382   0.355   6.100   0.954
 2495SOL     OW 8383   1.120   5.934   1.715
 2495SOL    HW1 8384   1.072   5.989   1.784
 2495SOL    HW2 8385   1.206   5.979   1.692
 2496SOL     OW 8386   1.155   5.774   1.496
 2496SOL    HW1 8387   1.134   5.833   1.574
 2496SOL    HW2 8388   1.199   5.828   1.424
 2497SOL     OW 8389   6.925   6.858   0.158
 2497SOL    HW1 8390   6.900   6.915   0.236
 2497SOL    HW2 8391   6.997   6.794   0.185
 2498SOL     OW 8392   0.913   6.388   1.191
 2498SOL    HW1 8393   0.953   6.350   1.274
 2498SOL    HW2 8394   0.816   6.366   1.188
 2499SOL     OW 8395   0.054   6.201   1.121
 2499SOL    HW1 8396   0.140   6.169   1.080
 2499SOL    HW2 8397   0.056   6.186   1.219
 2500SOL     OW 8398   0.233   6.116   1.755
 2500SOL    HW1 8399   0.312   6.056   1.745
 2500SOL    HW2 8400   0.235   6.186   1.684
 2501SOL     OW 8401   1.375   6.503   1.643
 2501SOL    HW1 8402   1.384   6.603   1.644
 2501SOL    HW2 8403   1.372   6.471   1.548
 2502SOL     OW 8404   0.823   6.149   0.385
 2502SOL    HW1 8405   0.847   6.069   0.330
 2502SOL    HW2 8406   0.745   6.196   0.344
 2503SOL     OW 8407   1.643   6.182   1.150
 2503SOL    HW1 8408   1.625   6.103   1.208
 2503SOL    HW2 8409   1.742   6.191   1.135
 2504SOL     OW 8410   0.716   5.961   1.230
 2504SOL    HW1 8411   0.657   5.880   1.235
 2504SOL    HW2 8412   0.692   6.015   1.150
 2505SOL     OW 8413   0.380   6.038   0.212
 2505SOL    HW1 8414   0.364   6.133   0.186
 2505SOL    HW2 8415   0.303   6.005   0.266
 2506SOL     OW 8416   0.209   6.710   1.499
 2506SOL    HW1 8417   0.200   6.654   1.581
 2506SOL    HW2 8418   0.205   6.652   1.418
 2507SOL     OW 8419   1.288   6.613   1.199
 2507SOL    HW1 8420   1.287   6.539   1.132
 2507SOL    HW2 8421   1.261   6.698   1.155
 2508SOL     OW 8422   1.284   6.422   0.302
 2508SOL    HW1 8423   1.205   6.376   0.343
 2508SOL    HW2 8424   1.282   6.409   0.203
 2509SOL     OW 8425   0.048   6.904   1.048
 2509SOL    HW1 8426   0.084   6.893   1.140
 2509SOL    HW2 8427   6.958   6.860   1.041
 2510SOL     OW 8428   0.992   5.713   0.108
 2510SOL    HW1 8429   1.063   5.758   0.054
 2510SOL    HW2 8430   1.029   5.630   0.150
 2511SOL     OW 8431   1.783   5.807   0.430
 2511SOL    HW1 8432   1.845   5.773   0.359
 2511SOL    HW2 8433   1.741   5.729   0.477
 2512SOL     OW 8434   1.260   6.544   0.674
 2512SOL    HW1 8435   1.329   6.473   0.692
 2512SOL    HW2 8436   1.305   6.624   0.633
 2513SOL     OW 8437   0.774   6.848   1.372
 2513SOL    HW1 8438   0.733   6.890   1.452
 2513SOL    HW2 8439   0.707   6.844   1.298
 2514SOL     OW 8440   1.829   5.737   0.927
 2514SOL    HW1 8441   1.864   5.645   0.913
 2514SOL    HW2 8442   1.732   5.740   0.902
 2515SOL     OW 8443   0.264   5.896   0.762
 2515SOL    HW1 8444   0.336   5.966   0.767
 2515SOL    HW2 8445   0.242   5.866   0.855
 2516SOL     OW 8446   0.820   6.580   1.390
 2516SOL    HW1 8447   0.877   6.552   1.313
 2516SOL    HW2 8448   0.805   6.679   1.386
 2517SOL     OW 8449   0.926   6.495   0.294
 2517SOL    HW1 8450   0.970   6.520   0.208
 2517SOL    HW2 8451   0.981   6.425   0.341
 2518SOL     OW 8452   0.461   6.821   1.443
 2518SOL    HW1 8453   0.500   6.865   1.524
 2518SOL    HW2 8454   0.372   6.782   1.467
 2519SOL     OW 8455   1.645   6.844   1.303
 2519SOL    HW1 8456   1.744   6.837   1.313
 2519SOL    HW2 8457   1.608   6.898   1.379
 2520SOL     OW 8458   1.078   6.716   0.817
 2520SOL    HW1 8459   0.995   6.662   0.829
 2520SOL    HW2 8460   1.145   6.663   0.765
 2521SOL     OW 8461   1.058   5.832   0.968
 2521SOL    HW1 8462   1.072   5.786   0.880
 2521SOL    HW2 8463   1.039   5.764   1.039
 2522SOL     OW 8464   1.765   5.935   1.397
 2522SOL    HW1 8465   1.840   6.000   1.398
 2522SOL    HW2 8466   1.777   5.871   1.320
 2523SOL     OW 8467   0.154   6.544   1.713
 2523SOL    HW1 8468   0.097   6.602   1.771
 2523SOL    HW2 8469   0.237   6.518   1.763
 2524SOL     OW 8470   0.711   5.757   1.508
 2524SOL    HW1 8471   0.796   5.729   1.464
 2524SOL    HW2 8472   0.732   5.803   1.595
 2525SOL     OW 8473   0.127   6.020   6.991
 2525SOL    HW1 8474   0.051   6.056   6.937
 2525SOL    HW2 8475   0.212   6.067   6.964
 2526SOL     OW 8476   1.391   6.431   1.380
 2526SOL    HW1 8477   1.340   6.495   1.323
 2526SOL    HW2 8478   1.486   6.426   1.349
 2527SOL     OW 8479   0.084   5.749   0.438
 2527SOL    HW1 8480   0.126   5.838   0.424
 2527SOL    HW2 8481   0.137   5.696   0.504
 2528SOL     OW 8482   0.631   6.383   1.403
 2528SOL    HW1 8483   0.691   6.463   1.402
 2528SOL    HW2 8484   0.687   6.300   1.406
 2529SOL     OW 8485   0.721   6.132   1.706
 2529SOL    HW1 8486   0.774   6.194   1.765
 2529SOL    HW2 8487   0.743   6.037   1.728
 2530SOL     OW 8488   1.422   6.772   1.649
 2530SOL    HW1 8489   1.410   6.794   1.745
 2530SOL    HW2 8490   1.519   6.782   1.624
 2531SOL     OW 8491   1.640   6.437   1.269
 2531SOL    HW1 8492   1.648   6.349   1.222
 2531SOL    HW2 8493   1.643   6.510   1.201
 2532SOL     OW 8494   1.232   5.860   0.541
 2532SOL    HW1 8495   1.304   5.792   0.528
 2532SOL    HW2 8496   1.269   5.938   0.593
 2533SOL     OW 8497   0.500   6.339   0.704
 2533SOL    HW1 8498   0.573   6.406   0.693
 2533SOL    HW2 8499   0.457   6.322   0.615
 2534SOL     OW 8500   1.719   5.950   1.669
 2534SOL    HW1 8501   1.735   5.949   1.570
 2534SOL    HW2 8502   1.646   5.885   1.691
 2535SOL     OW 8503   1.745   6.522   1.508
 2535SOL    HW1 8504   1.730   6.619   1.528
 2535SOL    HW2 8505   1.708   6.500   1.417
 2536SOL     OW 8506   0.865   6.551   0.860
 2536SOL    HW1 8507   0.908   6.470   0.897
 2536SOL    HW2 8508   0.791   6.581   0.921
 2537SOL     OW 8509   1.051   6.543   0.059
 2537SOL    HW1 8510   1.014   6.559   6.968
 2537SOL    HW2 8511   1.136   6.491   0.053
 2538SOL     OW 8512   0.228   6.943   1.975
 2538SOL    HW1 8513   0.131   6.966   1.969
 2538SOL    HW2 8514   0.263   6.969   2.065
 2539SOL     OW 8515   0.218   6.890   0.510
 2539SOL    HW1 8516   0.132   6.839   0.508
 2539SOL    HW2 8517   0.294   6.826   0.502
 2540SOL     OW 8518   0.589   6.960   1.650
 2540SOL    HW1 8519   0.528   6.989   1.724
 2540SOL    HW2 8520   0.622   0.039   1.600
 2541SOL     OW 8521   1.762   5.754   1.195
 2541SOL    HW1 8522   1.777   5.657   1.214
 2541SOL    HW2 8523   1.789   5.773   1.100
 2542SOL     OW 8524   0.475   6.011   0.527
 2542SOL    HW1 8525   0.527   5.964   0.456
 2542SOL    HW2 8526   0.527   6.009   0.613
 2543SOL     OW 8527   1.606   0.036   1.113
 2543SOL    HW1 8528   1.544   0.002   1.043
 2543SOL    HW2 8529   1.617   6.966   1.184
 2544SOL     OW 8530   0.348   6.101   1.302
 2544SOL    HW1 8531   0.405   6.035   1.351
 2544SOL    HW2 8532   0.347   6.080   1.205
 2545SOL     OW 8533   1.468   5.867   1.157
 2545SOL    HW1 8534   1.538   5.817   1.208
 2545SOL    HW2 8535   1.392   5.888   1.218
 2546SOL     OW 8536   0.988   5.612   1.127
 2546SOL    HW1 8537   0.905   5.574   1.085
 2546SOL    HW2 8538   1.066   5.554   1.105
 2547SOL     OW 8539   0.848   6.878   0.329
 2547SOL    HW1 8540   0.805   6.791   0.354
 2547SOL    HW2 8541   0.856   6.935   0.410
 2548SOL     OW 8542   1.375   5.633   0.221
 2548SOL    HW1 8543   1.425   5.583   0.150
 2548SOL    HW2 8544   1.282   5.598   0.228
 2549SOL     OW 8545   1.309   6.072   0.699
 2549SOL    HW1 8546   1.255   6.156   0.687
 2549SOL    HW2 8547   1.301   6.041   0.794
 2550SOL     OW 8548   1.557   5.778   0.906
 2550SOL    HW1 8549   1.526   5.810   0.996
 2550SOL    HW2 8550   1.563   5.855   0.843
 2551SOL     OW 8551   0.097   6.646   0.241
 2551SOL    HW1 8552   0.194   6.621   0.253
 2551SOL    HW2 8553   0.042   6.563   0.241
 2552SOL     OW 8554   0.143   6.264   1.977
 2552SOL    HW1 8555   0.132   6.202   2.055
 2552SOL    HW2 8556   0.191   6.216   1.903
 2553SOL     OW 8557   0.203   5.808   2.868
 2553SOL    HW1 8558   0.251   5.770   2.947
 2553SOL    HW2 8559   0.105   5.790   2.878
 2554SOL     OW 8560   0.029   5.974   2.527
 2554SOL    HW1 8561   6.967   5.952   2.602
 2554SOL    HW2 8562   0.121   5.943   2.550
 2555SOL     OW 8563   0.563   6.817   3.044
 2555SOL    HW1 8564   0.513   6.879   2.983
 2555SOL    HW2 8565   0.517   6.814   3.133
 2556SOL     OW 8566   1.683   0.093   2.535
 2556SOL    HW1 8567   1.673   0.163   2.605
 2556SOL    HW2 8568   1.595   0.048   2.519
 2557SOL     OW 8569   1.097   6.323   2.523
 2557SOL    HW1 8570   1.145   6.409   2.508
 2557SOL    HW2 8571   1.055   6.323   2.614
 2558SOL     OW 8572   1.778   6.151   2.061
 2558SOL    HW1 8573   1.732   6.162   1.973
 2558SOL    HW2 8574   1.729   6.083   2.116
 2559SOL     OW 8575   0.633   6.640   2.835
 2559SOL    HW1 8576   0.616   6.700   2.913
 2559SOL    HW2 8577   0.586   6.676   2.754
 2560SOL     OW 8578   0.885   6.314   3.705
 2560SOL    HW1 8579   0.890   6.373   3.786
 2560SOL    HW2 8580   0.895   6.370   3.623
 2561SOL     OW 8581   0.681   6.548   2.481
 2561SOL    HW1 8582   0.756   6.547   2.546
 2561SOL    HW2 8583   0.613   6.616   2.510
 2562SOL     OW 8584   0.688   6.774   3.721
 2562SOL    HW1 8585   0.716   6.827   3.801
 2562SOL    HW2 8586   0.653   6.835   3.650
 2563SOL     OW 8587   0.415   6.977   2.877
 2563SOL    HW1 8588   0.358   6.921   2.816
 2563SOL    HW2 8589   0.444   0.059   2.829
 2564SOL     OW 8590   0.475   5.926   3.302
 2564SOL    HW1 8591   0.556   5.869   3.319
 2564SOL    HW2 8592   0.394   5.880   3.337
 2565SOL     OW 8593   1.608   6.056   2.595
 2565SOL    HW1 8594   1.589   6.093   2.504
 2565SOL    HW2 8595   1.561   6.111   2.664
 2566SOL     OW 8596   0.265   6.746   2.746
 2566SOL    HW1 8597   0.273   6.648   2.762
 2566SOL    HW2 8598   0.199   6.786   2.809
 2567SOL     OW 8599   0.559   6.569   2.005
 2567SOL    HW1 8600   0.593   6.632   1.935
 2567SOL    HW2 8601   0.616   6.577   2.087
 2568SOL     OW 8602   1.661   5.692   3.388
 2568SOL    HW1 8603   1.694   5.772   3.339
 2568SOL    HW2 8604   1.595   5.721   3.457
 2569SOL     OW 8605   0.098   6.219   2.424
 2569SOL    HW1 8606   0.064   6.134   2.464
 2569SOL    HW2 8607   0.083   6.295   2.487
 2570SOL     OW 8608   1.680   6.464   2.511
 2570SOL    HW1 8609   1.766   6.452   2.561
 2570SOL    HW2 8610   1.692   6.534   2.441
 2571SOL     OW 8611   1.713   6.690   2.345
 2571SOL    HW1 8612   1.791   6.670   2.286
 2571SOL    HW2 8613   1.742   6.751   2.419
 2572SOL     OW 8614   0.225   6.312   3.426
 2572SOL    HW1 8615   0.324   6.307   3.419
 2572SOL    HW2 8616   0.198   6.405   3.451
 2573SOL     OW 8617   1.231   6.777   3.280
 2573SOL    HW1 8618   1.265   6.710   3.214
 2573SOL    HW2 8619   1.290   6.778   3.360
 2574SOL     OW 8620   0.835   5.608   2.381
 2574SOL    HW1 8621   0.881   5.691   2.349
 2574SOL    HW2 8622   0.736   5.624   2.383
 2575SOL     OW 8623   0.202   6.576   3.126
 2575SOL    HW1 8624   0.262   6.500   3.099
 2575SOL    HW2 8625   0.117   6.570   3.074
 2576SOL     OW 8626   1.590   6.637   2.086
 2576SOL    HW1 8627   1.535   6.555   2.098
 2576SOL    HW2 8628   1.629   6.664   2.174
 2577SOL     OW 8629   0.333   5.853   3.750
 2577SOL    HW1 8630   0.356   5.932   3.806
 2577SOL    HW2 8631   0.235   5.855   3.726
 2578SOL     OW 8632   1.400   6.921   2.804
 2578SOL    HW1 8633   1.312   6.906   2.848
 2578SOL    HW2 8634   1.437   6.833   2.773
 2579SOL     OW 8635   0.536   6.277   2.131
 2579SOL    HW1 8636   0.544   6.365   2.085
 2579SOL    HW2 8637   0.474   6.286   2.209
 2580SOL     OW 8638   1.272   5.985   2.792
 2580SOL    HW1 8639   1.185   5.936   2.790
 2580SOL    HW2 8640   1.335   5.939   2.856
 2581SOL     OW 8641   0.766   6.148   3.284
 2581SOL    HW1 8642   0.744   6.124   3.379
 2581SOL    HW2 8643   0.742   6.071   3.225
 2582SOL     OW 8644   1.372   6.054   3.517
 2582SOL    HW1 8645   1.376   6.100   3.606
 2582SOL    HW2 8646   1.426   5.970   3.521
 2583SOL     OW 8647   0.918   6.458   3.465
 2583SOL    HW1 8648   0.973   6.390   3.418
 2583SOL    HW2 8649   0.869   6.514   3.398
 2584SOL     OW 8650   0.994   5.952   3.048
 2584SOL    HW1 8651   0.897   5.956   3.075
 2584SOL    HW2 8652   1.002   5.912   2.957
 2585SOL     OW 8653   1.017   6.273   2.262
 2585SOL    HW1 8654   1.042   6.287   2.358
 2585SOL    HW2 8655   0.926   6.231   2.256
 2586SOL     OW 8656   0.074   6.411   2.631
 2586SOL    HW1 8657   0.161   6.435   2.673
 2586SOL    HW2 8658   0.006   6.394   2.702
 2587SOL     OW 8659   0.841   5.932   2.072
 2587SOL    HW1 8660   0.901   5.977   2.006
 2587SOL    HW2 8661   0.790   5.859   2.026
 2588SOL     OW 8662   1.653   6.170   3.715
 2588SOL    HW1 8663   1.640   6.254   3.663
 2588SOL    HW2 8664   1.680   6.096   3.654
 2589SOL     OW 8665   1.464   6.722   2.476
 2589SOL    HW1 8666   1.544   6.703   2.419
 2589SOL    HW2 8667   1.453   6.821   2.487
 2590SOL     OW 8668   0.566   5.678   2.803
 2590SOL    HW1 8669   0.564   5.701   2.900
 2590SOL    HW2 8670   0.589   5.760   2.750
 2591SOL     OW 8671   1.823   6.675   2.771
 2591SOL    HW1 8672   1.793   6.733   2.695
 2591SOL    HW2 8673   1.747   6.664   2.836
 2592SOL     OW 8674   0.298   6.581   2.113
 2592SOL    HW1 8675   0.386   6.585   2.067
 2592SOL    HW2 8676   0.252   6.495   2.090
 2593SOL     OW 8677   1.442   6.353   2.559
 2593SOL    HW1 8678   1.443   6.300   2.644
 2593SOL    HW2 8679   1.530   6.400   2.548
 2594SOL     OW 8680   0.218   5.826   3.358
 2594SOL    HW1 8681   0.155   5.903   3.360
 2594SOL    HW2 8682   0.185   5.754   3.418
 2595SOL     OW 8683   1.624   6.967   1.999
 2595SOL    HW1 8684   1.595   0.063   1.998
 2595SOL    HW2 8685   1.549   6.909   1.968
 2596SOL     OW 8686   1.392   5.690   2.313
 2596SOL    HW1 8687   1.388   5.664   2.216
 2596SOL    HW2 8688   1.483   5.671   2.349
 2597SOL     OW 8689   0.363   6.254   2.345
 2597SOL    HW1 8690   0.392   6.160   2.358
 2597SOL    HW2 8691   0.264   6.261   2.361
 2598SOL     OW 8692   1.484   5.800   3.580
 2598SOL    HW1 8693   1.494   5.819   3.677
 2598SOL    HW2 8694   1.407   5.737   3.566
 2599SOL     OW 8695   0.673   5.714   1.978
 2599SOL    HW1 8696   0.738   5.639   1.989
 2599SOL    HW2 8697   0.602   5.686   1.913
 2600SOL     OW 8698   0.774   5.858   3.609
 2600SOL    HW1 8699   0.858   5.804   3.608
 2600SOL    HW2 8700   0.714   5.823   3.681
 2601SOL     OW 8701   1.269   6.179   3.295
 2601SOL    HW1 8702   1.311   6.142   3.378
 2601SOL    HW2 8703   1.313   6.265   3.271
 2602SOL     OW 8704   0.918   6.070   2.729
 2602SOL    HW1 8705   0.893   6.064   2.632
 2602SOL    HW2 8706   0.961   5.985   2.757
 2603SOL     OW 8707   0.566   5.650   2.369
 2603SOL    HW1 8708   0.490   5.646   2.433
 2603SOL    HW2 8709   0.552   5.727   2.306
 2604SOL     OW 8710   1.403   6.777   1.941
 2604SOL    HW1 8711   1.474   6.725   1.989
 2604SOL    HW2 8712   1.317   6.726   1.943
 2605SOL     OW 8713   0.261   5.632   2.068
 2605SOL    HW1 8714   0.289   5.706   2.005
 2605SOL    HW2 8715   0.342   5.584   2.100
 2606SOL     OW 8716   0.958   5.835   2.300
 2606SOL    HW1 8717   0.919   5.871   2.215
 2606SOL    HW2 8718   1.056   5.856   2.303
 2607SOL     OW 8719   1.009   6.279   3.268
 2607SOL    HW1 8720   0.934   6.213   3.276
 2607SOL    HW2 8721   1.096   6.231   3.275
 2608SOL     OW 8722   1.433   6.987   2.519
 2608SOL    HW1 8723   1.387   0.044   2.451
 2608SOL    HW2 8724   1.390   0.000   2.609
 2609SOL     OW 8725   0.479   6.713   2.568
 2609SOL    HW1 8726   0.405   6.729   2.634
 2609SOL    HW2 8727   0.446   6.734   2.476
 2610SOL     OW 8728   1.011   6.084   1.917
 2610SOL    HW1 8729   0.970   6.172   1.894
 2610SOL    HW2 8730   1.083   6.098   1.985
 2611SOL     OW 8731   0.084   6.118   3.256
 2611SOL    HW1 8732   0.178   6.112   3.222
 2611SOL    HW2 8733   0.080   6.185   3.331
 2612SOL     OW 8734   0.553   5.729   3.067
 2612SOL    HW1 8735   0.589   5.658   3.128
 2612SOL    HW2 8736   0.455   5.739   3.083
 2613SOL     OW 8737   0.851   6.030   2.469
 2613SOL    HW1 8738   0.805   6.088   2.402
 2613SOL    HW2 8739   0.894   5.953   2.423
 2614SOL     OW 8740   1.024   5.635   2.593
 2614SOL    HW1 8741   0.959   5.635   2.518
 2614SOL    HW2 8742   1.002   5.562   2.657
 2615SOL     OW 8743   1.450   6.652   2.749
 2615SOL    HW1 8744   1.385   6.579   2.769
 2615SOL    HW2 8745   1.461   6.661   2.650
 2616SOL     OW 8746   1.447   6.201   2.789
 2616SOL    HW1 8747   1.380   6.127   2.797
 2616SOL    HW2 8748   1.514   6.195   2.863
 2617SOL     OW 8749   1.808   6.372   2.221
 2617SOL    HW1 8750   1.866   6.340   2.296
 2617SOL    HW2 8751   1.799   6.299   2.153
 2618SOL     OW 8752   1.800   6.846   2.552
 2618SOL    HW1 8753   1.899   6.847   2.542
 2618SOL    HW2 8754   1.764   6.939   2.544
 2619SOL     OW 8755   1.366   6.153   1.909
 2619SOL    HW1 8756   1.323   6.124   1.994
 2619SOL    HW2 8757   1.466   6.144   1.917
 2620SOL     OW 8758   0.527   5.840   2.178
 2620SOL    HW1 8759   0.585   5.796   2.110
 2620SOL    HW2 8760   0.477   5.915   2.135
 2621SOL     OW 8761   1.676   6.731   3.482
 2621SOL    HW1 8762   1.719   6.706   3.569
 2621SOL    HW2 8763   1.688   6.829   3.466
 2622SOL     OW 8764   1.027   6.884   3.128
 2622SOL    HW1 8765   0.937   6.873   3.169
 2622SOL    HW2 8766   1.098   6.855   3.192
 2623SOL     OW 8767   1.176   6.810   2.912
 2623SOL    HW1 8768   1.110   6.837   2.981
 2623SOL    HW2 8769   1.128   6.777   2.830
 2624SOL     OW 8770   1.626   6.657   2.963
 2624SOL    HW1 8771   1.614   6.726   3.034
 2624SOL    HW2 8772   1.550   6.662   2.898
 2625SOL     OW 8773   0.936   5.642   3.243
 2625SOL    HW1 8774   0.952   5.623   3.146
 2625SOL    HW2 8775   1.017   5.686   3.282
 2626SOL     OW 8776   0.937   6.665   3.649
 2626SOL    HW1 8777   0.845   6.697   3.671
 2626SOL    HW2 8778   0.932   6.595   3.579
 2627SOL     OW 8779   0.734   6.610   2.209
 2627SOL    HW1 8780   0.721   6.584   2.305
 2627SOL    HW2 8781   0.815   6.563   2.172
 2628SOL     OW 8782   0.407   6.375   3.088
 2628SOL    HW1 8783   0.475   6.402   3.157
 2628SOL    HW2 8784   0.370   6.285   3.111
 2629SOL     OW 8785   1.243   5.949   3.151
 2629SOL    HW1 8786   1.260   6.034   3.201
 2629SOL    HW2 8787   1.151   5.950   3.112
 2630SOL     OW 8788   0.139   0.204   3.268
 2630SOL    HW1 8789   0.054   0.254   3.254
 2630SOL    HW2 8790   0.187   0.242   3.347
 2631SOL     OW 8791   0.351   6.765   2.318
 2631SOL    HW1 8792   0.364   6.849   2.266
 2631SOL    HW2 8793   0.335   6.689   2.254
 2632SOL     OW 8794   0.448   6.118   2.709
 2632SOL    HW1 8795   0.455   6.199   2.651
 2632SOL    HW2 8796   0.532   6.107   2.762
 2633SOL     OW 8797   1.567   6.209   2.354
 2633SOL    HW1 8798   1.502   6.257   2.413
 2633SOL    HW2 8799   1.636   6.273   2.321
 2634SOL     OW 8800   0.504   6.290   3.484
 2634SOL    HW1 8801   0.542   6.334   3.403
 2634SOL    HW2 8802   0.568   6.222   3.519
 2635SOL     OW 8803   1.615   6.397   3.575
 2635SOL    HW1 8804   1.519   6.422   3.559
 2635SOL    HW2 8805   1.669   6.419   3.494
 2636SOL     OW 8806   0.995   5.702   3.616
 2636SOL    HW1 8807   1.056   5.781   3.607
 2636SOL    HW2 8808   1.044   5.619   3.590
 2637SOL     OW 8809   0.495   5.656   3.647
 2637SOL    HW1 8810   0.450   5.601   3.577
 2637SOL    HW2 8811   0.436   5.732   3.674
 2638SOL     OW 8812   0.645   6.383   2.939
 2638SOL    HW1 8813   0.645   6.474   2.896
 2638SOL    HW2 8814   0.562   6.372   2.993
 2639SOL     OW 8815   1.284   6.428   2.837
 2639SOL    HW1 8816   1.190   6.402   2.816
 2639SOL    HW2 8817   1.345   6.349   2.826
 2640SOL     OW 8818   1.195   6.112   2.126
 2640SOL    HW1 8819   1.213   6.033   2.185
 2640SOL    HW2 8820   1.138   6.178   2.175
 2641SOL     OW 8821   0.284   5.711   3.113
 2641SOL    HW1 8822   0.258   5.756   3.199
 2641SOL    HW2 8823   0.252   5.617   3.114
 2642SOL     OW 8824   0.130   6.950   3.165
 2642SOL    HW1 8825   0.155   6.877   3.228
 2642SOL    HW2 8826   0.130   0.037   3.215
 2643SOL     OW 8827   0.679   6.122   2.858
 2643SOL    HW1 8828   0.765   6.106   2.810
 2643SOL    HW2 8829   0.673   6.218   2.885
 2644SOL     OW 8830   1.750   6.593   3.719
 2644SOL    HW1 8831   1.707   6.514   3.675
 2644SOL    HW2 8832   1.702   6.613   3.804
 2645SOL     OW 8833   0.338   5.644   2.524
 2645SOL    HW1 8834   0.314   5.736   2.553
 2645SOL    HW2 8835   0.343   5.584   2.604
 2646SOL     OW 8836   1.604   5.984   2.197
 2646SOL    HW1 8837   1.659   5.921   2.252
 2646SOL    HW2 8838   1.574   6.060   2.254
 2647SOL     OW 8839   1.012   6.325   2.792
 2647SOL    HW1 8840   0.987   6.353   2.885
 2647SOL    HW2 8841   0.983   6.231   2.777
 2648SOL     OW 8842   1.922   0.033   3.473
 2648SOL    HW1 8843   1.988   0.104   3.446
 2648SOL    HW2 8844   1.957   6.984   3.553
 2649SOL     OW 8845   0.396   6.468   3.665
 2649SOL    HW1 8846   0.461   6.498   3.736
 2649SOL    HW2 8847   0.441   6.401   3.605
 2650SOL     OW 8848   1.509   5.843   1.974
 2650SOL    HW1 8849   1.458   5.764   2.009
 2650SOL    HW2 8850   1.541   5.899   2.051
 2651SOL     OW 8851   1.275   6.406   1.874
 2651SOL    HW1 8852   1.296   6.309   1.880
 2651SOL    HW2 8853   1.304   6.441   1.785
 2652SOL     OW 8854   0.316   6.470   2.763
 2652SOL    HW1 8855   0.380   6.435   2.695
 2652SOL    HW2 8856   0.342   6.436   2.854
 2653SOL     OW 8857   0.262   6.072   2.905
 2653SOL    HW1 8858   0.234   5.977   2.890
 2653SOL    HW2 8859   0.325   6.099   2.832
 2654SOL     OW 8860   1.131   5.934   3.562
 2654SOL    HW1 8861   1.082   5.985   3.633
 2654SOL    HW2 8862   1.216   5.982   3.539
 2655SOL     OW 8863   1.163   5.764   3.343
 2655SOL    HW1 8864   1.143   5.823   3.420
 2655SOL    HW2 8865   1.203   5.818   3.269
 2656SOL     OW 8866   6.952   6.984   2.095
 2656SOL    HW1 8867   6.878   6.996   2.162
 2656SOL    HW2 8868   6.993   6.893   2.107
 2657SOL     OW 8869   0.916   6.398   3.035
 2657SOL    HW1 8870   0.950   6.354   3.118
 2657SOL    HW2 8871   0.818   6.380   3.025
 2658SOL     OW 8872   0.030   6.200   2.991
 2658SOL    HW1 8873   0.110   6.159   2.948
 2658SOL    HW2 8874   0.033   6.186   3.090
 2659SOL     OW 8875   0.240   6.141   3.635
 2659SOL    HW1 8876   0.321   6.082   3.632
 2659SOL    HW2 8877   0.240   6.203   3.557
 2660SOL     OW 8878   1.367   6.487   3.494
 2660SOL    HW1 8879   1.369   6.587   3.497
 2660SOL    HW2 8880   1.366   6.456   3.399
 2661SOL     OW 8881   0.770   6.151   2.228
 2661SOL    HW1 8882   0.787   6.071   2.171
 2661SOL    HW2 8883   0.688   6.199   2.196
 2662SOL     OW 8884   1.633   6.171   2.989
 2662SOL    HW1 8885   1.605   6.092   3.045
 2662SOL    HW2 8886   1.733   6.174   2.985
 2663SOL     OW 8887   0.718   5.961   3.082
 2663SOL    HW1 8888   0.658   5.881   3.088
 2663SOL    HW2 8889   0.692   6.016   3.003
 2664SOL     OW 8890   0.389   6.045   2.062
 2664SOL    HW1 8891   0.446   6.127   2.071
 2664SOL    HW2 8892   0.301   6.060   2.107
 2665SOL     OW 8893   0.205   6.732   3.341
 2665SOL    HW1 8894   0.202   6.672   3.421
 2665SOL    HW2 8895   0.205   6.677   3.257
 2666SOL     OW 8896   1.288   6.603   3.052
 2666SOL    HW1 8897   1.290   6.531   2.982
 2666SOL    HW2 8898   1.255   6.688   3.010
 2667SOL     OW 8899   1.419   6.429   2.112
 2667SOL    HW1 8900   1.395   6.353   2.173
 2667SOL    HW2 8901   1.364   6.423   2.029
 2668SOL     OW 8902   0.086   6.870   2.908
 2668SOL    HW1 8903   0.112   6.891   3.003
 2668SOL    HW2 8904   6.988   6.854   2.903
 2669SOL     OW 8905   1.774   5.814   2.330
 2669SOL    HW1 8906   1.824   5.786   2.248
 2669SOL    HW2 8907   1.726   5.735   2.368
 2670SOL     OW 8908   1.257   6.548   2.520
 2670SOL    HW1 8909   1.317   6.469   2.537
 2670SOL    HW2 8910   1.311   6.624   2.484
 2671SOL     OW 8911   0.772   6.847   3.222
 2671SOL    HW1 8912   0.730   6.893   3.300
 2671SOL    HW2 8913   0.706   6.843   3.146
 2672SOL     OW 8914   1.846   5.735   2.825
 2672SOL    HW1 8915   1.870   5.641   2.800
 2672SOL    HW2 8916   1.758   5.759   2.783
 2673SOL     OW 8917   0.294   5.899   2.625
 2673SOL    HW1 8918   0.349   5.980   2.646
 2673SOL    HW2 8919   0.259   5.859   2.710
 2674SOL     OW 8920   1.272   0.157   1.855
 2674SOL    HW1 8921   1.262   0.097   1.935
 2674SOL    HW2 8922   1.189   0.152   1.800
 2675SOL     OW 8923   0.817   6.579   3.240
 2675SOL    HW1 8924   0.875   6.551   3.164
 2675SOL    HW2 8925   0.802   6.678   3.236
 2676SOL     OW 8926   0.950   6.478   2.088
 2676SOL    HW1 8927   1.025   6.538   2.060
 2676SOL    HW2 8928   0.985   6.408   2.150
 2677SOL     OW 8929   0.463   6.837   3.301
 2677SOL    HW1 8930   0.500   6.874   3.386
 2677SOL    HW2 8931   0.371   6.801   3.317
 2678SOL     OW 8932   1.646   6.854   3.168
 2678SOL    HW1 8933   1.745   6.853   3.156
 2678SOL    HW2 8934   1.624   6.893   3.258
 2679SOL     OW 8935   1.074   6.710   2.671
 2679SOL    HW1 8936   0.990   6.657   2.675
 2679SOL    HW2 8937   1.143   6.660   2.617
 2680SOL     OW 8938   1.040   5.820   2.803
 2680SOL    HW1 8939   1.040   5.777   2.713
 2680SOL    HW2 8940   1.039   5.749   2.874
 2681SOL     OW 8941   1.780   5.929   3.286
 2681SOL    HW1 8942   1.847   6.003   3.279
 2681SOL    HW2 8943   1.794   5.864   3.210
 2682SOL     OW 8944   0.166   6.555   3.554
 2682SOL    HW1 8945   0.106   6.609   3.614
 2682SOL    HW2 8946   0.250   6.531   3.604
 2683SOL     OW 8947   0.709   5.766   3.357
 2683SOL    HW1 8948   0.793   5.735   3.312
 2683SOL    HW2 8949   0.731   5.804   3.447
 2684SOL     OW 8950   0.052   5.848   1.843
 2684SOL    HW1 8951   6.986   5.783   1.880
 2684SOL    HW2 8952   0.004   5.931   1.814
 2685SOL     OW 8953   1.388   6.420   3.231
 2685SOL    HW1 8954   1.337   6.485   3.174
 2685SOL    HW2 8955   1.482   6.414   3.199
 2686SOL     OW 8956   0.043   5.793   2.160
 2686SOL    HW1 8957   6.981   5.754   2.092
 2686SOL    HW2 8958   0.130   5.744   2.157
 2687SOL     OW 8959   0.626   6.385   3.259
 2687SOL    HW1 8960   0.687   6.463   3.256
 2687SOL    HW2 8961   0.679   6.300   3.260
 2688SOL     OW 8962   0.719   6.127   3.561
 2688SOL    HW1 8963   0.774   6.187   3.619
 2688SOL    HW2 8964   0.740   6.031   3.582
 2689SOL     OW 8965   1.402   6.757   3.506
 2689SOL    HW1 8966   1.389   6.782   3.602
 2689SOL    HW2 8967   1.500   6.753   3.486
 2690SOL     OW 8968   1.635   6.427   3.113
 2690SOL    HW1 8969   1.642   6.342   3.061
 2690SOL    HW2 8970   1.639   6.505   3.051
 2691SOL     OW 8971   1.222   5.909   2.311
 2691SOL    HW1 8972   1.288   5.834   2.315
 2691SOL    HW2 8973   1.232   5.967   2.392
 2692SOL     OW 8974   0.483   6.360   2.567
 2692SOL    HW1 8975   0.561   6.417   2.543
 2692SOL    HW2 8976   0.437   6.329   2.484
 2693SOL     OW 8977   1.720   5.959   3.553
 2693SOL    HW1 8978   1.741   5.955   3.455
 2693SOL    HW2 8979   1.646   5.895   3.573
 2694SOL     OW 8980   1.742   6.492   3.357
 2694SOL    HW1 8981   1.723   6.587   3.382
 2694SOL    HW2 8982   1.707   6.473   3.265
 2695SOL     OW 8983   0.856   6.546   2.696
 2695SOL    HW1 8984   0.901   6.466   2.736
 2695SOL    HW2 8985   0.786   6.580   2.759
 2696SOL     OW 8986   1.162   6.639   1.954
 2696SOL    HW1 8987   1.082   6.662   1.897
 2696SOL    HW2 8988   1.198   6.551   1.925
 2697SOL     OW 8989   0.223   6.954   3.880
 2697SOL    HW1 8990   0.124   6.946   3.877
 2697SOL    HW2 8991   0.249   0.013   3.956
 2698SOL     OW 8992   0.185   6.876   2.512
 2698SOL    HW1 8993   0.193   6.826   2.598
 2698SOL    HW2 8994   0.223   6.821   2.438
 2699SOL     OW 8995   0.581   6.961   3.526
 2699SOL    HW1 8996   0.521   6.991   3.599
 2699SOL    HW2 8997   0.615   0.040   3.475
 2700SOL     OW 8998   1.816   5.740   3.098
 2700SOL    HW1 8999   1.839   5.645   3.122
 2700SOL    HW2 9000   1.828   5.753   3.000
 2701SOL     OW 9001   0.424   5.996   2.388
 2701SOL    HW1 9002   0.470   5.934   2.324
 2701SOL    HW2 9003   0.378   5.943   2.458
 2702SOL     OW 9004   1.546   0.046   3.001
 2702SOL    HW1 9005   1.496   0.007   2.924
 2702SOL    HW2 9006   1.573   6.972   3.064
 2703SOL     OW 9007   0.340   6.118   3.161
 2703SOL    HW1 9008   0.399   6.053   3.208
 2703SOL    HW2 9009   0.324   6.087   3.067
 2704SOL     OW 9010   1.434   5.861   2.974
 2704SOL    HW1 9011   1.460   5.766   2.988
 2704SOL    HW2 9012   1.372   5.890   3.047
 2705SOL     OW 9013   1.028   5.595   2.968
 2705SOL    HW1 9014   0.981   5.528   2.911
 2705SOL    HW2 9015   1.122   5.565   2.984
 2706SOL     OW 9016   0.699   6.882   2.129
 2706SOL    HW1 9017   0.719   6.788   2.156
 2706SOL    HW2 9018   0.672   6.934   2.210
 2707SOL     OW 9019   1.374   5.614   2.049
 2707SOL    HW1 9020   1.426   5.541   2.004
 2707SOL    HW2 9021   1.277   5.599   2.034
 2708SOL     OW 9022   1.234   6.073   2.526
 2708SOL    HW1 9023   1.189   6.162   2.524
 2708SOL    HW2 9024   1.252   6.047   2.621
 2709SOL     OW 9025   1.597   5.815   2.748
 2709SOL    HW1 9026   1.541   5.847   2.825
 2709SOL    HW2 9027   1.600   5.887   2.678
 2710SOL     OW 9028   0.054   6.723   2.128
 2710SOL    HW1 9029   0.150   6.696   2.122
 2710SOL    HW2 9030   6.997   6.642   2.141
 2711SOL     OW 9031   0.167   6.300   3.855
 2711SOL    HW1 9032   0.147   6.235   3.929
 2711SOL    HW2 9033   0.208   6.251   3.778
 2712SOL     OW 9034   0.200   5.826   4.730
 2712SOL    HW1 9035   0.250   5.792   4.810
 2712SOL    HW2 9036   0.103   5.807   4.741
 2713SOL     OW 9037   0.027   5.988   4.391
 2713SOL    HW1 9038   6.964   5.964   4.465
 2713SOL    HW2 9039   0.118   5.954   4.414
 2714SOL     OW 9040   0.590   6.824   4.916
 2714SOL    HW1 9041   0.529   6.876   4.855
 2714SOL    HW2 9042   0.548   6.817   5.006
 2715SOL     OW 9043   1.613   0.118   4.412
 2715SOL    HW1 9044   1.636   0.167   4.496
 2715SOL    HW2 9045   1.513   0.109   4.405
 2716SOL     OW 9046   1.106   6.335   4.386
 2716SOL    HW1 9047   1.154   6.423   4.375
 2716SOL    HW2 9048   1.057   6.335   4.473
 2717SOL     OW 9049   1.793   6.172   3.945
 2717SOL    HW1 9050   1.750   6.185   3.856
 2717SOL    HW2 9051   1.750   6.095   3.993
 2718SOL     OW 9052   0.643   6.641   4.698
 2718SOL    HW1 9053   0.626   6.702   4.776
 2718SOL    HW2 9054   0.587   6.668   4.620
 2719SOL     OW 9055   0.890   6.315   5.566
 2719SOL    HW1 9056   0.897   6.373   5.647
 2719SOL    HW2 9057   0.902   6.371   5.484
 2720SOL     OW 9058   0.697   6.550   4.341
 2720SOL    HW1 9059   0.774   6.554   4.405
 2720SOL    HW2 9060   0.625   6.612   4.371
 2721SOL     OW 9061   0.708   6.782   5.585
 2721SOL    HW1 9062   0.735   6.838   5.664
 2721SOL    HW2 9063   0.673   6.841   5.513
 2722SOL     OW 9064   0.423   6.955   4.744
 2722SOL    HW1 9065   0.379   6.883   4.692
 2722SOL    HW2 9066   0.445   0.031   4.683
 2723SOL     OW 9067   0.470   5.937   5.170
 2723SOL    HW1 9068   0.550   5.878   5.184
 2723SOL    HW2 9069   0.387   5.890   5.201
 2724SOL     OW 9070   1.597   6.045   4.460
 2724SOL    HW1 9071   1.574   6.079   4.369
 2724SOL    HW2 9072   1.551   6.100   4.530
 2725SOL     OW 9073   0.300   6.726   4.636
 2725SOL    HW1 9074   0.298   6.626   4.638
 2725SOL    HW2 9075   0.207   6.760   4.649
 2726SOL     OW 9076   0.554   6.572   3.868
 2726SOL    HW1 9077   0.588   6.636   3.799
 2726SOL    HW2 9078   0.608   6.582   3.952
 2727SOL     OW 9079   1.575   5.730   5.176
 2727SOL    HW1 9080   1.634   5.803   5.143
 2727SOL    HW2 9081   1.533   5.758   5.263
 2728SOL     OW 9082   0.098   6.231   4.285
 2728SOL    HW1 9083   0.065   6.146   4.327
 2728SOL    HW2 9084   0.075   6.308   4.345
 2729SOL     OW 9085   1.676   6.499   4.350
 2729SOL    HW1 9086   1.726   6.439   4.288
 2729SOL    HW2 9087   1.665   6.589   4.308
 2730SOL     OW 9088   1.674   6.721   4.181
 2730SOL    HW1 9089   1.751   6.685   4.129
 2730SOL    HW2 9090   1.706   6.791   4.244
 2731SOL     OW 9091   0.235   6.310   5.301
 2731SOL    HW1 9092   0.335   6.310   5.302
 2731SOL    HW2 9093   0.201   6.398   5.336
 2732SOL     OW 9094   1.302   6.780   5.113
 2732SOL    HW1 9095   1.287   6.691   5.070
 2732SOL    HW2 9096   1.327   6.767   5.209
 2733SOL     OW 9097   0.845   5.620   4.231
 2733SOL    HW1 9098   0.887   5.706   4.201
 2733SOL    HW2 9099   0.747   5.632   4.241
 2734SOL     OW 9100   0.191   6.629   4.983
 2734SOL    HW1 9101   0.255   6.555   4.962
 2734SOL    HW2 9102   0.103   6.611   4.938
 2735SOL     OW 9103   1.566   6.632   3.936
 2735SOL    HW1 9104   1.510   6.551   3.955
 2735SOL    HW2 9105   1.596   6.673   4.022
 2736SOL     OW 9106   0.319   5.852   5.628
 2736SOL    HW1 9107   0.352   5.931   5.680
 2736SOL    HW2 9108   0.221   5.860   5.613
 2737SOL     OW 9109   1.474   6.996   4.668
 2737SOL    HW1 9110   1.419   0.044   4.600
 2737SOL    HW2 9111   1.477   6.898   4.646
 2738SOL     OW 9112   0.538   6.288   3.993
 2738SOL    HW1 9113   0.545   6.377   3.948
 2738SOL    HW2 9114   0.476   6.295   4.071
 2739SOL     OW 9115   1.272   5.983   4.651
 2739SOL    HW1 9116   1.183   5.938   4.644
 2739SOL    HW2 9117   1.329   5.934   4.717
 2740SOL     OW 9118   0.768   6.156   5.149
 2740SOL    HW1 9119   0.744   6.132   5.243
 2740SOL    HW2 9120   0.745   6.080   5.088
 2741SOL     OW 9121   1.368   6.048   5.377
 2741SOL    HW1 9122   1.376   6.095   5.464
 2741SOL    HW2 9123   1.416   5.961   5.381
 2742SOL     OW 9124   0.926   6.461   5.325
 2742SOL    HW1 9125   0.978   6.391   5.277
 2742SOL    HW2 9126   0.879   6.519   5.259
 2743SOL     OW 9127   0.995   5.952   4.905
 2743SOL    HW1 9128   0.899   5.958   4.933
 2743SOL    HW2 9129   1.001   5.912   4.814
 2744SOL     OW 9130   1.024   6.280   4.123
 2744SOL    HW1 9131   1.048   6.296   4.219
 2744SOL    HW2 9132   0.933   6.239   4.118
 2745SOL     OW 9133   0.058   6.423   4.496
 2745SOL    HW1 9134   0.150   6.436   4.532
 2745SOL    HW2 9135   6.995   6.404   4.572
 2746SOL     OW 9136   0.844   5.942   3.927
 2746SOL    HW1 9137   0.904   5.982   3.858
 2746SOL    HW2 9138   0.792   5.867   3.886
 2747SOL     OW 9139   1.661   6.151   5.548
 2747SOL    HW1 9140   1.662   6.235   5.493
 2747SOL    HW2 9141   1.685   6.073   5.491
 2748SOL     OW 9142   1.431   6.784   4.321
 2748SOL    HW1 9143   1.511   6.762   4.266
 2748SOL    HW2 9144   1.404   6.878   4.305
 2749SOL     OW 9145   0.585   5.676   4.668
 2749SOL    HW1 9146   0.578   5.703   4.764
 2749SOL    HW2 9147   0.612   5.754   4.613
 2750SOL     OW 9148   1.747   6.490   4.617
 2750SOL    HW1 9149   1.714   6.503   4.524
 2750SOL    HW2 9150   1.709   6.562   4.676
 2751SOL     OW 9151   0.281   6.539   3.965
 2751SOL    HW1 9152   0.368   6.558   3.920
 2751SOL    HW2 9153   0.243   6.454   3.928
 2752SOL     OW 9154   1.446   6.371   4.427
 2752SOL    HW1 9155   1.451   6.315   4.510
 2752SOL    HW2 9156   1.533   6.418   4.413
 2753SOL     OW 9157   0.206   5.842   5.220
 2753SOL    HW1 9158   0.144   5.920   5.210
 2753SOL    HW2 9159   0.164   5.773   5.279
 2754SOL     OW 9160   1.600   6.961   3.840
 2754SOL    HW1 9161   1.577   0.058   3.843
 2754SOL    HW2 9162   1.520   6.909   3.811
 2755SOL     OW 9163   1.398   5.698   4.187
 2755SOL    HW1 9164   1.396   5.672   4.091
 2755SOL    HW2 9165   1.487   5.674   4.226
 2756SOL     OW 9166   0.364   6.261   4.206
 2756SOL    HW1 9167   0.389   6.165   4.217
 2756SOL    HW2 9168   0.266   6.272   4.223
 2757SOL     OW 9169   1.474   5.795   5.431
 2757SOL    HW1 9170   1.486   5.819   5.527
 2757SOL    HW2 9171   1.411   5.717   5.424
 2758SOL     OW 9172   0.681   5.719   3.840
 2758SOL    HW1 9173   0.745   5.645   3.857
 2758SOL    HW2 9174   0.608   5.688   3.779
 2759SOL     OW 9175   0.772   5.859   5.470
 2759SOL    HW1 9176   0.856   5.805   5.471
 2759SOL    HW2 9177   0.711   5.826   5.542
 2760SOL     OW 9178   1.274   6.178   5.155
 2760SOL    HW1 9179   1.312   6.138   5.238
 2760SOL    HW2 9180   1.325   6.261   5.132
 2761SOL     OW 9181   0.909   6.071   4.589
 2761SOL    HW1 9182   0.885   6.068   4.491
 2761SOL    HW2 9183   0.952   5.984   4.615
 2762SOL     OW 9184   0.574   5.663   4.233
 2762SOL    HW1 9185   0.497   5.658   4.296
 2762SOL    HW2 9186   0.560   5.739   4.169
 2763SOL     OW 9187   1.382   6.774   3.792
 2763SOL    HW1 9188   1.454   6.722   3.838
 2763SOL    HW2 9189   1.296   6.723   3.796
 2764SOL     OW 9190   0.277   5.653   3.933
 2764SOL    HW1 9191   0.309   5.724   3.871
 2764SOL    HW2 9192   0.355   5.600   3.968
 2765SOL     OW 9193   0.963   5.855   4.159
 2765SOL    HW1 9194   0.926   5.887   4.072
 2765SOL    HW2 9195   1.062   5.871   4.161
 2766SOL     OW 9196   1.014   6.281   5.128
 2766SOL    HW1 9197   0.939   6.216   5.138
 2766SOL    HW2 9198   1.101   6.233   5.134
 2767SOL     OW 9199   1.329   0.121   4.471
 2767SOL    HW1 9200   1.240   0.085   4.444
 2767SOL    HW2 9201   1.320   0.218   4.493
 2768SOL     OW 9202   0.488   6.696   4.441
 2768SOL    HW1 9203   0.416   6.717   4.507
 2768SOL    HW2 9204   0.449   6.696   4.349
 2769SOL     OW 9205   1.021   6.081   3.766
 2769SOL    HW1 9206   0.977   6.169   3.743
 2769SOL    HW2 9207   1.090   6.096   3.837
 2770SOL     OW 9208   0.089   6.127   5.122
 2770SOL    HW1 9209   0.182   6.123   5.086
 2770SOL    HW2 9210   0.086   6.192   5.198
 2771SOL     OW 9211   0.559   5.739   4.930
 2771SOL    HW1 9212   0.587   5.665   4.990
 2771SOL    HW2 9213   0.462   5.758   4.942
 2772SOL     OW 9214   0.851   6.044   4.326
 2772SOL    HW1 9215   0.805   6.101   4.258
 2772SOL    HW2 9216   0.895   5.967   4.281
 2773SOL     OW 9217   1.020   5.630   4.446
 2773SOL    HW1 9218   0.958   5.626   4.368
 2773SOL    HW2 9219   0.997   5.556   4.510
 2774SOL     OW 9220   1.460   6.730   4.606
 2774SOL    HW1 9221   1.369   6.729   4.649
 2774SOL    HW2 9222   1.449   6.735   4.506
 2775SOL     OW 9223   1.454   6.196   4.647
 2775SOL    HW1 9224   1.389   6.121   4.661
 2775SOL    HW2 9225   1.521   6.196   4.722
 2776SOL     OW 9226   1.800   6.346   4.155
 2776SOL    HW1 9227   1.873   6.313   4.214
 2776SOL    HW2 9228   1.798   6.292   4.071
 2777SOL     OW 9229   1.765   6.893   4.359
 2777SOL    HW1 9230   1.864   6.899   4.375
 2777SOL    HW2 9231   1.721   6.978   4.390
 2778SOL     OW 9232   1.375   6.152   3.771
 2778SOL    HW1 9233   1.328   6.123   3.854
 2778SOL    HW2 9234   1.474   6.145   3.785
 2779SOL     OW 9235   0.532   5.849   4.038
 2779SOL    HW1 9236   0.590   5.804   3.971
 2779SOL    HW2 9237   0.483   5.925   3.994
 2780SOL     OW 9238   1.703   6.769   5.314
 2780SOL    HW1 9239   1.719   6.715   5.396
 2780SOL    HW2 9240   1.766   6.847   5.313
 2781SOL     OW 9241   1.094   6.883   4.952
 2781SOL    HW1 9242   1.007   6.857   4.995
 2781SOL    HW2 9243   1.169   6.865   5.015
 2782SOL     OW 9244   1.217   6.770   4.732
 2782SOL    HW1 9245   1.173   6.824   4.803
 2782SOL    HW2 9246   1.159   6.766   4.652
 2783SOL     OW 9247   1.649   6.685   4.799
 2783SOL    HW1 9248   1.629   6.736   4.883
 2783SOL    HW2 9249   1.579   6.705   4.730
 2784SOL     OW 9250   0.930   5.643   5.101
 2784SOL    HW1 9251   0.946   5.626   5.004
 2784SOL    HW2 9252   1.012   5.685   5.142
 2785SOL     OW 9253   0.952   6.664   5.512
 2785SOL    HW1 9254   0.861   6.699   5.535
 2785SOL    HW2 9255   0.943   6.594   5.441
 2786SOL     OW 9256   0.737   6.614   4.067
 2786SOL    HW1 9257   0.725   6.589   4.163
 2786SOL    HW2 9258   0.813   6.562   4.028
 2787SOL     OW 9259   0.407   6.398   4.972
 2787SOL    HW1 9260   0.477   6.420   5.040
 2787SOL    HW2 9261   0.368   6.308   4.992
 2788SOL     OW 9262   1.242   5.945   5.015
 2788SOL    HW1 9263   1.260   6.031   5.063
 2788SOL    HW2 9264   1.151   5.948   4.974
 2789SOL     OW 9265   0.105   0.143   5.092
 2789SOL    HW1 9266   0.021   0.194   5.073
 2789SOL    HW2 9267   0.149   0.180   5.173
 2790SOL     OW 9268   0.376   6.692   4.189
 2790SOL    HW1 9269   0.372   6.783   4.147
 2790SOL    HW2 9270   0.338   6.625   4.126
 2791SOL     OW 9271   0.452   6.121   4.566
 2791SOL    HW1 9272   0.465   6.200   4.505
 2791SOL    HW2 9273   0.534   6.109   4.623
 2792SOL     OW 9274   1.554   6.196   4.229
 2792SOL    HW1 9275   1.486   6.248   4.281
 2792SOL    HW2 9276   1.624   6.258   4.195
 2793SOL     OW 9277   0.509   6.305   5.361
 2793SOL    HW1 9278   0.548   6.350   5.281
 2793SOL    HW2 9279   0.571   6.233   5.393
 2794SOL     OW 9280   1.659   6.384   5.406
 2794SOL    HW1 9281   1.563   6.409   5.396
 2794SOL    HW2 9282   1.711   6.417   5.327
 2795SOL     OW 9283   0.991   5.698   5.482
 2795SOL    HW1 9284   1.051   5.777   5.471
 2795SOL    HW2 9285   1.039   5.615   5.455
 2796SOL     OW 9286   0.483   5.665   5.510
 2796SOL    HW1 9287   0.437   5.617   5.434
 2796SOL    HW2 9288   0.423   5.736   5.546
 2797SOL     OW 9289   0.637   6.385   4.809
 2797SOL    HW1 9290   0.644   6.474   4.763
 2797SOL    HW2 9291   0.555   6.384   4.867
 2798SOL     OW 9292   1.255   6.369   4.746
 2798SOL    HW1 9293   1.167   6.350   4.702
 2798SOL    HW2 9294   1.326   6.312   4.704
 2799SOL     OW 9295   1.196   6.117   3.984
 2799SOL    HW1 9296   1.217   6.039   4.043
 2799SOL    HW2 9297   1.138   6.182   4.032
 2800SOL     OW 9298   0.291   5.743   4.974
 2800SOL    HW1 9299   0.257   5.780   5.060
 2800SOL    HW2 9300   0.270   5.645   4.969
 2801SOL     OW 9301   0.117   6.913   4.933
 2801SOL    HW1 9302   0.151   6.824   4.965
 2801SOL    HW2 9303   0.111   6.977   5.009
 2802SOL     OW 9304   0.675   6.125   4.726
 2802SOL    HW1 9305   0.760   6.111   4.676
 2802SOL    HW2 9306   0.667   6.221   4.753
 2803SOL     OW 9307   1.741   6.612   5.542
 2803SOL    HW1 9308   1.716   6.521   5.510
 2803SOL    HW2 9309   1.701   6.629   5.632
 2804SOL     OW 9310   0.343   5.654   4.384
 2804SOL    HW1 9311   0.314   5.745   4.413
 2804SOL    HW2 9312   0.349   5.593   4.463
 2805SOL     OW 9313   1.621   5.986   4.061
 2805SOL    HW1 9314   1.670   5.918   4.116
 2805SOL    HW2 9315   1.578   6.053   4.120
 2806SOL     OW 9316   0.993   6.327   4.646
 2806SOL    HW1 9317   0.970   6.354   4.740
 2806SOL    HW2 9318   0.964   6.233   4.630
 2807SOL     OW 9319   1.892   6.966   5.341
 2807SOL    HW1 9320   1.899   0.058   5.304
 2807SOL    HW2 9321   1.946   6.960   5.426
 2808SOL     OW 9322   0.396   6.472   5.553
 2808SOL    HW1 9323   0.463   6.511   5.617
 2808SOL    HW2 9324   0.443   6.409   5.491
 2809SOL     OW 9325   1.508   5.851   3.843
 2809SOL    HW1 9326   1.461   5.772   3.880
 2809SOL    HW2 9327   1.548   5.904   3.917
 2810SOL     OW 9328   1.274   6.399   3.732
 2810SOL    HW1 9329   1.300   6.303   3.742
 2810SOL    HW2 9330   1.300   6.432   3.641
 2811SOL     OW 9331   0.312   6.449   4.616
 2811SOL    HW1 9332   0.380   6.423   4.547
 2811SOL    HW2 9333   0.331   6.400   4.701
 2812SOL     OW 9334   0.267   6.088   4.764
 2812SOL    HW1 9335   0.235   5.994   4.753
 2812SOL    HW2 9336   0.330   6.111   4.690
 2813SOL     OW 9337   1.125   5.930   5.422
 2813SOL    HW1 9338   1.075   5.981   5.492
 2813SOL    HW2 9339   1.210   5.978   5.401
 2814SOL     OW 9340   1.158   5.759   5.205
 2814SOL    HW1 9341   1.139   5.819   5.283
 2814SOL    HW2 9342   1.201   5.811   5.132
 2815SOL     OW 9343   6.948   6.917   3.926
 2815SOL    HW1 9344   6.902   6.966   3.999
 2815SOL    HW2 9345   6.975   6.826   3.958
 2816SOL     OW 9346   0.909   6.397   4.897
 2816SOL    HW1 9347   0.948   6.352   4.977
 2816SOL    HW2 9348   0.811   6.376   4.892
 2817SOL     OW 9349   0.036   6.213   4.857
 2817SOL    HW1 9350   0.116   6.173   4.813
 2817SOL    HW2 9351   0.041   6.197   4.956
 2818SOL     OW 9352   0.230   6.106   5.478
 2818SOL    HW1 9353   0.304   6.040   5.467
 2818SOL    HW2 9354   0.240   6.178   5.410
 2819SOL     OW 9355   1.406   6.480   5.357
 2819SOL    HW1 9356   1.409   6.580   5.362
 2819SOL    HW2 9357   1.399   6.452   5.262
 2820SOL     OW 9358   0.775   6.164   4.083
 2820SOL    HW1 9359   0.791   6.083   4.026
 2820SOL    HW2 9360   0.692   6.211   4.052
 2821SOL     OW 9361   1.652   6.188   4.844
 2821SOL    HW1 9362   1.632   6.124   4.918
 2821SOL    HW2 9363   1.751   6.188   4.826
 2822SOL     OW 9364   0.722   5.968   4.948
 2822SOL    HW1 9365   0.665   5.886   4.953
 2822SOL    HW2 9366   0.694   6.023   4.869
 2823SOL     OW 9367   0.394   6.057   3.923
 2823SOL    HW1 9368   0.451   6.138   3.934
 2823SOL    HW2 9369   0.305   6.072   3.967
 2824SOL     OW 9370   0.239   6.721   5.234
 2824SOL    HW1 9371   0.221   6.650   5.302
 2824SOL    HW2 9372   0.222   6.683   5.143
 2825SOL     OW 9373   1.268   6.573   4.921
 2825SOL    HW1 9374   1.259   6.490   4.866
 2825SOL    HW2 9375   1.255   6.653   4.862
 2826SOL     OW 9376   1.396   6.425   3.982
 2826SOL    HW1 9377   1.355   6.359   4.045
 2826SOL    HW2 9378   1.350   6.419   3.893
 2827SOL     OW 9379   0.055   6.850   4.677
 2827SOL    HW1 9380   0.086   6.876   4.768
 2827SOL    HW2 9381   6.956   6.833   4.679
 2828SOL     OW 9382   1.779   5.805   4.194
 2828SOL    HW1 9383   1.829   5.783   4.111
 2828SOL    HW2 9384   1.732   5.724   4.228
 2829SOL     OW 9385   1.264   6.570   4.381
 2829SOL    HW1 9386   1.327   6.495   4.402
 2829SOL    HW2 9387   1.315   6.647   4.343
 2830SOL     OW 9388   0.831   6.858   5.042
 2830SOL    HW1 9389   0.835   6.951   5.078
 2830SOL    HW2 9390   0.745   6.844   4.994
 2831SOL     OW 9391   1.836   5.752   4.696
 2831SOL    HW1 9392   1.869   5.660   4.670
 2831SOL    HW2 9393   1.747   5.768   4.653
 2832SOL     OW 9394   0.291   5.908   4.485
 2832SOL    HW1 9395   0.350   5.986   4.505
 2832SOL    HW2 9396   0.255   5.870   4.570
 2833SOL     OW 9397   1.263   0.165   3.728
 2833SOL    HW1 9398   1.254   0.102   3.806
 2833SOL    HW2 9399   1.180   0.158   3.671
 2834SOL     OW 9400   0.831   6.587   5.099
 2834SOL    HW1 9401   0.878   6.546   5.021
 2834SOL    HW2 9402   0.830   6.687   5.089
 2835SOL     OW 9403   0.946   6.474   3.942
 2835SOL    HW1 9404   1.019   6.536   3.912
 2835SOL    HW2 9405   0.983   6.408   4.007
 2836SOL     OW 9406   0.487   6.831   5.170
 2836SOL    HW1 9407   0.531   6.868   5.252
 2836SOL    HW2 9408   0.397   6.795   5.194
 2837SOL     OW 9409   1.572   6.814   5.041
 2837SOL    HW1 9410   1.623   6.817   5.127
 2837SOL    HW2 9411   1.474   6.811   5.062
 2838SOL     OW 9412   1.077   6.744   4.498
 2838SOL    HW1 9413   0.993   6.693   4.515
 2838SOL    HW2 9414   1.142   6.685   4.449
 2839SOL     OW 9415   1.034   5.820   4.655
 2839SOL    HW1 9416   1.034   5.776   4.565
 2839SOL    HW2 9417   1.034   5.750   4.726
 2840SOL     OW 9418   1.778   5.947   5.137
 2840SOL    HW1 9419   1.844   6.021   5.132
 2840SOL    HW2 9420   1.807   5.873   5.077
 2841SOL     OW 9421   0.162   6.541   5.436
 2841SOL    HW1 9422   0.104   6.604   5.487
 2841SOL    HW2 9423   0.245   6.522   5.489
 2842SOL     OW 9424   0.704   5.771   5.218
 2842SOL    HW1 9425   0.787   5.739   5.172
 2842SOL    HW2 9426   0.728   5.809   5.308
 2843SOL     OW 9427   0.064   5.857   3.708
 2843SOL    HW1 9428   6.998   5.794   3.749
 2843SOL    HW2 9429   0.016   5.940   3.679
 2844SOL     OW 9430   1.408   6.415   5.093
 2844SOL    HW1 9431   1.346   6.468   5.036
 2844SOL    HW2 9432   1.500   6.419   5.054
 2845SOL     OW 9433   0.060   5.814   4.026
 2845SOL    HW1 9434   6.997   5.773   3.960
 2845SOL    HW2 9435   0.147   5.765   4.025
 2846SOL     OW 9436   0.632   6.399   5.136
 2846SOL    HW1 9437   0.695   6.476   5.128
 2846SOL    HW2 9438   0.684   6.313   5.133
 2847SOL     OW 9439   0.721   6.130   5.424
 2847SOL    HW1 9440   0.778   6.189   5.482
 2847SOL    HW2 9441   0.741   6.034   5.445
 2848SOL     OW 9442   1.427   6.753   5.370
 2848SOL    HW1 9443   1.407   6.778   5.465
 2848SOL    HW2 9444   1.522   6.774   5.349
 2849SOL     OW 9445   1.644   6.449   4.952
 2849SOL    HW1 9446   1.648   6.364   4.900
 2849SOL    HW2 9447   1.647   6.527   4.890
 2850SOL     OW 9448   1.232   5.920   4.174
 2850SOL    HW1 9449   1.293   5.842   4.182
 2850SOL    HW2 9450   1.243   5.980   4.253
 2851SOL     OW 9451   0.495   6.358   4.424
 2851SOL    HW1 9452   0.573   6.416   4.400
 2851SOL    HW2 9453   0.447   6.331   4.340
 2852SOL     OW 9454   1.725   5.924   5.405
 2852SOL    HW1 9455   1.744   5.933   5.307
 2852SOL    HW2 9456   1.646   5.865   5.418
 2853SOL     OW 9457   1.765   6.515   5.191
 2853SOL    HW1 9458   1.751   6.611   5.213
 2853SOL    HW2 9459   1.726   6.495   5.102
 2854SOL     OW 9460   0.872   6.569   4.558
 2854SOL    HW1 9461   0.914   6.485   4.592
 2854SOL    HW2 9462   0.797   6.596   4.618
 2855SOL     OW 9463   1.151   6.629   3.809
 2855SOL    HW1 9464   1.074   6.652   3.749
 2855SOL    HW2 9465   1.190   6.541   3.780
 2856SOL     OW 9466   0.243   6.971   5.732
 2856SOL    HW1 9467   0.143   6.978   5.732
 2856SOL    HW2 9468   0.278   6.982   5.825
 2857SOL     OW 9469   0.137   6.909   4.421
 2857SOL    HW1 9470   0.110   6.890   4.515
 2857SOL    HW2 9471   0.084   6.853   4.358
 2858SOL     OW 9472   0.599   6.961   5.395
 2858SOL    HW1 9473   0.536   6.993   5.466
 2858SOL    HW2 9474   0.628   0.038   5.338
 2859SOL     OW 9475   1.839   5.744   4.972
 2859SOL    HW1 9476   1.903   5.668   4.988
 2859SOL    HW2 9477   1.821   5.752   4.874
 2860SOL     OW 9478   0.416   6.000   4.245
 2860SOL    HW1 9479   0.464   5.938   4.183
 2860SOL    HW2 9480   0.371   5.948   4.316
 2861SOL     OW 9481   1.575   0.061   4.906
 2861SOL    HW1 9482   1.539   0.035   4.816
 2861SOL    HW2 9483   1.569   6.983   4.968
 2862SOL     OW 9484   0.343   6.133   5.023
 2862SOL    HW1 9485   0.401   6.066   5.071
 2862SOL    HW2 9486   0.330   6.104   4.929
 2863SOL     OW 9487   1.423   5.848   4.834
 2863SOL    HW1 9488   1.451   5.754   4.852
 2863SOL    HW2 9489   1.365   5.880   4.909
 2864SOL     OW 9490   1.024   5.598   4.825
 2864SOL    HW1 9491   0.980   5.531   4.765
 2864SOL    HW2 9492   1.118   5.568   4.844
 2865SOL     OW 9493   0.769   6.887   3.987
 2865SOL    HW1 9494   0.752   6.792   4.013
 2865SOL    HW2 9495   0.812   6.935   4.064
 2866SOL     OW 9496   1.388   5.617   3.924
 2866SOL    HW1 9497   1.438   5.547   3.874
 2866SOL    HW2 9498   1.295   5.585   3.941
 2867SOL     OW 9499   1.250   6.089   4.387
 2867SOL    HW1 9500   1.202   6.177   4.387
 2867SOL    HW2 9501   1.260   6.057   4.481
 2868SOL     OW 9502   1.585   5.805   4.610
 2868SOL    HW1 9503   1.524   5.831   4.685
 2868SOL    HW2 9504   1.585   5.877   4.540
 2869SOL     OW 9505   0.041   6.672   4.008
 2869SOL    HW1 9506   0.131   6.630   3.994
 2869SOL    HW2 9507   6.973   6.600   4.024
 2870SOL     OW 9508   0.137   6.250   5.701
 2870SOL    HW1 9509   0.132   6.193   5.782
 2870SOL    HW2 9510   0.185   6.201   5.628
 2871SOL     OW 9511   0.215   5.856   6.603
 2871SOL    HW1 9512   0.265   5.804   6.672
 2871SOL    HW2 9513   0.116   5.842   6.616
 2872SOL     OW 9514   0.035   5.945   6.215
 2872SOL    HW1 9515   6.972   5.927   6.292
 2872SOL    HW2 9516   0.031   5.868   6.151
 2873SOL     OW 9517   0.559   6.880   6.719
 2873SOL    HW1 9518   0.491   6.915   6.654
 2873SOL    HW2 9519   0.515   6.861   6.806
 2874SOL     OW 9520   1.629   0.085   6.211
 2874SOL    HW1 9521   1.611   0.131   6.298
 2874SOL    HW2 9522   1.546   0.088   6.155
 2875SOL     OW 9523   1.123   6.290   6.227
 2875SOL    HW1 9524   1.165   6.380   6.225
 2875SOL    HW2 9525   1.061   6.284   6.306
 2876SOL     OW 9526   1.794   6.143   5.781
 2876SOL    HW1 9527   1.752   6.156   5.691
 2876SOL    HW2 9528   1.737   6.080   5.835
 2877SOL     OW 9529   0.639   6.669   6.557
 2877SOL    HW1 9530   0.621   6.746   6.617
 2877SOL    HW2 9531   0.590   6.681   6.470
 2878SOL     OW 9532   0.704   6.563   6.213
 2878SOL    HW1 9533   0.778   6.563   6.280
 2878SOL    HW2 9534   0.630   6.622   6.246
 2879SOL     OW 9535   0.383   0.006   6.551
 2879SOL    HW1 9536   0.330   6.961   6.479
 2879SOL    HW2 9537   0.424   0.090   6.515
 2880SOL     OW 9538   1.578   6.027   6.321
 2880SOL    HW1 9539   1.501   6.033   6.257
 2880SOL    HW2 9540   1.565   6.094   6.395
 2881SOL     OW 9541   0.282   6.663   6.494
 2881SOL    HW1 9542   0.270   6.566   6.517
 2881SOL    HW2 9543   0.203   6.715   6.527
 2882SOL     OW 9544   0.567   6.593   5.738
 2882SOL    HW1 9545   0.604   6.653   5.667
 2882SOL    HW2 9546   0.626   6.597   5.819
 2883SOL     OW 9547   0.107   6.207   6.161
 2883SOL    HW1 9548   0.079   6.117   6.194
 2883SOL    HW2 9549   0.077   6.277   6.226
 2884SOL     OW 9550   1.693   6.477   6.239
 2884SOL    HW1 9551   1.781   6.472   6.286
 2884SOL    HW2 9552   1.697   6.547   6.167
 2885SOL     OW 9553   1.702   6.691   6.055
 2885SOL    HW1 9554   1.781   6.665   5.999
 2885SOL    HW2 9555   1.730   6.757   6.124
 2886SOL     OW 9556   0.846   5.608   6.098
 2886SOL    HW1 9557   0.891   5.692   6.067
 2886SOL    HW2 9558   0.747   5.623   6.102
 2887SOL     OW 9559   0.246   6.487   6.810
 2887SOL    HW1 9560   0.338   6.468   6.842
 2887SOL    HW2 9561   0.239   6.464   6.712
 2888SOL     OW 9562   1.596   6.644   5.787
 2888SOL    HW1 9563   1.548   6.557   5.797
 2888SOL    HW2 9564   1.628   6.674   5.877
 2889SOL     OW 9565   1.478   6.926   6.482
 2889SOL    HW1 9566   1.418   6.982   6.425
 2889SOL    HW2 9567   1.445   6.831   6.482
 2890SOL     OW 9568   0.541   6.282   5.870
 2890SOL    HW1 9569   0.551   6.372   5.828
 2890SOL    HW2 9570   0.482   6.288   5.951
 2891SOL     OW 9571   1.281   5.977   6.480
 2891SOL    HW1 9572   1.186   5.945   6.482
 2891SOL    HW2 9573   1.336   5.920   6.540
 2892SOL     OW 9574   0.713   6.072   0.087
 2892SOL    HW1 9575   0.661   6.132   0.148
 2892SOL    HW2 9576   0.666   6.065   6.999
 2893SOL     OW 9577   0.977   6.071   6.771
 2893SOL    HW1 9578   0.978   6.109   6.863
 2893SOL    HW2 9579   0.892   6.096   6.725
 2894SOL     OW 9580   1.028   6.260   5.969
 2894SOL    HW1 9581   1.061   6.269   6.063
 2894SOL    HW2 9582   0.936   6.221   5.970
 2895SOL     OW 9583   0.046   6.392   6.368
 2895SOL    HW1 9584   0.136   6.403   6.410
 2895SOL    HW2 9585   6.976   6.390   6.440
 2896SOL     OW 9586   0.844   5.931   5.794
 2896SOL    HW1 9587   0.903   5.973   5.725
 2896SOL    HW2 9588   0.790   5.858   5.751
 2897SOL     OW 9589   1.446   6.734   6.187
 2897SOL    HW1 9590   1.528   6.711   6.133
 2897SOL    HW2 9591   1.446   6.832   6.206
 2898SOL     OW 9592   0.602   5.665   6.534
 2898SOL    HW1 9593   0.596   5.707   6.624
 2898SOL    HW2 9594   0.627   5.734   6.466
 2899SOL     OW 9595   1.826   6.699   6.477
 2899SOL    HW1 9596   1.793   6.751   6.398
 2899SOL    HW2 9597   1.749   6.667   6.531
 2900SOL     OW 9598   0.311   6.596   5.859
 2900SOL    HW1 9599   0.398   6.609   5.812
 2900SOL    HW2 9600   0.275   6.504   5.837
 2901SOL     OW 9601   1.467   6.342   6.275
 2901SOL    HW1 9602   1.459   6.296   6.363
 2901SOL    HW2 9603   1.553   6.392   6.271
 2902SOL     OW 9604   1.606   6.960   5.706
 2902SOL    HW1 9605   1.580   0.056   5.721
 2902SOL    HW2 9606   1.525   6.908   5.679
 2903SOL     OW 9607   1.405   5.682   6.033
 2903SOL    HW1 9608   1.403   5.658   5.936
 2903SOL    HW2 9609   1.496   5.668   6.070
 2904SOL     OW 9610   0.375   6.255   6.089
 2904SOL    HW1 9611   0.405   6.161   6.104
 2904SOL    HW2 9612   0.277   6.262   6.107
 2905SOL     OW 9613   0.676   5.717   5.698
 2905SOL    HW1 9614   0.742   5.642   5.703
 2905SOL    HW2 9615   0.600   5.691   5.639
 2906SOL     OW 9616   0.931   6.110   6.452
 2906SOL    HW1 9617   0.901   6.097   6.357
 2906SOL    HW2 9618   0.972   6.025   6.486
 2907SOL     OW 9619   0.578   5.649   6.092
 2907SOL    HW1 9620   0.499   5.640   6.152
 2907SOL    HW2 9621   0.565   5.727   6.031
 2908SOL     OW 9622   1.389   6.774   5.662
 2908SOL    HW1 9623   1.465   6.725   5.705
 2908SOL    HW2 9624   1.307   6.718   5.665
 2909SOL     OW 9625   0.264   5.657   5.815
 2909SOL    HW1 9626   0.291   5.728   5.750
 2909SOL    HW2 9627   0.344   5.601   5.840
 2910SOL     OW 9628   0.964   5.841   6.026
 2910SOL    HW1 9629   0.924   5.876   5.941
 2910SOL    HW2 9630   1.063   5.857   6.026
 2911SOL     OW 9631   1.313   0.078   6.325
 2911SOL    HW1 9632   1.322   0.177   6.334
 2911SOL    HW2 9633   1.216   0.054   6.320
 2912SOL     OW 9634   0.486   6.701   6.319
 2912SOL    HW1 9635   0.412   6.687   6.385
 2912SOL    HW2 9636   0.447   6.730   6.231
 2913SOL     OW 9637   1.012   6.074   5.627
 2913SOL    HW1 9638   0.975   6.164   5.606
 2913SOL    HW2 9639   1.086   6.083   5.695
 2914SOL     OW 9640   0.576   5.765   6.787
 2914SOL    HW1 9641   0.623   5.698   6.844
 2914SOL    HW2 9642   0.477   5.753   6.797
 2915SOL     OW 9643   0.864   6.045   6.196
 2915SOL    HW1 9644   0.814   6.096   6.126
 2915SOL    HW2 9645   0.905   5.964   6.155
 2916SOL     OW 9646   1.029   5.635   6.317
 2916SOL    HW1 9647   0.969   5.639   6.237
 2916SOL    HW2 9648   1.004   5.556   6.373
 2917SOL     OW 9649   1.403   6.660   6.465
 2917SOL    HW1 9650   1.353   6.579   6.497
 2917SOL    HW2 9651   1.414   6.655   6.366
 2918SOL     OW 9652   1.440   6.205   6.514
 2918SOL    HW1 9653   1.375   6.128   6.512
 2918SOL    HW2 9654   1.509   6.188   6.584
 2919SOL     OW 9655   1.809   6.358   5.949
 2919SOL    HW1 9656   1.867   6.330   6.026
 2919SOL    HW2 9657   1.808   6.285   5.880
 2920SOL     OW 9658   1.781   6.857   6.252
 2920SOL    HW1 9659   1.879   6.874   6.267
 2920SOL    HW2 9660   1.733   6.944   6.245
 2921SOL     OW 9661   1.383   6.146   5.630
 2921SOL    HW1 9662   1.334   6.110   5.709
 2921SOL    HW2 9663   1.481   6.130   5.640
 2922SOL     OW 9664   0.537   5.844   5.909
 2922SOL    HW1 9665   0.591   5.801   5.837
 2922SOL    HW2 9666   0.487   5.921   5.872
 2923SOL     OW 9667   1.778   6.785   0.279
 2923SOL    HW1 9668   1.860   6.730   0.263
 2923SOL    HW2 9669   1.770   6.854   0.207
 2924SOL     OW 9670   0.999   6.961   6.880
 2924SOL    HW1 9671   0.936   6.911   6.939
 2924SOL    HW2 9672   1.074   6.999   6.935
 2925SOL     OW 9673   1.111   6.758   6.721
 2925SOL    HW1 9674   1.069   6.835   6.768
 2925SOL    HW2 9675   1.100   6.768   6.622
 2926SOL     OW 9676   1.619   6.618   6.633
 2926SOL    HW1 9677   1.615   6.679   6.711
 2926SOL    HW2 9678   1.538   6.630   6.576
 2927SOL     OW 9679   0.753   6.620   5.936
 2927SOL    HW1 9680   0.742   6.597   6.033
 2927SOL    HW2 9681   0.827   6.565   5.898
 2928SOL     OW 9682   0.489   6.408   6.908
 2928SOL    HW1 9683   0.525   6.441   6.995
 2928SOL    HW2 9684   0.451   6.316   6.920
 2929SOL     OW 9685   1.239   5.998   6.790
 2929SOL    HW1 9686   1.280   6.069   6.846
 2929SOL    HW2 9687   1.145   6.023   6.767
 2930SOL     OW 9688   0.192   0.103   6.992
 2930SOL    HW1 9689   0.124   0.176   6.993
 2930SOL    HW2 9690   0.210   0.073   0.085
 2931SOL     OW 9691   0.346   6.768   6.086
 2931SOL    HW1 9692   0.354   6.857   6.041
 2931SOL    HW2 9693   0.332   6.697   6.017
 2932SOL     OW 9694   0.490   6.183   6.506
 2932SOL    HW1 9695   0.507   6.237   6.424
 2932SOL    HW2 9696   0.577   6.167   6.554
 2933SOL     OW 9697   1.552   6.248   6.023
 2933SOL    HW1 9698   1.510   6.273   6.110
 2933SOL    HW2 9699   1.635   6.302   6.009
 2934SOL     OW 9700   0.644   6.419   6.677
 2934SOL    HW1 9701   0.634   6.506   6.628
 2934SOL    HW2 9702   0.586   6.421   6.759
 2935SOL     OW 9703   1.287   6.434   6.575
 2935SOL    HW1 9704   1.190   6.411   6.570
 2935SOL    HW2 9705   1.341   6.352   6.556
 2936SOL     OW 9706   1.198   6.092   5.832
 2936SOL    HW1 9707   1.218   6.015   5.893
 2936SOL    HW2 9708   1.146   6.161   5.881
 2937SOL     OW 9709   0.313   5.715   6.816
 2937SOL    HW1 9710   0.266   5.738   6.901
 2937SOL    HW2 9711   0.302   5.618   6.797
 2938SOL     OW 9712   0.124   6.908   6.807
 2938SOL    HW1 9713   0.143   6.824   6.858
 2938SOL    HW2 9714   0.137   6.987   6.867
 2939SOL     OW 9715   0.737   6.165   6.641
 2939SOL    HW1 9716   0.799   6.153   6.563
 2939SOL    HW2 9717   0.719   6.262   6.655
 2940SOL     OW 9718   0.348   5.630   6.238
 2940SOL    HW1 9719   0.318   5.720   6.267
 2940SOL    HW2 9720   0.362   5.572   6.319
 2941SOL     OW 9721   1.594   5.999   5.909
 2941SOL    HW1 9722   1.648   5.940   5.970
 2941SOL    HW2 9723   1.566   6.081   5.958
 2942SOL     OW 9724   1.014   6.357   6.569
 2942SOL    HW1 9725   0.987   6.367   6.665
 2942SOL    HW2 9726   0.992   6.264   6.537
 2943SOL     OW 9727   1.500   5.853   5.692
 2943SOL    HW1 9728   1.461   5.768   5.728
 2943SOL    HW2 9729   1.535   5.908   5.768
 2944SOL     OW 9730   1.285   6.393   5.585
 2944SOL    HW1 9731   1.308   6.296   5.598
 2944SOL    HW2 9732   1.324   6.426   5.499
 2945SOL     OW 9733   0.274   6.390   6.537
 2945SOL    HW1 9734   0.364   6.383   6.494
 2945SOL    HW2 9735   0.248   6.300   6.573
 2946SOL     OW 9736   0.261   6.121   6.632
 2946SOL    HW1 9737   0.241   6.024   6.622
 2946SOL    HW2 9738   0.347   6.142   6.584
 2947SOL     OW 9739   1.208   5.832   0.004
 2947SOL    HW1 9740   1.276   5.863   0.070
 2947SOL    HW2 9741   1.216   5.886   6.920
 2948SOL     OW 9742   6.965   6.980   5.820
 2948SOL    HW1 9743   6.907   6.999   5.900
 2948SOL    HW2 9744   6.998   6.886   5.824
 2949SOL     OW 9745   0.930   6.384   6.832
 2949SOL    HW1 9746   0.949   6.320   6.906
 2949SOL    HW2 9747   0.860   6.449   6.861
 2950SOL     OW 9748   6.989   6.179   6.704
 2950SOL    HW1 9749   0.080   6.151   6.675
 2950SOL    HW2 9750   6.937   6.099   6.733
 2951SOL     OW 9751   0.775   6.149   5.952
 2951SOL    HW1 9752   0.789   6.069   5.894
 2951SOL    HW2 9753   0.692   6.198   5.923
 2952SOL     OW 9754   1.635   6.136   6.690
 2952SOL    HW1 9755   1.604   6.082   6.768
 2952SOL    HW2 9756   1.734   6.146   6.693
 2953SOL     OW 9757   0.594   6.036   6.842
 2953SOL    HW1 9758   0.590   5.938   6.822
 2953SOL    HW2 9759   0.646   6.083   6.770
 2954SOL     OW 9760   0.397   6.052   5.800
 2954SOL    HW1 9761   0.453   6.134   5.809
 2954SOL    HW2 9762   0.309   6.066   5.845
 2955SOL     OW 9763   0.197   6.700   6.971
 2955SOL    HW1 9764   0.150   6.677   0.056
 2955SOL    HW2 9765   0.204   6.619   6.914
 2956SOL     OW 9766   1.295   6.578   6.820
 2956SOL    HW1 9767   1.314   6.523   6.739
 2956SOL    HW2 9768   1.229   6.650   6.796
 2957SOL     OW 9769   1.454   6.421   5.817
 2957SOL    HW1 9770   1.467   6.345   5.881
 2957SOL    HW2 9771   1.386   6.396   5.749
 2958SOL     OW 9772   0.064   6.828   6.554
 2958SOL    HW1 9773   0.092   6.863   6.643
 2958SOL    HW2 9774   6.964   6.824   6.549
 2959SOL     OW 9775   1.775   5.830   6.035
 2959SOL    HW1 9776   1.831   5.808   5.955
 2959SOL    HW2 9777   1.732   5.746   6.069
 2960SOL     OW 9778   1.270   6.521   6.225
 2960SOL    HW1 9779   1.341   6.452   6.240
 2960SOL    HW2 9780   1.312   6.604   6.188
 2961SOL     OW 9781   0.804   6.835   0.050
 2961SOL    HW1 9782   0.833   6.832   0.146
 2961SOL    HW2 9783   0.731   6.903   0.040
 2962SOL     OW 9784   1.836   5.734   6.582
 2962SOL    HW1 9785   1.875   5.646   6.555
 2962SOL    HW2 9786   1.752   5.750   6.530
 2963SOL     OW 9787   0.276   5.874   6.331
 2963SOL    HW1 9788   0.193   5.913   6.291
 2963SOL    HW2 9789   0.266   5.869   6.431
 2964SOL     OW 9790   1.268   0.166   5.614
 2964SOL    HW1 9791   1.260   0.101   5.690
 2964SOL    HW2 9792   1.183   0.164   5.560
 2965SOL     OW 9793   0.760   6.597   6.923
 2965SOL    HW1 9794   0.718   6.616   6.834
 2965SOL    HW2 9795   0.786   6.683   6.967
 2966SOL     OW 9796   0.954   6.471   5.807
 2966SOL    HW1 9797   1.030   6.528   5.776
 2966SOL    HW2 9798   0.989   6.398   5.865
 2967SOL     OW 9799   0.431   6.850   6.957
 2967SOL    HW1 9800   0.426   6.924   0.023
 2967SOL    HW2 9801   0.348   6.794   6.962
 2968SOL     OW 9802   1.627   6.781   6.846
 2968SOL    HW1 9803   1.718   6.809   6.878
 2968SOL    HW2 9804   1.569   6.763   6.925
 2969SOL     OW 9805   1.075   6.759   6.433
 2969SOL    HW1 9806   1.000   6.694   6.428
 2969SOL    HW2 9807   1.159   6.715   6.401
 2970SOL     OW 9808   1.037   5.850   6.500
 2970SOL    HW1 9809   1.037   5.781   6.427
 2970SOL    HW2 9810   1.022   5.805   6.588
 2971SOL     OW 9811   1.588   5.978   6.913
 2971SOL    HW1 9812   1.651   6.013   6.982
 2971SOL    HW2 9813   1.618   5.888   6.882
 2972SOL     OW 9814   0.729   5.785   0.094
 2972SOL    HW1 9815   0.823   5.751   0.093
 2972SOL    HW2 9816   0.730   5.885   0.085
 2973SOL     OW 9817   0.047   5.869   5.617
 2973SOL    HW1 9818   6.980   5.806   5.656
 2973SOL    HW2 9819   6.998   5.944   5.572
 2974SOL     OW 9820   0.042   5.799   5.938
 2974SOL    HW1 9821   6.981   5.755   5.872
 2974SOL    HW2 9822   0.134   5.760   5.928
 2975SOL     OW 9823   1.530   6.906   0.364
 2975SOL    HW1 9824   1.467   6.832   0.342
 2975SOL    HW2 9825   1.623   6.880   0.338
 2976SOL     OW 9826   1.787   6.444   6.769
 2976SOL    HW1 9827   1.789   6.353   6.726
 2976SOL    HW2 9828   1.724   6.503   6.719
 2977SOL     OW 9829   1.233   5.898   6.027
 2977SOL    HW1 9830   1.295   5.820   6.026
 2977SOL    HW2 9831   1.261   5.962   6.099
 2978SOL     OW 9832   0.523   6.356   6.299
 2978SOL    HW1 9833   0.592   6.421   6.269
 2978SOL    HW2 9834   0.469   6.325   6.220
 2979SOL     OW 9835   1.747   6.343   0.026
 2979SOL    HW1 9836   1.743   6.412   0.098
 2979SOL    HW2 9837   1.754   6.389   6.937
 2980SOL     OW 9838   0.875   6.568   6.440
 2980SOL    HW1 9839   0.921   6.493   6.487
 2980SOL    HW2 9840   0.798   6.600   6.495
 2981SOL     OW 9841   1.163   6.619   5.673
 2981SOL    HW1 9842   1.088   6.643   5.613
 2981SOL    HW2 9843   1.204   6.532   5.643
 2982SOL     OW 9844   0.196   6.903   6.324
 2982SOL    HW1 9845   0.145   6.868   6.402
 2982SOL    HW2 9846   0.212   6.829   6.258
 2983SOL     OW 9847   1.740   5.740   6.840
 2983SOL    HW1 9848   1.729   5.643   6.860
 2983SOL    HW2 9849   1.775   5.751   6.747
 2984SOL     OW 9850   0.436   5.998   6.133
 2984SOL    HW1 9851   0.480   5.932   6.072
 2984SOL    HW2 9852   0.393   5.948   6.209
 2985SOL     OW 9853   1.572   0.017   6.718
 2985SOL    HW1 9854   1.544   6.988   6.626
 2985SOL    HW2 9855   1.587   6.936   6.775
 2986SOL     OW 9856   0.351   6.161   6.894
 2986SOL    HW1 9857   0.435   6.107   6.894
 2986SOL    HW2 9858   0.312   6.162   6.803
 2987SOL     OW 9859   1.408   5.822   6.668
 2987SOL    HW1 9860   1.412   5.732   6.713
 2987SOL    HW2 9861   1.352   5.883   6.723
 2988SOL     OW 9862   1.021   5.540   6.681
 2988SOL    HW1 9863   0.987   5.496   6.598
 2988SOL    HW2 9864   1.113   5.508   6.701
 2989SOL     OW 9865   0.781   6.898   5.860
 2989SOL    HW1 9866   0.767   6.802   5.883
 2989SOL    HW2 9867   0.816   6.946   5.940
 2990SOL     OW 9868   1.398   5.610   5.769
 2990SOL    HW1 9869   1.450   5.540   5.721
 2990SOL    HW2 9870   1.305   5.577   5.785
 2991SOL     OW 9871   1.304   6.069   6.225
 2991SOL    HW1 9872   1.251   6.154   6.216
 2991SOL    HW2 9873   1.293   6.033   6.318
 2992SOL     OW 9874   1.595   5.784   6.472
 2992SOL    HW1 9875   1.527   5.806   6.542
 2992SOL    HW2 9876   1.594   5.856   6.403
 2993SOL     OW 9877   0.065   6.723   5.845
 2993SOL    HW1 9878   0.159   6.691   5.848
 2993SOL    HW2 9879   0.003   6.647   5.862
 2994SOL     OW 9880   2.070   0.691   0.100
 2994SOL    HW1 9881   1.975   0.659   0.100
 2994SOL    HW2 9882   2.111   0.675   0.011
 2995SOL     OW 9883   2.029   0.323   1.061
 2995SOL    HW1 9884   2.047   0.276   1.147
 2995SOL    HW2 9885   1.977   0.263   1.000
 2996SOL     OW 9886   1.906   0.425   0.647
 2996SOL    HW1 9887   1.830   0.457   0.704
 2996SOL    HW2 9888   1.872   0.361   0.578
 2997SOL     OW 9889   2.436   1.315   1.230
 2997SOL    HW1 9890   2.350   1.313   1.179
 2997SOL    HW2 9891   2.458   1.410   1.253
 2998SOL     OW 9892   3.453   1.495   0.721
 2998SOL    HW1 9893   3.407   1.460   0.803
 2998SOL    HW2 9894   3.385   1.531   0.657
 2999SOL     OW 9895   2.984   0.747   0.676
 2999SOL    HW1 9896   3.038   0.828   0.653
 2999SOL    HW2 9897   2.937   0.762   0.763
 3000SOL     OW 9898   3.697   0.584   0.168
 3000SOL    HW1 9899   3.658   0.587   0.076
 3000SOL    HW2 9900   3.645   0.519   0.224
 3001SOL     OW 9901   2.573   1.139   1.060
 3001SOL    HW1 9902   2.520   1.175   1.137
 3001SOL    HW2 9903   2.615   1.215   1.010
 3002SOL     OW 9904   2.755   0.739   1.816
 3002SOL    HW1 9905   2.772   0.809   1.885
 3002SOL    HW2 9906   2.768   0.778   1.724
 3003SOL     OW 9907   2.560   0.957   0.630
 3003SOL    HW1 9908   2.624   0.974   0.705
 3003SOL    HW2 9909   2.481   1.017   0.638
 3004SOL     OW 9910   2.564   1.145   1.850
 3004SOL    HW1 9911   2.621   1.214   1.896
 3004SOL    HW2 9912   2.490   1.191   1.801
 3005SOL     OW 9913   2.206   1.372   1.083
 3005SOL    HW1 9914   2.133   1.312   1.051
 3005SOL    HW2 9915   2.245   1.421   1.005
 3006SOL     OW 9916   3.318   1.508   1.387
 3006SOL    HW1 9917   3.374   1.591   1.394
 3006SOL    HW2 9918   3.236   1.519   1.443
 3007SOL     OW 9919   2.331   0.305   1.397
 3007SOL    HW1 9920   2.409   0.280   1.455
 3007SOL    HW2 9921   2.246   0.288   1.447
 3008SOL     OW 9922   3.494   0.491   0.753
 3008SOL    HW1 9923   3.480   0.526   0.660
 3008SOL    HW2 9924   3.442   0.548   0.817
 3009SOL     OW 9925   2.100   1.698   0.500
 3009SOL    HW1 9926   2.118   1.776   0.560
 3009SOL    HW2 9927   2.184   1.672   0.453
 3010SOL     OW 9928   2.955   1.360   1.699
 3010SOL    HW1 9929   3.005   1.349   1.785
 3010SOL    HW2 9930   2.900   1.277   1.681
 3011SOL     OW 9931   2.126   1.421   0.553
 3011SOL    HW1 9932   2.097   1.517   0.561
 3011SOL    HW2 9933   2.069   1.364   0.611
 3012SOL     OW 9934   2.164   1.084   0.851
 3012SOL    HW1 9935   2.182   0.988   0.872
 3012SOL    HW2 9936   2.113   1.126   0.927
 3013SOL     OW 9937   2.431   1.828   1.408
 3013SOL    HW1 9938   2.357   1.801   1.469
 3013SOL    HW2 9939   2.490   1.894   1.454
 3014SOL     OW 9940   2.470   0.926   0.131
 3014SOL    HW1 9941   2.538   0.946   0.060
 3014SOL    HW2 9942   2.500   0.967   0.217
 3015SOL     OW 9943   3.429   0.123   1.473
 3015SOL    HW1 9944   3.525   0.144   1.454
 3015SOL    HW2 9945   3.404   0.159   1.563
 3016SOL     OW 9946   1.996   0.678   0.557
 3016SOL    HW1 9947   1.974   0.584   0.583
 3016SOL    HW2 9948   1.988   0.737   0.637
 3017SOL     OW 9949   3.733   1.712   0.362
 3017SOL    HW1 9950   3.813   1.685   0.414
 3017SOL    HW2 9951   3.736   1.811   0.346
 3018SOL     OW 9952   3.580   0.915   0.682
 3018SOL    HW1 9953   3.671   0.876   0.690
 3018SOL    HW2 9954   3.571   0.963   0.595
 3019SOL     OW 9955   3.552   1.061   0.446
 3019SOL    HW1 9956   3.641   1.046   0.404
 3019SOL    HW2 9957   3.556   1.142   0.505
 3020SOL     OW 9958   1.960   0.775   1.524
 3020SOL    HW1 9959   2.020   0.828   1.463
 3020SOL    HW2 9960   1.871   0.820   1.531
 3021SOL     OW 9961   2.474   1.362   0.707
 3021SOL    HW1 9962   2.433   1.271   0.709
 3021SOL    HW2 9963   2.473   1.397   0.613
 3022SOL     OW 9964   3.103   1.207   1.433
 3022SOL    HW1 9965   3.126   1.141   1.361
 3022SOL    HW2 9966   3.177   1.210   1.500
 3023SOL     OW 9967   2.696   0.045   0.557
 3023SOL    HW1 9968   2.749   0.127   0.536
 3023SOL    HW2 9969   2.599   0.061   0.539
 3024SOL     OW 9970   2.086   0.933   1.336
 3024SOL    HW1 9971   2.178   0.896   1.318
 3024SOL    HW2 9972   2.037   0.943   1.249
 3025SOL     OW 9973   3.097   1.835   1.596
 3025SOL    HW1 9974   3.072   1.894   1.520
 3025SOL    HW2 9975   3.101   1.740   1.564
 3026SOL     OW 9976   2.201   0.304   1.801
 3026SOL    HW1 9977   2.254   0.364   1.860
 3026SOL    HW2 9978   2.103   0.320   1.816
 3027SOL     OW 9979   3.337   1.386   0.943
 3027SOL    HW1 9980   3.277   1.429   1.011
 3027SOL    HW2 9981   3.308   1.291   0.929
 3028SOL     OW 9982   3.422   1.890   0.580
 3028SOL    HW1 9983   3.432   1.821   0.508
 3028SOL    HW2 9984   3.439   1.847   0.669
 3029SOL     OW 9985   2.436   0.678   0.249
 3029SOL    HW1 9986   2.453   0.770   0.211
 3029SOL    HW2 9987   2.373   0.686   0.326
 3030SOL     OW 9988   3.152   0.411   0.923
 3030SOL    HW1 9989   3.060   0.373   0.932
 3030SOL    HW2 9990   3.215   0.360   0.983
 3031SOL     OW 9991   3.456   1.697   0.384
 3031SOL    HW1 9992   3.556   1.691   0.376
 3031SOL    HW2 9993   3.415   1.685   0.294
 3032SOL     OW 9994   2.665   0.567   1.472
 3032SOL    HW1 9995   2.634   0.531   1.560
 3032SOL    HW2 9996   2.638   0.505   1.399
 3033SOL     OW 9997   3.253   0.491   1.672
 3033SOL    HW1 9998   3.257   0.536   1.760
 3033SOL    HW2 9999   3.301   0.403   1.677
 3034SOL     OW10000   2.808   0.878   1.581
 3034SOL    HW110001   2.865   0.813   1.530
 3034SOL    HW210002   2.747   0.925   1.518
 3035SOL     OW10003   2.879   0.409   1.189
 3035SOL    HW110004   2.784   0.419   1.220
 3035SOL    HW210005   2.880   0.368   1.098
 3036SOL     OW10006   2.890   0.710   0.417
 3036SOL    HW110007   2.920   0.721   0.511
 3036SOL    HW210008   2.801   0.665   0.415
 3037SOL     OW10009   1.969   0.836   0.783
 3037SOL    HW110010   2.061   0.825   0.821
 3037SOL    HW210011   1.913   0.892   0.844
 3038SOL     OW10012   1.978   1.869   1.614
 3038SOL    HW110013   1.987   1.829   1.705
 3038SOL    HW210014   1.886   1.850   1.578
 3039SOL     OW10015   2.717   0.340   0.252
 3039SOL    HW110016   2.676   0.399   0.183
 3039SOL    HW210017   2.740   0.251   0.212
 3040SOL     OW10018   3.533   0.588   1.841
 3040SOL    HW110019   3.518   0.670   1.787
 3040SOL    HW210020   3.563   0.513   1.781
 3041SOL     OW10021   3.290   1.195   0.637
 3041SOL    HW110022   3.387   1.216   0.628
 3041SOL    HW210023   3.237   1.259   0.581
 3042SOL     OW10024   2.316   0.262   0.924
 3042SOL    HW110025   2.364   0.241   1.009
 3042SOL    HW210026   2.353   0.346   0.884
 3043SOL     OW10027   2.861   1.404   0.467
 3043SOL    HW110028   2.830   1.494   0.436
 3043SOL    HW210029   2.834   1.391   0.563
 3044SOL     OW10030   2.205   1.769   0.920
 3044SOL    HW110031   2.243   1.678   0.904
 3044SOL    HW210032   2.280   1.835   0.931
 3045SOL     OW10033   3.660   1.027   0.928
 3045SOL    HW110034   3.617   1.012   0.839
 3045SOL    HW210035   3.590   1.049   0.996
 3046SOL     OW10036   3.075   1.552   1.510
 3046SOL    HW110037   3.050   1.475   1.568
 3046SOL    HW210038   2.993   1.585   1.462
 3047SOL     OW10039   2.190   0.939   0.173
 3047SOL    HW110040   2.287   0.935   0.149
 3047SOL    HW210041   2.148   0.850   0.156
 3048SOL     OW10042   3.339   0.791   0.695
 3048SOL    HW110043   3.324   0.740   0.780
 3048SOL    HW210044   3.426   0.840   0.700
 3049SOL     OW10045   2.346   1.283   1.737
 3049SOL    HW110046   2.330   1.285   1.638
 3049SOL    HW210047   2.258   1.278   1.785
 3050SOL     OW10048   2.976   1.761   0.261
 3050SOL    HW110049   2.909   1.717   0.321
 3050SOL    HW210050   3.006   1.697   0.191
 3051SOL     OW10051   2.094   0.285   1.539
 3051SOL    HW110052   2.047   0.367   1.504
 3051SOL    HW210053   2.129   0.304   1.630
 3052SOL     OW10054   3.442   1.431   0.108
 3052SOL    HW110055   3.405   1.524   0.116
 3052SOL    HW210056   3.385   1.378   0.045
 3053SOL     OW10057   2.356   1.679   0.388
 3053SOL    HW110058   2.391   1.762   0.433
 3053SOL    HW210059   2.344   1.698   0.291
 3054SOL     OW10060   3.329   0.178   0.432
 3054SOL    HW110061   3.340   0.081   0.408
 3054SOL    HW210062   3.418   0.219   0.449
 3055SOL     OW10063   2.143   1.788   1.199
 3055SOL    HW110064   2.171   1.704   1.245
 3055SOL    HW210065   2.163   1.780   1.101
 3056SOL     OW10066   2.800   1.694   0.869
 3056SOL    HW110067   2.893   1.660   0.872
 3056SOL    HW210068   2.749   1.646   0.798
 3057SOL     OW10069   2.258   0.664   0.456
 3057SOL    HW110070   2.268   0.565   0.463
 3057SOL    HW210071   2.166   0.690   0.483
 3058SOL     OW10072   3.360   0.233   1.728
 3058SOL    HW110073   3.397   0.231   1.821
 3058SOL    HW210074   3.265   0.201   1.728
 3059SOL     OW10075   2.530   0.161   0.058
 3059SOL    HW110076   2.624   0.133   0.078
 3059SOL    HW210077   2.521   0.180   6.960
 3060SOL     OW10078   2.647   0.255   1.811
 3060SOL    HW110079   2.732   0.208   1.787
 3060SOL    HW210080   2.583   0.190   1.851
 3061SOL     OW10081   2.722   1.504   1.200
 3061SOL    HW110082   2.698   1.472   1.109
 3061SOL    HW210083   2.775   1.434   1.247
 3062SOL     OW10084   3.173   0.595   1.432
 3062SOL    HW110085   3.211   0.567   1.520
 3062SOL    HW210086   3.201   0.689   1.412
 3063SOL     OW10087   2.667   1.368   0.942
 3063SOL    HW110088   2.762   1.376   0.911
 3063SOL    HW210089   2.605   1.379   0.864
 3064SOL     OW10090   2.783   0.556   0.888
 3064SOL    HW110091   2.758   0.538   0.794
 3064SOL    HW210092   2.826   0.475   0.928
 3065SOL     OW10093   2.436   0.081   0.469
 3065SOL    HW110094   2.345   0.068   0.509
 3065SOL    HW210095   2.428   0.139   0.388
 3066SOL     OW10096   3.259   1.278   6.950
 3066SOL    HW110097   3.238   1.201   6.890
 3066SOL    HW210098   3.183   1.294   0.012
 3067SOL     OW10099   2.167   0.056   0.265
 3067SOL    HW110100   2.234   0.128   0.249
 3067SOL    HW210101   2.159   0.038   0.363
 3068SOL     OW10102   2.841   0.270   0.484
 3068SOL    HW110103   2.792   0.296   0.401
 3068SOL    HW210104   2.939   0.283   0.470
 3069SOL     OW10105   2.909   0.688   1.413
 3069SOL    HW110106   2.836   0.625   1.440
 3069SOL    HW210107   2.998   0.641   1.419
 3070SOL     OW10108   3.061   1.620   0.833
 3070SOL    HW110109   3.092   1.676   0.757
 3070SOL    HW210110   3.100   1.654   0.919
 3071SOL     OW10111   2.342   1.120   0.647
 3071SOL    HW110112   2.275   1.109   0.720
 3071SOL    HW210113   2.295   1.117   0.558
 3072SOL     OW10114   3.133   1.816   0.645
 3072SOL    HW110115   3.203   1.883   0.623
 3072SOL    HW210116   3.046   1.863   0.663
 3073SOL     OW10117   2.859   0.609   0.033
 3073SOL    HW110118   2.769   0.572   0.056
 3073SOL    HW210119   2.925   0.581   0.103
 3074SOL     OW10120   2.003   0.530   1.408
 3074SOL    HW110121   2.094   0.534   1.367
 3074SOL    HW210122   1.985   0.614   1.459
 3075SOL     OW10123   2.445   0.217   1.168
 3075SOL    HW110124   2.468   0.120   1.177
 3075SOL    HW210125   2.394   0.247   1.249
 3076SOL     OW10126   2.733   0.471   0.641
 3076SOL    HW110127   2.681   0.523   0.573
 3076SOL    HW210128   2.776   0.392   0.596
 3077SOL     OW10129   2.804   6.984   0.819
 3077SOL    HW110130   2.760   0.003   0.732
 3077SOL    HW210131   2.855   6.898   0.813
 3078SOL     OW10132   3.276   1.119   0.903
 3078SOL    HW110133   3.222   1.036   0.920
 3078SOL    HW210134   3.276   1.139   0.805
 3079SOL     OW10135   3.305   0.643   0.924
 3079SOL    HW110136   3.243   0.565   0.927
 3079SOL    HW210137   3.371   0.636   0.999
 3080SOL     OW10138   3.691   0.730   0.400
 3080SOL    HW110139   3.763   0.699   0.462
 3080SOL    HW210140   3.701   0.683   0.312
 3081SOL     OW10141   2.381   1.444   0.122
 3081SOL    HW110142   2.320   1.405   0.191
 3081SOL    HW210143   2.386   1.382   0.043
 3082SOL     OW10144   3.568   1.259   0.630
 3082SOL    HW110145   3.663   1.238   0.650
 3082SOL    HW210146   3.546   1.351   0.662
 3083SOL     OW10147   3.200   0.549   0.046
 3083SOL    HW110148   3.140   0.552   0.126
 3083SOL    HW210149   3.272   0.481   0.061
 3084SOL     OW10150   2.358   0.248   0.247
 3084SOL    HW110151   2.427   0.215   0.182
 3084SOL    HW210152   2.318   0.333   0.213
 3085SOL     OW10153   3.605   1.225   1.535
 3085SOL    HW110154   3.697   1.186   1.527
 3085SOL    HW210155   3.611   1.319   1.569
 3086SOL     OW10156   2.864   1.312   1.338
 3086SOL    HW110157   2.781   1.289   1.389
 3086SOL    HW210158   2.944   1.282   1.389
 3087SOL     OW10159   3.471   1.648   1.672
 3087SOL    HW110160   3.457   1.705   1.591
 3087SOL    HW210161   3.545   1.583   1.655
 3088SOL     OW10162   3.012   1.270   1.115
 3088SOL    HW110163   2.946   1.285   1.188
 3088SOL    HW210164   2.975   1.303   1.028
 3089SOL     OW10165   3.461   1.091   1.105
 3089SOL    HW110166   3.458   1.163   1.175
 3089SOL    HW210167   3.388   1.106   1.039
 3090SOL     OW10168   2.746   0.172   1.356
 3090SOL    HW110169   2.760   0.155   1.259
 3090SOL    HW210170   2.834   0.196   1.398
 3091SOL     OW10171   2.812   1.118   1.716
 3091SOL    HW110172   2.719   1.127   1.749
 3091SOL    HW210173   2.821   1.035   1.662
 3092SOL     OW10174   2.598   1.014   0.359
 3092SOL    HW110175   2.587   0.989   0.455
 3092SOL    HW210176   2.686   0.980   0.325
 3093SOL     OW10177   2.320   0.800   1.284
 3093SOL    HW110178   2.384   0.805   1.361
 3093SOL    HW210179   2.288   0.705   1.274
 3094SOL     OW10180   3.129   0.373   1.283
 3094SOL    HW110181   3.155   0.453   1.337
 3094SOL    HW210182   3.036   0.386   1.247
 3095SOL     OW10183   1.926   1.548   1.336
 3095SOL    HW110184   1.885   1.617   1.277
 3095SOL    HW210185   2.026   1.557   1.333
 3096SOL     OW10186   2.201   1.101   0.397
 3096SOL    HW110187   2.204   1.195   0.362
 3096SOL    HW210188   2.204   1.037   0.320
 3097SOL     OW10189   2.396   0.521   0.862
 3097SOL    HW110190   2.409   0.576   0.780
 3097SOL    HW210191   2.462   0.549   0.932
 3098SOL     OW10192   3.139   1.362   0.474
 3098SOL    HW110193   3.177   1.451   0.501
 3098SOL    HW210194   3.040   1.368   0.469
 3099SOL     OW10195   3.187   1.478   1.151
 3099SOL    HW110196   3.233   1.485   1.240
 3099SOL    HW210197   3.124   1.401   1.151
 3100SOL     OW10198   3.463   0.623   0.510
 3100SOL    HW110199   3.399   0.686   0.556
 3100SOL    HW210200   3.539   0.676   0.472
 3101SOL     OW10201   2.204   1.532   1.300
 3101SOL    HW110202   2.196   1.472   1.221
 3101SOL    HW210203   2.300   1.555   1.315
 3102SOL     OW10204   2.346   0.678   1.689
 3102SOL    HW110205   2.387   0.728   1.613
 3102SOL    HW210206   2.412   0.612   1.725
 3103SOL     OW10207   3.484   0.814   1.699
 3103SOL    HW110208   3.389   0.844   1.693
 3103SOL    HW210209   3.534   0.846   1.618
 3104SOL     OW10210   2.871   0.116   1.718
 3104SOL    HW110211   2.908   0.156   1.634
 3104SOL    HW210212   2.869   0.017   1.709
 3105SOL     OW10213   2.279   0.050   1.719
 3105SOL    HW110214   2.199   6.995   1.741
 3105SOL    HW210215   2.261   0.146   1.740
 3106SOL     OW10216   2.450   0.883   1.053
 3106SOL    HW110217   2.491   0.974   1.052
 3106SOL    HW210218   2.404   0.867   1.140
 3107SOL     OW10219   3.151   0.878   0.976
 3107SOL    HW110220   3.055   0.853   0.962
 3107SOL    HW210221   3.208   0.797   0.961
 3108SOL     OW10222   3.027   0.538   0.255
 3108SOL    HW110223   3.057   0.463   0.313
 3108SOL    HW210224   2.981   0.607   0.311
 3109SOL     OW10225   2.065   0.135   1.262
 3109SOL    HW110226   2.101   0.112   1.353
 3109SOL    HW210227   2.120   0.090   1.192
 3110SOL     OW10228   1.926   1.277   1.281
 3110SOL    HW110229   1.955   1.230   1.365
 3110SOL    HW210230   1.919   1.375   1.299
 3111SOL     OW10231   2.572   0.635   1.046
 3111SOL    HW110232   2.648   0.621   0.984
 3111SOL    HW210233   2.535   0.727   1.035
 3112SOL     OW10234   3.640   0.968   1.871
 3112SOL    HW110235   3.587   0.906   1.812
 3112SOL    HW210236   3.581   1.004   1.943
 3113SOL     OW10237   2.166   0.056   0.544
 3113SOL    HW110238   2.155   0.139   0.598
 3113SOL    HW210239   2.127   6.978   0.593
 3114SOL     OW10240   3.522   0.431   0.323
 3114SOL    HW110241   3.565   0.360   0.378
 3114SOL    HW210242   3.483   0.501   0.383
 3115SOL     OW10243   2.884   0.798   0.951
 3115SOL    HW110244   2.859   0.817   1.046
 3115SOL    HW210245   2.853   0.706   0.926
 3116SOL     OW10246   2.837   1.611   1.692
 3116SOL    HW110247   2.834   1.642   1.597
 3116SOL    HW210248   2.863   1.515   1.695
 3117SOL     OW10249   3.683   1.484   1.594
 3117SOL    HW110250   3.709   1.516   1.502
 3117SOL    HW210251   3.759   1.501   1.657
 3118SOL     OW10252   2.234   0.899   1.824
 3118SOL    HW110253   2.302   0.932   1.889
 3118SOL    HW210254   2.271   0.820   1.774
 3119SOL     OW10255   3.376   0.342   0.103
 3119SOL    HW110256   3.361   0.243   0.099
 3119SOL    HW210257   3.424   0.364   0.188
 3120SOL     OW10258   3.197   0.822   6.999
 3120SOL    HW110259   3.197   0.723   0.007
 3120SOL    HW210260   3.261   0.851   6.928
 3121SOL     OW10261   2.931   1.374   0.872
 3121SOL    HW110262   2.946   1.298   0.809
 3121SOL    HW210263   2.988   1.451   0.845
 3122SOL     OW10264   2.208   0.819   0.926
 3122SOL    HW110265   2.301   0.841   0.954
 3122SOL    HW210266   2.186   0.725   0.954
 3123SOL     OW10267   2.163   0.548   1.001
 3123SOL    HW110268   2.111   0.463   1.011
 3123SOL    HW210269   2.241   0.533   0.941
 3124SOL     OW10270   2.983   0.435   1.673
 3124SOL    HW110271   2.945   0.462   1.761
 3124SOL    HW210272   3.079   0.463   1.668
 3125SOL     OW10273   2.977   0.240   1.489
 3125SOL    HW110274   2.973   0.317   1.553
 3125SOL    HW210275   3.045   0.258   1.418
 3126SOL     OW10276   1.928   1.774   0.940
 3126SOL    HW110277   1.890   1.695   0.892
 3126SOL    HW210278   2.027   1.775   0.930
 3127SOL     OW10279   2.337   1.525   0.892
 3127SOL    HW110280   2.413   1.582   0.923
 3127SOL    HW210281   2.369   1.466   0.817
 3128SOL     OW10282   2.778   0.806   1.203
 3128SOL    HW110283   2.836   0.773   1.277
 3128SOL    HW210284   2.698   0.746   1.194
 3129SOL     OW10285   1.932   0.638   1.146
 3129SOL    HW110286   2.004   0.617   1.080
 3129SOL    HW210287   1.956   0.598   1.234
 3130SOL     OW10288   2.073   0.628   1.734
 3130SOL    HW110289   2.171   0.635   1.720
 3130SOL    HW210290   2.025   0.687   1.669
 3131SOL     OW10291   3.240   0.924   1.635
 3131SOL    HW110292   3.262   1.022   1.635
 3131SOL    HW210293   3.228   0.893   1.541
 3132SOL     OW10294   2.655   0.574   0.394
 3132SOL    HW110295   2.675   0.487   0.349
 3132SOL    HW210296   2.575   0.615   0.351
 3133SOL     OW10297   3.493   0.605   1.117
 3133SOL    HW110298   3.465   0.525   1.169
 3133SOL    HW210299   3.592   0.606   1.106
 3134SOL     OW10300   2.082   1.524   1.698
 3134SOL    HW110301   2.067   1.601   1.759
 3134SOL    HW210302   2.096   1.441   1.751
 3135SOL     OW10303   2.606   0.438   1.233
 3135SOL    HW110304   2.557   0.354   1.208
 3135SOL    HW210305   2.584   0.510   1.167
 3136SOL     OW10306   2.837   1.664   1.414
 3136SOL    HW110307   2.795   1.612   1.340
 3136SOL    HW210308   2.824   1.762   1.397
 3137SOL     OW10309   2.261   0.487   0.155
 3137SOL    HW110310   2.334   0.546   0.190
 3137SOL    HW210311   2.175   0.537   0.153
 3138SOL     OW10312   2.005   1.134   1.508
 3138SOL    HW110313   2.009   1.106   1.604
 3138SOL    HW210314   2.039   1.060   1.450
 3139SOL     OW10315   3.130   1.039   1.201
 3139SOL    HW110316   3.143   0.978   1.123
 3139SOL    HW210317   3.090   1.125   1.168
 3140SOL     OW10318   3.222   0.920   0.254
 3140SOL    HW110319   3.146   0.891   0.312
 3140SOL    HW210320   3.211   0.880   0.163
 3141SOL     OW10321   3.623   1.691   1.152
 3141SOL    HW110322   3.695   1.723   1.090
 3141SOL    HW210323   3.597   1.598   1.128
 3142SOL     OW10324   3.147   1.734   1.066
 3142SOL    HW110325   3.237   1.775   1.049
 3142SOL    HW210326   3.159   1.645   1.110
 3143SOL     OW10327   1.998   1.189   1.036
 3143SOL    HW110328   1.966   1.221   1.126
 3143SOL    HW210329   1.924   1.137   0.992
 3144SOL     OW10330   2.581   1.679   1.777
 3144SOL    HW110331   2.537   1.767   1.758
 3144SOL    HW210332   2.677   1.684   1.751
 3145SOL     OW10333   2.786   0.096   0.146
 3145SOL    HW110334   2.884   0.104   0.129
 3145SOL    HW210335   2.768   0.014   0.200
 3146SOL     OW10336   3.622   0.231   0.478
 3146SOL    HW110337   3.670   0.195   0.397
 3146SOL    HW210338   3.604   0.157   0.542
 3147SOL     OW10339   3.262   1.595   0.545
 3147SOL    HW110340   3.330   1.628   0.480
 3147SOL    HW210341   3.207   1.673   0.576
 3148SOL     OW10342   2.020   1.744   1.851
 3148SOL    HW110343   1.964   1.677   1.900
 3148SOL    HW210344   2.079   1.792   1.916
 3149SOL     OW10345   3.142   0.966   0.632
 3149SOL    HW110346   3.211   0.896   0.650
 3149SOL    HW210347   3.187   1.054   0.619
 3150SOL     OW10348   2.613   1.263   1.439
 3150SOL    HW110349   2.601   1.324   1.518
 3150SOL    HW210350   2.539   1.279   1.374
 3151SOL     OW10351   2.612   1.606   0.154
 3151SOL    HW110352   2.601   1.683   0.091
 3151SOL    HW210353   2.532   1.546   0.149
 3152SOL     OW10354   3.468   1.740   1.383
 3152SOL    HW110355   3.527   1.724   1.304
 3152SOL    HW210356   3.449   1.838   1.392
 3153SOL     OW10357   3.723   0.134   0.994
 3153SOL    HW110358   3.745   0.041   0.963
 3153SOL    HW210359   3.640   0.166   0.949
 3154SOL     OW10360   2.146   0.280   0.694
 3154SOL    HW110361   2.064   0.336   0.701
 3154SOL    HW210362   2.190   0.275   0.784
 3155SOL     OW10363   3.063   1.585   0.067
 3155SOL    HW110364   3.050   1.487   0.077
 3155SOL    HW210365   3.003   1.619   6.994
 3156SOL     OW10366   2.651   0.997   1.396
 3156SOL    HW110367   2.695   0.984   1.307
 3156SOL    HW210368   2.637   1.095   1.412
 3157SOL     OW10369   2.829   0.923   0.251
 3157SOL    HW110370   2.872   0.920   0.161
 3157SOL    HW210371   2.860   0.844   0.305
 3158SOL     OW10372   3.312   1.670   0.143
 3158SOL    HW110373   3.228   1.629   0.109
 3158SOL    HW210374   3.298   1.767   0.158
 3159SOL     OW10375   2.234   1.306   1.490
 3159SOL    HW110376   2.218   1.387   1.433
 3159SOL    HW210377   2.151   1.251   1.493
 3160SOL     OW10378   3.466   1.290   1.300
 3160SOL    HW110379   3.523   1.261   1.377
 3160SOL    HW210380   3.405   1.364   1.330
 3161SOL     OW10381   2.934   1.146   0.721
 3161SOL    HW110382   2.855   1.098   0.759
 3161SOL    HW210383   2.998   1.080   0.683
 3162SOL     OW10384   2.892   0.297   0.936
 3162SOL    HW110385   2.870   0.279   0.840
 3162SOL    HW210386   2.869   0.216   0.991
 3163SOL     OW10387   2.497   1.453   0.457
 3163SOL    HW110388   2.534   1.403   0.378
 3163SOL    HW210389   2.441   1.529   0.424
 3164SOL     OW10390   3.729   0.343   1.454
 3164SOL    HW110391   3.758   0.433   1.422
 3164SOL    HW210392   3.700   0.288   1.375
 3165SOL     OW10393   2.188   1.360   0.298
 3165SOL    HW110394   2.107   1.392   0.247
 3165SOL    HW210395   2.179   1.386   0.394
 3166SOL     OW10396   2.004   1.049   1.769
 3166SOL    HW110397   1.920   1.018   1.813
 3166SOL    HW210398   2.078   0.986   1.793
 3167SOL     OW10399   2.554   0.224   1.538
 3167SOL    HW110400   2.626   0.212   1.469
 3167SOL    HW210401   2.594   0.261   1.622
 3168SOL     OW10402   1.915   0.327   0.011
 3168SOL    HW110403   1.850   0.287   6.947
 3168SOL    HW210404   1.887   0.420   0.035
 3169SOL     OW10405   3.241   0.854   1.372
 3169SOL    HW110406   3.185   0.918   1.319
 3169SOL    HW210407   3.333   0.850   1.333
 3170SOL     OW10408   1.911   0.166   0.236
 3170SOL    HW110409   1.918   0.231   0.160
 3170SOL    HW210410   1.999   0.118   0.246
 3171SOL     OW10411   3.026   1.315   0.098
 3171SOL    HW110412   2.929   1.326   0.075
 3171SOL    HW210413   3.035   1.251   0.174
 3172SOL     OW10414   2.500   0.788   1.485
 3172SOL    HW110415   2.548   0.873   1.464
 3172SOL    HW210416   2.565   0.712   1.483
 3173SOL     OW10417   3.402   1.818   1.013
 3173SOL    HW110418   3.424   1.912   0.986
 3173SOL    HW210419   3.476   1.782   1.070
 3174SOL     OW10420   2.585   0.523   1.737
 3174SOL    HW110421   2.642   0.595   1.777
 3174SOL    HW210422   2.610   0.435   1.778
 3175SOL     OW10423   3.325   1.185   1.618
 3175SOL    HW110424   3.312   1.210   1.714
 3175SOL    HW210425   3.419   1.206   1.590
 3176SOL     OW10426   2.226   1.748   1.578
 3176SOL    HW110427   2.140   1.798   1.574
 3176SOL    HW210428   2.208   1.652   1.601
 3177SOL     OW10429   3.482   0.857   1.245
 3177SOL    HW110430   3.493   0.774   1.191
 3177SOL    HW210431   3.479   0.936   1.185
 3178SOL     OW10432   3.106   0.337   0.427
 3178SOL    HW110433   3.186   0.277   0.424
 3178SOL    HW210434   3.110   0.394   0.509
 3179SOL     OW10435   2.441   0.704   0.662
 3179SOL    HW110436   2.491   0.790   0.652
 3179SOL    HW210437   2.376   0.694   0.587
 3180SOL     OW10438   3.610   0.360   1.700
 3180SOL    HW110439   3.654   0.359   1.610
 3180SOL    HW210440   3.524   0.309   1.696
 3181SOL     OW10441   3.597   0.933   1.481
 3181SOL    HW110442   3.582   1.032   1.493
 3181SOL    HW210443   3.560   0.905   1.392
 3182SOL     OW10444   2.755   1.377   0.059
 3182SOL    HW110445   2.718   1.322   0.134
 3182SOL    HW210446   2.732   1.473   0.072
 3183SOL     OW10447   2.530   1.706   0.952
 3183SOL    HW110448   2.499   1.801   0.948
 3183SOL    HW210449   2.629   1.702   0.938
 3184SOL     OW10450   2.726   1.006   0.851
 3184SOL    HW110451   2.783   0.932   0.887
 3184SOL    HW210452   2.673   1.047   0.925
 3185SOL     OW10453   2.938   0.927   6.992
 3185SOL    HW110454   2.901   0.865   6.923
 3185SOL    HW210455   3.037   0.914   6.999
 3186SOL     OW10456   3.693   1.541   0.855
 3186SOL    HW110457   3.616   1.539   0.791
 3186SOL    HW210458   3.669   1.488   0.936
 3187SOL     OW10459   2.103   1.292   1.850
 3187SOL    HW110460   2.056   1.208   1.823
 3187SOL    HW210461   2.093   1.306   1.948
 3188SOL     OW10462   1.979   1.224   0.686
 3188SOL    HW110463   2.043   1.184   0.752
 3188SOL    HW210464   1.963   1.160   0.611
 3189SOL     OW10465   2.562   1.429   1.651
 3189SOL    HW110466   2.481   1.387   1.690
 3189SOL    HW210467   2.572   1.522   1.688
 3190SOL     OW10468   3.644   0.161   1.262
 3190SOL    HW110469   3.553   0.125   1.243
 3190SOL    HW210470   3.696   0.165   1.176
 3191SOL     OW10471   2.277   0.399   0.479
 3191SOL    HW110472   2.312   0.332   0.414
 3191SOL    HW210473   2.237   0.351   0.558
 3192SOL     OW10474   3.568   1.434   1.079
 3192SOL    HW110475   3.486   1.418   1.025
 3192SOL    HW210476   3.566   1.377   1.161
 3193SOL     OW10477   2.239   0.537   1.272
 3193SOL    HW110478   2.287   0.457   1.307
 3193SOL    HW210479   2.224   0.527   1.173
 3194SOL     OW10480   2.685   1.558   0.666
 3194SOL    HW110481   2.690   1.592   0.572
 3194SOL    HW210482   2.607   1.497   0.676
 3195SOL     OW10483   3.317   0.282   1.106
 3195SOL    HW110484   3.354   0.193   1.133
 3195SOL    HW210485   3.253   0.315   1.176
 3196SOL     OW10486   2.813   0.078   1.083
 3196SOL    HW110487   2.798   0.037   0.993
 3196SOL    HW210488   2.839   0.008   1.148
 3197SOL     OW10489   2.667   1.277   0.300
 3197SOL    HW110490   2.635   1.185   0.323
 3197SOL    HW210491   2.739   1.305   0.362
 3198SOL     OW10492   2.475   1.583   1.295
 3198SOL    HW110493   2.469   1.674   1.335
 3198SOL    HW210494   2.568   1.569   1.260
 3199SOL     OW10495   3.311   0.055   0.085
 3199SOL    HW110496   3.306   6.957   0.068
 3199SOL    HW210497   3.219   0.091   0.099
 3200SOL     OW10498   3.099   0.487   0.655
 3200SOL    HW110499   3.058   0.578   0.658
 3200SOL    HW210500   3.128   0.460   0.747
 3201SOL     OW10501   3.497   0.248   0.883
 3201SOL    HW110502   3.434   0.256   0.960
 3201SOL    HW210503   3.498   0.334   0.832
 3202SOL     OW10504   1.947   1.046   0.487
 3202SOL    HW110505   2.040   1.060   0.453
 3202SOL    HW210506   1.906   0.968   0.439
 3203SOL     OW10507   2.753   1.652   0.395
 3203SOL    HW110508   2.697   1.635   0.314
 3203SOL    HW210509   2.732   1.743   0.431
 3204SOL     OW10510   2.058   0.661   2.012
 3204SOL    HW110511   1.969   0.625   2.039
 3204SOL    HW210512   2.063   0.667   1.913
 3205SOL     OW10513   2.053   0.303   2.908
 3205SOL    HW110514   2.090   0.253   2.987
 3205SOL    HW210515   1.977   0.251   2.869
 3206SOL     OW10516   1.890   0.439   2.524
 3206SOL    HW110517   1.808   0.471   2.571
 3206SOL    HW210518   1.864   0.378   2.449
 3207SOL     OW10519   2.437   1.308   3.100
 3207SOL    HW110520   2.351   1.304   3.050
 3207SOL    HW210521   2.461   1.404   3.119
 3208SOL     OW10522   3.456   1.504   2.568
 3208SOL    HW110523   3.409   1.479   2.653
 3208SOL    HW210524   3.389   1.514   2.494
 3209SOL     OW10525   2.993   0.751   2.544
 3209SOL    HW110526   3.047   0.833   2.527
 3209SOL    HW210527   2.945   0.761   2.631
 3210SOL     OW10528   3.680   0.545   2.061
 3210SOL    HW110529   3.632   0.573   1.979
 3210SOL    HW210530   3.620   0.487   2.117
 3211SOL     OW10531   2.575   1.133   2.928
 3211SOL    HW110532   2.524   1.171   3.005
 3211SOL    HW210533   2.610   1.208   2.871
 3212SOL     OW10534   2.761   0.732   3.669
 3212SOL    HW110535   2.783   0.803   3.736
 3212SOL    HW210536   2.771   0.769   3.576
 3213SOL     OW10537   2.535   0.951   2.526
 3213SOL    HW110538   2.609   0.968   2.591
 3213SOL    HW210539   2.464   1.020   2.537
 3214SOL     OW10540   2.557   1.145   3.715
 3214SOL    HW110541   2.623   1.210   3.753
 3214SOL    HW210542   2.479   1.195   3.678
 3215SOL     OW10543   2.203   1.364   2.959
 3215SOL    HW110544   2.127   1.310   2.922
 3215SOL    HW210545   2.243   1.419   2.886
 3216SOL     OW10546   3.295   1.477   3.247
 3216SOL    HW110547   3.347   1.562   3.254
 3216SOL    HW210548   3.215   1.482   3.307
 3217SOL     OW10549   2.331   0.319   3.275
 3217SOL    HW110550   2.411   0.291   3.328
 3217SOL    HW210551   2.248   0.286   3.319
 3218SOL     OW10552   3.499   0.500   2.601
 3218SOL    HW110553   3.481   0.534   2.509
 3218SOL    HW210554   3.444   0.552   2.667
 3219SOL     OW10555   2.101   1.723   2.341
 3219SOL    HW110556   2.123   1.788   2.414
 3219SOL    HW210557   2.181   1.713   2.281
 3220SOL     OW10558   2.974   1.312   3.567
 3220SOL    HW110559   3.038   1.294   3.642
 3220SOL    HW210560   2.911   1.235   3.558
 3221SOL     OW10561   2.094   1.447   2.366
 3221SOL    HW110562   2.088   1.546   2.376
 3221SOL    HW210563   2.062   1.403   2.450
 3222SOL     OW10564   2.155   1.082   2.728
 3222SOL    HW110565   2.172   0.987   2.754
 3222SOL    HW210566   2.100   1.127   2.799
 3223SOL     OW10567   2.400   1.815   3.278
 3223SOL    HW110568   2.317   1.792   3.329
 3223SOL    HW210569   2.455   1.880   3.330
 3224SOL     OW10570   2.418   0.978   2.028
 3224SOL    HW110571   2.471   1.026   1.958
 3224SOL    HW210572   2.456   0.999   2.119
 3225SOL     OW10573   3.452   0.076   3.354
 3225SOL    HW110574   3.549   0.100   3.353
 3225SOL    HW210575   3.406   0.126   3.428
 3226SOL     OW10576   1.987   0.687   2.440
 3226SOL    HW110577   1.966   0.592   2.466
 3226SOL    HW210578   1.985   0.745   2.521
 3227SOL     OW10579   3.727   1.707   2.169
 3227SOL    HW110580   3.808   1.697   2.227
 3227SOL    HW210581   3.707   1.804   2.156
 3228SOL     OW10582   1.894   1.556   1.994
 3228SOL    HW110583   1.869   1.461   2.013
 3228SOL    HW210584   1.883   1.611   2.077
 3229SOL     OW10585   3.583   0.926   2.529
 3229SOL    HW110586   3.677   0.892   2.533
 3229SOL    HW210587   3.570   0.980   2.446
 3230SOL     OW10588   3.537   1.116   2.308
 3230SOL    HW110589   3.626   1.095   2.268
 3230SOL    HW210590   3.549   1.174   2.389
 3231SOL     OW10591   1.960   0.791   3.376
 3231SOL    HW110592   2.019   0.842   3.314
 3231SOL    HW210593   1.870   0.835   3.381
 3232SOL     OW10594   2.459   1.371   2.595
 3232SOL    HW110595   2.419   1.281   2.578
 3232SOL    HW210596   2.465   1.422   2.509
 3233SOL     OW10597   3.095   1.201   3.282
 3233SOL    HW110598   3.116   1.133   3.212
 3233SOL    HW210599   3.167   1.200   3.351
 3234SOL     OW10600   2.688   0.073   2.455
 3234SOL    HW110601   2.736   0.143   2.401
 3234SOL    HW210602   2.596   0.059   2.419
 3235SOL     OW10603   2.088   0.939   3.181
 3235SOL    HW110604   2.180   0.900   3.172
 3235SOL    HW210605   2.047   0.949   3.091
 3236SOL     OW10606   3.439   1.051   2.056
 3236SOL    HW110607   3.362   0.989   2.070
 3236SOL    HW210608   3.476   1.078   2.145
 3237SOL     OW10609   3.035   1.756   3.501
 3237SOL    HW110610   3.039   1.830   3.434
 3237SOL    HW210611   3.046   1.668   3.454
 3238SOL     OW10612   2.199   0.298   3.690
 3238SOL    HW110613   2.255   0.358   3.747
 3238SOL    HW210614   2.105   0.331   3.689
 3239SOL     OW10615   3.340   1.402   2.791
 3239SOL    HW110616   3.271   1.425   2.860
 3239SOL    HW210617   3.325   1.308   2.760
 3240SOL     OW10618   3.529   1.739   2.433
 3240SOL    HW110619   3.502   1.708   2.341
 3240SOL    HW210620   3.511   1.667   2.499
 3241SOL     OW10621   2.427   0.699   2.124
 3241SOL    HW110622   2.429   0.791   2.087
 3241SOL    HW210623   2.361   0.695   2.199
 3242SOL     OW10624   3.149   0.412   2.788
 3242SOL    HW110625   3.057   0.374   2.797
 3242SOL    HW210626   3.212   0.361   2.847
 3243SOL     OW10627   3.461   1.638   2.182
 3243SOL    HW110628   3.559   1.653   2.173
 3243SOL    HW210629   3.418   1.645   2.092
 3244SOL     OW10630   2.665   0.570   3.336
 3244SOL    HW110631   2.633   0.531   3.423
 3244SOL    HW210632   2.640   0.509   3.261
 3245SOL     OW10633   3.251   0.486   3.528
 3245SOL    HW110634   3.257   0.531   3.617
 3245SOL    HW210635   3.295   0.396   3.534
 3246SOL     OW10636   2.810   0.870   3.431
 3246SOL    HW110637   2.867   0.804   3.381
 3246SOL    HW210638   2.754   0.922   3.367
 3247SOL     OW10639   2.883   0.407   3.050
 3247SOL    HW110640   2.790   0.419   3.083
 3247SOL    HW210641   2.881   0.373   2.956
 3248SOL     OW10642   2.903   0.710   2.282
 3248SOL    HW110643   2.925   0.717   2.380
 3248SOL    HW210644   2.814   0.665   2.272
 3249SOL     OW10645   1.960   0.842   2.663
 3249SOL    HW110646   2.049   0.828   2.708
 3249SOL    HW210647   1.905   0.904   2.718
 3250SOL     OW10648   1.926   1.880   3.473
 3250SOL    HW110649   1.942   1.838   3.563
 3250SOL    HW210650   1.828   1.879   3.453
 3251SOL     OW10651   2.728   0.374   2.057
 3251SOL    HW110652   2.799   0.428   2.013
 3251SOL    HW210653   2.678   0.321   1.988
 3252SOL     OW10654   3.533   0.583   3.698
 3252SOL    HW110655   3.513   0.666   3.647
 3252SOL    HW210656   3.551   0.508   3.634
 3253SOL     OW10657   3.244   1.148   2.334
 3253SOL    HW110658   3.341   1.154   2.309
 3253SOL    HW210659   3.196   1.228   2.297
 3254SOL     OW10660   2.342   0.226   2.798
 3254SOL    HW110661   2.388   0.226   2.887
 3254SOL    HW210662   2.366   0.310   2.748
 3255SOL     OW10663   2.848   1.457   2.319
 3255SOL    HW110664   2.827   1.532   2.256
 3255SOL    HW210665   2.825   1.484   2.412
 3256SOL     OW10666   2.205   1.774   2.795
 3256SOL    HW110667   2.247   1.684   2.785
 3256SOL    HW210668   2.276   1.843   2.807
 3257SOL     OW10669   3.661   1.025   2.782
 3257SOL    HW110670   3.619   1.015   2.692
 3257SOL    HW210671   3.590   1.039   2.851
 3258SOL     OW10672   3.047   1.502   3.377
 3258SOL    HW110673   3.035   1.431   3.447
 3258SOL    HW210674   2.986   1.483   3.300
 3259SOL     OW10675   2.142   0.916   2.123
 3259SOL    HW110676   2.229   0.941   2.081
 3259SOL    HW210677   2.114   0.825   2.092
 3260SOL     OW10678   3.347   0.793   2.558
 3260SOL    HW110679   3.337   0.741   2.642
 3260SOL    HW210680   3.435   0.840   2.558
 3261SOL     OW10681   2.324   1.290   3.629
 3261SOL    HW110682   2.307   1.290   3.530
 3261SOL    HW210683   2.237   1.279   3.678
 3262SOL     OW10684   3.023   1.742   2.107
 3262SOL    HW110685   2.929   1.728   2.135
 3262SOL    HW210686   3.040   1.692   2.021
 3263SOL     OW10687   2.111   0.234   3.422
 3263SOL    HW110688   2.030   0.280   3.385
 3263SOL    HW210689   2.136   0.276   3.510
 3264SOL     OW10690   3.504   1.401   1.946
 3264SOL    HW110691   3.455   1.489   1.945
 3264SOL    HW210692   3.442   1.328   1.918
 3265SOL     OW10693   2.342   1.716   2.196
 3265SOL    HW110694   2.380   1.782   2.259
 3265SOL    HW210695   2.413   1.684   2.133
 3266SOL     OW10696   3.233   0.121   2.274
 3266SOL    HW110697   3.185   0.068   2.204
 3266SOL    HW210698   3.327   0.137   2.245
 3267SOL     OW10699   2.109   1.764   3.062
 3267SOL    HW110700   2.154   1.689   3.112
 3267SOL    HW210701   2.141   1.765   2.968
 3268SOL     OW10702   2.778   1.678   2.730
 3268SOL    HW110703   2.872   1.644   2.729
 3268SOL    HW210704   2.730   1.646   2.648
 3269SOL     OW10705   2.248   0.655   2.330
 3269SOL    HW110706   2.249   0.555   2.334
 3269SOL    HW210707   2.157   0.688   2.356
 3270SOL     OW10708   3.343   0.219   3.580
 3270SOL    HW110709   3.375   0.213   3.674
 3270SOL    HW210710   3.248   0.188   3.575
 3271SOL     OW10711   2.466   0.084   1.935
 3271SOL    HW110712   2.488   0.007   1.994
 3271SOL    HW210713   2.396   0.056   1.868
 3272SOL     OW10714   2.653   0.248   3.672
 3272SOL    HW110715   2.738   0.199   3.650
 3272SOL    HW210716   2.589   0.185   3.716
 3273SOL     OW10717   2.706   1.507   3.038
 3273SOL    HW110718   2.686   1.462   2.951
 3273SOL    HW210719   2.775   1.455   3.088
 3274SOL     OW10720   3.176   0.589   3.287
 3274SOL    HW110721   3.214   0.562   3.375
 3274SOL    HW210722   3.201   0.684   3.268
 3275SOL     OW10723   2.655   1.360   2.798
 3275SOL    HW110724   2.748   1.371   2.764
 3275SOL    HW210725   2.590   1.373   2.722
 3276SOL     OW10726   2.766   0.538   2.732
 3276SOL    HW110727   2.742   0.527   2.635
 3276SOL    HW210728   2.806   0.453   2.766
 3277SOL     OW10729   2.415   0.040   2.301
 3277SOL    HW110730   2.356   0.042   2.381
 3277SOL    HW210731   2.392   0.115   2.240
 3278SOL     OW10732   3.295   1.224   1.890
 3278SOL    HW110733   3.338   1.156   1.950
 3278SOL    HW210734   3.206   1.248   1.926
 3279SOL     OW10735   2.132   6.994   2.032
 3279SOL    HW110736   2.164   0.075   2.080
 3279SOL    HW210737   2.046   6.963   2.073
 3280SOL     OW10738   2.812   0.272   2.302
 3280SOL    HW110739   2.773   0.300   2.215
 3280SOL    HW210740   2.909   0.294   2.304
 3281SOL     OW10741   2.912   0.679   3.267
 3281SOL    HW110742   2.839   0.618   3.297
 3281SOL    HW210743   3.000   0.632   3.271
 3282SOL     OW10744   3.045   1.615   2.685
 3282SOL    HW110745   3.086   1.663   2.607
 3282SOL    HW210746   3.084   1.652   2.770
 3283SOL     OW10747   2.334   1.135   2.533
 3283SOL    HW110748   2.272   1.117   2.609
 3283SOL    HW210749   2.284   1.132   2.447
 3284SOL     OW10750   3.135   1.781   2.476
 3284SOL    HW110751   3.194   1.848   2.430
 3284SOL    HW210752   3.049   1.825   2.502
 3285SOL     OW10753   2.902   0.529   1.918
 3285SOL    HW110754   2.858   0.613   1.886
 3285SOL    HW210755   2.972   0.551   1.986
 3286SOL     OW10756   1.987   0.563   3.226
 3286SOL    HW110757   2.084   0.558   3.203
 3286SOL    HW210758   1.971   0.640   3.288
 3287SOL     OW10759   2.453   0.220   3.052
 3287SOL    HW110760   2.476   0.124   3.069
 3287SOL    HW210761   2.396   0.255   3.126
 3288SOL     OW10762   2.721   0.475   2.473
 3288SOL    HW110763   2.675   0.534   2.407
 3288SOL    HW210764   2.753   0.392   2.427
 3289SOL     OW10765   2.805   6.986   2.694
 3289SOL    HW110766   2.757   0.017   2.612
 3289SOL    HW210767   2.851   6.899   2.676
 3290SOL     OW10768   3.348   1.145   2.696
 3290SOL    HW110769   3.276   1.096   2.646
 3290SOL    HW210770   3.423   1.167   2.633
 3291SOL     OW10771   3.321   0.631   2.781
 3291SOL    HW110772   3.254   0.557   2.786
 3291SOL    HW210773   3.383   0.625   2.859
 3292SOL     OW10774   3.672   0.755   2.244
 3292SOL    HW110775   3.744   0.736   2.311
 3292SOL    HW210776   3.679   0.689   2.169
 3293SOL     OW10777   2.357   1.399   2.009
 3293SOL    HW110778   2.274   1.373   2.056
 3293SOL    HW210779   2.358   1.358   1.918
 3294SOL     OW10780   3.574   1.246   2.543
 3294SOL    HW110781   3.673   1.234   2.551
 3294SOL    HW210782   3.552   1.344   2.550
 3295SOL     OW10783   3.255   0.595   1.922
 3295SOL    HW110784   3.207   0.582   2.008
 3295SOL    HW210785   3.354   0.598   1.938
 3296SOL     OW10786   2.318   0.229   2.119
 3296SOL    HW110787   2.373   0.186   2.048
 3296SOL    HW210788   2.298   0.324   2.093
 3297SOL     OW10789   3.596   1.207   3.401
 3297SOL    HW110790   3.686   1.165   3.398
 3297SOL    HW210791   3.604   1.301   3.436
 3298SOL     OW10792   2.871   1.341   3.204
 3298SOL    HW110793   2.786   1.313   3.248
 3298SOL    HW210794   2.947   1.288   3.242
 3299SOL     OW10795   3.465   1.620   3.522
 3299SOL    HW110796   3.449   1.661   3.432
 3299SOL    HW210797   3.545   1.560   3.518
 3300SOL     OW10798   2.985   1.251   2.968
 3300SOL    HW110799   2.926   1.282   3.043
 3300SOL    HW210800   2.953   1.290   2.882
 3301SOL     OW10801   3.452   1.076   2.952
 3301SOL    HW110802   3.444   1.146   3.023
 3301SOL    HW210803   3.395   1.101   2.874
 3302SOL     OW10804   2.744   0.172   3.223
 3302SOL    HW110805   2.757   0.155   3.126
 3302SOL    HW210806   2.833   0.190   3.266
 3303SOL     OW10807   2.805   1.097   3.583
 3303SOL    HW110808   2.711   1.109   3.612
 3303SOL    HW210809   2.812   1.016   3.524
 3304SOL     OW10810   2.560   1.030   2.261
 3304SOL    HW110811   2.546   0.997   2.354
 3304SOL    HW210812   2.649   0.997   2.228
 3305SOL     OW10813   2.324   0.804   3.151
 3305SOL    HW110814   2.388   0.810   3.227
 3305SOL    HW210815   2.293   0.709   3.141
 3306SOL     OW10816   3.130   0.362   3.147
 3306SOL    HW110817   3.157   0.444   3.198
 3306SOL    HW210818   3.039   0.376   3.108
 3307SOL     OW10819   1.928   1.552   3.202
 3307SOL    HW110820   1.898   1.627   3.143
 3307SOL    HW210821   2.027   1.552   3.208
 3308SOL     OW10822   2.163   1.120   2.314
 3308SOL    HW110823   2.157   1.195   2.248
 3308SOL    HW210824   2.158   1.033   2.265
 3309SOL     OW10825   2.395   0.500   2.731
 3309SOL    HW110826   2.404   0.556   2.648
 3309SOL    HW210827   2.461   0.530   2.799
 3310SOL     OW10828   3.103   1.374   2.242
 3310SOL    HW110829   3.166   1.441   2.282
 3310SOL    HW210830   3.010   1.393   2.275
 3311SOL     OW10831   3.175   1.445   3.004
 3311SOL    HW110832   3.218   1.450   3.094
 3311SOL    HW210833   3.112   1.368   3.001
 3312SOL     OW10834   3.452   0.625   2.357
 3312SOL    HW110835   3.386   0.683   2.405
 3312SOL    HW210836   3.523   0.683   2.317
 3313SOL     OW10837   2.204   1.522   3.178
 3313SOL    HW110838   2.195   1.461   3.099
 3313SOL    HW210839   2.300   1.547   3.190
 3314SOL     OW10840   2.354   0.684   3.551
 3314SOL    HW110841   2.396   0.734   3.475
 3314SOL    HW210842   2.417   0.614   3.584
 3315SOL     OW10843   3.471   0.813   3.567
 3315SOL    HW110844   3.376   0.840   3.559
 3315SOL    HW210845   3.522   0.843   3.487
 3316SOL     OW10846   2.883   0.108   3.588
 3316SOL    HW110847   2.917   0.148   3.503
 3316SOL    HW210848   2.877   0.008   3.578
 3317SOL     OW10849   2.262   0.035   3.639
 3317SOL    HW110850   2.183   6.979   3.662
 3317SOL    HW210851   2.241   0.132   3.652
 3318SOL     OW10852   2.448   0.880   2.915
 3318SOL    HW110853   2.491   0.970   2.914
 3318SOL    HW210854   2.406   0.864   3.005
 3319SOL     OW10855   3.146   0.839   2.868
 3319SOL    HW110856   3.054   0.815   2.838
 3319SOL    HW210857   3.211   0.770   2.835
 3320SOL     OW10858   3.077   0.561   2.131
 3320SOL    HW110859   3.083   0.477   2.185
 3320SOL    HW210860   3.025   0.630   2.182
 3321SOL     OW10861   2.134   0.126   3.102
 3321SOL    HW110862   2.157   0.087   3.191
 3321SOL    HW210863   2.180   0.073   3.030
 3322SOL     OW10864   1.910   1.284   3.143
 3322SOL    HW110865   1.945   1.235   3.223
 3322SOL    HW210866   1.910   1.382   3.162
 3323SOL     OW10867   2.571   0.630   2.905
 3323SOL    HW110868   2.640   0.613   2.835
 3323SOL    HW210869   2.532   0.722   2.891
 3324SOL     OW10870   3.627   0.959   3.746
 3324SOL    HW110871   3.572   0.902   3.685
 3324SOL    HW210872   3.570   0.990   3.822
 3325SOL     OW10873   2.219   0.063   2.488
 3325SOL    HW110874   2.188   0.147   2.531
 3325SOL    HW210875   2.158   6.988   2.514
 3326SOL     OW10876   3.486   0.400   2.199
 3326SOL    HW110877   3.547   0.342   2.253
 3326SOL    HW210878   3.455   0.476   2.256
 3327SOL     OW10879   2.879   0.773   2.804
 3327SOL    HW110880   2.855   0.790   2.899
 3327SOL    HW210881   2.843   0.684   2.776
 3328SOL     OW10882   2.829   1.534   3.640
 3328SOL    HW110883   2.799   1.597   3.568
 3328SOL    HW210884   2.868   1.452   3.598
 3329SOL     OW10885   3.686   1.462   3.465
 3329SOL    HW110886   3.708   1.486   3.371
 3329SOL    HW210887   3.766   1.476   3.524
 3330SOL     OW10888   2.247   0.903   3.688
 3330SOL    HW110889   2.313   0.934   3.756
 3330SOL    HW210890   2.284   0.825   3.638
 3331SOL     OW10891   3.377   0.232   2.006
 3331SOL    HW110892   3.280   0.250   1.989
 3331SOL    HW210893   3.413   0.301   2.070
 3332SOL     OW10894   3.117   0.822   1.854
 3332SOL    HW110895   3.162   0.734   1.871
 3332SOL    HW210896   3.155   0.863   1.771
 3333SOL     OW10897   2.918   1.375   2.731
 3333SOL    HW110898   2.936   1.296   2.671
 3333SOL    HW210899   2.975   1.452   2.703
 3334SOL     OW10900   2.196   0.817   2.810
 3334SOL    HW110901   2.292   0.839   2.831
 3334SOL    HW210902   2.179   0.721   2.830
 3335SOL     OW10903   2.162   0.542   2.862
 3335SOL    HW110904   2.115   0.455   2.876
 3335SOL    HW210905   2.243   0.528   2.805
 3336SOL     OW10906   2.981   0.437   3.524
 3336SOL    HW110907   2.944   0.461   3.614
 3336SOL    HW210908   3.077   0.464   3.518
 3337SOL     OW10909   2.979   0.230   3.354
 3337SOL    HW110910   2.973   0.311   3.413
 3337SOL    HW210911   3.044   0.248   3.280
 3338SOL     OW10912   1.846   1.279   2.060
 3338SOL    HW110913   1.757   1.309   2.027
 3338SOL    HW210914   1.843   1.180   2.079
 3339SOL     OW10915   1.926   1.778   2.795
 3339SOL    HW110916   1.891   1.696   2.749
 3339SOL    HW210917   2.026   1.780   2.790
 3340SOL     OW10918   2.337   1.530   2.783
 3340SOL    HW110919   2.410   1.590   2.815
 3340SOL    HW210920   2.372   1.470   2.712
 3341SOL     OW10921   2.777   0.794   3.055
 3341SOL    HW110922   2.835   0.761   3.130
 3341SOL    HW210923   2.697   0.734   3.047
 3342SOL     OW10924   1.902   0.617   2.971
 3342SOL    HW110925   1.980   0.602   2.911
 3342SOL    HW210926   1.927   0.596   3.065
 3343SOL     OW10927   2.076   0.649   3.589
 3343SOL    HW110928   2.175   0.653   3.574
 3343SOL    HW210929   2.030   0.706   3.521
 3344SOL     OW10930   3.227   0.920   3.498
 3344SOL    HW110931   3.250   1.017   3.497
 3344SOL    HW210932   3.217   0.887   3.404
 3345SOL     OW10933   2.661   0.589   2.223
 3345SOL    HW110934   2.677   0.508   2.165
 3345SOL    HW210935   2.578   0.636   2.191
 3346SOL     OW10936   3.495   0.597   2.988
 3346SOL    HW110937   3.464   0.515   3.036
 3346SOL    HW210938   3.595   0.597   2.983
 3347SOL     OW10939   2.069   1.528   3.567
 3347SOL    HW110940   2.049   1.604   3.629
 3347SOL    HW210941   2.080   1.444   3.620
 3348SOL     OW10942   2.613   0.442   3.098
 3348SOL    HW110943   2.564   0.357   3.080
 3348SOL    HW210944   2.587   0.510   3.029
 3349SOL     OW10945   2.713   1.677   3.407
 3349SOL    HW110946   2.681   1.605   3.345
 3349SOL    HW210947   2.746   1.755   3.355
 3350SOL     OW10948   2.279   0.485   2.011
 3350SOL    HW110949   2.355   0.544   2.039
 3350SOL    HW210950   2.193   0.534   2.020
 3351SOL     OW10951   2.003   1.132   3.358
 3351SOL    HW110952   2.009   1.097   3.451
 3351SOL    HW210953   2.037   1.063   3.294
 3352SOL     OW10954   3.118   1.030   3.060
 3352SOL    HW110955   3.135   0.961   2.988
 3352SOL    HW210956   3.069   1.107   3.020
 3353SOL     OW10957   3.215   0.908   2.098
 3353SOL    HW110958   3.146   0.928   2.167
 3353SOL    HW210959   3.170   0.878   2.014
 3354SOL     OW10960   3.616   1.674   3.037
 3354SOL    HW110961   3.688   1.714   2.980
 3354SOL    HW210962   3.593   1.583   3.002
 3355SOL     OW10963   3.127   1.705   2.932
 3355SOL    HW110964   3.216   1.750   2.925
 3355SOL    HW210965   3.139   1.612   2.966
 3356SOL     OW10966   1.982   1.198   2.899
 3356SOL    HW110967   1.950   1.230   2.987
 3356SOL    HW210968   1.909   1.147   2.853
 3357SOL     OW10969   2.530   1.696   3.609
 3357SOL    HW110970   2.461   1.768   3.598
 3357SOL    HW210971   2.601   1.707   3.539
 3358SOL     OW10972   3.663   0.243   2.334
 3358SOL    HW110973   3.718   0.197   2.265
 3358SOL    HW210974   3.628   0.175   2.399
 3359SOL     OW10975   3.270   1.560   2.365
 3359SOL    HW110976   3.332   1.590   2.293
 3359SOL    HW210977   3.217   1.638   2.398
 3360SOL     OW10978   1.990   1.754   3.707
 3360SOL    HW110979   1.937   1.687   3.758
 3360SOL    HW210980   2.048   1.806   3.770
 3361SOL     OW10981   3.153   0.977   2.519
 3361SOL    HW110982   3.225   0.908   2.530
 3361SOL    HW210983   3.179   1.040   2.445
 3362SOL     OW10984   2.623   1.273   3.302
 3362SOL    HW110985   2.599   1.324   3.385
 3362SOL    HW210986   2.548   1.281   3.236
 3363SOL     OW10987   2.534   1.601   2.032
 3363SOL    HW110988   2.549   1.637   1.940
 3363SOL    HW210989   2.473   1.522   2.028
 3364SOL     OW10990   3.446   1.710   3.255
 3364SOL    HW110991   3.509   1.692   3.180
 3364SOL    HW210992   3.427   1.808   3.260
 3365SOL     OW10993   3.726   0.126   2.826
 3365SOL    HW110994   3.736   0.036   2.785
 3365SOL    HW210995   3.644   0.170   2.791
 3366SOL     OW10996   2.117   0.293   2.596
 3366SOL    HW110997   2.036   0.350   2.582
 3366SOL    HW210998   2.140   0.292   2.693
 3367SOL     OW10999   3.078   1.597   1.881
 3367SOL    HW111000   3.057   1.503   1.910
 3367SOL    HW211001   3.014   1.624   1.809
 3368SOL     OW11002   2.659   1.004   3.252
 3368SOL    HW111003   2.695   0.992   3.160
 3368SOL    HW211004   2.648   1.102   3.270
 3369SOL     OW11005   2.799   0.942   2.178
 3369SOL    HW111006   2.835   0.958   2.086
 3369SOL    HW211007   2.842   0.862   2.218
 3370SOL     OW11008   3.352   1.642   1.920
 3370SOL    HW111009   3.254   1.627   1.904
 3370SOL    HW211010   3.398   1.657   1.833
 3371SOL     OW11011   2.229   1.305   3.375
 3371SOL    HW111012   2.221   1.384   3.315
 3371SOL    HW211013   2.148   1.247   3.364
 3372SOL     OW11014   3.457   1.270   3.157
 3372SOL    HW111015   3.517   1.241   3.232
 3372SOL    HW211016   3.392   1.338   3.190
 3373SOL     OW11017   2.940   1.140   2.601
 3373SOL    HW111018   2.862   1.086   2.632
 3373SOL    HW211019   3.013   1.078   2.570
 3374SOL     OW11020   2.887   0.290   2.797
 3374SOL    HW111021   2.875   0.258   2.703
 3374SOL    HW211022   2.865   0.216   2.860
 3375SOL     OW11023   2.476   1.492   2.349
 3375SOL    HW111024   2.521   1.425   2.291
 3375SOL    HW211025   2.407   1.542   2.295
 3376SOL     OW11026   3.684   0.310   3.296
 3376SOL    HW111027   3.737   0.390   3.267
 3376SOL    HW211028   3.672   0.248   3.219
 3377SOL     OW11029   2.104   1.325   2.129
 3377SOL    HW111030   2.008   1.308   2.108
 3377SOL    HW211031   2.111   1.380   2.212
 3378SOL     OW11032   2.015   1.035   3.613
 3378SOL    HW111033   1.932   1.003   3.659
 3378SOL    HW211034   2.093   0.980   3.642
 3379SOL     OW11035   2.551   0.217   3.406
 3379SOL    HW111036   2.621   0.204   3.336
 3379SOL    HW211037   2.593   0.251   3.490
 3380SOL     OW11038   1.943   0.388   1.804
 3380SOL    HW111039   1.859   0.379   1.751
 3380SOL    HW211040   1.982   0.479   1.789
 3381SOL     OW11041   3.236   0.851   3.234
 3381SOL    HW111042   3.178   0.909   3.178
 3381SOL    HW211043   3.328   0.848   3.194
 3382SOL     OW11044   1.878   0.186   2.094
 3382SOL    HW111045   1.899   0.236   2.010
 3382SOL    HW211046   1.876   0.088   2.076
 3383SOL     OW11047   3.023   1.339   1.976
 3383SOL    HW111048   2.925   1.319   1.977
 3383SOL    HW211049   3.057   1.348   2.070
 3384SOL     OW11050   2.508   0.796   3.348
 3384SOL    HW111051   2.557   0.880   3.324
 3384SOL    HW211052   2.571   0.719   3.345
 3385SOL     OW11053   3.386   1.791   2.910
 3385SOL    HW111054   3.408   1.876   2.863
 3385SOL    HW211055   3.467   1.757   2.958
 3386SOL     OW11056   2.586   0.518   3.600
 3386SOL    HW111057   2.646   0.589   3.637
 3386SOL    HW211058   2.612   0.430   3.638
 3387SOL     OW11059   3.315   1.178   3.484
 3387SOL    HW111060   3.308   1.199   3.581
 3387SOL    HW211061   3.409   1.194   3.453
 3388SOL     OW11062   2.174   1.753   3.428
 3388SOL    HW111063   2.088   1.802   3.423
 3388SOL    HW211064   2.157   1.659   3.460
 3389SOL     OW11065   3.479   0.851   3.107
 3389SOL    HW111066   3.488   0.765   3.057
 3389SOL    HW211067   3.471   0.927   3.043
 3390SOL     OW11068   3.077   0.345   2.302
 3390SOL    HW111069   3.138   0.266   2.301
 3390SOL    HW211070   3.093   0.399   2.385
 3391SOL     OW11071   2.427   0.693   2.539
 3391SOL    HW111072   2.472   0.783   2.534
 3391SOL    HW211073   2.366   0.682   2.460
 3392SOL     OW11074   3.579   0.359   3.541
 3392SOL    HW111075   3.617   0.346   3.449
 3392SOL    HW211076   3.496   0.304   3.551
 3393SOL     OW11077   3.588   0.919   3.348
 3393SOL    HW111078   3.575   1.018   3.361
 3393SOL    HW211079   3.553   0.892   3.258
 3394SOL     OW11080   2.728   1.341   1.973
 3394SOL    HW111081   2.689   1.328   2.064
 3394SOL    HW211082   2.709   1.434   1.941
 3395SOL     OW11083   2.523   1.717   2.838
 3395SOL    HW111084   2.499   1.814   2.828
 3395SOL    HW211085   2.619   1.704   2.810
 3396SOL     OW11086   2.729   0.995   2.722
 3396SOL    HW111087   2.783   0.917   2.753
 3396SOL    HW211088   2.683   1.036   2.801
 3397SOL     OW11089   2.896   0.960   1.927
 3397SOL    HW111090   2.875   1.032   1.862
 3397SOL    HW211091   2.978   0.910   1.898
 3398SOL     OW11092   3.687   1.557   2.738
 3398SOL    HW111093   3.619   1.557   2.664
 3398SOL    HW211094   3.659   1.493   2.809
 3399SOL     OW11095   2.062   1.285   3.709
 3399SOL    HW111096   2.047   1.196   3.666
 3399SOL    HW211097   1.995   1.298   3.782
 3400SOL     OW11098   2.004   1.214   2.525
 3400SOL    HW111099   2.046   1.171   2.605
 3400SOL    HW211100   2.049   1.181   2.442
 3401SOL     OW11101   2.540   1.426   3.517
 3401SOL    HW111102   2.461   1.382   3.560
 3401SOL    HW211103   2.546   1.520   3.549
 3402SOL     OW11104   3.648   0.130   3.094
 3402SOL    HW111105   3.555   0.100   3.073
 3402SOL    HW211106   3.701   0.134   3.009
 3403SOL     OW11107   2.236   0.386   2.357
 3403SOL    HW111108   2.259   0.311   2.294
 3403SOL    HW211109   2.202   0.348   2.443
 3404SOL     OW11110   3.560   1.425   2.947
 3404SOL    HW111111   3.480   1.419   2.887
 3404SOL    HW211112   3.549   1.362   3.023
 3405SOL     OW11113   2.244   0.544   3.136
 3405SOL    HW111114   2.285   0.464   3.181
 3405SOL    HW211115   2.230   0.524   3.039
 3406SOL     OW11116   2.673   1.626   2.487
 3406SOL    HW111117   2.683   1.715   2.442
 3406SOL    HW211118   2.599   1.574   2.443
 3407SOL     OW11119   3.321   0.286   2.963
 3407SOL    HW111120   3.353   0.193   2.980
 3407SOL    HW211121   3.257   0.313   3.036
 3408SOL     OW11122   2.811   0.078   2.956
 3408SOL    HW111123   2.798   0.037   2.866
 3408SOL    HW211124   2.836   0.006   3.021
 3409SOL     OW11125   2.630   1.300   2.225
 3409SOL    HW111126   2.606   1.204   2.243
 3409SOL    HW211127   2.715   1.322   2.272
 3410SOL     OW11128   2.474   1.577   3.164
 3410SOL    HW111129   2.462   1.670   3.199
 3410SOL    HW211130   2.559   1.573   3.110
 3411SOL     OW11131   3.111   6.975   2.071
 3411SOL    HW111132   3.166   6.905   2.026
 3411SOL    HW211133   3.025   6.935   2.102
 3412SOL     OW11134   3.109   0.495   2.525
 3412SOL    HW111135   3.069   0.586   2.527
 3412SOL    HW211136   3.130   0.465   2.619
 3413SOL     OW11137   3.503   0.263   2.740
 3413SOL    HW111138   3.441   0.271   2.817
 3413SOL    HW211139   3.505   0.350   2.689
 3414SOL     OW11140   1.880   1.015   2.172
 3414SOL    HW111141   1.976   1.000   2.146
 3414SOL    HW211142   1.838   0.927   2.193
 3415SOL     OW11143   2.759   1.678   2.176
 3415SOL    HW111144   2.679   1.653   2.121
 3415SOL    HW211145   2.736   1.757   2.233
 3416SOL     OW11146   2.060   0.669   3.872
 3416SOL    HW111147   1.969   0.636   3.896
 3416SOL    HW211148   2.067   0.679   3.772
 3417SOL     OW11149   2.103   0.256   4.758
 3417SOL    HW111150   2.150   0.213   4.835
 3417SOL    HW211151   2.020   0.203   4.736
 3418SOL     OW11152   1.902   0.433   4.382
 3418SOL    HW111153   1.814   0.455   4.424
 3418SOL    HW211154   1.886   0.380   4.298
 3419SOL     OW11155   2.437   1.299   4.968
 3419SOL    HW111156   2.351   1.303   4.917
 3419SOL    HW211157   2.461   1.390   5.000
 3420SOL     OW11158   3.422   1.573   4.419
 3420SOL    HW111159   3.379   1.537   4.502
 3420SOL    HW211160   3.361   1.559   4.341
 3421SOL     OW11161   2.986   0.724   4.397
 3421SOL    HW111162   3.038   0.807   4.376
 3421SOL    HW211163   2.933   0.738   4.480
 3422SOL     OW11164   3.666   0.571   3.932
 3422SOL    HW111165   3.625   0.586   3.842
 3422SOL    HW211166   3.621   0.494   3.977
 3423SOL     OW11167   2.593   1.128   4.816
 3423SOL    HW111168   2.531   1.172   4.881
 3423SOL    HW211169   2.634   1.197   4.756
 3424SOL     OW11170   2.770   0.745   5.513
 3424SOL    HW111171   2.790   0.817   5.580
 3424SOL    HW211172   2.779   0.783   5.421
 3425SOL     OW11173   2.537   0.956   4.388
 3425SOL    HW111174   2.610   0.967   4.455
 3425SOL    HW211175   2.467   1.026   4.402
 3426SOL     OW11176   2.566   1.145   5.577
 3426SOL    HW111177   2.623   1.215   5.620
 3426SOL    HW211178   2.490   1.190   5.529
 3427SOL     OW11179   2.211   1.371   4.823
 3427SOL    HW111180   2.138   1.309   4.793
 3427SOL    HW211181   2.246   1.421   4.745
 3428SOL     OW11182   3.333   1.469   5.100
 3428SOL    HW111183   3.380   1.557   5.111
 3428SOL    HW211184   3.250   1.468   5.156
 3429SOL     OW11185   2.365   0.395   5.179
 3429SOL    HW111186   2.435   0.341   5.224
 3429SOL    HW211187   2.275   0.356   5.200
 3430SOL     OW11188   3.487   0.463   4.443
 3430SOL    HW111189   3.470   0.504   4.354
 3430SOL    HW211190   3.432   0.508   4.512
 3431SOL     OW11191   2.084   1.727   4.212
 3431SOL    HW111192   2.111   1.788   4.286
 3431SOL    HW211193   2.159   1.718   4.147
 3432SOL     OW11194   2.971   1.329   5.434
 3432SOL    HW111195   3.009   1.327   5.526
 3432SOL    HW211196   2.912   1.249   5.421
 3433SOL     OW11197   2.032   1.465   4.271
 3433SOL    HW111198   2.046   1.563   4.258
 3433SOL    HW211199   1.993   1.449   4.361
 3434SOL     OW11200   2.161   1.067   4.598
 3434SOL    HW111201   2.175   0.971   4.621
 3434SOL    HW211202   2.114   1.113   4.674
 3435SOL     OW11203   2.486   1.745   5.256
 3435SOL    HW111204   2.389   1.755   5.278
 3435SOL    HW211205   2.522   1.833   5.224
 3436SOL     OW11206   2.426   0.979   3.900
 3436SOL    HW111207   2.474   1.028   3.827
 3436SOL    HW211208   2.468   1.001   3.988
 3437SOL     OW11209   3.533   0.002   5.275
 3437SOL    HW111210   3.628   0.032   5.271
 3437SOL    HW211211   3.479   0.071   5.324
 3438SOL     OW11212   1.993   0.690   4.315
 3438SOL    HW111213   1.975   0.595   4.340
 3438SOL    HW211214   1.987   0.748   4.396
 3439SOL     OW11215   3.719   1.707   4.044
 3439SOL    HW111216   3.788   1.692   4.115
 3439SOL    HW211217   3.728   1.800   4.008
 3440SOL     OW11218   1.885   1.565   3.863
 3440SOL    HW111219   1.868   1.470   3.888
 3440SOL    HW211220   1.876   1.623   3.944
 3441SOL     OW11221   3.577   0.932   4.402
 3441SOL    HW111222   3.670   0.901   4.387
 3441SOL    HW211223   3.550   0.994   4.328
 3442SOL     OW11224   3.539   1.126   4.191
 3442SOL    HW111225   3.621   1.095   4.143
 3442SOL    HW211226   3.564   1.192   4.262
 3443SOL     OW11227   1.959   0.795   5.234
 3443SOL    HW111228   2.018   0.849   5.174
 3443SOL    HW211229   1.869   0.838   5.240
 3444SOL     OW11230   2.457   1.391   4.425
 3444SOL    HW111231   2.423   1.297   4.430
 3444SOL    HW211232   2.443   1.426   4.332
 3445SOL     OW11233   3.072   1.151   5.172
 3445SOL    HW111234   3.095   1.097   5.091
 3445SOL    HW211235   3.155   1.191   5.210
 3446SOL     OW11236   2.722   0.071   4.289
 3446SOL    HW111237   2.764   0.145   4.236
 3446SOL    HW211238   2.627   0.060   4.261
 3447SOL     OW11239   2.095   0.964   5.061
 3447SOL    HW111240   2.184   0.919   5.047
 3447SOL    HW211241   2.065   1.005   4.975
 3448SOL     OW11242   3.430   1.042   3.940
 3448SOL    HW111243   3.351   0.984   3.959
 3448SOL    HW211244   3.468   1.075   4.027
 3449SOL     OW11245   3.047   1.812   5.350
 3449SOL    HW111246   3.049   1.892   5.290
 3449SOL    HW211247   3.116   1.746   5.320
 3450SOL     OW11248   2.221   0.273   5.489
 3450SOL    HW111249   2.290   0.326   5.539
 3450SOL    HW211250   2.131   0.313   5.505
 3451SOL     OW11251   3.331   1.436   4.636
 3451SOL    HW111252   3.270   1.439   4.715
 3451SOL    HW211253   3.331   1.343   4.598
 3452SOL     OW11254   3.502   1.796   4.270
 3452SOL    HW111255   3.470   1.758   4.183
 3452SOL    HW211256   3.478   1.733   4.344
 3453SOL     OW11257   2.429   0.702   3.993
 3453SOL    HW111258   2.431   0.795   3.956
 3453SOL    HW211259   2.363   0.698   4.069
 3454SOL     OW11260   3.133   0.365   4.622
 3454SOL    HW111261   3.039   0.335   4.639
 3454SOL    HW211262   3.193   0.330   4.694
 3455SOL     OW11263   3.443   1.668   4.030
 3455SOL    HW111264   3.543   1.673   4.031
 3455SOL    HW211265   3.412   1.659   3.935
 3456SOL     OW11266   2.695   0.587   5.207
 3456SOL    HW111267   2.655   0.547   5.290
 3456SOL    HW211268   2.666   0.535   5.127
 3457SOL     OW11269   3.268   0.472   5.386
 3457SOL    HW111270   3.268   0.516   5.476
 3457SOL    HW211271   3.314   0.384   5.392
 3458SOL     OW11272   2.834   0.893   5.268
 3458SOL    HW111273   2.886   0.817   5.230
 3458SOL    HW211274   2.782   0.938   5.195
 3459SOL     OW11275   2.891   0.424   4.898
 3459SOL    HW111276   2.799   0.443   4.933
 3459SOL    HW211277   2.884   0.373   4.812
 3460SOL     OW11278   2.908   0.694   4.133
 3460SOL    HW111279   2.927   0.694   4.231
 3460SOL    HW211280   2.818   0.653   4.117
 3461SOL     OW11281   1.948   0.842   4.545
 3461SOL    HW111282   2.034   0.822   4.593
 3461SOL    HW211283   1.902   0.919   4.590
 3462SOL     OW11284   1.998   1.916   5.345
 3462SOL    HW111285   1.987   1.869   5.432
 3462SOL    HW211286   1.911   1.915   5.295
 3463SOL     OW11287   2.737   0.373   3.911
 3463SOL    HW111288   2.808   0.427   3.865
 3463SOL    HW211289   2.688   0.317   3.843
 3464SOL     OW11290   3.527   0.600   5.550
 3464SOL    HW111291   3.511   0.680   5.493
 3464SOL    HW211292   3.555   0.523   5.493
 3465SOL     OW11293   3.263   1.170   4.268
 3465SOL    HW111294   3.350   1.163   4.220
 3465SOL    HW211295   3.202   1.232   4.217
 3466SOL     OW11296   2.428   0.225   4.672
 3466SOL    HW111297   2.452   0.240   4.768
 3466SOL    HW211298   2.416   0.313   4.627
 3467SOL     OW11299   2.841   1.449   4.194
 3467SOL    HW111300   2.819   1.522   4.130
 3467SOL    HW211301   2.810   1.474   4.285
 3468SOL     OW11302   2.202   1.772   4.673
 3468SOL    HW111303   2.241   1.681   4.657
 3468SOL    HW211304   2.276   1.838   4.683
 3469SOL     OW11305   3.643   1.009   4.663
 3469SOL    HW111306   3.618   0.998   4.567
 3469SOL    HW211307   3.561   1.024   4.718
 3470SOL     OW11308   3.090   1.477   5.225
 3470SOL    HW111309   3.057   1.419   5.299
 3470SOL    HW211310   3.015   1.531   5.189
 3471SOL     OW11311   2.151   0.925   3.989
 3471SOL    HW111312   2.240   0.949   3.949
 3471SOL    HW211313   2.123   0.836   3.954
 3472SOL     OW11314   3.347   0.782   4.426
 3472SOL    HW111315   3.349   0.712   4.498
 3472SOL    HW211316   3.433   0.833   4.426
 3473SOL     OW11317   2.339   1.287   5.470
 3473SOL    HW111318   2.321   1.291   5.372
 3473SOL    HW211319   2.252   1.283   5.520
 3474SOL     OW11320   2.985   1.732   3.938
 3474SOL    HW111321   2.894   1.712   3.977
 3474SOL    HW211322   3.015   1.654   3.883
 3475SOL     OW11323   2.120   0.282   5.228
 3475SOL    HW111324   2.036   0.337   5.228
 3475SOL    HW211325   2.150   0.269   5.322
 3476SOL     OW11326   3.505   1.387   3.817
 3476SOL    HW111327   3.455   1.473   3.810
 3476SOL    HW211328   3.444   1.311   3.791
 3477SOL     OW11329   2.308   1.723   4.045
 3477SOL    HW111330   2.351   1.774   4.120
 3477SOL    HW211331   2.379   1.688   3.984
 3478SOL     OW11332   3.303   0.118   4.126
 3478SOL    HW111333   3.239   0.055   4.080
 3478SOL    HW211334   3.362   0.160   4.057
 3479SOL     OW11335   2.118   1.790   4.946
 3479SOL    HW111336   2.160   1.711   4.991
 3479SOL    HW211337   2.143   1.790   4.849
 3480SOL     OW11338   2.799   1.654   4.616
 3480SOL    HW111339   2.894   1.623   4.607
 3480SOL    HW211340   2.744   1.616   4.541
 3481SOL     OW11341   2.249   0.657   4.200
 3481SOL    HW111342   2.249   0.557   4.203
 3481SOL    HW211343   2.160   0.692   4.228
 3482SOL     OW11344   3.376   0.203   5.435
 3482SOL    HW111345   3.395   0.207   5.532
 3482SOL    HW211346   3.286   0.161   5.421
 3483SOL     OW11347   2.475   0.087   3.813
 3483SOL    HW111348   2.499   0.011   3.873
 3483SOL    HW211349   2.400   0.059   3.752
 3484SOL     OW11350   2.658   0.246   5.556
 3484SOL    HW111351   2.744   0.203   5.528
 3484SOL    HW211352   2.600   0.179   5.602
 3485SOL     OW11353   2.725   1.485   4.932
 3485SOL    HW111354   2.703   1.460   4.837
 3485SOL    HW211355   2.773   1.409   4.976
 3486SOL     OW11356   3.233   0.598   5.143
 3486SOL    HW111357   3.257   0.557   5.231
 3486SOL    HW211358   3.272   0.690   5.137
 3487SOL     OW11359   2.677   1.346   4.671
 3487SOL    HW111360   2.772   1.355   4.641
 3487SOL    HW211361   2.616   1.374   4.597
 3488SOL     OW11362   2.772   0.512   4.586
 3488SOL    HW111363   2.753   0.508   4.488
 3488SOL    HW211364   2.796   0.421   4.619
 3489SOL     OW11365   2.457   0.055   4.186
 3489SOL    HW111366   2.390   0.042   4.259
 3489SOL    HW211367   2.429   0.132   4.129
 3490SOL     OW11368   3.296   1.205   3.761
 3490SOL    HW111369   3.342   1.139   3.820
 3490SOL    HW211370   3.207   1.227   3.800
 3491SOL     OW11371   2.161   0.016   4.038
 3491SOL    HW111372   2.226   0.091   4.030
 3491SOL    HW211373   2.068   0.052   4.040
 3492SOL     OW11374   2.841   0.277   4.150
 3492SOL    HW111375   2.801   0.306   4.062
 3492SOL    HW211376   2.940   0.288   4.146
 3493SOL     OW11377   2.958   0.680   5.150
 3493SOL    HW111378   2.886   0.619   5.184
 3493SOL    HW211379   3.047   0.635   5.159
 3494SOL     OW11380   3.055   1.598   4.531
 3494SOL    HW111381   3.080   1.650   4.449
 3494SOL    HW211382   3.103   1.635   4.610
 3495SOL     OW11383   2.339   1.144   4.410
 3495SOL    HW111384   2.278   1.119   4.485
 3495SOL    HW211385   2.289   1.139   4.323
 3496SOL     OW11386   3.093   1.775   4.313
 3496SOL    HW111387   3.132   1.835   4.244
 3496SOL    HW211388   3.015   1.820   4.356
 3497SOL     OW11389   2.911   0.525   3.773
 3497SOL    HW111390   2.868   0.610   3.742
 3497SOL    HW211391   2.983   0.547   3.840
 3498SOL     OW11392   1.982   0.547   5.116
 3498SOL    HW111393   2.077   0.548   5.086
 3498SOL    HW211394   1.963   0.631   5.167
 3499SOL     OW11395   2.476   0.238   4.942
 3499SOL    HW111396   2.542   0.201   5.007
 3499SOL    HW211397   2.383   0.211   4.969
 3500SOL     OW11398   2.739   0.474   4.321
 3500SOL    HW111399   2.689   0.528   4.253
 3500SOL    HW211400   2.778   0.393   4.278
 3501SOL     OW11401   2.899   0.025   4.491
 3501SOL    HW111402   2.832   0.038   4.418
 3501SOL    HW211403   2.906   6.928   4.513
 3502SOL     OW11404   3.377   1.186   4.529
 3502SOL    HW111405   3.316   1.173   4.450
 3502SOL    HW211406   3.469   1.209   4.496
 3503SOL     OW11407   3.319   0.583   4.624
 3503SOL    HW111408   3.254   0.507   4.628
 3503SOL    HW211409   3.354   0.602   4.716
 3504SOL     OW11410   3.664   0.760   4.128
 3504SOL    HW111411   3.732   0.734   4.197
 3504SOL    HW211412   3.671   0.698   4.050
 3505SOL     OW11413   2.340   1.427   3.888
 3505SOL    HW111414   2.259   1.398   3.939
 3505SOL    HW211415   2.342   1.379   3.800
 3506SOL     OW11416   3.622   1.258   4.420
 3506SOL    HW111417   3.705   1.202   4.415
 3506SOL    HW211418   3.648   1.353   4.439
 3507SOL     OW11419   3.261   0.592   3.778
 3507SOL    HW111420   3.215   0.572   3.865
 3507SOL    HW211421   3.360   0.589   3.792
 3508SOL     OW11422   2.340   0.238   4.002
 3508SOL    HW111423   2.394   0.193   3.931
 3508SOL    HW211424   2.314   0.329   3.972
 3509SOL     OW11425   3.602   1.223   5.287
 3509SOL    HW111426   3.695   1.186   5.287
 3509SOL    HW211427   3.605   1.322   5.299
 3510SOL     OW11428   2.849   1.280   5.066
 3510SOL    HW111429   2.765   1.269   5.120
 3510SOL    HW211430   2.927   1.246   5.118
 3511SOL     OW11431   3.490   1.633   5.392
 3511SOL    HW111432   3.464   1.674   5.305
 3511SOL    HW211433   3.569   1.574   5.379
 3512SOL     OW11434   3.001   1.234   4.844
 3512SOL    HW111435   2.934   1.257   4.914
 3512SOL    HW211436   2.974   1.276   4.757
 3513SOL     OW11437   3.397   1.077   4.787
 3513SOL    HW111438   3.422   1.151   4.849
 3513SOL    HW211439   3.376   1.115   4.697
 3514SOL     OW11440   2.725   0.193   5.095
 3514SOL    HW111441   2.744   0.158   5.003
 3514SOL    HW211442   2.812   0.216   5.139
 3515SOL     OW11443   2.814   1.103   5.445
 3515SOL    HW111444   2.719   1.116   5.474
 3515SOL    HW211445   2.818   1.030   5.376
 3516SOL     OW11446   2.577   1.038   4.125
 3516SOL    HW111447   2.557   1.006   4.217
 3516SOL    HW211448   2.667   1.004   4.097
 3517SOL     OW11449   2.324   0.819   5.019
 3517SOL    HW111450   2.393   0.819   5.091
 3517SOL    HW211451   2.284   0.727   5.011
 3518SOL     OW11452   3.127   0.376   5.019
 3518SOL    HW111453   3.165   0.457   5.062
 3518SOL    HW211454   3.040   0.399   4.975
 3519SOL     OW11455   1.923   1.553   5.063
 3519SOL    HW111456   1.879   1.619   5.003
 3519SOL    HW211457   2.022   1.569   5.061
 3520SOL     OW11458   2.176   1.124   4.188
 3520SOL    HW111459   2.168   1.206   4.131
 3520SOL    HW211460   2.170   1.042   4.130
 3521SOL     OW11461   2.400   0.505   4.602
 3521SOL    HW111462   2.404   0.560   4.519
 3521SOL    HW211463   2.467   0.538   4.667
 3522SOL     OW11464   3.096   1.353   4.130
 3522SOL    HW111465   3.156   1.430   4.151
 3522SOL    HW211466   3.003   1.375   4.159
 3523SOL     OW11467   3.189   1.436   4.867
 3523SOL    HW111468   3.237   1.445   4.955
 3523SOL    HW211469   3.125   1.359   4.873
 3524SOL     OW11470   3.441   0.617   4.215
 3524SOL    HW111471   3.375   0.673   4.265
 3524SOL    HW211472   3.515   0.676   4.181
 3525SOL     OW11473   2.210   1.542   5.034
 3525SOL    HW111474   2.202   1.479   4.957
 3525SOL    HW211475   2.307   1.559   5.054
 3526SOL     OW11476   2.363   0.704   5.410
 3526SOL    HW111477   2.408   0.750   5.334
 3526SOL    HW211478   2.422   0.630   5.444
 3527SOL     OW11479   3.462   0.830   5.406
 3527SOL    HW111480   3.366   0.857   5.404
 3527SOL    HW211481   3.510   0.870   5.328
 3528SOL     OW11482   2.887   0.121   5.452
 3528SOL    HW111483   2.915   0.164   5.367
 3528SOL    HW211484   2.885   0.022   5.442
 3529SOL     OW11485   2.249   0.007   5.410
 3529SOL    HW111486   2.175   6.963   5.461
 3529SOL    HW211487   2.252   0.104   5.433
 3530SOL     OW11488   2.448   0.882   4.781
 3530SOL    HW111489   2.489   0.973   4.781
 3530SOL    HW211490   2.403   0.865   4.868
 3531SOL     OW11491   3.152   0.793   4.702
 3531SOL    HW111492   3.055   0.792   4.677
 3531SOL    HW211493   3.200   0.723   4.649
 3532SOL     OW11494   3.089   0.547   3.988
 3532SOL    HW111495   3.103   0.463   4.039
 3532SOL    HW211496   3.032   0.610   4.041
 3533SOL     OW11497   2.212   0.151   5.002
 3533SOL    HW111498   2.172   0.203   5.077
 3533SOL    HW211499   2.214   0.054   5.026
 3534SOL     OW11500   1.924   1.283   5.022
 3534SOL    HW111501   1.946   1.239   5.109
 3534SOL    HW211502   1.917   1.382   5.035
 3535SOL     OW11503   2.582   0.637   4.758
 3535SOL    HW111504   2.647   0.618   4.684
 3535SOL    HW211505   2.544   0.729   4.745
 3536SOL     OW11506   3.624   0.966   5.592
 3536SOL    HW111507   3.567   0.912   5.531
 3536SOL    HW211508   3.567   1.001   5.667
 3537SOL     OW11509   2.241   0.061   4.365
 3537SOL    HW111510   2.209   0.146   4.407
 3537SOL    HW211511   2.167   6.994   4.367
 3538SOL     OW11512   3.467   0.398   4.048
 3538SOL    HW111513   3.529   0.341   4.101
 3538SOL    HW211514   3.438   0.476   4.103
 3539SOL     OW11515   2.877   0.751   4.659
 3539SOL    HW111516   2.873   0.764   4.759
 3539SOL    HW211517   2.845   0.660   4.636
 3540SOL     OW11518   2.858   1.579   5.426
 3540SOL    HW111519   2.864   1.616   5.333
 3540SOL    HW211520   2.884   1.483   5.426
 3541SOL     OW11521   3.708   1.484   5.302
 3541SOL    HW111522   3.728   1.512   5.208
 3541SOL    HW211523   3.790   1.494   5.358
 3542SOL     OW11524   2.247   0.915   5.555
 3542SOL    HW111525   2.313   0.945   5.624
 3542SOL    HW211526   2.286   0.840   5.501
 3543SOL     OW11527   3.373   0.223   3.856
 3543SOL    HW111528   3.274   0.228   3.841
 3543SOL    HW211529   3.403   0.300   3.911
 3544SOL     OW11530   3.127   0.825   3.732
 3544SOL    HW111531   3.172   0.736   3.744
 3544SOL    HW211532   3.155   0.864   3.644
 3545SOL     OW11533   2.941   1.355   4.603
 3545SOL    HW111534   2.954   1.275   4.545
 3545SOL    HW211535   2.992   1.432   4.566
 3546SOL     OW11536   2.192   0.801   4.679
 3546SOL    HW111537   2.288   0.823   4.696
 3546SOL    HW211538   2.176   0.705   4.701
 3547SOL     OW11539   2.167   0.517   4.738
 3547SOL    HW111540   2.132   0.424   4.747
 3547SOL    HW211541   2.248   0.516   4.679
 3548SOL     OW11542   2.994   0.464   5.377
 3548SOL    HW111543   2.957   0.485   5.468
 3548SOL    HW211544   3.093   0.470   5.380
 3549SOL     OW11545   2.962   0.252   5.218
 3549SOL    HW111546   2.965   0.334   5.276
 3549SOL    HW211547   3.028   0.261   5.144
 3550SOL     OW11548   1.874   1.282   3.913
 3550SOL    HW111549   1.782   1.306   3.882
 3550SOL    HW211550   1.873   1.189   3.949
 3551SOL     OW11551   1.924   1.748   4.660
 3551SOL    HW111552   1.898   1.668   4.606
 3551SOL    HW211553   2.024   1.757   4.660
 3552SOL     OW11554   2.331   1.529   4.631
 3552SOL    HW111555   2.407   1.584   4.664
 3552SOL    HW211556   2.360   1.477   4.550
 3553SOL     OW11557   2.860   0.803   4.927
 3553SOL    HW111558   2.903   0.748   4.999
 3553SOL    HW211559   2.763   0.814   4.948
 3554SOL     OW11560   1.901   0.571   4.851
 3554SOL    HW111561   1.983   0.565   4.794
 3554SOL    HW211562   1.927   0.565   4.948
 3555SOL     OW11563   2.087   0.657   5.442
 3555SOL    HW111564   2.186   0.668   5.428
 3555SOL    HW211565   2.038   0.714   5.376
 3556SOL     OW11566   3.186   0.940   5.342
 3556SOL    HW111567   3.238   1.025   5.351
 3556SOL    HW211568   3.093   0.960   5.313
 3557SOL     OW11569   2.663   0.583   4.076
 3557SOL    HW111570   2.678   0.505   4.017
 3557SOL    HW211571   2.579   0.631   4.048
 3558SOL     OW11572   3.401   0.672   4.876
 3558SOL    HW111573   3.372   0.609   4.948
 3558SOL    HW211574   3.501   0.678   4.874
 3559SOL     OW11575   2.069   1.535   5.433
 3559SOL    HW111576   2.046   1.613   5.491
 3559SOL    HW211577   2.084   1.454   5.490
 3560SOL     OW11578   2.626   0.473   4.968
 3560SOL    HW111579   2.565   0.394   4.963
 3560SOL    HW211580   2.604   0.536   4.894
 3561SOL     OW11581   2.865   1.623   5.145
 3561SOL    HW111582   2.816   1.578   5.070
 3561SOL    HW211583   2.858   1.722   5.135
 3562SOL     OW11584   2.281   0.487   3.888
 3562SOL    HW111585   2.354   0.550   3.914
 3562SOL    HW211586   2.194   0.536   3.888
 3563SOL     OW11587   2.000   1.143   5.249
 3563SOL    HW111588   2.007   1.113   5.344
 3563SOL    HW211589   2.040   1.073   5.189
 3564SOL     OW11590   3.075   0.991   4.936
 3564SOL    HW111591   2.997   0.929   4.933
 3564SOL    HW211592   3.052   1.077   4.892
 3565SOL     OW11593   3.201   0.906   3.986
 3565SOL    HW111594   3.128   0.893   4.053
 3565SOL    HW211595   3.169   0.878   3.896
 3566SOL     OW11596   3.646   1.705   4.871
 3566SOL    HW111597   3.707   1.739   4.799
 3566SOL    HW211598   3.615   1.613   4.847
 3567SOL     OW11599   3.145   1.689   4.774
 3567SOL    HW111600   3.236   1.730   4.766
 3567SOL    HW211601   3.153   1.600   4.818
 3568SOL     OW11602   2.006   1.180   4.789
 3568SOL    HW111603   1.972   1.221   4.874
 3568SOL    HW211604   1.930   1.142   4.737
 3569SOL     OW11605   2.607   1.665   5.492
 3569SOL    HW111606   2.564   1.707   5.412
 3569SOL    HW211607   2.705   1.655   5.477
 3570SOL     OW11608   3.647   0.238   4.175
 3570SOL    HW111609   3.699   0.216   4.092
 3570SOL    HW211610   3.616   0.153   4.218
 3571SOL     OW11611   3.249   1.570   4.201
 3571SOL    HW111612   3.312   1.607   4.133
 3571SOL    HW211613   3.189   1.644   4.233
 3572SOL     OW11614   1.998   1.762   5.574
 3572SOL    HW111615   1.944   1.694   5.623
 3572SOL    HW211616   2.061   1.807   5.638
 3573SOL     OW11617   3.140   0.946   4.360
 3573SOL    HW111618   3.215   0.886   4.385
 3573SOL    HW211619   3.176   1.028   4.317
 3574SOL     OW11620   2.606   1.244   5.187
 3574SOL    HW111621   2.601   1.304   5.267
 3574SOL    HW211622   2.529   1.263   5.127
 3575SOL     OW11623   2.515   1.635   3.874
 3575SOL    HW111624   2.534   1.652   3.777
 3575SOL    HW211625   2.461   1.551   3.883
 3576SOL     OW11626   3.459   1.721   5.124
 3576SOL    HW111627   3.520   1.724   5.045
 3576SOL    HW211628   3.430   1.813   5.148
 3577SOL     OW11629   3.719   0.124   4.702
 3577SOL    HW111630   3.746   0.028   4.694
 3577SOL    HW211631   3.639   0.141   4.645
 3578SOL     OW11632   2.127   0.290   4.471
 3578SOL    HW111633   2.047   0.346   4.450
 3578SOL    HW211634   2.136   0.280   4.570
 3579SOL     OW11635   3.083   1.540   3.767
 3579SOL    HW111636   3.072   1.448   3.803
 3579SOL    HW211637   3.008   1.562   3.706
 3580SOL     OW11638   2.666   1.007   5.075
 3580SOL    HW111639   2.665   1.031   4.978
 3580SOL    HW211640   2.645   1.087   5.130
 3581SOL     OW11641   2.817   0.941   4.054
 3581SOL    HW111642   2.843   0.952   3.958
 3581SOL    HW211643   2.853   0.854   4.088
 3582SOL     OW11644   3.348   1.617   3.769
 3582SOL    HW111645   3.254   1.584   3.760
 3582SOL    HW211646   3.389   1.625   3.678
 3583SOL     OW11647   2.230   1.315   5.223
 3583SOL    HW111648   2.215   1.398   5.169
 3583SOL    HW211649   2.145   1.264   5.230
 3584SOL     OW11650   3.483   1.275   4.961
 3584SOL    HW111651   3.575   1.267   4.999
 3584SOL    HW211652   3.429   1.337   5.018
 3585SOL     OW11653   2.949   1.117   4.476
 3585SOL    HW111654   2.865   1.068   4.500
 3585SOL    HW211655   3.012   1.054   4.431
 3586SOL     OW11656   2.877   0.253   4.666
 3586SOL    HW111657   2.881   0.197   4.584
 3586SOL    HW211658   2.846   0.198   4.743
 3587SOL     OW11659   2.445   1.477   4.171
 3587SOL    HW111660   2.510   1.418   4.124
 3587SOL    HW211661   2.371   1.502   4.109
 3588SOL     OW11662   3.731   0.382   5.170
 3588SOL    HW111663   3.760   0.470   5.131
 3588SOL    HW211664   3.703   0.321   5.096
 3589SOL     OW11665   2.116   1.350   4.040
 3589SOL    HW111666   2.033   1.330   3.989
 3589SOL    HW211667   2.092   1.396   4.126
 3590SOL     OW11668   2.008   1.056   5.508
 3590SOL    HW111669   1.924   1.021   5.550
 3590SOL    HW211670   2.084   0.995   5.530
 3591SOL     OW11671   2.550   0.224   5.297
 3591SOL    HW111672   2.620   0.217   5.225
 3591SOL    HW211673   2.593   0.255   5.382
 3592SOL     OW11674   1.959   0.409   3.658
 3592SOL    HW111675   1.868   0.396   3.618
 3592SOL    HW211676   1.993   0.500   3.634
 3593SOL     OW11677   3.322   0.865   5.111
 3593SOL    HW111678   3.262   0.893   5.186
 3593SOL    HW211679   3.415   0.896   5.130
 3594SOL     OW11680   1.900   0.113   4.007
 3594SOL    HW111681   1.904   0.179   3.932
 3594SOL    HW211682   1.881   0.022   3.971
 3595SOL     OW11683   3.041   1.286   3.862
 3595SOL    HW111684   2.943   1.271   3.851
 3595SOL    HW211685   3.063   1.297   3.959
 3596SOL     OW11686   2.524   0.804   5.202
 3596SOL    HW111687   2.572   0.885   5.167
 3596SOL    HW211688   2.587   0.727   5.207
 3597SOL     OW11689   3.399   1.778   4.751
 3597SOL    HW111690   3.393   1.874   4.724
 3597SOL    HW211691   3.486   1.762   4.797
 3598SOL     OW11692   2.597   0.528   5.463
 3598SOL    HW111693   2.655   0.602   5.495
 3598SOL    HW211694   2.618   0.445   5.513
 3599SOL     OW11695   3.328   1.168   5.348
 3599SOL    HW111696   3.306   1.199   5.441
 3599SOL    HW211697   3.420   1.197   5.324
 3600SOL     OW11698   2.227   1.759   5.336
 3600SOL    HW111699   2.152   1.824   5.326
 3600SOL    HW211700   2.190   1.668   5.358
 3601SOL     OW11701   3.114   0.325   4.150
 3601SOL    HW111702   3.182   0.252   4.155
 3601SOL    HW211703   3.119   0.381   4.233
 3602SOL     OW11704   2.425   0.700   4.410
 3602SOL    HW111705   2.471   0.789   4.401
 3602SOL    HW211706   2.365   0.686   4.331
 3603SOL     OW11707   3.594   0.372   5.405
 3603SOL    HW111708   3.642   0.376   5.318
 3603SOL    HW211709   3.521   0.304   5.400
 3604SOL     OW11710   3.566   0.963   5.185
 3604SOL    HW111711   3.567   1.058   5.215
 3604SOL    HW211712   3.653   0.941   5.139
 3605SOL     OW11713   2.751   1.322   3.818
 3605SOL    HW111714   2.705   1.334   3.906
 3605SOL    HW211715   2.760   1.411   3.773
 3606SOL     OW11716   2.530   1.697   4.693
 3606SOL    HW111717   2.503   1.793   4.695
 3606SOL    HW211718   2.630   1.691   4.687
 3607SOL     OW11719   2.730   0.979   4.588
 3607SOL    HW111720   2.781   0.897   4.614
 3607SOL    HW211721   2.691   1.021   4.671
 3608SOL     OW11722   2.892   0.945   3.795
 3608SOL    HW111723   2.868   1.014   3.727
 3608SOL    HW211724   2.980   0.904   3.771
 3609SOL     OW11725   3.675   1.528   4.514
 3609SOL    HW111726   3.589   1.555   4.470
 3609SOL    HW211727   3.657   1.502   4.609
 3610SOL     OW11728   2.098   1.302   5.588
 3610SOL    HW111729   2.053   1.217   5.561
 3610SOL    HW211730   2.092   1.313   5.687
 3611SOL     OW11731   1.983   1.160   4.394
 3611SOL    HW111732   2.037   1.125   4.470
 3611SOL    HW211733   2.038   1.156   4.310
 3612SOL     OW11734   2.573   1.407   5.400
 3612SOL    HW111735   2.483   1.378   5.430
 3612SOL    HW211736   2.589   1.502   5.428
 3613SOL     OW11737   3.647   0.209   4.969
 3613SOL    HW111738   3.557   0.168   4.957
 3613SOL    HW211739   3.702   0.195   4.886
 3614SOL     OW11740   2.235   0.388   4.229
 3614SOL    HW111741   2.273   0.318   4.169
 3614SOL    HW211742   2.211   0.349   4.317
 3615SOL     OW11743   3.566   1.465   4.768
 3615SOL    HW111744   3.481   1.473   4.716
 3615SOL    HW211745   3.556   1.392   4.837
 3616SOL     OW11746   2.233   0.563   5.008
 3616SOL    HW111747   2.294   0.503   5.059
 3616SOL    HW211748   2.227   0.532   4.913
 3617SOL     OW11749   2.672   1.573   4.393
 3617SOL    HW111750   2.653   1.651   4.334
 3617SOL    HW211751   2.592   1.514   4.397
 3618SOL     OW11752   3.294   0.287   4.822
 3618SOL    HW111753   3.345   0.205   4.846
 3618SOL    HW211754   3.237   0.316   4.899
 3619SOL     OW11755   2.783   0.077   4.853
 3619SOL    HW111756   2.714   0.029   4.798
 3619SOL    HW211757   2.834   0.011   4.908
 3620SOL     OW11758   2.636   1.308   4.069
 3620SOL    HW111759   2.613   1.212   4.090
 3620SOL    HW211760   2.715   1.335   4.123
 3621SOL     OW11761   2.487   1.554   5.059
 3621SOL    HW111762   2.495   1.620   5.134
 3621SOL    HW211763   2.574   1.550   5.009
 3622SOL     OW11764   3.137   6.965   3.959
 3622SOL    HW111765   3.190   6.900   3.904
 3622SOL    HW211766   3.058   6.917   3.999
 3623SOL     OW11767   3.115   0.479   4.372
 3623SOL    HW111768   3.067   0.567   4.375
 3623SOL    HW211769   3.120   0.441   4.464
 3624SOL     OW11770   3.491   0.211   4.558
 3624SOL    HW111771   3.427   0.213   4.634
 3624SOL    HW211772   3.495   0.301   4.514
 3625SOL     OW11773   1.892   1.025   4.033
 3625SOL    HW111774   1.988   1.007   4.010
 3625SOL    HW211775   1.847   0.939   4.057
 3626SOL     OW11776   2.738   1.658   4.044
 3626SOL    HW111777   2.662   1.644   3.980
 3626SOL    HW211778   2.710   1.723   4.115
 3627SOL     OW11779   2.074   0.668   5.724
 3627SOL    HW111780   1.985   0.630   5.751
 3627SOL    HW211781   2.076   0.679   5.625
 3628SOL     OW11782   2.009   0.395   6.651
 3628SOL    HW111783   2.065   0.350   6.720
 3628SOL    HW211784   1.949   0.327   6.607
 3629SOL     OW11785   1.890   0.440   6.259
 3629SOL    HW111786   1.805   0.464   6.306
 3629SOL    HW211787   1.872   0.372   6.188
 3630SOL     OW11788   2.390   1.338   6.849
 3630SOL    HW111789   2.311   1.330   6.788
 3630SOL    HW211790   2.423   1.432   6.848
 3631SOL     OW11791   3.443   1.527   6.267
 3631SOL    HW111792   3.384   1.508   6.345
 3631SOL    HW211793   3.387   1.545   6.186
 3632SOL     OW11794   2.983   0.727   6.278
 3632SOL    HW111795   3.029   0.814   6.258
 3632SOL    HW211796   2.944   0.730   6.370
 3633SOL     OW11797   3.625   0.586   5.802
 3633SOL    HW111798   3.599   0.600   5.707
 3633SOL    HW211799   3.569   0.514   5.843
 3634SOL     OW11800   2.577   1.162   6.748
 3634SOL    HW111801   2.509   1.216   6.797
 3634SOL    HW211802   2.610   1.215   6.669
 3635SOL     OW11803   2.540   0.939   6.242
 3635SOL    HW111804   2.608   0.937   6.315
 3635SOL    HW211805   2.469   1.006   6.263
 3636SOL     OW11806   2.181   1.367   6.648
 3636SOL    HW111807   2.086   1.358   6.618
 3636SOL    HW211808   2.232   1.423   6.582
 3637SOL     OW11809   3.457   0.494   6.333
 3637SOL    HW111810   3.428   0.524   6.242
 3637SOL    HW211811   3.407   0.546   6.402
 3638SOL     OW11812   2.117   1.725   6.063
 3638SOL    HW111813   2.135   1.794   6.133
 3638SOL    HW211814   2.192   1.725   5.997
 3639SOL     OW11815   2.177   1.459   6.103
 3639SOL    HW111816   2.146   1.554   6.102
 3639SOL    HW211817   2.130   1.410   6.176
 3640SOL     OW11818   2.172   1.128   6.491
 3640SOL    HW111819   2.177   1.037   6.530
 3640SOL    HW211820   2.184   1.196   6.563
 3641SOL     OW11821   2.479   1.851   6.978
 3641SOL    HW111822   2.409   1.807   0.034
 3641SOL    HW211823   2.525   1.922   0.032
 3642SOL     OW11824   2.427   0.987   5.764
 3642SOL    HW111825   2.478   1.034   5.691
 3642SOL    HW211826   2.468   1.009   5.853
 3643SOL     OW11827   1.978   0.698   6.185
 3643SOL    HW111828   1.960   0.604   6.215
 3643SOL    HW211829   1.991   0.756   6.266
 3644SOL     OW11830   3.734   1.748   5.905
 3644SOL    HW111831   3.811   1.738   5.968
 3644SOL    HW211832   3.734   1.841   5.867
 3645SOL     OW11833   1.893   1.561   5.720
 3645SOL    HW111834   1.874   1.465   5.742
 3645SOL    HW211835   1.887   1.616   5.804
 3646SOL     OW11836   3.568   0.934   6.234
 3646SOL    HW111837   3.613   0.866   6.176
 3646SOL    HW211838   3.536   1.010   6.178
 3647SOL     OW11839   3.517   1.133   6.034
 3647SOL    HW111840   3.600   1.101   5.987
 3647SOL    HW211841   3.543   1.200   6.104
 3648SOL     OW11842   2.470   1.349   6.346
 3648SOL    HW111843   2.430   1.261   6.323
 3648SOL    HW211844   2.482   1.403   6.262
 3649SOL     OW11845   2.715   0.039   6.077
 3649SOL    HW111846   2.762   0.125   6.056
 3649SOL    HW211847   2.618   0.057   6.089
 3650SOL     OW11848   1.989   0.906   6.806
 3650SOL    HW111849   2.040   0.900   6.720
 3650SOL    HW211850   1.891   0.900   6.787
 3651SOL     OW11851   3.412   1.049   5.785
 3651SOL    HW111852   3.340   0.984   5.807
 3651SOL    HW211853   3.449   1.088   5.870
 3652SOL     OW11854   3.284   1.450   6.485
 3652SOL    HW111855   3.238   1.446   6.573
 3652SOL    HW211856   3.302   1.357   6.453
 3653SOL     OW11857   3.503   1.857   6.113
 3653SOL    HW111858   3.491   1.794   6.036
 3653SOL    HW211859   3.523   1.805   6.196
 3654SOL     OW11860   2.432   0.714   5.864
 3654SOL    HW111861   2.437   0.806   5.824
 3654SOL    HW211862   2.358   0.710   5.930
 3655SOL     OW11863   3.129   0.369   6.496
 3655SOL    HW111864   3.037   0.332   6.509
 3655SOL    HW211865   3.189   0.336   6.569
 3656SOL     OW11866   3.465   1.686   5.896
 3656SOL    HW111867   3.564   1.699   5.891
 3656SOL    HW211868   3.429   1.672   5.803
 3657SOL     OW11869   2.606   0.518   0.082
 3657SOL    HW111870   2.536   0.578   0.121
 3657SOL    HW211871   2.578   0.489   6.991
 3658SOL     OW11872   2.825   0.322   6.833
 3658SOL    HW111873   2.738   0.371   6.839
 3658SOL    HW211874   2.807   0.227   6.807
 3659SOL     OW11875   2.912   0.701   6.010
 3659SOL    HW111876   2.932   0.703   6.108
 3659SOL    HW211877   2.821   0.661   5.995
 3660SOL     OW11878   1.996   0.868   6.398
 3660SOL    HW111879   2.077   0.861   6.455
 3660SOL    HW211880   1.935   0.939   6.434
 3661SOL     OW11881   2.041   1.764   0.094
 3661SOL    HW111882   1.985   1.685   0.120
 3661SOL    HW211883   2.030   1.781   6.996
 3662SOL     OW11884   2.742   0.390   5.778
 3662SOL    HW111885   2.811   0.444   5.731
 3662SOL    HW211886   2.696   0.330   5.712
 3663SOL     OW11887   3.244   1.176   6.115
 3663SOL    HW111888   3.332   1.162   6.069
 3663SOL    HW211889   3.190   1.243   6.065
 3664SOL     OW11890   2.287   0.269   6.531
 3664SOL    HW111891   2.339   0.245   6.613
 3664SOL    HW211892   2.330   0.348   6.486
 3665SOL     OW11893   2.852   1.471   6.049
 3665SOL    HW111894   2.832   1.542   5.982
 3665SOL    HW211895   2.821   1.501   6.139
 3666SOL     OW11896   2.222   1.783   6.499
 3666SOL    HW111897   2.262   1.691   6.497
 3666SOL    HW211898   2.291   1.849   6.529
 3667SOL     OW11899   3.675   1.010   6.483
 3667SOL    HW111900   3.646   0.995   6.388
 3667SOL    HW211901   3.593   1.023   6.540
 3668SOL     OW11902   2.143   0.923   5.851
 3668SOL    HW111903   2.231   0.953   5.813
 3668SOL    HW211904   2.121   0.832   5.816
 3669SOL     OW11905   3.330   0.802   6.307
 3669SOL    HW111906   3.321   0.750   6.391
 3669SOL    HW211907   3.419   0.849   6.305
 3670SOL     OW11908   3.025   1.758   5.814
 3670SOL    HW111909   2.932   1.739   5.845
 3670SOL    HW211910   3.047   1.699   5.736
 3671SOL     OW11911   3.490   1.381   5.682
 3671SOL    HW111912   3.464   1.477   5.672
 3671SOL    HW211913   3.415   1.323   5.649
 3672SOL     OW11914   2.347   1.742   5.909
 3672SOL    HW111915   2.391   1.802   5.975
 3672SOL    HW211916   2.417   1.698   5.853
 3673SOL     OW11917   3.288   0.120   5.985
 3673SOL    HW111918   3.225   0.060   5.936
 3673SOL    HW211919   3.357   0.156   5.922
 3674SOL     OW11920   2.069   1.821   6.819
 3674SOL    HW111921   2.132   1.744   6.818
 3674SOL    HW211922   2.019   1.825   6.733
 3675SOL     OW11923   2.809   1.686   6.446
 3675SOL    HW111924   2.897   1.638   6.442
 3675SOL    HW211925   2.752   1.658   6.369
 3676SOL     OW11926   2.229   0.675   6.049
 3676SOL    HW111927   2.229   0.575   6.046
 3676SOL    HW211928   2.141   0.707   6.084
 3677SOL     OW11929   2.499   0.075   5.709
 3677SOL    HW111930   2.546   0.010   5.768
 3677SOL    HW211931   2.408   0.041   5.686
 3678SOL     OW11932   2.704   1.476   6.790
 3678SOL    HW111933   2.693   1.426   6.704
 3678SOL    HW211934   2.725   1.411   6.863
 3679SOL     OW11935   2.659   1.334   6.551
 3679SOL    HW111936   2.748   1.345   6.508
 3679SOL    HW211937   2.587   1.342   6.481
 3680SOL     OW11938   2.799   0.487   6.465
 3680SOL    HW111939   2.777   0.487   6.367
 3680SOL    HW211940   2.828   0.395   6.492
 3681SOL     OW11941   2.445   0.092   6.071
 3681SOL    HW111942   2.364   0.071   6.126
 3681SOL    HW211943   2.422   0.163   6.004
 3682SOL     OW11944   3.273   1.218   5.615
 3682SOL    HW111945   3.317   1.152   5.676
 3682SOL    HW211946   3.187   1.249   5.655
 3683SOL     OW11947   2.176   0.083   5.783
 3683SOL    HW111948   2.239   0.151   5.819
 3683SOL    HW211949   2.087   0.092   5.828
 3684SOL     OW11950   2.839   0.277   6.012
 3684SOL    HW111951   2.802   0.316   5.927
 3684SOL    HW211952   2.938   0.293   6.016
 3685SOL     OW11953   3.057   1.574   6.360
 3685SOL    HW111954   3.078   1.647   6.295
 3685SOL    HW211955   3.140   1.545   6.407
 3686SOL     OW11956   2.339   1.119   6.275
 3686SOL    HW111957   2.276   1.117   6.353
 3686SOL    HW211958   2.287   1.117   6.190
 3687SOL     OW11959   3.110   1.795   6.193
 3687SOL    HW111960   3.164   1.860   6.140
 3687SOL    HW211961   3.032   1.841   6.235
 3688SOL     OW11962   2.914   0.538   5.629
 3688SOL    HW111963   2.873   0.624   5.598
 3688SOL    HW211964   2.982   0.557   5.700
 3689SOL     OW11965   2.406   0.206   6.787
 3689SOL    HW111966   2.411   0.106   6.778
 3689SOL    HW211967   2.316   0.231   6.824
 3690SOL     OW11968   2.743   0.465   6.199
 3690SOL    HW111969   2.692   0.525   6.137
 3690SOL    HW211970   2.779   0.387   6.149
 3691SOL     OW11971   2.890   0.020   6.318
 3691SOL    HW111972   2.829   0.020   6.239
 3691SOL    HW211973   2.911   6.926   6.344
 3692SOL     OW11974   3.358   1.208   6.373
 3692SOL    HW111975   3.298   1.190   6.295
 3692SOL    HW211976   3.450   1.227   6.340
 3693SOL     OW11977   3.300   0.629   6.529
 3693SOL    HW111978   3.235   0.553   6.535
 3693SOL    HW211979   3.365   0.623   6.605
 3694SOL     OW11980   3.643   0.769   6.004
 3694SOL    HW111981   3.720   0.737   6.059
 3694SOL    HW211982   3.635   0.711   5.922
 3695SOL     OW11983   2.367   1.405   5.732
 3695SOL    HW111984   2.286   1.379   5.784
 3695SOL    HW211985   2.362   1.366   5.640
 3696SOL     OW11986   3.595   1.282   6.246
 3696SOL    HW111987   3.694   1.270   6.253
 3696SOL    HW211988   3.573   1.380   6.250
 3697SOL     OW11989   3.256   0.587   5.634
 3697SOL    HW111990   3.212   0.569   5.722
 3697SOL    HW211991   3.355   0.592   5.647
 3698SOL     OW11992   2.367   0.268   5.862
 3698SOL    HW111993   2.433   0.217   5.807
 3698SOL    HW211994   2.346   0.355   5.818
 3699SOL     OW11995   3.584   1.190   0.151
 3699SOL    HW111996   3.682   1.179   0.134
 3699SOL    HW211997   3.559   1.286   0.142
 3700SOL     OW11998   2.960   1.260   6.690
 3700SOL    HW111999   2.880   1.211   6.724
 3700SOL    HW212000   2.943   1.292   6.597
 3701SOL     OW12001   3.441   1.068   6.611
 3701SOL    HW112002   3.452   1.143   6.676
 3701SOL    HW212003   3.387   1.099   6.532
 3702SOL     OW12004   2.580   1.040   5.989
 3702SOL    HW112005   2.560   1.002   6.080
 3702SOL    HW212006   2.669   1.007   5.958
 3703SOL     OW12007   2.400   0.794   6.879
 3703SOL    HW112008   2.413   0.835   6.969
 3703SOL    HW212009   2.325   0.728   6.883
 3704SOL     OW12010   3.090   0.343   6.894
 3704SOL    HW112011   3.117   0.432   6.932
 3704SOL    HW212012   2.993   0.346   6.868
 3705SOL     OW12013   1.950   1.529   6.904
 3705SOL    HW112014   1.887   1.595   6.864
 3705SOL    HW212015   2.043   1.550   6.876
 3706SOL     OW12016   2.168   1.119   6.055
 3706SOL    HW112017   2.168   1.193   5.987
 3706SOL    HW212018   2.157   1.031   6.008
 3707SOL     OW12019   2.394   0.505   6.443
 3707SOL    HW112020   2.400   0.560   6.359
 3707SOL    HW212021   2.470   0.529   6.504
 3708SOL     OW12022   3.104   1.380   5.978
 3708SOL    HW112023   3.168   1.454   6.003
 3708SOL    HW212024   3.013   1.404   6.011
 3709SOL     OW12025   3.168   1.441   6.731
 3709SOL    HW112026   3.217   1.406   6.811
 3709SOL    HW212027   3.083   1.389   6.720
 3710SOL     OW12028   3.408   0.633   6.090
 3710SOL    HW112029   3.349   0.689   6.148
 3710SOL    HW212030   3.484   0.688   6.056
 3711SOL     OW12031   2.202   1.586   6.813
 3711SOL    HW112032   2.193   1.508   6.751
 3711SOL    HW212033   2.299   1.603   6.831
 3712SOL     OW12034   2.501   0.911   6.657
 3712SOL    HW112035   2.526   1.003   6.685
 3712SOL    HW212036   2.468   0.860   6.736
 3713SOL     OW12037   3.135   0.855   6.622
 3713SOL    HW112038   3.044   0.820   6.597
 3713SOL    HW212039   3.204   0.787   6.598
 3714SOL     OW12040   3.082   0.554   5.851
 3714SOL    HW112041   3.100   0.470   5.902
 3714SOL    HW212042   3.029   0.617   5.907
 3715SOL     OW12043   2.141   0.258   6.855
 3715SOL    HW112044   2.071   0.275   6.925
 3715SOL    HW212045   2.125   0.169   6.813
 3716SOL     OW12046   1.859   1.271   6.869
 3716SOL    HW112047   1.909   1.203   6.923
 3716SOL    HW212048   1.896   1.362   6.888
 3717SOL     OW12049   2.590   0.588   6.611
 3717SOL    HW112050   2.669   0.556   6.559
 3717SOL    HW212051   2.598   0.687   6.626
 3718SOL     OW12052   2.201   0.051   6.194
 3718SOL    HW112053   2.174   0.141   6.227
 3718SOL    HW212054   2.147   6.981   6.241
 3719SOL     OW12055   3.437   0.415   5.914
 3719SOL    HW112056   3.494   0.354   5.969
 3719SOL    HW212057   3.401   0.489   5.972
 3720SOL     OW12058   2.885   0.730   6.557
 3720SOL    HW112059   2.860   0.740   6.653
 3720SOL    HW212060   2.866   0.637   6.527
 3721SOL     OW12061   3.375   0.226   5.714
 3721SOL    HW112062   3.278   0.225   5.692
 3721SOL    HW212063   3.395   0.305   5.773
 3722SOL     OW12064   3.126   0.822   5.586
 3722SOL    HW112065   3.170   0.733   5.596
 3722SOL    HW212066   3.150   0.862   5.497
 3723SOL     OW12067   2.906   1.352   6.440
 3723SOL    HW112068   2.912   1.266   6.389
 3723SOL    HW212069   2.961   1.422   6.394
 3724SOL     OW12070   2.209   0.867   6.587
 3724SOL    HW112071   2.306   0.888   6.602
 3724SOL    HW212072   2.196   0.768   6.593
 3725SOL     OW12073   2.192   0.593   6.601
 3725SOL    HW112074   2.119   0.524   6.600
 3725SOL    HW212075   2.265   0.565   6.539
 3726SOL     OW12076   3.061   0.181   0.120
 3726SOL    HW112077   3.072   0.241   0.199
 3726SOL    HW212078   3.070   0.234   0.036
 3727SOL     OW12079   1.858   1.286   5.805
 3727SOL    HW112080   1.769   1.313   5.769
 3727SOL    HW212081   1.858   1.188   5.824
 3728SOL     OW12082   1.956   1.766   6.563
 3728SOL    HW112083   1.915   1.685   6.519
 3728SOL    HW212084   2.051   1.775   6.533
 3729SOL     OW12085   2.349   1.533   6.508
 3729SOL    HW112086   2.422   1.595   6.537
 3729SOL    HW212087   2.386   1.466   6.443
 3730SOL     OW12088   2.793   0.758   6.815
 3730SOL    HW112089   2.820   0.692   6.884
 3730SOL    HW212090   2.719   0.815   6.850
 3731SOL     OW12091   1.895   0.638   6.709
 3731SOL    HW112092   1.932   0.548   6.686
 3731SOL    HW212093   1.958   0.686   6.770
 3732SOL     OW12094   2.666   0.591   5.955
 3732SOL    HW112095   2.681   0.515   5.892
 3732SOL    HW212096   2.582   0.640   5.929
 3733SOL     OW12097   3.492   0.621   6.724
 3733SOL    HW112098   3.503   0.568   6.808
 3733SOL    HW212099   3.574   0.613   6.668
 3734SOL     OW12100   2.562   0.428   6.829
 3734SOL    HW112101   2.504   0.349   6.806
 3734SOL    HW212102   2.567   0.490   6.751
 3735SOL     OW12103   2.879   1.669   6.882
 3735SOL    HW112104   2.816   1.603   6.842
 3735SOL    HW212105   2.889   1.747   6.820
 3736SOL     OW12106   2.306   0.502   5.734
 3736SOL    HW112107   2.371   0.569   5.769
 3736SOL    HW212108   2.215   0.542   5.731
 3737SOL     OW12109   1.995   1.076   0.020
 3737SOL    HW112110   2.069   1.049   0.083
 3737SOL    HW212111   1.992   1.012   6.943
 3738SOL     OW12112   3.168   1.094   6.770
 3738SOL    HW112113   3.167   1.006   6.723
 3738SOL    HW212114   3.093   1.151   6.736
 3739SOL     OW12115   3.202   0.891   5.845
 3739SOL    HW112116   3.134   0.870   5.916
 3739SOL    HW212117   3.165   0.865   5.756
 3740SOL     OW12118   3.614   1.765   6.741
 3740SOL    HW112119   3.690   1.782   6.678
 3740SOL    HW212120   3.584   1.670   6.731
 3741SOL     OW12121   3.144   1.718   6.670
 3741SOL    HW112122   3.234   1.758   6.650
 3741SOL    HW212123   3.157   1.624   6.702
 3742SOL     OW12124   1.913   1.302   6.594
 3742SOL    HW112125   1.887   1.288   6.690
 3742SOL    HW212126   1.889   1.221   6.541
 3743SOL     OW12127   3.598   0.248   6.055
 3743SOL    HW112128   3.652   0.215   5.978
 3743SOL    HW212129   3.564   0.169   6.107
 3744SOL     OW12130   3.266   1.591   6.063
 3744SOL    HW112131   3.329   1.628   5.994
 3744SOL    HW212132   3.204   1.664   6.094
 3745SOL     OW12133   3.120   0.959   6.232
 3745SOL    HW112134   3.198   0.904   6.262
 3745SOL    HW212135   3.153   1.039   6.181
 3746SOL     OW12136   2.542   1.612   5.754
 3746SOL    HW112137   2.559   1.644   5.661
 3746SOL    HW212138   2.480   1.533   5.751
 3747SOL     OW12139   3.740   0.169   6.554
 3747SOL    HW112140   3.753   0.070   6.541
 3747SOL    HW212141   3.651   0.196   6.517
 3748SOL     OW12142   2.128   0.292   6.298
 3748SOL    HW112143   2.045   0.349   6.303
 3748SOL    HW212144   2.172   0.289   6.388
 3749SOL     OW12145   3.090   1.592   5.605
 3749SOL    HW112146   3.068   1.501   5.639
 3749SOL    HW212147   3.026   1.619   5.533
 3750SOL     OW12148   2.661   0.982   6.943
 3750SOL    HW112149   2.639   1.053   6.876
 3750SOL    HW212150   2.755   0.995   6.975
 3751SOL     OW12151   2.818   0.944   5.915
 3751SOL    HW112152   2.846   0.952   5.819
 3751SOL    HW212153   2.856   0.860   5.954
 3752SOL     OW12154   3.366   1.641   5.639
 3752SOL    HW112155   3.268   1.626   5.625
 3752SOL    HW212156   3.412   1.648   5.551
 3753SOL     OW12157   3.485   1.279   6.781
 3753SOL    HW112158   3.578   1.280   6.819
 3753SOL    HW212159   3.419   1.272   6.855
 3754SOL     OW12160   2.904   1.100   6.343
 3754SOL    HW112161   2.832   1.039   6.376
 3754SOL    HW212162   2.977   1.046   6.302
 3755SOL     OW12163   2.889   0.225   6.515
 3755SOL    HW112164   2.882   0.158   6.441
 3755SOL    HW212165   2.866   0.182   6.602
 3756SOL     OW12166   2.472   1.480   6.105
 3756SOL    HW112167   2.519   1.427   6.034
 3756SOL    HW212168   2.374   1.483   6.084
 3757SOL     OW12169   3.562   0.473   6.946
 3757SOL    HW112170   3.643   0.416   6.951
 3757SOL    HW212171   3.485   0.427   6.991
 3758SOL     OW12172   2.122   1.330   5.869
 3758SOL    HW112173   2.022   1.322   5.860
 3758SOL    HW212174   2.142   1.388   5.948
 3759SOL     OW12175   1.985   0.405   5.484
 3759SOL    HW112176   1.886   0.403   5.470
 3759SOL    HW212177   2.018   0.499   5.473
 3760SOL     OW12178   1.907   0.109   5.855
 3760SOL    HW112179   1.876   0.167   5.779
 3760SOL    HW212180   1.887   0.013   5.833
 3761SOL     OW12181   3.023   1.337   5.712
 3761SOL    HW112182   2.924   1.325   5.713
 3761SOL    HW212183   3.056   1.347   5.806
 3762SOL     OW12184   3.381   1.846   6.616
 3762SOL    HW112185   3.405   1.903   6.537
 3762SOL    HW212186   3.465   1.819   6.664
 3763SOL     OW12187   3.307   1.253   0.287
 3763SOL    HW112188   3.242   1.289   0.355
 3763SOL    HW212189   3.356   1.329   0.245
 3764SOL     OW12190   2.305   1.708   0.122
 3764SOL    HW112191   2.207   1.729   0.116
 3764SOL    HW212192   2.319   1.610   0.111
 3765SOL     OW12193   3.407   0.868   6.816
 3765SOL    HW112194   3.439   0.780   6.780
 3765SOL    HW212195   3.409   0.936   6.742
 3766SOL     OW12196   3.110   0.336   6.021
 3766SOL    HW112197   3.175   0.261   6.022
 3766SOL    HW212198   3.118   0.390   6.105
 3767SOL     OW12199   2.419   0.690   6.246
 3767SOL    HW112200   2.470   0.776   6.240
 3767SOL    HW212201   2.352   0.686   6.172
 3768SOL     OW12202   3.504   0.920   0.068
 3768SOL    HW112203   3.594   0.962   0.056
 3768SOL    HW212204   3.467   0.894   6.979
 3769SOL     OW12205   2.734   1.343   5.700
 3769SOL    HW112206   2.692   1.335   5.791
 3769SOL    HW212207   2.710   1.431   5.660
 3770SOL     OW12208   2.543   1.716   6.554
 3770SOL    HW112209   2.516   1.812   6.559
 3770SOL    HW212210   2.640   1.710   6.531
 3771SOL     OW12211   2.708   0.925   6.463
 3771SOL    HW112212   2.777   0.858   6.491
 3771SOL    HW212213   2.632   0.923   6.527
 3772SOL     OW12214   2.895   0.947   5.656
 3772SOL    HW112215   2.874   1.021   5.592
 3772SOL    HW212216   2.984   0.907   5.632
 3773SOL     OW12217   3.659   1.593   6.423
 3773SOL    HW112218   3.590   1.579   6.351
 3773SOL    HW212219   3.624   1.558   6.510
 3774SOL     OW12220   2.047   1.259   6.266
 3774SOL    HW112221   2.074   1.216   6.352
 3774SOL    HW212222   2.077   1.202   6.190
 3775SOL     OW12223   3.632   0.157   6.808
 3775SOL    HW112224   3.539   0.122   6.792
 3775SOL    HW212225   3.678   0.172   6.720
 3776SOL     OW12226   2.224   0.407   6.063
 3776SOL    HW112227   2.277   0.344   6.006
 3776SOL    HW212228   2.196   0.360   6.147
 3777SOL     OW12229   3.512   1.517   6.645
 3777SOL    HW112230   3.429   1.521   6.590
 3777SOL    HW212231   3.514   1.432   6.697
 3778SOL     OW12232   2.200   0.602   6.875
 3778SOL    HW112233   2.224   0.512   6.913
 3778SOL    HW212234   2.201   0.596   6.776
 3779SOL     OW12235   2.676   1.634   6.216
 3779SOL    HW112236   2.684   1.721   6.168
 3779SOL    HW212237   2.598   1.583   6.179
 3780SOL     OW12238   3.280   0.275   6.699
 3780SOL    HW112239   3.321   0.185   6.714
 3780SOL    HW212240   3.221   0.298   6.776
 3781SOL     OW12241   2.772   0.066   6.740
 3781SOL    HW112242   2.692   0.038   6.687
 3781SOL    HW212243   2.799   6.992   6.801
 3782SOL     OW12244   2.636   1.312   5.955
 3782SOL    HW112245   2.617   1.215   5.973
 3782SOL    HW212246   2.721   1.338   6.001
 3783SOL     OW12247   2.471   1.607   6.847
 3783SOL    HW112248   2.481   1.702   6.878
 3783SOL    HW212249   2.559   1.573   6.813
 3784SOL     OW12250   3.129   6.966   5.813
 3784SOL    HW112251   3.182   6.899   5.762
 3784SOL    HW212252   3.051   6.921   5.856
 3785SOL     OW12253   3.120   0.486   6.247
 3785SOL    HW112254   3.069   0.572   6.252
 3785SOL    HW212255   3.128   0.446   6.338
 3786SOL     OW12256   3.494   0.268   6.491
 3786SOL    HW112257   3.426   0.275   6.565
 3786SOL    HW212258   3.482   0.345   6.428
 3787SOL     OW12259   1.882   1.016   5.900
 3787SOL    HW112260   1.977   1.002   5.873
 3787SOL    HW212261   1.841   0.927   5.921
 3788SOL     OW12262   2.767   1.687   5.897
 3788SOL    HW112263   2.686   1.663   5.843
 3788SOL    HW212264   2.745   1.764   5.957
 3789SOL     OW12265   2.073   2.518   0.110
 3789SOL    HW112266   1.984   2.473   0.104
 3789SOL    HW212267   2.126   2.497   0.028
 3790SOL     OW12268   2.067   2.141   1.009
 3790SOL    HW112269   2.098   2.109   1.099
 3790SOL    HW212270   1.975   2.106   0.992
 3791SOL     OW12271   1.876   2.276   0.632
 3791SOL    HW112272   1.791   2.295   0.682
 3791SOL    HW212273   1.856   2.213   0.556
 3792SOL     OW12274   2.509   3.200   1.177
 3792SOL    HW112275   2.428   3.177   1.123
 3792SOL    HW212276   2.497   3.291   1.219
 3793SOL     OW12277   3.403   3.238   0.650
 3793SOL    HW112278   3.338   3.188   0.707
 3793SOL    HW212279   3.355   3.313   0.604
 3794SOL     OW12280   2.998   2.530   0.673
 3794SOL    HW112281   3.032   2.623   0.675
 3794SOL    HW212282   2.927   2.519   0.743
 3795SOL     OW12283   3.661   2.416   0.116
 3795SOL    HW112284   3.633   2.511   0.100
 3795SOL    HW212285   3.617   2.382   0.199
 3796SOL     OW12286   2.548   2.836   0.606
 3796SOL    HW112287   2.640   2.853   0.644
 3796SOL    HW212288   2.487   2.910   0.635
 3797SOL     OW12289   2.248   3.230   1.063
 3797SOL    HW112290   2.171   3.179   1.024
 3797SOL    HW212291   2.278   3.299   0.997
 3798SOL     OW12292   3.229   3.535   1.287
 3798SOL    HW112293   3.323   3.546   1.318
 3798SOL    HW212294   3.174   3.495   1.361
 3799SOL     OW12295   2.354   2.171   1.432
 3799SOL    HW112296   2.440   2.136   1.468
 3799SOL    HW212297   2.279   2.142   1.491
 3800SOL     OW12298   3.452   2.308   0.786
 3800SOL    HW112299   3.377   2.303   0.719
 3800SOL    HW212300   3.432   2.380   0.852
 3801SOL     OW12301   2.123   3.588   0.495
 3801SOL    HW112302   2.143   3.665   0.556
 3801SOL    HW212303   2.208   3.557   0.452
 3802SOL     OW12304   3.022   3.275   1.699
 3802SOL    HW112305   3.061   3.261   1.790
 3802SOL    HW212306   2.973   3.193   1.671
 3803SOL     OW12307   2.013   3.350   0.583
 3803SOL    HW112308   2.052   3.439   0.560
 3803SOL    HW212309   1.969   3.355   0.673
 3804SOL     OW12310   2.160   2.941   0.838
 3804SOL    HW112311   2.180   2.845   0.859
 3804SOL    HW212312   2.124   2.986   0.920
 3805SOL     OW12313   2.353   3.646   1.412
 3805SOL    HW112314   2.287   3.621   1.484
 3805SOL    HW212315   2.401   3.730   1.438
 3806SOL     OW12316   2.420   2.801   0.157
 3806SOL    HW112317   2.449   2.831   0.066
 3806SOL    HW212318   2.474   2.849   0.226
 3807SOL     OW12319   3.440   2.013   1.397
 3807SOL    HW112320   3.532   2.050   1.409
 3807SOL    HW212321   3.390   2.020   1.484
 3808SOL     OW12322   1.972   2.532   0.571
 3808SOL    HW112323   1.947   2.437   0.590
 3808SOL    HW212324   1.962   2.587   0.654
 3809SOL     OW12325   3.737   3.592   0.395
 3809SOL    HW112326   3.813   3.561   0.453
 3809SOL    HW212327   3.751   3.688   0.370
 3810SOL     OW12328   3.563   2.794   0.769
 3810SOL    HW112329   3.653   2.751   0.772
 3810SOL    HW212330   3.568   2.877   0.713
 3811SOL     OW12331   3.472   2.927   0.397
 3811SOL    HW112332   3.535   2.948   0.322
 3811SOL    HW212333   3.514   2.955   0.484
 3812SOL     OW12334   2.075   2.620   1.620
 3812SOL    HW112335   2.171   2.643   1.636
 3812SOL    HW212336   2.017   2.699   1.643
 3813SOL     OW12337   2.448   3.246   0.729
 3813SOL    HW112338   2.404   3.159   0.708
 3813SOL    HW212339   2.487   3.285   0.645
 3814SOL     OW12340   3.117   3.066   1.436
 3814SOL    HW112341   3.121   2.987   1.376
 3814SOL    HW212342   3.199   3.069   1.493
 3815SOL     OW12343   2.699   1.901   0.499
 3815SOL    HW112344   2.740   1.989   0.476
 3815SOL    HW212345   2.600   1.912   0.509
 3816SOL     OW12346   2.041   2.772   1.272
 3816SOL    HW112347   2.138   2.746   1.271
 3816SOL    HW212348   1.990   2.712   1.211
 3817SOL     OW12349   3.286   2.899   0.200
 3817SOL    HW112350   3.208   2.840   0.222
 3817SOL    HW212351   3.359   2.885   0.267
 3818SOL     OW12352   3.044   3.693   1.611
 3818SOL    HW112353   3.072   3.774   1.560
 3818SOL    HW212354   3.047   3.613   1.551
 3819SOL     OW12355   2.224   2.100   1.874
 3819SOL    HW112356   2.258   2.177   1.929
 3819SOL    HW212357   2.127   2.114   1.854
 3820SOL     OW12358   3.442   3.752   0.564
 3820SOL    HW112359   3.447   3.688   0.488
 3820SOL    HW212360   3.441   3.702   0.650
 3821SOL     OW12361   2.431   2.557   0.283
 3821SOL    HW112362   2.428   2.648   0.241
 3821SOL    HW212363   2.363   2.553   0.357
 3822SOL     OW12364   3.165   2.235   0.958
 3822SOL    HW112365   3.075   2.190   0.955
 3822SOL    HW212366   3.220   2.193   1.029
 3823SOL     OW12367   3.453   3.581   0.343
 3823SOL    HW112368   3.552   3.570   0.358
 3823SOL    HW212369   3.431   3.552   0.250
 3824SOL     OW12370   2.620   2.435   1.438
 3824SOL    HW112371   2.646   2.402   1.529
 3824SOL    HW212372   2.608   2.357   1.376
 3825SOL     OW12373   3.309   2.293   1.640
 3825SOL    HW112374   3.387   2.329   1.690
 3825SOL    HW212375   3.316   2.194   1.632
 3826SOL     OW12376   2.813   2.812   1.596
 3826SOL    HW112377   2.877   2.735   1.599
 3826SOL    HW212378   2.746   2.797   1.524
 3827SOL     OW12379   2.866   2.254   1.172
 3827SOL    HW112380   2.773   2.251   1.209
 3827SOL    HW212381   2.872   2.194   1.092
 3828SOL     OW12382   2.914   2.559   0.407
 3828SOL    HW112383   2.949   2.550   0.500
 3828SOL    HW212384   2.821   2.522   0.403
 3829SOL     OW12385   1.939   2.680   0.812
 3829SOL    HW112386   2.036   2.672   0.833
 3829SOL    HW212387   1.895   2.740   0.880
 3830SOL     OW12388   1.854   3.744   1.533
 3830SOL    HW112389   1.884   3.715   1.624
 3830SOL    HW212390   1.781   3.684   1.501
 3831SOL     OW12391   2.781   2.258   0.215
 3831SOL    HW112392   2.821   2.327   0.154
 3831SOL    HW212393   2.815   2.167   0.190
 3832SOL     OW12394   3.215   2.986   0.510
 3832SOL    HW112395   3.303   2.966   0.468
 3832SOL    HW212396   3.174   3.066   0.466
 3833SOL     OW12397   2.407   1.955   0.943
 3833SOL    HW112398   2.410   1.986   1.038
 3833SOL    HW212399   2.419   2.033   0.882
 3834SOL     OW12400   2.846   3.291   0.442
 3834SOL    HW112401   2.823   3.383   0.408
 3834SOL    HW212402   2.805   3.278   0.532
 3835SOL     OW12403   2.223   3.661   0.906
 3835SOL    HW112404   2.265   3.570   0.904
 3835SOL    HW212405   2.286   3.727   0.946
 3836SOL     OW12406   3.565   2.875   1.033
 3836SOL    HW112407   3.558   2.848   0.937
 3836SOL    HW212408   3.553   2.974   1.041
 3837SOL     OW12409   3.060   3.439   1.482
 3837SOL    HW112410   3.076   3.394   1.569
 3837SOL    HW212411   3.004   3.380   1.424
 3838SOL     OW12412   2.148   2.792   0.169
 3838SOL    HW112413   2.248   2.794   0.165
 3838SOL    HW212414   2.116   2.697   0.161
 3839SOL     OW12415   3.338   2.642   0.738
 3839SOL    HW112416   3.324   2.587   0.820
 3839SOL    HW212417   3.418   2.701   0.750
 3840SOL     OW12418   2.266   3.098   1.715
 3840SOL    HW112419   2.248   3.086   1.617
 3840SOL    HW212420   2.205   3.167   1.753
 3841SOL     OW12421   3.019   3.633   0.253
 3841SOL    HW112422   2.943   3.591   0.302
 3841SOL    HW212423   3.050   3.573   0.180
 3842SOL     OW12424   2.109   2.099   1.544
 3842SOL    HW112425   2.069   2.178   1.591
 3842SOL    HW212426   2.063   2.015   1.573
 3843SOL     OW12427   3.517   3.289   0.118
 3843SOL    HW112428   3.470   3.369   0.080
 3843SOL    HW212429   3.455   3.239   0.177
 3844SOL     OW12430   2.387   3.555   0.405
 3844SOL    HW112431   2.411   3.645   0.442
 3844SOL    HW212432   2.429   3.544   0.315
 3845SOL     OW12433   2.080   3.655   1.322
 3845SOL    HW112434   2.083   3.645   1.422
 3845SOL    HW212435   2.166   3.624   1.283
 3846SOL     OW12436   2.237   2.523   0.476
 3846SOL    HW112437   2.251   2.425   0.489
 3846SOL    HW212438   2.143   2.547   0.498
 3847SOL     OW12439   3.306   2.016   1.635
 3847SOL    HW112440   3.342   2.021   1.729
 3847SOL    HW212441   3.233   1.948   1.631
 3848SOL     OW12442   2.701   2.129   1.857
 3848SOL    HW112443   2.772   2.069   1.820
 3848SOL    HW212444   2.743   2.206   1.905
 3849SOL     OW12445   2.767   3.433   1.265
 3849SOL    HW112446   2.732   3.397   1.178
 3849SOL    HW212447   2.823   3.363   1.310
 3850SOL     OW12448   3.182   2.462   1.461
 3850SOL    HW112449   3.239   2.408   1.523
 3850SOL    HW212450   3.235   2.538   1.424
 3851SOL     OW12451   2.810   2.364   0.884
 3851SOL    HW112452   2.771   2.360   0.792
 3851SOL    HW212453   2.851   2.276   0.908
 3852SOL     OW12454   2.420   1.921   0.504
 3852SOL    HW112455   2.343   1.917   0.568
 3852SOL    HW212456   2.402   1.991   0.435
 3853SOL     OW12457   3.257   3.055   6.972
 3853SOL    HW112458   3.283   2.986   0.040
 3853SOL    HW212459   3.185   3.113   0.009
 3854SOL     OW12460   2.833   2.139   0.461
 3854SOL    HW112461   2.805   2.187   0.378
 3854SOL    HW212462   2.932   2.144   0.472
 3855SOL     OW12463   2.966   2.580   1.579
 3855SOL    HW112464   2.944   2.531   1.663
 3855SOL    HW212465   3.048   2.540   1.537
 3856SOL     OW12466   2.326   3.010   0.635
 3856SOL    HW112467   2.268   2.987   0.713
 3856SOL    HW212468   2.275   2.996   0.550
 3857SOL     OW12469   3.169   3.681   0.609
 3857SOL    HW112470   3.242   3.747   0.589
 3857SOL    HW212471   3.090   3.730   0.646
 3858SOL     OW12472   2.856   2.453   0.038
 3858SOL    HW112473   2.773   2.507   0.029
 3858SOL    HW212474   2.936   2.514   0.033
 3859SOL     OW12475   1.997   2.455   1.409
 3859SOL    HW112476   2.086   2.423   1.378
 3859SOL    HW212477   2.009   2.522   1.482
 3860SOL     OW12478   2.418   2.026   1.205
 3860SOL    HW112479   2.434   1.939   1.252
 3860SOL    HW212480   2.368   2.087   1.266
 3861SOL     OW12481   2.724   2.329   0.632
 3861SOL    HW112482   2.684   2.390   0.563
 3861SOL    HW212483   2.764   2.250   0.586
 3862SOL     OW12484   2.879   1.915   0.719
 3862SOL    HW112485   2.821   1.920   0.638
 3862SOL    HW212486   2.847   1.842   0.779
 3863SOL     OW12487   3.225   3.063   0.772
 3863SOL    HW112488   3.190   2.992   0.833
 3863SOL    HW212489   3.220   3.031   0.677
 3864SOL     OW12490   3.314   2.478   0.970
 3864SOL    HW112491   3.251   2.400   0.976
 3864SOL    HW212492   3.384   2.469   1.041
 3865SOL     OW12493   3.691   2.672   0.403
 3865SOL    HW112494   3.741   2.608   0.461
 3865SOL    HW212495   3.701   2.644   0.307
 3866SOL     OW12496   2.318   3.321   0.182
 3866SOL    HW112497   2.252   3.296   0.253
 3866SOL    HW212498   2.337   3.242   0.124
 3867SOL     OW12499   3.579   3.029   0.628
 3867SOL    HW112500   3.675   3.054   0.639
 3867SOL    HW212501   3.522   3.111   0.636
 3868SOL     OW12502   3.230   2.390   0.023
 3868SOL    HW112503   3.208   2.384   0.120
 3868SOL    HW212504   3.323   2.357   0.008
 3869SOL     OW12505   2.382   2.107   0.307
 3869SOL    HW112506   2.456   2.073   0.248
 3869SOL    HW212507   2.340   2.186   0.264
 3870SOL     OW12508   3.633   3.076   1.540
 3870SOL    HW112509   3.726   3.040   1.532
 3870SOL    HW212510   3.636   3.175   1.556
 3871SOL     OW12511   2.905   3.230   1.383
 3871SOL    HW112512   2.823   3.173   1.387
 3871SOL    HW212513   2.985   3.173   1.404
 3872SOL     OW12514   3.534   3.537   1.641
 3872SOL    HW112515   3.493   3.552   1.551
 3872SOL    HW212516   3.599   3.461   1.636
 3873SOL     OW12517   2.811   1.932   1.344
 3873SOL    HW112518   2.832   1.915   1.247
 3873SOL    HW212519   2.885   1.985   1.385
 3874SOL     OW12520   2.808   3.064   1.698
 3874SOL    HW112521   2.718   3.101   1.678
 3874SOL    HW212522   2.816   2.972   1.659
 3875SOL     OW12523   2.587   2.906   0.344
 3875SOL    HW112524   2.569   2.881   0.439
 3875SOL    HW212525   2.656   2.844   0.306
 3876SOL     OW12526   2.292   2.653   1.272
 3876SOL    HW112527   2.354   2.676   1.347
 3876SOL    HW212528   2.268   2.556   1.277
 3877SOL     OW12529   3.114   2.270   1.279
 3877SOL    HW112530   3.132   2.345   1.342
 3877SOL    HW212531   3.021   2.279   1.242
 3878SOL     OW12532   1.983   3.392   1.381
 3878SOL    HW112533   1.975   3.488   1.353
 3878SOL    HW212534   2.078   3.363   1.375
 3879SOL     OW12535   2.141   2.965   0.400
 3879SOL    HW112536   2.135   3.062   0.375
 3879SOL    HW212537   2.151   2.910   0.317
 3880SOL     OW12538   2.374   2.413   0.868
 3880SOL    HW112539   2.388   2.473   0.789
 3880SOL    HW212540   2.455   2.413   0.925
 3881SOL     OW12541   3.111   3.234   0.402
 3881SOL    HW112542   3.161   3.309   0.444
 3881SOL    HW212543   3.013   3.245   0.418
 3882SOL     OW12544   3.461   2.534   0.498
 3882SOL    HW112545   3.405   2.567   0.574
 3882SOL    HW212546   3.524   2.606   0.470
 3883SOL     OW12547   2.236   3.311   1.320
 3883SOL    HW112548   2.236   3.280   1.225
 3883SOL    HW212549   2.322   3.356   1.341
 3884SOL     OW12550   2.341   2.663   1.700
 3884SOL    HW112551   2.388   2.675   1.613
 3884SOL    HW212552   2.403   2.621   1.766
 3885SOL     OW12553   3.515   2.642   1.687
 3885SOL    HW112554   3.423   2.680   1.674
 3885SOL    HW212555   3.574   2.673   1.613
 3886SOL     OW12556   2.903   1.994   1.733
 3886SOL    HW112557   2.952   2.081   1.722
 3886SOL    HW212558   2.963   1.918   1.708
 3887SOL     OW12559   2.380   1.893   1.762
 3887SOL    HW112560   2.326   1.836   1.699
 3887SOL    HW212561   2.327   1.974   1.787
 3888SOL     OW12562   2.533   2.697   1.123
 3888SOL    HW112563   2.583   2.747   1.195
 3888SOL    HW212564   2.436   2.690   1.149
 3889SOL     OW12565   3.138   2.690   1.035
 3889SOL    HW112566   3.047   2.649   1.042
 3889SOL    HW212567   3.205   2.620   1.012
 3890SOL     OW12568   3.084   2.385   0.264
 3890SOL    HW112569   3.100   2.314   0.333
 3890SOL    HW212570   3.022   2.454   0.301
 3891SOL     OW12571   2.102   2.047   1.269
 3891SOL    HW112572   2.120   2.067   1.365
 3891SOL    HW212573   2.124   1.951   1.251
 3892SOL     OW12574   1.904   3.162   1.262
 3892SOL    HW112575   1.903   3.086   1.328
 3892SOL    HW212576   1.927   3.246   1.310
 3893SOL     OW12577   2.586   2.437   1.036
 3893SOL    HW112578   2.669   2.426   0.982
 3893SOL    HW212579   2.578   2.532   1.065
 3894SOL     OW12580   3.587   2.787   1.907
 3894SOL    HW112581   3.571   2.718   1.837
 3894SOL    HW212582   3.500   2.814   1.949
 3895SOL     OW12583   2.192   1.900   0.667
 3895SOL    HW112584   2.155   1.991   0.683
 3895SOL    HW212585   2.194   1.849   0.753
 3896SOL     OW12586   3.528   2.322   0.338
 3896SOL    HW112587   3.554   2.246   0.397
 3896SOL    HW212588   3.497   2.399   0.394
 3897SOL     OW12589   2.895   2.570   1.066
 3897SOL    HW112590   2.876   2.565   1.164
 3897SOL    HW212591   2.876   2.481   1.025
 3898SOL     OW12592   2.818   3.452   1.748
 3898SOL    HW112593   2.777   3.500   1.670
 3898SOL    HW212594   2.891   3.392   1.715
 3899SOL     OW12595   3.724   3.343   1.570
 3899SOL    HW112596   3.761   3.349   1.477
 3899SOL    HW212597   3.800   3.350   1.636
 3900SOL     OW12598   2.199   2.862   1.835
 3900SOL    HW112599   2.230   2.952   1.804
 3900SOL    HW212600   2.255   2.791   1.793
 3901SOL     OW12601   3.300   2.172   0.280
 3901SOL    HW112602   3.320   2.076   0.260
 3901SOL    HW212603   3.385   2.223   0.289
 3902SOL     OW12604   3.082   2.615   0.008
 3902SOL    HW112605   3.139   2.534   0.009
 3902SOL    HW212606   3.119   2.682   6.943
 3903SOL     OW12607   2.203   2.672   0.880
 3903SOL    HW112608   2.274   2.657   0.811
 3903SOL    HW212609   2.213   2.605   0.953
 3904SOL     OW12610   2.162   2.393   1.029
 3904SOL    HW112611   2.117   2.305   1.018
 3904SOL    HW212612   2.239   2.400   0.966
 3905SOL     OW12613   3.035   2.228   1.670
 3905SOL    HW112614   2.984   2.302   1.714
 3905SOL    HW212615   3.131   2.253   1.664
 3906SOL     OW12616   3.026   2.065   1.444
 3906SOL    HW112617   3.020   2.116   1.530
 3906SOL    HW212618   3.067   2.123   1.374
 3907SOL     OW12619   1.948   3.627   0.958
 3907SOL    HW112620   1.917   3.547   0.907
 3907SOL    HW212621   2.046   3.640   0.945
 3908SOL     OW12622   2.376   3.432   0.914
 3908SOL    HW112623   2.456   3.480   0.950
 3908SOL    HW212624   2.405   3.366   0.844
 3909SOL     OW12625   2.831   2.583   1.335
 3909SOL    HW112626   2.894   2.587   1.413
 3909SOL    HW212627   2.751   2.528   1.360
 3910SOL     OW12628   1.946   2.531   1.147
 3910SOL    HW112629   2.020   2.490   1.094
 3910SOL    HW212630   1.959   2.508   1.244
 3911SOL     OW12631   2.106   2.398   1.774
 3911SOL    HW112632   2.205   2.381   1.773
 3911SOL    HW212633   2.085   2.473   1.712
 3912SOL     OW12634   3.286   2.778   1.615
 3912SOL    HW112635   3.308   2.875   1.609
 3912SOL    HW212636   3.283   2.739   1.524
 3913SOL     OW12637   2.666   2.446   0.383
 3913SOL    HW112638   2.693   2.375   0.318
 3913SOL    HW212639   2.582   2.491   0.350
 3914SOL     OW12640   3.530   2.440   1.138
 3914SOL    HW112641   3.539   2.376   1.214
 3914SOL    HW212642   3.619   2.455   1.095
 3915SOL     OW12643   2.598   2.247   1.232
 3915SOL    HW112644   2.542   2.165   1.217
 3915SOL    HW212645   2.580   2.313   1.159
 3916SOL     OW12646   2.713   3.568   1.513
 3916SOL    HW112647   2.747   3.526   1.429
 3916SOL    HW212648   2.725   3.667   1.509
 3917SOL     OW12649   2.292   2.338   0.191
 3917SOL    HW112650   2.356   2.409   0.220
 3917SOL    HW212651   2.201   2.378   0.179
 3918SOL     OW12652   1.936   2.948   1.444
 3918SOL    HW112653   1.955   2.920   1.538
 3918SOL    HW212654   1.982   2.886   1.380
 3919SOL     OW12655   3.153   2.878   1.229
 3919SOL    HW112656   3.140   2.810   1.157
 3919SOL    HW212657   3.180   2.965   1.190
 3920SOL     OW12658   3.084   2.728   0.259
 3920SOL    HW112659   3.037   2.677   0.330
 3920SOL    HW212660   3.088   2.674   0.175
 3921SOL     OW12661   3.108   3.714   1.129
 3921SOL    HW112662   3.119   3.687   1.033
 3921SOL    HW212663   3.153   3.646   1.187
 3922SOL     OW12664   2.015   3.060   1.035
 3922SOL    HW112665   1.987   3.103   1.121
 3922SOL    HW212666   1.947   2.993   1.007
 3923SOL     OW12667   2.511   3.408   1.620
 3923SOL    HW112668   2.441   3.455   1.675
 3923SOL    HW212669   2.577   3.475   1.587
 3924SOL     OW12670   2.859   1.995   0.160
 3924SOL    HW112671   2.938   2.036   0.115
 3924SOL    HW212672   2.886   1.909   0.203
 3925SOL     OW12673   3.584   2.094   0.481
 3925SOL    HW112674   3.651   2.045   0.426
 3925SOL    HW212675   3.519   2.030   0.521
 3926SOL     OW12676   3.262   3.442   0.505
 3926SOL    HW112677   3.333   3.476   0.443
 3926SOL    HW212678   3.215   3.519   0.547
 3927SOL     OW12679   1.942   3.648   1.772
 3927SOL    HW112680   1.889   3.574   1.814
 3927SOL    HW212681   2.007   3.684   1.839
 3928SOL     OW12682   3.108   2.779   0.660
 3928SOL    HW112683   3.191   2.733   0.692
 3928SOL    HW212684   3.133   2.850   0.594
 3929SOL     OW12685   2.664   3.093   1.376
 3929SOL    HW112686   2.619   3.108   1.463
 3929SOL    HW212687   2.606   3.126   1.302
 3930SOL     OW12688   2.551   3.489   0.185
 3930SOL    HW112689   2.545   3.543   0.101
 3930SOL    HW212690   2.487   3.412   0.180
 3931SOL     OW12691   3.485   3.594   1.374
 3931SOL    HW112692   3.568   3.568   1.325
 3931SOL    HW212693   3.480   3.693   1.381
 3932SOL     OW12694   3.730   2.008   1.001
 3932SOL    HW112695   3.750   1.916   0.967
 3932SOL    HW212696   3.637   2.034   0.973
 3933SOL     OW12697   2.103   2.149   0.729
 3933SOL    HW112698   2.023   2.200   0.695
 3933SOL    HW212699   2.105   2.154   0.829
 3934SOL     OW12700   3.095   3.461   0.049
 3934SOL    HW112701   3.090   3.363   0.068
 3934SOL    HW212702   3.023   3.487   6.985
 3935SOL     OW12703   2.669   2.820   1.335
 3935SOL    HW112704   2.757   2.777   1.315
 3935SOL    HW212705   2.682   2.919   1.343
 3936SOL     OW12706   2.759   2.733   0.230
 3936SOL    HW112707   2.808   2.770   0.151
 3936SOL    HW212708   2.823   2.685   0.289
 3937SOL     OW12709   3.366   3.524   0.077
 3937SOL    HW112710   3.269   3.501   0.072
 3937SOL    HW212711   3.388   3.592   0.008
 3938SOL     OW12712   2.196   3.077   1.458
 3938SOL    HW112713   2.217   3.161   1.407
 3938SOL    HW212714   2.107   3.042   1.429
 3939SOL     OW12715   2.811   2.860   0.698
 3939SOL    HW112716   2.786   2.827   0.789
 3939SOL    HW212717   2.909   2.847   0.683
 3940SOL     OW12718   2.915   2.097   0.939
 3940SOL    HW112719   2.905   2.063   0.845
 3940SOL    HW212720   2.914   2.021   1.003
 3941SOL     OW12721   2.539   3.341   0.492
 3941SOL    HW112722   2.557   3.284   0.412
 3941SOL    HW212723   2.477   3.415   0.467
 3942SOL     OW12724   3.644   2.279   1.342
 3942SOL    HW112725   3.721   2.343   1.344
 3942SOL    HW212726   3.678   2.188   1.318
 3943SOL     OW12727   2.106   3.235   0.347
 3943SOL    HW112728   2.036   3.259   0.280
 3943SOL    HW212729   2.079   3.267   0.438
 3944SOL     OW12730   1.955   2.859   1.706
 3944SOL    HW112731   1.875   2.873   1.766
 3944SOL    HW212732   2.038   2.871   1.760
 3945SOL     OW12733   2.596   2.026   1.507
 3945SOL    HW112734   2.671   2.002   1.445
 3945SOL    HW212735   2.634   2.050   1.597
 3946SOL     OW12736   1.931   2.166   0.030
 3946SOL    HW112737   1.870   2.117   6.968
 3946SOL    HW212738   1.887   2.252   0.057
 3947SOL     OW12739   3.300   2.688   1.361
 3947SOL    HW112740   3.240   2.754   1.316
 3947SOL    HW212741   3.391   2.691   1.320
 3948SOL     OW12742   1.949   1.981   0.234
 3948SOL    HW112743   1.948   2.059   0.172
 3948SOL    HW212744   2.001   1.907   0.193
 3949SOL     OW12745   3.056   3.193   0.108
 3949SOL    HW112746   2.959   3.209   0.093
 3949SOL    HW212747   3.074   3.189   0.207
 3950SOL     OW12748   2.484   2.670   1.468
 3950SOL    HW112749   2.544   2.738   1.427
 3950SOL    HW212750   2.527   2.580   1.461
 3951SOL     OW12751   2.688   2.356   1.690
 3951SOL    HW112752   2.766   2.400   1.733
 3951SOL    HW212753   2.663   2.274   1.742
 3952SOL     OW12754   3.356   3.042   1.590
 3952SOL    HW112755   3.339   3.071   1.684
 3952SOL    HW212756   3.453   3.057   1.568
 3953SOL     OW12757   2.142   3.584   1.590
 3953SOL    HW112758   2.059   3.602   1.643
 3953SOL    HW212759   2.214   3.552   1.651
 3954SOL     OW12760   3.544   2.701   1.239
 3954SOL    HW112761   3.540   2.608   1.201
 3954SOL    HW212762   3.553   2.766   1.164
 3955SOL     OW12763   3.103   2.185   0.467
 3955SOL    HW112764   3.181   2.167   0.407
 3955SOL    HW212765   3.135   2.229   0.551
 3956SOL     OW12766   2.389   2.621   0.683
 3956SOL    HW112767   2.455   2.692   0.658
 3956SOL    HW212768   2.340   2.590   0.602
 3957SOL     OW12769   3.656   2.141   1.597
 3957SOL    HW112770   3.642   2.214   1.530
 3957SOL    HW212771   3.674   2.181   1.687
 3958SOL     OW12772   3.643   2.781   1.481
 3958SOL    HW112773   3.625   2.878   1.496
 3958SOL    HW212774   3.609   2.754   1.391
 3959SOL     OW12775   2.798   3.261   0.078
 3959SOL    HW112776   2.726   3.234   0.143
 3959SOL    HW212777   2.776   3.350   0.039
 3960SOL     OW12778   2.583   3.605   1.001
 3960SOL    HW112779   2.524   3.687   0.999
 3960SOL    HW212780   2.672   3.630   1.041
 3961SOL     OW12781   2.738   2.754   0.937
 3961SOL    HW112782   2.804   2.694   0.981
 3961SOL    HW212783   2.651   2.749   0.986
 3962SOL     OW12784   2.896   2.832   0.010
 3962SOL    HW112785   2.927   2.927   0.020
 3962SOL    HW212786   2.975   2.771   0.007
 3963SOL     OW12787   2.069   3.271   1.809
 3963SOL    HW112788   1.997   3.237   1.871
 3963SOL    HW212789   2.111   3.352   1.848
 3964SOL     OW12790   1.917   3.012   0.717
 3964SOL    HW112791   2.009   3.001   0.754
 3964SOL    HW212792   1.913   2.973   0.625
 3965SOL     OW12793   2.545   3.143   1.623
 3965SOL    HW112794   2.459   3.105   1.658
 3965SOL    HW212795   2.539   3.242   1.621
 3966SOL     OW12796   3.730   2.029   1.275
 3966SOL    HW112797   3.782   1.952   1.312
 3966SOL    HW212798   3.728   2.023   1.176
 3967SOL     OW12799   2.258   2.260   0.519
 3967SOL    HW112800   2.300   2.192   0.458
 3967SOL    HW212801   2.215   2.213   0.595
 3968SOL     OW12802   2.235   2.386   1.300
 3968SOL    HW112803   2.289   2.313   1.342
 3968SOL    HW212804   2.225   2.368   1.202
 3969SOL     OW12805   3.322   2.136   1.174
 3969SOL    HW112806   3.371   2.085   1.245
 3969SOL    HW212807   3.249   2.190   1.216
 3970SOL     OW12808   2.902   1.863   1.084
 3970SOL    HW112809   2.845   1.802   1.029
 3970SOL    HW212810   2.994   1.825   1.092
 3971SOL     OW12811   2.642   3.172   0.292
 3971SOL    HW112812   2.617   3.076   0.308
 3971SOL    HW212813   2.725   3.194   0.343
 3972SOL     OW12814   2.484   3.440   1.300
 3972SOL    HW112815   2.438   3.519   1.339
 3972SOL    HW212816   2.583   3.450   1.313
 3973SOL     OW12817   3.208   1.911   0.207
 3973SOL    HW112818   3.170   1.983   0.150
 3973SOL    HW212819   3.133   1.861   0.250
 3974SOL     OW12820   3.179   2.317   0.693
 3974SOL    HW112821   3.122   2.398   0.681
 3974SOL    HW212822   3.173   2.287   0.788
 3975SOL     OW12823   3.472   2.081   0.951
 3975SOL    HW112824   3.422   2.107   1.034
 3975SOL    HW212825   3.466   2.155   0.884
 3976SOL     OW12826   1.884   2.889   0.469
 3976SOL    HW112827   1.978   2.915   0.443
 3976SOL    HW212828   1.857   2.807   0.420
 3977SOL     OW12829   2.772   3.546   0.351
 3977SOL    HW112830   2.694   3.523   0.292
 3977SOL    HW212831   2.747   3.622   0.411
 3978SOL     OW12832   2.055   2.508   2.024
 3978SOL    HW112833   1.963   2.481   2.051
 3978SOL    HW212834   2.072   2.480   1.929
 3979SOL     OW12835   2.046   2.154   2.891
 3979SOL    HW112836   2.080   2.111   2.974
 3979SOL    HW212837   1.958   2.112   2.866
 3980SOL     OW12838   1.862   2.271   2.508
 3980SOL    HW112839   1.774   2.287   2.553
 3980SOL    HW212840   1.848   2.212   2.429
 3981SOL     OW12841   3.442   3.413   2.542
 3981SOL    HW112842   3.378   3.379   2.611
 3981SOL    HW212843   3.395   3.419   2.454
 3982SOL     OW12844   2.079   3.396   2.893
 3982SOL    HW112845   2.012   3.325   2.876
 3982SOL    HW212846   2.163   3.375   2.843
 3983SOL     OW12847   3.324   3.377   3.214
 3983SOL    HW112848   3.386   3.455   3.211
 3983SOL    HW212849   3.251   3.394   3.280
 3984SOL     OW12850   2.334   2.196   3.380
 3984SOL    HW112851   2.413   2.135   3.381
 3984SOL    HW212852   2.251   2.141   3.391
 3985SOL     OW12853   2.060   3.608   2.295
 3985SOL    HW112854   2.080   3.668   2.372
 3985SOL    HW212855   2.115   3.635   2.216
 3986SOL     OW12856   3.030   3.230   3.563
 3986SOL    HW112857   3.050   3.198   3.656
 3986SOL    HW212858   3.063   3.162   3.497
 3987SOL     OW12859   2.000   3.363   2.410
 3987SOL    HW112860   2.024   3.453   2.374
 3987SOL    HW212861   1.950   3.374   2.496
 3988SOL     OW12862   2.106   2.935   2.752
 3988SOL    HW112863   2.119   2.837   2.770
 3988SOL    HW212864   2.090   2.983   2.839
 3989SOL     OW12865   3.453   1.988   3.264
 3989SOL    HW112866   3.551   1.993   3.247
 3989SOL    HW212867   3.434   2.017   3.359
 3990SOL     OW12868   1.969   2.529   2.458
 3990SOL    HW112869   1.948   2.434   2.482
 3990SOL    HW212870   1.947   2.588   2.535
 3991SOL     OW12871   3.750   3.626   2.144
 3991SOL    HW112872   3.815   3.613   2.219
 3991SOL    HW212873   3.746   3.722   2.118
 3992SOL     OW12874   1.819   3.460   1.925
 3992SOL    HW112875   1.834   3.363   1.943
 3992SOL    HW212876   1.827   3.511   2.010
 3993SOL     OW12877   3.589   2.808   2.551
 3993SOL    HW112878   3.594   2.710   2.532
 3993SOL    HW212879   3.559   2.856   2.468
 3994SOL     OW12880   3.510   2.947   2.324
 3994SOL    HW112881   3.574   2.941   2.248
 3994SOL    HW212882   3.530   3.028   2.379
 3995SOL     OW12883   1.936   2.569   3.453
 3995SOL    HW112884   2.003   2.629   3.497
 3995SOL    HW212885   1.864   2.624   3.413
 3996SOL     OW12886   3.145   3.113   3.336
 3996SOL    HW112887   3.163   3.021   3.301
 3996SOL    HW212888   3.228   3.149   3.380
 3997SOL     OW12889   2.678   1.873   2.361
 3997SOL    HW112890   2.720   1.961   2.338
 3997SOL    HW212891   2.579   1.886   2.371
 3998SOL     OW12892   2.016   2.758   3.146
 3998SOL    HW112893   2.111   2.726   3.154
 3998SOL    HW212894   1.962   2.688   3.099
 3999SOL     OW12895   3.335   2.851   2.000
 3999SOL    HW112896   3.262   2.809   1.947
 3999SOL    HW212897   3.302   2.872   2.092
 4000SOL     OW12898   3.192   3.696   3.478
 4000SOL    HW112899   3.143   3.768   3.429
 4000SOL    HW212900   3.174   3.608   3.435
 4001SOL     OW12901   2.202   2.102   3.741
 4001SOL    HW112902   2.239   2.180   3.791
 4001SOL    HW212903   2.104   2.117   3.724
 4002SOL     OW12904   3.263   3.300   2.727
 4002SOL    HW112905   3.217   3.302   2.815
 4002SOL    HW212906   3.280   3.205   2.700
 4003SOL     OW12907   3.532   3.661   2.397
 4003SOL    HW112908   3.514   3.618   2.309
 4003SOL    HW212909   3.513   3.595   2.470
 4004SOL     OW12910   2.454   2.494   2.170
 4004SOL    HW112911   2.509   2.577   2.165
 4004SOL    HW212912   2.378   2.507   2.234
 4005SOL     OW12913   3.189   2.096   2.785
 4005SOL    HW112914   3.089   2.085   2.778
 4005SOL    HW212915   3.216   2.092   2.881
 4006SOL     OW12916   3.491   3.546   2.144
 4006SOL    HW112917   3.589   3.566   2.143
 4006SOL    HW212918   3.456   3.542   2.051
 4007SOL     OW12919   2.604   2.403   3.361
 4007SOL    HW112920   2.660   2.359   3.431
 4007SOL    HW212921   2.591   2.339   3.284
 4008SOL     OW12922   2.821   2.215   3.053
 4008SOL    HW112923   2.733   2.218   3.100
 4008SOL    HW212924   2.810   2.241   2.958
 4009SOL     OW12925   1.892   2.703   2.669
 4009SOL    HW112926   1.983   2.684   2.705
 4009SOL    HW212927   1.852   2.781   2.719
 4010SOL     OW12928   1.960   3.748   3.450
 4010SOL    HW112929   1.978   3.704   3.538
 4010SOL    HW212930   1.862   3.764   3.440
 4011SOL     OW12931   3.253   2.949   2.245
 4011SOL    HW112932   3.349   2.948   2.273
 4011SOL    HW212933   3.225   3.043   2.225
 4012SOL     OW12934   2.402   1.968   2.818
 4012SOL    HW112935   2.409   1.995   2.915
 4012SOL    HW212936   2.421   2.048   2.760
 4013SOL     OW12937   2.956   3.290   2.361
 4013SOL    HW112938   2.908   3.349   2.297
 4013SOL    HW212939   2.993   3.345   2.437
 4014SOL     OW12940   2.120   3.727   2.787
 4014SOL    HW112941   2.136   3.683   2.875
 4014SOL    HW212942   2.131   3.826   2.796
 4015SOL     OW12943   3.686   2.945   2.767
 4015SOL    HW112944   3.671   2.899   2.680
 4015SOL    HW212945   3.601   2.946   2.820
 4016SOL     OW12946   3.119   3.441   3.386
 4016SOL    HW112947   3.108   3.375   3.460
 4016SOL    HW212948   3.031   3.456   3.340
 4017SOL     OW12949   2.076   2.791   2.077
 4017SOL    HW112950   2.124   2.824   1.996
 4017SOL    HW212951   2.070   2.691   2.073
 4018SOL     OW12952   2.201   3.013   3.657
 4018SOL    HW112953   2.189   3.039   3.561
 4018SOL    HW212954   2.159   3.082   3.716
 4019SOL     OW12955   3.058   3.617   2.101
 4019SOL    HW112956   2.981   3.565   2.139
 4019SOL    HW212957   3.074   3.587   2.007
 4020SOL     OW12958   2.074   2.093   3.382
 4020SOL    HW112959   2.023   2.179   3.387
 4020SOL    HW212960   2.019   2.019   3.422
 4021SOL     OW12961   3.474   3.284   1.915
 4021SOL    HW112962   3.439   3.377   1.902
 4021SOL    HW212963   3.402   3.218   1.892
 4022SOL     OW12964   3.281   1.968   2.329
 4022SOL    HW112965   3.279   1.937   2.235
 4022SOL    HW212966   3.375   1.996   2.353
 4023SOL     OW12967   2.099   3.620   3.047
 4023SOL    HW112968   2.108   3.597   3.144
 4023SOL    HW212969   2.088   3.536   2.994
 4024SOL     OW12970   2.863   3.488   2.741
 4024SOL    HW112971   2.942   3.468   2.683
 4024SOL    HW212972   2.833   3.582   2.725
 4025SOL     OW12973   2.233   2.504   2.340
 4025SOL    HW112974   2.233   2.404   2.353
 4025SOL    HW212975   2.142   2.540   2.359
 4026SOL     OW12976   3.388   2.027   3.537
 4026SOL    HW112977   3.382   2.061   3.631
 4026SOL    HW212978   3.314   1.961   3.520
 4027SOL     OW12979   2.510   1.981   1.992
 4027SOL    HW112980   2.586   2.039   1.961
 4027SOL    HW212981   2.469   1.935   1.913
 4028SOL     OW12982   2.642   2.041   3.654
 4028SOL    HW112983   2.729   1.992   3.657
 4028SOL    HW212984   2.585   2.013   3.730
 4029SOL     OW12985   2.824   3.420   3.012
 4029SOL    HW112986   2.842   3.444   2.916
 4029SOL    HW212987   2.830   3.320   3.022
 4030SOL     OW12988   2.774   2.267   2.781
 4030SOL    HW112989   2.747   2.288   2.687
 4030SOL    HW212990   2.834   2.187   2.782
 4031SOL     OW12991   2.407   1.910   2.374
 4031SOL    HW112992   2.334   1.908   2.443
 4031SOL    HW212993   2.393   1.987   2.312
 4032SOL     OW12994   3.295   3.084   1.856
 4032SOL    HW112995   3.331   3.007   1.909
 4032SOL    HW212996   3.195   3.082   1.858
 4033SOL     OW12997   2.173   1.874   2.036
 4033SOL    HW112998   2.223   1.950   1.993
 4033SOL    HW212999   2.237   1.819   2.089
 4034SOL     OW13000   2.790   2.115   2.328
 4034SOL    HW113001   2.749   2.181   2.265
 4034SOL    HW213002   2.889   2.120   2.321
 4035SOL     OW13003   3.071   3.426   2.574
 4035SOL    HW113004   3.114   3.506   2.531
 4035SOL    HW213005   3.139   3.376   2.627
 4036SOL     OW13006   2.270   2.858   2.542
 4036SOL    HW113007   2.223   2.907   2.616
 4036SOL    HW213008   2.231   2.884   2.454
 4037SOL     OW13009   3.167   3.651   2.453
 4037SOL    HW113010   3.221   3.720   2.403
 4037SOL    HW213011   3.089   3.695   2.497
 4038SOL     OW13012   1.972   2.368   3.275
 4038SOL    HW113013   2.067   2.363   3.243
 4038SOL    HW213014   1.963   2.441   3.342
 4039SOL     OW13015   2.396   2.020   3.087
 4039SOL    HW113016   2.419   1.940   3.143
 4039SOL    HW213017   2.298   2.038   3.095
 4040SOL     OW13018   2.699   2.295   2.520
 4040SOL    HW113019   2.664   2.368   2.461
 4040SOL    HW213020   2.736   2.221   2.463
 4041SOL     OW13021   2.888   1.879   2.568
 4041SOL    HW113022   2.830   1.905   2.490
 4041SOL    HW213023   2.840   1.811   2.623
 4042SOL     OW13024   3.350   3.052   2.654
 4042SOL    HW113025   3.287   2.994   2.603
 4042SOL    HW213026   3.428   3.075   2.597
 4043SOL     OW13027   3.562   3.145   2.503
 4043SOL    HW113028   3.657   3.116   2.493
 4043SOL    HW213029   3.556   3.244   2.491
 4044SOL     OW13030   2.359   2.099   2.184
 4044SOL    HW113031   2.424   2.055   2.122
 4044SOL    HW213032   2.325   2.184   2.143
 4045SOL     OW13033   3.612   3.163   3.393
 4045SOL    HW113034   3.699   3.113   3.395
 4045SOL    HW213035   3.630   3.260   3.411
 4046SOL     OW13036   2.918   3.205   3.218
 4046SOL    HW113037   2.886   3.290   3.260
 4046SOL    HW213038   2.999   3.173   3.266
 4047SOL     OW13039   3.482   3.526   3.509
 4047SOL    HW113040   3.453   3.563   3.420
 4047SOL    HW213041   3.571   3.482   3.499
 4048SOL     OW13042   3.014   3.083   2.994
 4048SOL    HW113043   2.964   3.110   3.077
 4048SOL    HW213044   2.966   3.117   2.914
 4049SOL     OW13045   3.442   2.980   2.900
 4049SOL    HW113046   3.442   3.060   2.960
 4049SOL    HW213047   3.404   3.005   2.811
 4050SOL     OW13048   2.788   1.893   3.249
 4050SOL    HW113049   2.804   1.876   3.152
 4050SOL    HW213050   2.870   1.931   3.291
 4051SOL     OW13051   2.263   2.629   3.165
 4051SOL    HW113052   2.328   2.647   3.239
 4051SOL    HW213053   2.240   2.532   3.163
 4052SOL     OW13054   3.069   2.165   3.144
 4052SOL    HW113055   3.101   2.258   3.163
 4052SOL    HW213056   2.977   2.169   3.105
 4053SOL     OW13057   1.874   3.417   3.213
 4053SOL    HW113058   1.834   3.472   3.140
 4053SOL    HW213059   1.959   3.461   3.245
 4054SOL     OW13060   2.133   2.928   2.317
 4054SOL    HW113061   2.131   3.023   2.286
 4054SOL    HW213062   2.124   2.867   2.239
 4055SOL     OW13063   2.342   2.373   2.734
 4055SOL    HW113064   2.355   2.448   2.669
 4055SOL    HW213065   2.423   2.364   2.792
 4056SOL     OW13066   3.178   3.213   2.218
 4056SOL    HW113067   3.238   3.289   2.245
 4056SOL    HW213068   3.091   3.222   2.265
 4057SOL     OW13069   3.175   3.307   2.987
 4057SOL    HW113070   3.227   3.324   3.070
 4057SOL    HW213071   3.120   3.224   2.999
 4058SOL     OW13072   2.286   2.445   3.498
 4058SOL    HW113073   2.345   2.513   3.455
 4058SOL    HW213074   2.310   2.354   3.467
 4059SOL     OW13075   3.461   2.806   3.554
 4059SOL    HW113076   3.363   2.821   3.562
 4059SOL    HW213077   3.491   2.837   3.463
 4060SOL     OW13078   2.889   1.936   3.658
 4060SOL    HW113079   2.940   2.017   3.630
 4060SOL    HW213080   2.935   1.854   3.622
 4061SOL     OW13081   2.326   1.890   3.615
 4061SOL    HW113082   2.267   1.842   3.550
 4061SOL    HW213083   2.281   1.975   3.643
 4062SOL     OW13084   2.425   2.619   2.935
 4062SOL    HW113085   2.403   2.688   2.866
 4062SOL    HW213086   2.366   2.632   3.015
 4063SOL     OW13087   2.127   2.030   3.120
 4063SOL    HW113088   2.103   2.055   3.214
 4063SOL    HW213089   2.110   1.933   3.106
 4064SOL     OW13090   1.879   3.162   3.105
 4064SOL    HW113091   1.890   3.090   3.173
 4064SOL    HW213092   1.877   3.251   3.151
 4065SOL     OW13093   2.552   2.376   2.911
 4065SOL    HW113094   2.638   2.363   2.861
 4065SOL    HW213095   2.532   2.474   2.917
 4066SOL     OW13096   3.577   2.829   3.790
 4066SOL    HW113097   3.537   2.807   3.701
 4066SOL    HW213098   3.510   2.815   3.862
 4067SOL     OW13099   2.183   1.895   2.540
 4067SOL    HW113100   2.143   1.985   2.558
 4067SOL    HW213101   2.191   1.844   2.626
 4068SOL     OW13102   2.854   3.430   3.575
 4068SOL    HW113103   2.824   3.462   3.485
 4068SOL    HW213104   2.912   3.350   3.564
 4069SOL     OW13105   3.722   3.414   3.441
 4069SOL    HW113106   3.763   3.413   3.350
 4069SOL    HW213107   3.793   3.406   3.511
 4070SOL     OW13108   2.150   2.680   3.594
 4070SOL    HW113109   2.201   2.722   3.669
 4070SOL    HW213110   2.202   2.602   3.559
 4071SOL     OW13111   3.383   2.043   1.890
 4071SOL    HW113112   3.337   2.000   1.968
 4071SOL    HW213113   3.471   2.081   1.920
 4072SOL     OW13114   3.131   2.764   1.836
 4072SOL    HW113115   3.082   2.677   1.848
 4072SOL    HW213116   3.181   2.763   1.750
 4073SOL     OW13117   2.898   3.215   2.790
 4073SOL    HW113118   2.928   3.166   2.707
 4073SOL    HW213119   2.872   3.308   2.766
 4074SOL     OW13120   2.144   2.660   2.767
 4074SOL    HW113121   2.212   2.642   2.696
 4074SOL    HW213122   2.134   2.579   2.825
 4075SOL     OW13123   2.124   2.409   2.885
 4075SOL    HW113124   2.082   2.319   2.891
 4075SOL    HW213125   2.208   2.403   2.831
 4076SOL     OW13126   2.992   2.173   3.562
 4076SOL    HW113127   2.906   2.224   3.558
 4076SOL    HW213128   3.062   2.229   3.607
 4077SOL     OW13129   3.023   1.995   3.354
 4077SOL    HW113130   3.014   2.059   3.430
 4077SOL    HW213131   3.049   2.045   3.271
 4078SOL     OW13132   1.849   3.188   1.953
 4078SOL    HW113133   1.763   3.179   1.903
 4078SOL    HW213134   1.855   3.115   2.021
 4079SOL     OW13135   1.867   3.622   2.777
 4079SOL    HW113136   1.853   3.537   2.727
 4079SOL    HW213137   1.965   3.646   2.774
 4080SOL     OW13138   1.912   2.506   3.037
 4080SOL    HW113139   1.986   2.482   2.975
 4080SOL    HW213140   1.923   2.458   3.124
 4081SOL     OW13141   2.051   2.393   3.633
 4081SOL    HW113142   2.144   2.399   3.597
 4081SOL    HW213143   1.990   2.451   3.579
 4082SOL     OW13144   3.202   2.909   3.553
 4082SOL    HW113145   3.251   2.994   3.539
 4082SOL    HW213146   3.183   2.866   3.464
 4083SOL     OW13147   2.672   2.309   2.178
 4083SOL    HW113148   2.730   2.322   2.098
 4083SOL    HW213149   2.592   2.369   2.171
 4084SOL     OW13150   2.061   3.357   3.573
 4084SOL    HW113151   2.056   3.453   3.601
 4084SOL    HW213152   2.075   3.299   3.653
 4085SOL     OW13153   2.559   2.238   3.142
 4085SOL    HW113154   2.505   2.154   3.131
 4085SOL    HW213155   2.551   2.293   3.059
 4086SOL     OW13156   2.862   3.477   3.282
 4086SOL    HW113157   2.843   3.458   3.186
 4086SOL    HW213158   2.864   3.576   3.297
 4087SOL     OW13159   2.276   2.325   2.040
 4087SOL    HW113160   2.356   2.376   2.071
 4087SOL    HW213161   2.194   2.380   2.055
 4088SOL     OW13162   1.917   2.961   3.301
 4088SOL    HW113163   1.933   2.932   3.396
 4088SOL    HW213164   1.961   2.896   3.239
 4089SOL     OW13165   3.205   2.889   3.021
 4089SOL    HW113166   3.282   2.913   2.962
 4089SOL    HW213167   3.129   2.952   3.004
 4090SOL     OW13168   3.698   3.492   2.984
 4090SOL    HW113169   3.750   3.535   2.911
 4090SOL    HW213170   3.613   3.454   2.947
 4091SOL     OW13171   3.116   3.577   2.963
 4091SOL    HW113172   3.202   3.610   2.923
 4091SOL    HW213173   3.120   3.478   2.974
 4092SOL     OW13174   1.901   3.186   2.837
 4092SOL    HW113175   1.887   3.181   2.936
 4092SOL    HW213176   1.881   3.097   2.796
 4093SOL     OW13177   3.556   2.000   2.371
 4093SOL    HW113178   3.610   2.006   2.287
 4093SOL    HW213179   3.552   1.904   2.401
 4094SOL     OW13180   3.301   3.443   2.311
 4094SOL    HW113181   3.365   3.477   2.241
 4094SOL    HW213182   3.241   3.518   2.339
 4095SOL     OW13183   2.019   3.610   3.675
 4095SOL    HW113184   1.950   3.555   3.722
 4095SOL    HW213185   2.066   3.668   3.741
 4096SOL     OW13186   3.174   2.902   2.501
 4096SOL    HW113187   3.148   2.808   2.519
 4096SOL    HW213188   3.196   2.913   2.404
 4097SOL     OW13189   3.486   3.599   3.220
 4097SOL    HW113190   3.570   3.603   3.166
 4097SOL    HW213191   3.450   3.692   3.232
 4098SOL     OW13192   3.705   2.001   2.922
 4098SOL    HW113193   3.746   1.919   2.883
 4098SOL    HW213194   3.621   2.024   2.872
 4099SOL     OW13195   2.084   2.139   2.608
 4099SOL    HW113196   2.005   2.190   2.574
 4099SOL    HW213197   2.094   2.154   2.706
 4100SOL     OW13198   3.130   3.556   1.841
 4100SOL    HW113199   3.097   3.462   1.851
 4100SOL    HW213200   3.085   3.598   1.762
 4101SOL     OW13201   3.397   3.555   1.884
 4101SOL    HW113202   3.300   3.555   1.861
 4101SOL    HW213203   3.451   3.561   1.800
 4102SOL     OW13204   2.131   3.130   3.419
 4102SOL    HW113205   2.103   3.218   3.458
 4102SOL    HW213206   2.057   3.095   3.362
 4103SOL     OW13207   3.467   3.187   3.076
 4103SOL    HW113208   3.563   3.180   3.102
 4103SOL    HW213209   3.417   3.242   3.143
 4104SOL     OW13210   2.990   3.100   2.564
 4104SOL    HW113211   2.970   3.151   2.480
 4104SOL    HW213212   3.053   3.025   2.543
 4105SOL     OW13213   2.919   2.035   2.792
 4105SOL    HW113214   2.916   1.986   2.705
 4105SOL    HW213215   2.901   1.972   2.867
 4106SOL     OW13216   2.077   3.180   2.226
 4106SOL    HW113217   2.130   3.232   2.159
 4106SOL    HW213218   2.046   3.241   2.300
 4107SOL     OW13219   1.934   2.869   3.551
 4107SOL    HW113220   1.863   2.869   3.622
 4107SOL    HW213221   2.017   2.827   3.587
 4108SOL     OW13222   2.558   2.006   3.391
 4108SOL    HW113223   2.639   1.985   3.336
 4108SOL    HW213224   2.585   2.021   3.486
 4109SOL     OW13225   1.955   2.176   1.833
 4109SOL    HW113226   1.876   2.177   1.773
 4109SOL    HW213227   2.003   2.264   1.826
 4110SOL     OW13228   3.248   2.863   3.284
 4110SOL    HW113229   3.224   2.856   3.187
 4110SOL    HW213230   3.347   2.873   3.294
 4111SOL     OW13231   1.935   2.006   2.076
 4111SOL    HW113232   1.924   2.067   1.998
 4111SOL    HW213233   2.025   1.962   2.071
 4112SOL     OW13234   3.080   3.308   1.968
 4112SOL    HW113235   2.982   3.291   1.980
 4112SOL    HW213236   3.130   3.265   2.043
 4113SOL     OW13237   2.449   2.622   3.369
 4113SOL    HW113238   2.503   2.706   3.382
 4113SOL    HW213239   2.511   2.544   3.360
 4114SOL     OW13240   3.362   3.641   2.866
 4114SOL    HW113241   3.403   3.695   2.792
 4114SOL    HW213242   3.413   3.555   2.875
 4115SOL     OW13243   2.740   2.288   3.584
 4115SOL    HW113244   2.733   2.349   3.662
 4115SOL    HW213245   2.694   2.202   3.605
 4116SOL     OW13246   3.362   3.134   3.506
 4116SOL    HW113247   3.382   3.121   3.603
 4116SOL    HW213248   3.447   3.153   3.457
 4117SOL     OW13249   2.089   3.550   3.314
 4117SOL    HW113250   2.048   3.627   3.363
 4117SOL    HW213251   2.142   3.495   3.378
 4118SOL     OW13252   3.590   2.817   3.062
 4118SOL    HW113253   3.581   2.721   3.036
 4118SOL    HW213254   3.532   2.873   3.003
 4119SOL     OW13255   3.059   2.135   2.310
 4119SOL    HW113256   3.136   2.073   2.327
 4119SOL    HW213257   3.092   2.217   2.264
 4120SOL     OW13258   2.337   2.600   2.575
 4120SOL    HW113259   2.336   2.700   2.563
 4120SOL    HW213260   2.312   2.556   2.489
 4121SOL     OW13261   3.661   2.059   3.518
 4121SOL    HW113262   3.675   2.108   3.432
 4121SOL    HW213263   3.563   2.045   3.532
 4122SOL     OW13264   3.518   2.910   3.309
 4122SOL    HW113265   3.549   3.004   3.326
 4122SOL    HW213266   3.553   2.878   3.221
 4123SOL     OW13267   2.806   3.304   1.974
 4123SOL    HW113268   2.749   3.222   1.962
 4123SOL    HW213269   2.798   3.362   1.893
 4124SOL     OW13270   3.029   3.019   1.858
 4124SOL    HW113271   2.943   3.031   1.809
 4124SOL    HW213272   3.054   2.922   1.857
 4125SOL     OW13273   3.699   3.409   2.641
 4125SOL    HW113274   3.603   3.419   2.613
 4125SOL    HW213275   3.706   3.335   2.708
 4126SOL     OW13276   2.084   3.209   3.806
 4126SOL    HW113277   1.990   3.182   3.829
 4126SOL    HW213278   2.134   3.228   3.890
 4127SOL     OW13279   1.946   2.989   2.523
 4127SOL    HW113280   1.999   2.973   2.607
 4127SOL    HW213281   2.002   2.965   2.444
 4128SOL     OW13282   3.722   1.991   3.195
 4128SOL    HW113283   3.778   1.909   3.205
 4128SOL    HW213284   3.711   2.013   3.099
 4129SOL     OW13285   2.222   2.241   2.385
 4129SOL    HW113286   2.272   2.174   2.330
 4129SOL    HW213287   2.188   2.198   2.468
 4130SOL     OW13288   3.467   3.387   2.888
 4130SOL    HW113289   3.399   3.363   2.819
 4130SOL    HW213290   3.468   3.318   2.960
 4131SOL     OW13291   2.227   2.356   3.178
 4131SOL    HW113292   2.282   2.303   3.242
 4131SOL    HW213293   2.251   2.331   3.084
 4132SOL     OW13294   2.805   3.546   2.445
 4132SOL    HW113295   2.812   3.523   2.347
 4132SOL    HW213296   2.771   3.467   2.495
 4133SOL     OW13297   3.310   2.080   3.047
 4133SOL    HW113298   3.363   2.041   3.122
 4133SOL    HW213299   3.218   2.104   3.080
 4134SOL     OW13300   2.878   1.823   2.980
 4134SOL    HW113301   2.818   1.760   2.932
 4134SOL    HW213302   2.972   1.789   2.975
 4135SOL     OW13303   3.262   1.870   2.074
 4135SOL    HW113304   3.307   1.805   2.014
 4135SOL    HW213305   3.168   1.840   2.093
 4136SOL     OW13306   3.459   2.054   2.813
 4136SOL    HW113307   3.429   2.079   2.904
 4136SOL    HW213308   3.384   2.066   2.748
 4137SOL     OW13309   1.884   2.995   2.149
 4137SOL    HW113310   1.948   3.063   2.186
 4137SOL    HW213311   1.935   2.913   2.122
 4138SOL     OW13312   2.822   3.476   2.180
 4138SOL    HW113313   2.817   3.405   2.111
 4138SOL    HW213314   2.760   3.551   2.156
 4139SOL     OW13315   2.046   2.478   3.898
 4139SOL    HW113316   1.954   2.453   3.926
 4139SOL    HW213317   2.056   2.465   3.800
 4140SOL     OW13318   2.079   2.123   4.757
 4140SOL    HW113319   2.127   2.101   4.841
 4140SOL    HW213320   1.988   2.081   4.758
 4141SOL     OW13321   1.869   2.282   4.380
 4141SOL    HW113322   1.784   2.303   4.430
 4141SOL    HW213323   1.849   2.218   4.306
 4142SOL     OW13324   3.479   3.400   4.410
 4142SOL    HW113325   3.429   3.384   4.496
 4142SOL    HW213326   3.417   3.387   4.333
 4143SOL     OW13327   2.726   2.552   5.606
 4143SOL    HW113328   2.720   2.610   5.687
 4143SOL    HW213329   2.758   2.606   5.528
 4144SOL     OW13330   2.555   2.986   5.494
 4144SOL    HW113331   2.563   3.083   5.518
 4144SOL    HW213332   2.519   2.978   5.401
 4145SOL     OW13333   2.149   3.295   4.798
 4145SOL    HW113334   2.065   3.262   4.755
 4145SOL    HW213335   2.226   3.237   4.770
 4146SOL     OW13336   3.296   3.389   5.104
 4146SOL    HW113337   3.351   3.471   5.119
 4146SOL    HW213338   3.226   3.383   5.175
 4147SOL     OW13339   2.296   2.349   5.387
 4147SOL    HW113340   2.393   2.352   5.414
 4147SOL    HW213341   2.278   2.262   5.342
 4148SOL     OW13342   2.038   3.582   4.215
 4148SOL    HW113343   2.068   3.648   4.284
 4148SOL    HW213344   2.046   3.490   4.251
 4149SOL     OW13345   2.960   3.192   5.441
 4149SOL    HW113346   3.003   3.182   5.531
 4149SOL    HW213347   2.914   3.106   5.416
 4150SOL     OW13348   2.024   3.331   4.337
 4150SOL    HW113349   1.967   3.377   4.405
 4150SOL    HW213350   2.049   3.240   4.371
 4151SOL     OW13351   2.138   2.926   4.649
 4151SOL    HW113352   2.130   2.827   4.639
 4151SOL    HW213353   2.134   2.950   4.746
 4152SOL     OW13354   2.299   2.807   3.792
 4152SOL    HW113355   2.264   2.887   3.743
 4152SOL    HW213356   2.398   2.814   3.802
 4153SOL     OW13357   3.410   1.984   5.196
 4153SOL    HW113358   3.494   2.037   5.180
 4153SOL    HW213359   3.355   2.030   5.265
 4154SOL     OW13360   1.960   2.541   4.300
 4154SOL    HW113361   1.940   2.449   4.334
 4154SOL    HW213362   1.950   2.606   4.375
 4155SOL     OW13363   3.740   3.607   4.042
 4155SOL    HW113364   3.794   3.584   4.123
 4155SOL    HW213365   3.754   3.704   4.020
 4156SOL     OW13366   1.844   3.455   3.807
 4156SOL    HW113367   1.777   3.380   3.813
 4156SOL    HW213368   1.845   3.505   3.893
 4157SOL     OW13369   3.592   2.818   4.432
 4157SOL    HW113370   3.676   2.861   4.400
 4157SOL    HW213371   3.523   2.820   4.360
 4158SOL     OW13372   3.468   2.940   4.202
 4158SOL    HW113373   3.546   2.917   4.143
 4158SOL    HW213374   3.494   3.013   4.264
 4159SOL     OW13375   1.968   2.566   5.285
 4159SOL    HW113376   2.057   2.607   5.305
 4159SOL    HW213377   1.905   2.638   5.255
 4160SOL     OW13378   3.137   3.097   5.155
 4160SOL    HW113379   3.166   3.032   5.086
 4160SOL    HW213380   3.204   3.098   5.230
 4161SOL     OW13381   2.651   1.829   4.247
 4161SOL    HW113382   2.690   1.917   4.221
 4161SOL    HW213383   2.552   1.838   4.257
 4162SOL     OW13384   2.139   2.905   4.933
 4162SOL    HW113385   2.201   2.961   4.988
 4162SOL    HW213386   2.166   2.809   4.938
 4163SOL     OW13387   3.373   2.827   3.962
 4163SOL    HW113388   3.282   2.853   3.928
 4163SOL    HW213389   3.381   2.853   4.058
 4164SOL     OW13390   3.122   3.773   5.386
 4164SOL    HW113391   3.099   3.829   5.305
 4164SOL    HW213392   3.131   3.678   5.359
 4165SOL     OW13393   2.208   2.114   5.620
 4165SOL    HW113394   2.245   2.196   5.665
 4165SOL    HW213395   2.111   2.128   5.600
 4166SOL     OW13396   3.333   3.327   4.633
 4166SOL    HW113397   3.278   3.331   4.716
 4166SOL    HW213398   3.354   3.232   4.611
 4167SOL     OW13399   3.496   3.647   4.280
 4167SOL    HW113400   3.496   3.606   4.188
 4167SOL    HW213401   3.505   3.575   4.349
 4168SOL     OW13402   2.444   2.497   4.031
 4168SOL    HW113403   2.478   2.590   4.017
 4168SOL    HW213404   2.366   2.499   4.095
 4169SOL     OW13405   3.134   2.160   4.640
 4169SOL    HW113406   3.048   2.110   4.652
 4169SOL    HW213407   3.149   2.220   4.718
 4170SOL     OW13408   3.481   3.529   4.030
 4170SOL    HW113409   3.577   3.554   4.027
 4170SOL    HW213410   3.445   3.523   3.936
 4171SOL     OW13411   2.622   2.533   5.239
 4171SOL    HW113412   2.598   2.474   5.316
 4171SOL    HW213413   2.607   2.483   5.153
 4172SOL     OW13414   2.824   2.669   5.372
 4172SOL    HW113415   2.915   2.630   5.355
 4172SOL    HW213416   2.757   2.625   5.313
 4173SOL     OW13417   2.818   2.250   4.961
 4173SOL    HW113418   2.913   2.241   4.989
 4173SOL    HW213419   2.815   2.275   4.864
 4174SOL     OW13420   1.916   2.727   4.509
 4174SOL    HW113421   1.998   2.694   4.554
 4174SOL    HW213422   1.881   2.807   4.558
 4175SOL     OW13423   1.970   3.786   5.319
 4175SOL    HW113424   1.974   3.729   5.401
 4175SOL    HW213425   2.041   3.757   5.255
 4176SOL     OW13426   2.843   2.219   3.911
 4176SOL    HW113427   2.909   2.201   3.985
 4176SOL    HW213428   2.840   2.140   3.849
 4177SOL     OW13429   3.512   2.433   5.564
 4177SOL    HW113430   3.497   2.514   5.507
 4177SOL    HW213431   3.539   2.356   5.506
 4178SOL     OW13432   3.196   2.962   4.218
 4178SOL    HW113433   3.295   2.953   4.212
 4178SOL    HW213434   3.167   3.043   4.167
 4179SOL     OW13435   2.412   1.949   4.688
 4179SOL    HW113436   2.435   1.972   4.783
 4179SOL    HW213437   2.422   2.031   4.631
 4180SOL     OW13438   2.930   3.298   4.265
 4180SOL    HW113439   2.895   3.372   4.207
 4180SOL    HW213440   2.992   3.336   4.334
 4181SOL     OW13441   2.140   3.741   4.713
 4181SOL    HW113442   2.231   3.705   4.734
 4181SOL    HW213443   2.140   3.841   4.726
 4182SOL     OW13444   3.651   2.894   4.684
 4182SOL    HW113445   3.629   2.853   4.596
 4182SOL    HW213446   3.567   2.921   4.730
 4183SOL     OW13447   3.096   3.392   5.284
 4183SOL    HW113448   3.064   3.309   5.329
 4183SOL    HW213449   3.018   3.442   5.246
 4184SOL     OW13450   2.111   2.751   3.987
 4184SOL    HW113451   2.181   2.776   3.920
 4184SOL    HW213452   2.089   2.654   3.977
 4185SOL     OW13453   2.333   3.185   5.384
 4185SOL    HW113454   2.382   3.116   5.331
 4185SOL    HW213455   2.235   3.178   5.366
 4186SOL     OW13456   3.048   3.637   3.959
 4186SOL    HW113457   2.988   3.581   4.016
 4186SOL    HW213458   3.044   3.605   3.864
 4187SOL     OW13459   2.149   2.134   5.259
 4187SOL    HW113460   2.088   2.210   5.233
 4187SOL    HW213461   2.095   2.062   5.302
 4188SOL     OW13462   3.508   3.307   3.806
 4188SOL    HW113463   3.448   3.383   3.780
 4188SOL    HW213464   3.461   3.220   3.790
 4189SOL     OW13465   3.196   1.928   4.108
 4189SOL    HW113466   3.191   1.885   4.018
 4189SOL    HW213467   3.272   1.993   4.111
 4190SOL     OW13468   2.010   3.694   4.963
 4190SOL    HW113469   2.077   3.698   5.037
 4190SOL    HW213470   2.056   3.697   4.875
 4191SOL     OW13471   2.886   3.457   4.657
 4191SOL    HW113472   2.975   3.494   4.682
 4191SOL    HW213473   2.897   3.363   4.624
 4192SOL     OW13474   2.224   2.498   4.198
 4192SOL    HW113475   2.225   2.399   4.215
 4192SOL    HW213476   2.133   2.534   4.218
 4193SOL     OW13477   3.305   2.161   5.382
 4193SOL    HW113478   3.282   2.173   5.479
 4193SOL    HW213479   3.245   2.220   5.327
 4194SOL     OW13480   2.475   1.921   3.845
 4194SOL    HW113481   2.512   1.832   3.872
 4194SOL    HW213482   2.417   1.910   3.764
 4195SOL     OW13483   2.619   2.094   5.437
 4195SOL    HW113484   2.704   2.048   5.462
 4195SOL    HW213485   2.542   2.036   5.461
 4196SOL     OW13486   2.863   3.434   4.937
 4196SOL    HW113487   2.852   3.429   4.837
 4196SOL    HW213488   2.877   3.342   4.973
 4197SOL     OW13489   2.774   2.288   4.663
 4197SOL    HW113490   2.763   2.307   4.566
 4197SOL    HW213491   2.812   2.196   4.675
 4198SOL     OW13492   2.388   1.889   4.244
 4198SOL    HW113493   2.316   1.894   4.314
 4198SOL    HW213494   2.380   1.968   4.183
 4199SOL     OW13495   3.408   3.061   3.765
 4199SOL    HW113496   3.479   2.991   3.773
 4199SOL    HW213497   3.322   3.024   3.801
 4200SOL     OW13498   2.139   1.881   3.897
 4200SOL    HW113499   2.188   1.958   3.854
 4200SOL    HW213500   2.204   1.826   3.949
 4201SOL     OW13501   2.739   2.078   4.195
 4201SOL    HW113502   2.689   2.156   4.156
 4201SOL    HW213503   2.835   2.083   4.168
 4202SOL     OW13504   3.119   3.376   4.461
 4202SOL    HW113505   3.126   3.463   4.412
 4202SOL    HW213506   3.198   3.365   4.521
 4203SOL     OW13507   2.289   2.846   4.420
 4203SOL    HW113508   2.251   2.893   4.500
 4203SOL    HW213509   2.245   2.880   4.337
 4204SOL     OW13510   3.115   3.600   4.307
 4204SOL    HW113511   3.160   3.680   4.265
 4204SOL    HW213512   3.029   3.629   4.350
 4205SOL     OW13513   2.017   2.350   5.129
 4205SOL    HW113514   2.107   2.362   5.089
 4205SOL    HW213515   1.995   2.429   5.187
 4206SOL     OW13516   2.457   2.011   4.943
 4206SOL    HW113517   2.516   2.008   5.024
 4206SOL    HW213518   2.366   2.042   4.970
 4207SOL     OW13519   2.757   2.290   4.387
 4207SOL    HW113520   2.717   2.361   4.328
 4207SOL    HW213521   2.744   2.201   4.344
 4208SOL     OW13522   2.857   1.863   4.443
 4208SOL    HW113523   2.787   1.862   4.372
 4208SOL    HW213524   2.837   1.791   4.510
 4209SOL     OW13525   3.398   3.075   4.575
 4209SOL    HW113526   3.320   3.022   4.543
 4209SOL    HW213527   3.466   3.082   4.501
 4210SOL     OW13528   3.579   3.125   4.370
 4210SOL    HW113529   3.667   3.078   4.369
 4210SOL    HW213530   3.592   3.223   4.354
 4211SOL     OW13531   2.357   2.078   4.046
 4211SOL    HW113532   2.410   2.028   3.978
 4211SOL    HW213533   2.324   2.164   4.006
 4212SOL     OW13534   3.606   3.137   5.268
 4212SOL    HW113535   3.695   3.092   5.264
 4212SOL    HW213536   3.616   3.227   5.310
 4213SOL     OW13537   2.903   3.192   5.056
 4213SOL    HW113538   2.826   3.155   5.108
 4213SOL    HW213539   2.989   3.165   5.099
 4214SOL     OW13540   3.486   3.527   5.417
 4214SOL    HW113541   3.461   3.561   5.326
 4214SOL    HW213542   3.568   3.470   5.410
 4215SOL     OW13543   3.015   3.111   4.813
 4215SOL    HW113544   2.948   3.128   4.885
 4215SOL    HW213545   2.976   3.133   4.724
 4216SOL     OW13546   3.446   3.012   4.833
 4216SOL    HW113547   3.459   3.088   4.896
 4216SOL    HW213548   3.425   3.047   4.742
 4217SOL     OW13549   2.836   1.888   5.081
 4217SOL    HW113550   2.856   1.876   4.983
 4217SOL    HW213551   2.903   1.949   5.121
 4218SOL     OW13552   2.819   2.946   5.422
 4218SOL    HW113553   2.724   2.963   5.447
 4218SOL    HW213554   2.830   2.851   5.393
 4219SOL     OW13555   2.279   2.669   4.990
 4219SOL    HW113556   2.329   2.704   5.069
 4219SOL    HW213557   2.263   2.571   5.001
 4220SOL     OW13558   1.900   3.467   5.093
 4220SOL    HW113559   1.901   3.552   5.040
 4220SOL    HW213560   1.992   3.429   5.097
 4221SOL     OW13561   2.145   2.940   4.201
 4221SOL    HW113562   2.129   3.027   4.154
 4221SOL    HW213563   2.136   2.865   4.136
 4222SOL     OW13564   2.353   2.392   4.586
 4222SOL    HW113565   2.366   2.459   4.513
 4222SOL    HW213566   2.429   2.397   4.650
 4223SOL     OW13567   3.130   3.206   4.103
 4223SOL    HW113568   3.202   3.270   4.128
 4223SOL    HW213569   3.049   3.223   4.158
 4224SOL     OW13570   3.189   3.320   4.861
 4224SOL    HW113571   3.221   3.339   4.954
 4224SOL    HW213572   3.130   3.240   4.862
 4225SOL     OW13573   2.151   3.383   5.057
 4225SOL    HW113574   2.158   3.355   4.961
 4225SOL    HW213575   2.224   3.448   5.078
 4226SOL     OW13576   2.229   2.613   5.351
 4226SOL    HW113577   2.297   2.664   5.299
 4226SOL    HW213578   2.260   2.518   5.363
 4227SOL     OW13579   3.465   2.661   5.425
 4227SOL    HW113580   3.374   2.702   5.416
 4227SOL    HW213581   3.526   2.697   5.354
 4228SOL     OW13582   2.869   1.978   5.493
 4228SOL    HW113583   2.913   2.064   5.468
 4228SOL    HW213584   2.923   1.901   5.458
 4229SOL     OW13585   2.391   1.945   5.503
 4229SOL    HW113586   2.343   1.875   5.450
 4229SOL    HW213587   2.325   2.013   5.535
 4230SOL     OW13588   2.395   2.695   4.742
 4230SOL    HW113589   2.442   2.782   4.734
 4230SOL    HW213590   2.358   2.686   4.835
 4231SOL     OW13591   2.193   2.052   4.999
 4231SOL    HW113592   2.185   2.086   5.093
 4231SOL    HW213593   2.169   1.955   4.996
 4232SOL     OW13594   1.837   3.217   4.966
 4232SOL    HW113595   1.863   3.136   5.019
 4232SOL    HW213596   1.859   3.299   5.019
 4233SOL     OW13597   2.559   2.438   4.758
 4233SOL    HW113598   2.644   2.396   4.724
 4233SOL    HW213599   2.558   2.535   4.733
 4234SOL     OW13600   3.609   2.818   5.606
 4234SOL    HW113601   3.562   2.750   5.549
 4234SOL    HW213602   3.545   2.854   5.673
 4235SOL     OW13603   2.173   1.888   4.416
 4235SOL    HW113604   2.137   1.981   4.430
 4235SOL    HW213605   2.182   1.842   4.504
 4236SOL     OW13606   3.390   2.117   4.081
 4236SOL    HW113607   3.478   2.085   4.117
 4236SOL    HW213608   3.366   2.204   4.124
 4237SOL     OW13609   2.851   3.449   5.450
 4237SOL    HW113610   2.856   3.483   5.356
 4237SOL    HW213611   2.874   3.351   5.451
 4238SOL     OW13612   3.708   3.377   5.360
 4238SOL    HW113613   3.741   3.388   5.266
 4238SOL    HW213614   3.785   3.371   5.423
 4239SOL     OW13615   2.190   2.776   5.568
 4239SOL    HW113616   2.279   2.807   5.602
 4239SOL    HW213617   2.203   2.713   5.491
 4240SOL     OW13618   3.351   2.078   3.803
 4240SOL    HW113619   3.292   1.998   3.811
 4240SOL    HW213620   3.377   2.110   3.894
 4241SOL     OW13621   2.936   3.202   4.564
 4241SOL    HW113622   2.884   3.157   4.491
 4241SOL    HW213623   3.015   3.249   4.524
 4242SOL     OW13624   2.140   2.648   4.644
 4242SOL    HW113625   2.239   2.663   4.655
 4242SOL    HW213626   2.117   2.558   4.680
 4243SOL     OW13627   2.135   2.384   4.739
 4243SOL    HW113628   2.107   2.289   4.746
 4243SOL    HW213629   2.214   2.391   4.678
 4244SOL     OW13630   2.985   2.213   5.412
 4244SOL    HW113631   2.965   2.272   5.490
 4244SOL    HW213632   3.041   2.262   5.346
 4245SOL     OW13633   3.023   2.041   5.200
 4245SOL    HW113634   3.006   2.094   5.283
 4245SOL    HW213635   3.058   2.102   5.129
 4246SOL     OW13636   1.848   3.129   3.929
 4246SOL    HW113637   1.763   3.170   3.897
 4246SOL    HW213638   1.835   3.030   3.943
 4247SOL     OW13639   1.882   3.664   4.654
 4247SOL    HW113640   1.873   3.577   4.605
 4247SOL    HW213641   1.979   3.683   4.668
 4248SOL     OW13642   1.893   2.417   4.883
 4248SOL    HW113643   1.970   2.421   4.819
 4248SOL    HW213644   1.927   2.394   4.974
 4249SOL     OW13645   2.047   2.397   5.493
 4249SOL    HW113646   2.141   2.380   5.463
 4249SOL    HW213647   2.003   2.460   5.429
 4250SOL     OW13648   3.244   2.820   5.371
 4250SOL    HW113649   3.268   2.917   5.380
 4250SOL    HW213650   3.255   2.792   5.276
 4251SOL     OW13651   2.651   2.317   4.094
 4251SOL    HW113652   2.713   2.305   4.016
 4251SOL    HW213653   2.578   2.380   4.070
 4252SOL     OW13654   2.216   3.505   5.353
 4252SOL    HW113655   2.150   3.538   5.419
 4252SOL    HW213656   2.249   3.414   5.379
 4253SOL     OW13657   2.563   2.367   5.020
 4253SOL    HW113658   2.644   2.308   5.027
 4253SOL    HW213659   2.553   2.398   4.926
 4254SOL     OW13660   2.876   3.532   5.192
 4254SOL    HW113661   2.866   3.489   5.103
 4254SOL    HW213662   2.872   3.632   5.182
 4255SOL     OW13663   2.272   2.310   3.914
 4255SOL    HW113664   2.348   2.369   3.941
 4255SOL    HW213665   2.186   2.361   3.923
 4256SOL     OW13666   1.931   2.986   5.107
 4256SOL    HW113667   1.990   3.041   5.166
 4256SOL    HW213668   1.985   2.946   5.033
 4257SOL     OW13669   3.197   2.945   4.929
 4257SOL    HW113670   3.284   2.963   4.884
 4257SOL    HW213671   3.124   2.991   4.879
 4258SOL     OW13672   3.715   3.562   4.924
 4258SOL    HW113673   3.767   3.591   4.844
 4258SOL    HW213674   3.641   3.502   4.895
 4259SOL     OW13675   3.123   3.562   4.755
 4259SOL    HW113676   3.209   3.609   4.741
 4259SOL    HW213677   3.139   3.477   4.806
 4260SOL     OW13678   1.907   3.196   4.705
 4260SOL    HW113679   1.880   3.205   4.800
 4260SOL    HW213680   1.888   3.103   4.673
 4261SOL     OW13681   2.605   3.542   5.516
 4261SOL    HW113682   2.577   3.612   5.452
 4261SOL    HW213683   2.701   3.518   5.500
 4262SOL     OW13684   3.621   2.020   4.181
 4262SOL    HW113685   3.685   2.000   4.106
 4262SOL    HW213686   3.584   1.935   4.217
 4263SOL     OW13687   3.296   3.410   4.194
 4263SOL    HW113688   3.359   3.449   4.127
 4263SOL    HW213689   3.230   3.479   4.222
 4264SOL     OW13690   2.029   3.609   5.531
 4264SOL    HW113691   1.966   3.545   5.575
 4264SOL    HW213692   2.080   3.660   5.600
 4265SOL     OW13693   3.182   2.941   4.488
 4265SOL    HW113694   3.117   2.873   4.521
 4265SOL    HW213695   3.177   2.946   4.388
 4266SOL     OW13696   3.458   3.607   5.146
 4266SOL    HW113697   3.533   3.605   5.080
 4266SOL    HW213698   3.431   3.702   5.164
 4267SOL     OW13699   3.663   2.034   4.667
 4267SOL    HW113700   3.690   1.941   4.643
 4267SOL    HW213701   3.564   2.042   4.669
 4268SOL     OW13702   2.087   2.138   4.474
 4268SOL    HW113703   2.011   2.197   4.444
 4268SOL    HW213704   2.096   2.143   4.574
 4269SOL     OW13705   3.079   3.556   3.695
 4269SOL    HW113706   2.992   3.520   3.661
 4269SOL    HW213707   3.110   3.631   3.636
 4270SOL     OW13708   3.354   3.527   3.750
 4270SOL    HW113709   3.256   3.521   3.734
 4270SOL    HW213710   3.402   3.537   3.662
 4271SOL     OW13711   2.118   3.156   5.203
 4271SOL    HW113712   2.127   3.246   5.159
 4271SOL    HW213713   2.193   3.097   5.172
 4272SOL     OW13714   3.475   3.204   5.024
 4272SOL    HW113715   3.532   3.173   5.100
 4272SOL    HW213716   3.402   3.263   5.059
 4273SOL     OW13717   2.890   2.038   4.657
 4273SOL    HW113718   2.882   1.990   4.570
 4273SOL    HW213719   2.891   1.971   4.732
 4274SOL     OW13720   3.636   2.147   5.147
 4274SOL    HW113721   3.609   2.236   5.109
 4274SOL    HW213722   3.653   2.083   5.072
 4275SOL     OW13723   2.065   3.185   4.097
 4275SOL    HW113724   1.980   3.172   4.046
 4275SOL    HW213725   2.051   3.250   4.170
 4276SOL     OW13726   1.973   2.922   5.470
 4276SOL    HW113727   1.891   2.894   5.519
 4276SOL    HW213728   2.051   2.868   5.503
 4277SOL     OW13729   2.598   1.982   5.179
 4277SOL    HW113730   2.687   1.955   5.142
 4277SOL    HW213731   2.612   2.045   5.256
 4278SOL     OW13732   1.929   2.169   3.722
 4278SOL    HW113733   1.843   2.164   3.671
 4278SOL    HW213734   1.974   2.256   3.702
 4279SOL     OW13735   3.312   2.783   5.114
 4279SOL    HW113736   3.253   2.827   5.046
 4279SOL    HW213737   3.404   2.772   5.077
 4280SOL     OW13738   1.911   2.013   3.958
 4280SOL    HW113739   1.897   2.077   3.883
 4280SOL    HW213740   1.999   1.967   3.947
 4281SOL     OW13741   3.035   3.183   3.846
 4281SOL    HW113742   2.962   3.250   3.842
 4281SOL    HW213743   3.080   3.188   3.935
 4282SOL     OW13744   2.425   2.731   5.213
 4282SOL    HW113745   2.442   2.828   5.230
 4282SOL    HW213746   2.510   2.680   5.225
 4283SOL     OW13747   3.384   3.652   4.753
 4283SOL    HW113748   3.432   3.703   4.682
 4283SOL    HW213749   3.441   3.577   4.786
 4284SOL     OW13750   2.565   2.369   5.453
 4284SOL    HW113751   2.617   2.421   5.521
 4284SOL    HW213752   2.597   2.274   5.452
 4285SOL     OW13753   3.338   3.082   5.357
 4285SOL    HW113754   3.330   3.107   5.453
 4285SOL    HW213755   3.430   3.101   5.325
 4286SOL     OW13756   2.184   3.706   5.165
 4286SOL    HW113757   2.243   3.787   5.167
 4286SOL    HW213758   2.216   3.640   5.234
 4287SOL     OW13759   3.566   2.814   4.979
 4287SOL    HW113760   3.575   2.736   4.917
 4287SOL    HW213761   3.523   2.890   4.930
 4288SOL     OW13762   3.000   2.123   4.124
 4288SOL    HW113763   3.065   2.049   4.107
 4288SOL    HW213764   3.016   2.161   4.215
 4289SOL     OW13765   2.386   2.590   4.399
 4289SOL    HW113766   2.364   2.686   4.416
 4289SOL    HW213767   2.332   2.556   4.322
 4290SOL     OW13768   3.572   2.200   5.413
 4290SOL    HW113769   3.607   2.186   5.320
 4290SOL    HW213770   3.474   2.183   5.414
 4291SOL     OW13771   3.619   2.802   5.251
 4291SOL    HW113772   3.617   2.894   5.292
 4291SOL    HW213773   3.602   2.809   5.153
 4292SOL     OW13774   2.825   3.362   3.836
 4292SOL    HW113775   2.743   3.304   3.840
 4292SOL    HW213776   2.832   3.403   3.745
 4293SOL     OW13777   3.164   2.941   3.822
 4293SOL    HW113778   3.101   3.018   3.836
 4293SOL    HW213779   3.160   2.911   3.727
 4294SOL     OW13780   3.714   3.393   4.584
 4294SOL    HW113781   3.650   3.391   4.507
 4294SOL    HW213782   3.728   3.300   4.617
 4295SOL     OW13783   1.996   3.189   5.516
 4295SOL    HW113784   2.000   3.096   5.481
 4295SOL    HW213785   1.965   3.189   5.611
 4296SOL     OW13786   2.038   3.069   4.425
 4296SOL    HW113787   2.065   3.027   4.511
 4296SOL    HW213788   2.071   3.014   4.348
 4297SOL     OW13789   2.557   3.264   5.519
 4297SOL    HW113790   2.473   3.242   5.469
 4297SOL    HW213791   2.575   3.362   5.512
 4298SOL     OW13792   3.664   1.978   4.942
 4298SOL    HW113793   3.670   1.878   4.935
 4298SOL    HW213794   3.668   2.018   4.851
 4299SOL     OW13795   2.225   2.235   4.248
 4299SOL    HW113796   2.272   2.165   4.195
 4299SOL    HW213797   2.190   2.196   4.333
 4300SOL     OW13798   3.509   3.411   4.839
 4300SOL    HW113799   3.470   3.380   4.753
 4300SOL    HW213800   3.504   3.338   4.907
 4301SOL     OW13801   2.263   2.392   5.005
 4301SOL    HW113802   2.359   2.369   5.023
 4301SOL    HW213803   2.244   2.379   4.908
 4302SOL     OW13804   3.297   2.065   4.953
 4302SOL    HW113805   3.333   2.027   5.038
 4302SOL    HW213806   3.218   2.123   4.972
 4303SOL     OW13807   2.906   1.817   4.822
 4303SOL    HW113808   2.847   1.754   4.771
 4303SOL    HW213809   3.000   1.785   4.818
 4304SOL     OW13810   3.205   1.853   3.838
 4304SOL    HW113811   3.260   1.775   3.806
 4304SOL    HW213812   3.113   1.822   3.859
 4305SOL     OW13813   3.024   2.200   4.382
 4305SOL    HW113814   2.939   2.248   4.402
 4305SOL    HW213815   3.077   2.190   4.467
 4306SOL     OW13816   3.389   2.046   4.700
 4306SOL    HW113817   3.366   2.057   4.796
 4306SOL    HW213818   3.315   2.082   4.643
 4307SOL     OW13819   1.855   2.857   4.029
 4307SOL    HW113820   1.950   2.840   4.006
 4307SOL    HW213821   1.809   2.771   4.051
 4308SOL     OW13822   2.845   3.486   4.079
 4308SOL    HW113823   2.840   3.437   3.992
 4308SOL    HW213824   2.777   3.560   4.080
 4309SOL     OW13825   2.035   2.430   5.764
 4309SOL    HW113826   1.939   2.434   5.790
 4309SOL    HW213827   2.043   2.436   5.664
 4310SOL     OW13828   2.062   2.167   6.607
 4310SOL    HW113829   2.102   2.140   6.694
 4310SOL    HW213830   1.975   2.121   6.595
 4311SOL     OW13831   1.876   2.274   6.226
 4311SOL    HW113832   1.791   2.294   6.277
 4311SOL    HW213833   1.855   2.215   6.149
 4312SOL     OW13834   2.415   3.122   6.793
 4312SOL    HW113835   2.332   3.140   6.740
 4312SOL    HW213836   2.455   3.208   6.824
 4313SOL     OW13837   3.468   3.384   6.287
 4313SOL    HW113838   3.405   3.364   6.362
 4313SOL    HW213839   3.415   3.408   6.206
 4314SOL     OW13840   2.969   2.603   6.265
 4314SOL    HW113841   3.023   2.684   6.244
 4314SOL    HW213842   2.925   2.615   6.354
 4315SOL     OW13843   3.643   2.456   5.804
 4315SOL    HW113844   3.610   2.470   5.710
 4315SOL    HW213845   3.595   2.378   5.845
 4316SOL     OW13846   2.572   2.982   6.602
 4316SOL    HW113847   2.507   3.012   6.673
 4316SOL    HW213848   2.607   3.063   6.554
 4317SOL     OW13849   2.546   2.829   6.221
 4317SOL    HW113850   2.620   2.832   6.287
 4317SOL    HW213851   2.475   2.895   6.246
 4318SOL     OW13852   2.199   3.216   6.637
 4318SOL    HW113853   2.110   3.190   6.599
 4318SOL    HW213854   2.247   3.274   6.571
 4319SOL     OW13855   3.466   2.326   6.326
 4319SOL    HW113856   3.446   2.362   6.235
 4319SOL    HW213857   3.425   2.385   6.395
 4320SOL     OW13858   2.100   3.605   6.066
 4320SOL    HW113859   2.126   3.674   6.134
 4320SOL    HW213860   2.175   3.592   6.002
 4321SOL     OW13861   2.001   3.362   6.144
 4321SOL    HW113862   2.036   3.454   6.124
 4321SOL    HW213863   1.968   3.359   6.238
 4322SOL     OW13864   2.155   2.932   6.482
 4322SOL    HW113865   2.175   2.834   6.475
 4322SOL    HW213866   2.121   2.952   6.575
 4323SOL     OW13867   2.475   3.665   6.964
 4323SOL    HW113868   2.388   3.640   0.007
 4323SOL    HW213869   2.512   3.746   0.008
 4324SOL     OW13870   2.428   2.869   5.718
 4324SOL    HW113871   2.475   2.905   5.637
 4324SOL    HW213872   2.484   2.885   5.799
 4325SOL     OW13873   1.966   2.534   6.159
 4325SOL    HW113874   1.944   2.439   6.181
 4325SOL    HW213875   1.958   2.590   6.241
 4326SOL     OW13876   3.727   3.631   5.894
 4326SOL    HW113877   3.802   3.620   5.960
 4326SOL    HW213878   3.731   3.723   5.854
 4327SOL     OW13879   1.874   3.452   5.693
 4327SOL    HW113880   1.870   3.356   5.718
 4327SOL    HW213881   1.878   3.508   5.775
 4328SOL     OW13882   3.569   2.793   6.225
 4328SOL    HW113883   3.614   2.727   6.164
 4328SOL    HW213884   3.540   2.873   6.172
 4329SOL     OW13885   3.531   2.994   6.025
 4329SOL    HW113886   3.616   2.960   5.985
 4329SOL    HW213887   3.552   3.057   6.100
 4330SOL     OW13888   2.455   3.242   6.299
 4330SOL    HW113889   2.414   3.151   6.289
 4330SOL    HW213890   2.466   3.284   6.209
 4331SOL     OW13891   2.699   1.884   6.090
 4331SOL    HW113892   2.746   1.964   6.054
 4331SOL    HW213893   2.601   1.902   6.096
 4332SOL     OW13894   2.055   2.831   6.743
 4332SOL    HW113895   2.146   2.791   6.756
 4332SOL    HW213896   1.992   2.760   6.711
 4333SOL     OW13897   3.413   2.915   5.788
 4333SOL    HW113898   3.340   2.850   5.809
 4333SOL    HW213899   3.456   2.946   5.872
 4334SOL     OW13900   3.283   3.305   6.482
 4334SOL    HW113901   3.237   3.304   6.571
 4334SOL    HW213902   3.294   3.211   6.449
 4335SOL     OW13903   3.503   3.751   6.113
 4335SOL    HW113904   3.492   3.682   6.042
 4335SOL    HW213905   3.524   3.705   6.200
 4336SOL     OW13906   2.425   2.560   5.868
 4336SOL    HW113907   2.427   2.648   5.820
 4336SOL    HW213908   2.354   2.563   5.939
 4337SOL     OW13909   3.143   2.280   6.505
 4337SOL    HW113910   3.052   2.239   6.498
 4337SOL    HW213911   3.201   2.222   6.562
 4338SOL     OW13912   3.464   3.564   5.911
 4338SOL    HW113913   3.563   3.577   5.901
 4338SOL    HW213914   3.422   3.553   5.821
 4339SOL     OW13915   2.606   2.556   6.989
 4339SOL    HW113916   2.568   2.590   0.074
 4339SOL    HW213917   2.553   2.477   6.958
 4340SOL     OW13918   2.851   2.338   6.790
 4340SOL    HW113919   2.852   2.376   6.882
 4340SOL    HW213920   2.769   2.368   6.742
 4341SOL     OW13921   2.894   2.548   6.003
 4341SOL    HW113922   2.916   2.564   6.099
 4341SOL    HW213923   2.806   2.500   5.996
 4342SOL     OW13924   1.939   2.702   6.378
 4342SOL    HW113925   2.034   2.686   6.405
 4342SOL    HW213926   1.898   2.770   6.438
 4343SOL     OW13927   1.991   3.627   0.092
 4343SOL    HW113928   1.944   3.615   0.179
 4343SOL    HW213929   1.969   3.551   0.031
 4344SOL     OW13930   2.792   2.094   5.732
 4344SOL    HW113931   2.821   2.186   5.707
 4344SOL    HW213932   2.827   2.029   5.665
 4345SOL     OW13933   3.257   3.036   6.112
 4345SOL    HW113934   3.343   3.022   6.062
 4345SOL    HW213935   3.203   3.107   6.066
 4346SOL     OW13936   2.421   1.970   6.561
 4346SOL    HW113937   2.420   2.010   6.652
 4346SOL    HW213938   2.438   2.041   6.493
 4347SOL     OW13939   2.865   3.341   6.044
 4347SOL    HW113940   2.839   3.404   5.971
 4347SOL    HW213941   2.827   3.374   6.131
 4348SOL     OW13942   2.230   3.645   6.492
 4348SOL    HW113943   2.266   3.552   6.486
 4348SOL    HW213944   2.306   3.709   6.508
 4349SOL     OW13945   3.673   2.881   6.474
 4349SOL    HW113946   3.644   2.866   6.380
 4349SOL    HW213947   3.593   2.890   6.533
 4350SOL     OW13948   2.164   2.862   5.832
 4350SOL    HW113949   2.260   2.887   5.818
 4350SOL    HW213950   2.130   2.811   5.753
 4351SOL     OW13951   3.337   2.657   6.290
 4351SOL    HW113952   3.336   2.603   6.373
 4351SOL    HW213953   3.425   2.705   6.282
 4352SOL     OW13954   3.005   3.637   5.804
 4352SOL    HW113955   2.914   3.613   5.838
 4352SOL    HW213956   3.035   3.572   5.735
 4353SOL     OW13957   3.522   3.291   5.696
 4353SOL    HW113958   3.473   3.378   5.688
 4353SOL    HW213959   3.463   3.216   5.668
 4354SOL     OW13960   2.329   3.608   5.915
 4354SOL    HW113961   2.375   3.673   5.975
 4354SOL    HW213962   2.395   3.567   5.852
 4355SOL     OW13963   3.261   1.972   6.046
 4355SOL    HW113964   3.258   1.959   5.947
 4355SOL    HW213965   3.353   1.949   6.079
 4356SOL     OW13966   2.162   3.667   6.763
 4356SOL    HW113967   2.189   3.580   6.804
 4356SOL    HW213968   2.179   3.665   6.665
 4357SOL     OW13969   2.815   3.552   6.441
 4357SOL    HW113970   2.904   3.507   6.435
 4357SOL    HW213971   2.758   3.523   6.364
 4358SOL     OW13972   2.237   2.529   6.070
 4358SOL    HW113973   2.253   2.432   6.085
 4358SOL    HW213974   2.139   2.549   6.080
 4359SOL     OW13975   2.532   1.971   5.748
 4359SOL    HW113976   2.624   2.008   5.735
 4359SOL    HW213977   2.495   1.944   5.659
 4360SOL     OW13978   2.734   3.321   6.737
 4360SOL    HW113979   2.689   3.304   6.649
 4360SOL    HW213980   2.812   3.259   6.747
 4361SOL     OW13981   2.649   3.221   6.491
 4361SOL    HW113982   2.742   3.231   6.455
 4361SOL    HW213983   2.582   3.236   6.418
 4362SOL     OW13984   2.795   2.362   6.459
 4362SOL    HW113985   2.773   2.354   6.362
 4362SOL    HW213986   2.837   2.278   6.491
 4363SOL     OW13987   2.429   1.924   6.101
 4363SOL    HW113988   2.352   1.917   6.164
 4363SOL    HW213989   2.413   2.001   6.039
 4364SOL     OW13990   3.312   3.116   5.631
 4364SOL    HW113991   3.344   3.037   5.683
 4364SOL    HW213992   3.219   3.139   5.660
 4365SOL     OW13993   2.163   1.881   5.758
 4365SOL    HW113994   2.202   1.963   5.716
 4365SOL    HW213995   2.235   1.832   5.807
 4366SOL     OW13996   2.836   2.103   6.006
 4366SOL    HW113997   2.820   2.099   5.907
 4366SOL    HW213998   2.930   2.132   6.023
 4367SOL     OW13999   3.068   3.451   6.365
 4367SOL    HW114000   3.091   3.525   6.302
 4367SOL    HW214001   3.151   3.413   6.404
 4368SOL     OW14002   2.335   2.998   6.281
 4368SOL    HW114003   2.277   2.979   6.360
 4368SOL    HW214004   2.278   3.001   6.198
 4369SOL     OW14005   3.118   3.669   6.196
 4369SOL    HW114006   3.167   3.735   6.140
 4369SOL    HW214007   3.035   3.712   6.234
 4370SOL     OW14008   2.891   2.337   5.649
 4370SOL    HW114009   2.835   2.418   5.633
 4370SOL    HW214010   2.963   2.358   5.714
 4371SOL     OW14011   2.406   2.071   6.818
 4371SOL    HW114012   2.440   1.992   6.869
 4371SOL    HW214013   2.308   2.083   6.837
 4372SOL     OW14014   2.739   2.301   6.195
 4372SOL    HW114015   2.690   2.358   6.130
 4372SOL    HW214016   2.780   2.223   6.148
 4373SOL     OW14017   2.884   1.914   6.306
 4373SOL    HW114018   2.822   1.920   6.228
 4373SOL    HW214019   2.855   1.839   6.366
 4374SOL     OW14020   3.353   3.057   6.383
 4374SOL    HW114021   3.292   3.035   6.307
 4374SOL    HW214022   3.445   3.075   6.347
 4375SOL     OW14023   3.320   2.495   6.513
 4375SOL    HW114024   3.251   2.423   6.519
 4375SOL    HW214025   3.380   2.490   6.593
 4376SOL     OW14026   3.661   2.626   6.017
 4376SOL    HW114027   3.733   2.587   6.074
 4376SOL    HW214028   3.656   2.574   5.931
 4377SOL     OW14029   2.323   3.288   5.767
 4377SOL    HW114030   2.242   3.273   5.824
 4377SOL    HW214031   2.315   3.232   5.684
 4378SOL     OW14032   3.587   3.126   6.255
 4378SOL    HW114033   3.685   3.104   6.253
 4378SOL    HW214034   3.575   3.225   6.253
 4379SOL     OW14035   3.235   2.467   5.639
 4379SOL    HW114036   3.195   2.417   5.716
 4379SOL    HW214037   3.328   2.434   5.622
 4380SOL     OW14038   2.380   2.116   5.916
 4380SOL    HW114039   2.437   2.062   5.854
 4380SOL    HW214040   2.344   2.196   5.868
 4381SOL     OW14041   3.616   2.992   0.168
 4381SOL    HW114042   3.707   2.976   0.128
 4381SOL    HW214043   3.587   3.085   0.148
 4382SOL     OW14044   2.951   3.152   6.681
 4382SOL    HW114045   2.953   3.052   6.686
 4382SOL    HW214046   2.935   3.180   6.586
 4383SOL     OW14047   3.450   2.931   6.625
 4383SOL    HW114048   3.456   3.006   6.691
 4383SOL    HW214049   3.393   2.958   6.548
 4384SOL     OW14050   2.585   2.888   5.950
 4384SOL    HW114051   2.569   2.860   6.045
 4384SOL    HW214052   2.651   2.825   5.908
 4385SOL     OW14053   2.294   2.715   6.802
 4385SOL    HW114054   2.362   2.769   6.852
 4385SOL    HW214055   2.279   2.628   6.850
 4386SOL     OW14056   3.104   2.239   6.831
 4386SOL    HW114057   3.147   2.310   6.886
 4386SOL    HW214058   3.014   2.270   6.801
 4387SOL     OW14059   1.976   3.414   6.913
 4387SOL    HW114060   1.924   3.472   6.850
 4387SOL    HW214061   2.072   3.413   6.886
 4388SOL     OW14062   2.167   3.014   6.066
 4388SOL    HW114063   2.152   3.101   6.019
 4388SOL    HW214064   2.167   2.940   5.998
 4389SOL     OW14065   2.384   2.418   6.491
 4389SOL    HW114066   2.396   2.472   6.407
 4389SOL    HW214067   2.470   2.418   6.542
 4390SOL     OW14068   3.121   3.250   5.994
 4390SOL    HW114069   3.183   3.322   6.024
 4390SOL    HW214070   3.027   3.276   6.017
 4391SOL     OW14071   3.176   3.301   6.733
 4391SOL    HW114072   3.229   3.261   6.809
 4391SOL    HW214073   3.089   3.253   6.725
 4392SOL     OW14074   3.429   2.468   6.091
 4392SOL    HW114075   3.357   2.522   6.135
 4392SOL    HW214076   3.500   2.530   6.057
 4393SOL     OW14077   2.231   3.407   6.827
 4393SOL    HW114078   2.215   3.336   6.758
 4393SOL    HW214079   2.328   3.408   6.851
 4394SOL     OW14080   2.509   2.698   6.623
 4394SOL    HW114081   2.535   2.793   6.604
 4394SOL    HW214082   2.420   2.697   6.669
 4395SOL     OW14083   3.139   2.706   6.596
 4395SOL    HW114084   3.046   2.678   6.572
 4395SOL    HW214085   3.204   2.641   6.558
 4396SOL     OW14086   3.064   2.386   5.856
 4396SOL    HW114087   3.086   2.309   5.915
 4396SOL    HW214088   3.011   2.453   5.907
 4397SOL     OW14089   2.136   2.082   6.860
 4397SOL    HW114090   2.080   2.125   6.931
 4397SOL    HW214091   2.113   1.985   6.854
 4398SOL     OW14092   1.883   3.159   6.855
 4398SOL    HW114093   1.929   3.087   6.907
 4398SOL    HW214094   1.917   3.248   6.884
 4399SOL     OW14095   2.616   2.444   6.647
 4399SOL    HW114096   2.677   2.418   6.572
 4399SOL    HW214097   2.593   2.541   6.639
 4400SOL     OW14098   2.197   1.907   6.254
 4400SOL    HW114099   2.160   1.998   6.272
 4400SOL    HW214100   2.204   1.857   6.340
 4401SOL     OW14101   3.466   2.264   5.905
 4401SOL    HW114102   3.520   2.196   5.954
 4401SOL    HW214103   3.430   2.332   5.969
 4402SOL     OW14104   2.870   2.621   6.546
 4402SOL    HW114105   2.839   2.641   6.640
 4402SOL    HW214106   2.853   2.525   6.525
 4403SOL     OW14107   3.319   2.164   5.675
 4403SOL    HW114108   3.283   2.079   5.712
 4403SOL    HW214109   3.376   2.209   5.744
 4404SOL     OW14110   3.131   2.708   5.590
 4404SOL    HW114111   3.166   2.615   5.600
 4404SOL    HW214112   3.169   2.750   5.508
 4405SOL     OW14113   2.911   3.232   6.421
 4405SOL    HW114114   2.931   3.146   6.374
 4405SOL    HW214115   2.970   3.304   6.385
 4406SOL     OW14116   2.193   2.663   6.467
 4406SOL    HW114117   2.268   2.647   6.403
 4406SOL    HW214118   2.187   2.587   6.531
 4407SOL     OW14119   2.154   2.421   6.625
 4407SOL    HW114120   2.108   2.333   6.615
 4407SOL    HW214121   2.242   2.418   6.577
 4408SOL     OW14122   3.085   2.116   0.075
 4408SOL    HW114123   3.122   2.187   0.135
 4408SOL    HW214124   3.088   2.148   6.980
 4409SOL     OW14125   1.876   3.161   5.770
 4409SOL    HW114126   1.781   3.187   5.751
 4409SOL    HW214127   1.878   3.066   5.801
 4410SOL     OW14128   1.954   3.612   6.498
 4410SOL    HW114129   1.929   3.525   6.456
 4410SOL    HW214130   2.052   3.626   6.490
 4411SOL     OW14131   2.350   3.399   6.494
 4411SOL    HW114132   2.428   3.450   6.531
 4411SOL    HW214133   2.381   3.343   6.417
 4412SOL     OW14134   2.773   2.689   6.805
 4412SOL    HW114135   2.824   2.748   6.868
 4412SOL    HW214136   2.704   2.638   6.855
 4413SOL     OW14137   1.930   2.567   6.712
 4413SOL    HW114138   2.007   2.516   6.673
 4413SOL    HW214139   1.935   2.562   6.812
 4414SOL     OW14140   2.650   2.423   5.960
 4414SOL    HW114141   2.656   2.345   5.898
 4414SOL    HW214142   2.573   2.481   5.932
 4415SOL     OW14143   3.496   2.473   6.722
 4415SOL    HW114144   3.480   2.409   6.797
 4415SOL    HW214145   3.592   2.467   6.693
 4416SOL     OW14146   2.480   2.338   6.863
 4416SOL    HW114147   2.461   2.241   6.852
 4416SOL    HW214148   2.529   2.372   6.783
 4417SOL     OW14149   2.873   3.512   6.887
 4417SOL    HW114150   2.822   3.449   6.828
 4417SOL    HW214151   2.883   3.600   6.840
 4418SOL     OW14152   2.287   2.332   5.778
 4418SOL    HW114153   2.351   2.407   5.794
 4418SOL    HW214154   2.193   2.366   5.785
 4419SOL     OW14155   2.009   2.951   6.986
 4419SOL    HW114156   2.063   2.902   0.054
 4419SOL    HW214157   2.025   2.910   6.896
 4420SOL     OW14158   3.158   2.814   6.846
 4420SOL    HW114159   3.160   2.786   6.750
 4420SOL    HW214160   3.206   2.901   6.857
 4421SOL     OW14161   3.208   2.750   5.853
 4421SOL    HW114162   3.149   2.702   5.916
 4421SOL    HW214163   3.178   2.733   5.759
 4422SOL     OW14164   3.631   3.565   6.710
 4422SOL    HW114165   3.700   3.588   6.641
 4422SOL    HW214166   3.586   3.480   6.684
 4423SOL     OW14167   3.151   3.584   6.694
 4423SOL    HW114168   3.240   3.624   6.676
 4423SOL    HW214169   3.161   3.487   6.715
 4424SOL     OW14170   1.923   3.149   6.579
 4424SOL    HW114171   1.906   3.151   6.677
 4424SOL    HW214172   1.888   3.064   6.540
 4425SOL     OW14173   3.634   2.086   6.034
 4425SOL    HW114174   3.688   2.062   5.953
 4425SOL    HW214175   3.588   2.004   6.069
 4426SOL     OW14176   3.283   3.461   6.090
 4426SOL    HW114177   3.344   3.496   6.018
 4426SOL    HW214178   3.220   3.532   6.118
 4427SOL     OW14179   3.132   2.816   6.214
 4427SOL    HW114180   3.207   2.756   6.243
 4427SOL    HW214181   3.169   2.893   6.161
 4428SOL     OW14182   2.517   3.480   5.766
 4428SOL    HW114183   2.547   3.504   5.674
 4428SOL    HW214184   2.456   3.402   5.761
 4429SOL     OW14185   3.684   2.042   6.574
 4429SOL    HW114186   3.721   1.952   6.550
 4429SOL    HW214187   3.601   2.059   6.520
 4430SOL     OW14188   2.104   2.154   6.325
 4430SOL    HW114189   2.024   2.201   6.288
 4430SOL    HW214190   2.105   2.166   6.425
 4431SOL     OW14191   3.090   3.457   5.618
 4431SOL    HW114192   3.081   3.364   5.655
 4431SOL    HW214193   3.022   3.471   5.546
 4432SOL     OW14194   2.491   2.880   6.905
 4432SOL    HW114195   2.581   2.858   6.869
 4432SOL    HW214196   2.464   2.971   6.875
 4433SOL     OW14197   2.763   2.721   5.830
 4433SOL    HW114198   2.821   2.779   5.774
 4433SOL    HW214199   2.819   2.666   5.892
 4434SOL     OW14200   3.357   3.530   5.656
 4434SOL    HW114201   3.263   3.501   5.640
 4434SOL    HW214202   3.405   3.538   5.569
 4435SOL     OW14203   3.475   3.129   6.812
 4435SOL    HW114204   3.567   3.132   6.851
 4435SOL    HW214205   3.409   3.105   6.884
 4436SOL     OW14206   2.946   2.983   6.329
 4436SOL    HW114207   2.866   2.929   6.356
 4436SOL    HW214208   3.014   2.924   6.287
 4437SOL     OW14209   2.917   2.113   6.505
 4437SOL    HW114210   2.911   2.057   6.422
 4437SOL    HW214211   2.913   2.054   6.585
 4438SOL     OW14212   2.498   3.357   6.057
 4438SOL    HW114213   2.550   3.287   6.008
 4438SOL    HW214214   2.431   3.398   5.995
 4439SOL     OW14215   3.481   2.297   6.939
 4439SOL    HW114216   3.551   2.333   0.001
 4439SOL    HW214217   3.511   2.208   6.904
 4440SOL     OW14218   2.095   3.237   5.921
 4440SOL    HW114219   2.018   3.213   5.863
 4440SOL    HW214220   2.061   3.285   6.003
 4441SOL     OW14221   2.591   2.047   0.126
 4441SOL    HW114222   2.684   2.015   0.141
 4441SOL    HW214223   2.593   2.145   0.102
 4442SOL     OW14224   1.930   2.170   5.589
 4442SOL    HW114225   1.844   2.162   5.538
 4442SOL    HW214226   1.973   2.258   5.568
 4443SOL     OW14227   1.925   2.002   5.815
 4443SOL    HW114228   1.911   2.067   5.740
 4443SOL    HW214229   2.016   1.960   5.806
 4444SOL     OW14230   3.047   3.205   5.721
 4444SOL    HW114231   2.947   3.199   5.719
 4444SOL    HW214232   3.078   3.208   5.816
 4445SOL     OW14233   3.397   3.705   6.644
 4445SOL    HW114234   3.419   3.752   6.558
 4445SOL    HW214235   3.480   3.661   6.679
 4446SOL     OW14236   3.332   3.165   0.259
 4446SOL    HW114237   3.257   3.197   0.316
 4446SOL    HW214238   3.317   3.068   0.236
 4447SOL     OW14239   2.261   3.583   0.099
 4447SOL    HW114240   2.164   3.609   0.098
 4447SOL    HW214241   2.269   3.488   0.131
 4448SOL     OW14242   3.553   2.734   6.805
 4448SOL    HW114243   3.525   2.642   6.776
 4448SOL    HW214244   3.509   2.802   6.747
 4449SOL     OW14245   3.092   2.190   6.050
 4449SOL    HW114246   3.159   2.116   6.055
 4449SOL    HW214247   3.111   2.256   6.123
 4450SOL     OW14248   2.389   2.606   6.284
 4450SOL    HW114249   2.455   2.677   6.260
 4450SOL    HW214250   2.339   2.578   6.202
 4451SOL     OW14251   3.604   2.685   0.082
 4451SOL    HW114252   3.590   2.770   0.133
 4451SOL    HW214253   3.584   2.701   6.985
 4452SOL     OW14254   2.771   3.216   5.704
 4452SOL    HW114255   2.721   3.198   5.789
 4452SOL    HW214256   2.706   3.233   5.631
 4453SOL     OW14257   2.554   3.567   6.562
 4453SOL    HW114258   2.526   3.662   6.556
 4453SOL    HW214259   2.650   3.558   6.535
 4454SOL     OW14260   2.734   2.838   6.428
 4454SOL    HW114261   2.776   2.757   6.471
 4454SOL    HW214262   2.679   2.886   6.496
 4455SOL     OW14263   2.920   2.860   5.666
 4455SOL    HW114264   2.886   2.909   5.585
 4455SOL    HW214265   3.001   2.806   5.640
 4456SOL     OW14266   3.731   3.384   6.376
 4456SOL    HW114267   3.636   3.395   6.345
 4456SOL    HW214268   3.736   3.308   6.441
 4457SOL     OW14269   1.988   3.035   6.280
 4457SOL    HW114270   2.041   3.001   6.358
 4457SOL    HW214271   2.044   3.030   6.197
 4458SOL     OW14272   3.607   2.059   6.838
 4458SOL    HW114273   3.579   1.964   6.852
 4458SOL    HW214274   3.634   2.072   6.742
 4459SOL     OW14275   2.270   2.269   6.126
 4459SOL    HW114276   2.309   2.204   6.061
 4459SOL    HW214277   2.221   2.219   6.197
 4460SOL     OW14278   3.511   3.338   6.637
 4460SOL    HW114279   3.431   3.337   6.577
 4460SOL    HW214280   3.504   3.262   6.703
 4461SOL     OW14281   2.227   2.460   6.889
 4461SOL    HW114282   2.311   2.409   6.907
 4461SOL    HW214283   2.197   2.442   6.795
 4462SOL     OW14284   2.683   3.503   6.207
 4462SOL    HW114285   2.690   3.593   6.163
 4462SOL    HW214286   2.612   3.449   6.162
 4463SOL     OW14287   3.277   2.108   6.668
 4463SOL    HW114288   3.286   2.010   6.684
 4463SOL    HW214289   3.217   2.148   6.737
 4464SOL     OW14290   2.908   1.846   6.656
 4464SOL    HW114291   2.858   1.794   6.586
 4464SOL    HW214292   3.001   1.811   6.664
 4465SOL     OW14293   2.653   3.159   5.949
 4465SOL    HW114294   2.630   3.061   5.950
 4465SOL    HW214295   2.740   3.173   5.995
 4466SOL     OW14296   2.503   3.401   6.863
 4466SOL    HW114297   2.504   3.499   6.882
 4466SOL    HW214298   2.589   3.376   6.818
 4467SOL     OW14299   3.246   1.913   5.779
 4467SOL    HW114300   3.302   1.857   5.717
 4467SOL    HW214301   3.158   1.869   5.793
 4468SOL     OW14302   3.130   2.375   6.245
 4468SOL    HW114303   3.072   2.457   6.247
 4468SOL    HW214304   3.141   2.340   6.338
 4469SOL     OW14305   3.445   2.079   6.454
 4469SOL    HW114306   3.381   2.101   6.528
 4469SOL    HW214307   3.450   2.156   6.390
 4470SOL     OW14308   1.892   2.901   5.899
 4470SOL    HW114309   1.990   2.895   5.879
 4470SOL    HW214310   1.855   2.809   5.913
 4471SOL     OW14311   2.755   3.553   5.894
 4471SOL    HW114312   2.673   3.520   5.847
 4471SOL    HW214313   2.732   3.630   5.953
 4472SOL     OW14314   2.042   4.451   0.120
 4472SOL    HW114315   1.950   4.416   0.136
 4472SOL    HW214316   2.089   4.393   0.053
 4473SOL     OW14317   2.055   4.029   1.019
 4473SOL    HW114318   2.101   4.000   1.103
 4473SOL    HW214319   1.969   3.978   1.010
 4474SOL     OW14320   1.848   4.163   0.652
 4474SOL    HW114321   1.761   4.172   0.700
 4474SOL    HW214322   1.836   4.106   0.571
 4475SOL     OW14323   2.450   5.059   1.183
 4475SOL    HW114324   2.357   5.045   1.147
 4475SOL    HW214325   2.467   5.157   1.192
 4476SOL     OW14326   3.474   5.205   0.740
 4476SOL    HW114327   3.413   5.177   0.814
 4476SOL    HW214328   3.422   5.253   0.669
 4477SOL     OW14329   2.974   4.476   0.686
 4477SOL    HW114330   3.030   4.557   0.673
 4477SOL    HW214331   2.929   4.479   0.776
 4478SOL     OW14332   3.693   4.307   0.136
 4478SOL    HW114333   3.648   4.392   0.109
 4478SOL    HW214334   3.634   4.256   0.199
 4479SOL     OW14335   2.592   4.820   1.125
 4479SOL    HW114336   2.641   4.797   1.209
 4479SOL    HW214337   2.544   4.906   1.137
 4480SOL     OW14338   2.536   4.685   0.668
 4480SOL    HW114339   2.599   4.695   0.745
 4480SOL    HW214340   2.456   4.742   0.682
 4481SOL     OW14341   2.527   4.907   1.820
 4481SOL    HW114342   2.564   4.988   1.866
 4481SOL    HW214343   2.462   4.936   1.749
 4482SOL     OW14344   2.191   5.104   1.052
 4482SOL    HW114345   2.100   5.082   1.017
 4482SOL    HW214346   2.239   5.161   0.986
 4483SOL     OW14347   3.301   5.249   1.399
 4483SOL    HW114348   3.365   5.326   1.406
 4483SOL    HW214349   3.224   5.265   1.460
 4484SOL     OW14350   2.276   4.082   1.503
 4484SOL    HW114351   2.350   4.016   1.516
 4484SOL    HW214352   2.189   4.040   1.531
 4485SOL     OW14353   3.422   4.201   0.781
 4485SOL    HW114354   3.352   4.209   0.710
 4485SOL    HW214355   3.407   4.273   0.850
 4486SOL     OW14356   2.130   5.456   0.489
 4486SOL    HW114357   2.145   5.538   0.546
 4486SOL    HW214358   2.217   5.427   0.450
 4487SOL     OW14359   2.999   5.082   1.692
 4487SOL    HW114360   3.088   5.036   1.697
 4487SOL    HW214361   2.926   5.014   1.693
 4488SOL     OW14362   2.051   5.213   0.586
 4488SOL    HW114363   2.079   5.306   0.564
 4488SOL    HW214364   2.006   5.212   0.675
 4489SOL     OW14365   2.143   4.819   0.895
 4489SOL    HW114366   2.161   4.723   0.917
 4489SOL    HW214367   2.146   4.874   0.978
 4490SOL     OW14368   2.424   5.568   1.394
 4490SOL    HW114369   2.348   5.534   1.450
 4490SOL    HW214370   2.479   5.632   1.448
 4491SOL     OW14371   2.415   4.683   0.197
 4491SOL    HW114372   2.478   4.678   0.120
 4491SOL    HW214373   2.460   4.728   0.274
 4492SOL     OW14374   3.463   3.863   1.397
 4492SOL    HW114375   3.400   3.891   1.324
 4492SOL    HW214376   3.428   3.896   1.485
 4493SOL     OW14377   1.970   4.411   0.606
 4493SOL    HW114378   1.934   4.320   0.626
 4493SOL    HW214379   1.966   4.467   0.689
 4494SOL     OW14380   3.722   5.450   0.373
 4494SOL    HW114381   3.800   5.411   0.423
 4494SOL    HW214382   3.741   5.545   0.352
 4495SOL     OW14383   3.563   4.650   0.666
 4495SOL    HW114384   3.654   4.608   0.676
 4495SOL    HW214385   3.554   4.686   0.573
 4496SOL     OW14386   3.523   4.786   0.422
 4496SOL    HW114387   3.575   4.798   0.338
 4496SOL    HW214388   3.538   4.865   0.482
 4497SOL     OW14389   2.128   4.428   1.620
 4497SOL    HW114390   2.227   4.434   1.611
 4497SOL    HW214391   2.093   4.510   1.665
 4498SOL     OW14392   2.441   5.075   0.740
 4498SOL    HW114393   2.398   4.986   0.723
 4498SOL    HW214394   2.461   5.119   0.653
 4499SOL     OW14395   3.091   4.974   1.421
 4499SOL    HW114396   3.112   4.900   1.357
 4499SOL    HW214397   3.146   4.965   1.503
 4500SOL     OW14398   2.711   3.765   0.516
 4500SOL    HW114399   2.758   3.852   0.501
 4500SOL    HW214400   2.613   3.780   0.519
 4501SOL     OW14401   2.023   4.652   1.298
 4501SOL    HW114402   2.118   4.621   1.299
 4501SOL    HW214403   1.970   4.595   1.234
 4502SOL     OW14404   3.299   4.773   0.256
 4502SOL    HW114405   3.223   4.710   0.276
 4502SOL    HW214406   3.374   4.756   0.319
 4503SOL     OW14407   3.116   5.584   1.631
 4503SOL    HW114408   3.082   5.643   1.558
 4503SOL    HW214409   3.107   5.489   1.604
 4504SOL     OW14410   2.206   3.943   1.895
 4504SOL    HW114411   2.253   4.018   1.942
 4504SOL    HW214412   2.114   3.973   1.869
 4505SOL     OW14413   3.297   5.132   0.936
 4505SOL    HW114414   3.253   5.166   1.018
 4505SOL    HW214415   3.281   5.033   0.928
 4506SOL     OW14416   3.447   5.630   0.562
 4506SOL    HW114417   3.435   5.572   0.481
 4506SOL    HW214418   3.478   5.576   0.639
 4507SOL     OW14419   2.413   4.415   0.283
 4507SOL    HW114420   2.423   4.510   0.252
 4507SOL    HW214421   2.345   4.411   0.356
 4508SOL     OW14422   3.111   4.184   0.949
 4508SOL    HW114423   3.032   4.165   1.008
 4508SOL    HW214424   3.167   4.102   0.942
 4509SOL     OW14425   3.442   5.451   0.353
 4509SOL    HW114426   3.541   5.438   0.352
 4509SOL    HW214427   3.407   5.446   0.259
 4510SOL     OW14428   2.625   4.363   1.377
 4510SOL    HW114429   2.635   4.349   1.476
 4510SOL    HW214430   2.627   4.275   1.330
 4511SOL     OW14431   3.291   4.229   1.641
 4511SOL    HW114432   3.359   4.290   1.683
 4511SOL    HW214433   3.328   4.136   1.637
 4512SOL     OW14434   2.829   4.665   1.593
 4512SOL    HW114435   2.823   4.632   1.688
 4512SOL    HW214436   2.887   4.603   1.540
 4513SOL     OW14437   2.885   4.116   1.102
 4513SOL    HW114438   2.801   4.133   1.153
 4513SOL    HW214439   2.878   4.029   1.054
 4514SOL     OW14440   2.882   4.445   0.429
 4514SOL    HW114441   2.908   4.454   0.526
 4514SOL    HW214442   2.798   4.392   0.422
 4515SOL     OW14443   1.945   4.580   0.826
 4515SOL    HW114444   2.040   4.568   0.857
 4515SOL    HW214445   1.898   4.642   0.889
 4516SOL     OW14446   1.958   5.574   1.582
 4516SOL    HW114447   1.971   5.549   1.678
 4516SOL    HW214448   1.872   5.534   1.549
 4517SOL     OW14449   2.755   4.077   0.235
 4517SOL    HW114450   2.800   4.134   0.166
 4517SOL    HW214451   2.770   3.981   0.213
 4518SOL     OW14452   3.578   4.268   1.718
 4518SOL    HW114453   3.548   4.360   1.694
 4518SOL    HW214454   3.608   4.220   1.635
 4519SOL     OW14455   3.289   4.918   0.643
 4519SOL    HW114456   3.386   4.930   0.625
 4519SOL    HW214457   3.237   4.987   0.591
 4520SOL     OW14458   2.422   3.836   0.993
 4520SOL    HW114459   2.421   3.878   1.084
 4520SOL    HW214460   2.447   3.905   0.925
 4521SOL     OW14461   2.886   5.183   0.505
 4521SOL    HW114462   2.863   5.257   0.441
 4521SOL    HW214463   2.834   5.196   0.590
 4522SOL     OW14464   2.229   5.524   0.899
 4522SOL    HW114465   2.265   5.431   0.890
 4522SOL    HW214466   2.304   5.588   0.913
 4523SOL     OW14467   3.646   4.778   0.904
 4523SOL    HW114468   3.595   4.751   0.823
 4523SOL    HW214469   3.583   4.791   0.981
 4524SOL     OW14470   3.062   5.304   1.533
 4524SOL    HW114471   3.050   5.230   1.599
 4524SOL    HW214472   2.998   5.292   1.457
 4525SOL     OW14473   2.137   4.692   0.200
 4525SOL    HW114474   2.237   4.695   0.201
 4525SOL    HW214475   2.107   4.599   0.177
 4526SOL     OW14476   3.334   4.510   0.702
 4526SOL    HW114477   3.322   4.469   0.792
 4526SOL    HW214478   3.420   4.561   0.700
 4527SOL     OW14479   2.340   5.025   1.659
 4527SOL    HW114480   2.300   5.018   1.568
 4527SOL    HW214481   2.268   5.026   1.728
 4528SOL     OW14482   2.989   5.523   0.228
 4528SOL    HW114483   2.925   5.476   0.288
 4528SOL    HW214484   3.025   5.458   0.161
 4529SOL     OW14485   2.015   3.975   1.522
 4529SOL    HW114486   1.960   4.043   1.570
 4529SOL    HW214487   1.971   3.886   1.530
 4530SOL     OW14488   3.514   5.096   0.128
 4530SOL    HW114489   3.487   5.084   0.032
 4530SOL    HW214490   3.433   5.087   0.186
 4531SOL     OW14491   2.386   5.422   0.391
 4531SOL    HW114492   2.420   5.509   0.427
 4531SOL    HW214493   2.374   5.429   0.292
 4532SOL     OW14494   2.145   5.525   1.169
 4532SOL    HW114495   2.170   5.440   1.216
 4532SOL    HW214496   2.178   5.522   1.075
 4533SOL     OW14497   2.834   5.406   0.866
 4533SOL    HW114498   2.922   5.365   0.886
 4533SOL    HW214499   2.785   5.351   0.799
 4534SOL     OW14500   2.218   4.384   0.475
 4534SOL    HW114501   2.221   4.284   0.478
 4534SOL    HW214502   2.133   4.416   0.516
 4535SOL     OW14503   3.355   3.956   1.631
 4535SOL    HW114504   3.360   3.959   1.731
 4535SOL    HW214505   3.261   3.937   1.603
 4536SOL     OW14506   2.735   5.302   1.164
 4536SOL    HW114507   2.710   5.248   1.083
 4536SOL    HW214508   2.792   5.246   1.224
 4537SOL     OW14509   3.220   4.347   1.404
 4537SOL    HW114510   3.254   4.311   1.491
 4537SOL    HW214511   3.235   4.446   1.401
 4538SOL     OW14512   2.662   5.135   0.950
 4538SOL    HW114513   2.751   5.101   0.921
 4538SOL    HW214514   2.591   5.071   0.920
 4539SOL     OW14515   2.775   4.284   0.891
 4539SOL    HW114516   2.757   4.253   0.797
 4539SOL    HW214517   2.819   4.211   0.942
 4540SOL     OW14518   2.433   3.808   0.497
 4540SOL    HW114519   2.358   3.809   0.562
 4540SOL    HW214520   2.412   3.869   0.420
 4541SOL     OW14521   3.269   4.858   6.991
 4541SOL    HW114522   3.290   4.811   0.077
 4541SOL    HW214523   3.199   4.927   0.007
 4542SOL     OW14524   2.843   4.001   0.480
 4542SOL    HW114525   2.808   4.035   0.393
 4542SOL    HW214526   2.942   4.016   0.484
 4543SOL     OW14527   2.969   4.448   1.492
 4543SOL    HW114528   2.944   4.427   1.587
 4543SOL    HW214529   3.057   4.406   1.471
 4544SOL     OW14530   3.089   5.285   0.816
 4544SOL    HW114531   3.118   5.370   0.772
 4544SOL    HW214532   3.169   5.237   0.851
 4545SOL     OW14533   2.311   4.841   0.681
 4545SOL    HW114534   2.250   4.832   0.759
 4545SOL    HW214535   2.257   4.838   0.596
 4546SOL     OW14536   3.160   5.531   0.682
 4546SOL    HW114537   3.223   5.607   0.674
 4546SOL    HW214538   3.066   5.566   0.690
 4547SOL     OW14539   2.877   4.231   0.050
 4547SOL    HW114540   2.805   4.299   0.035
 4547SOL    HW214541   2.939   4.263   0.122
 4548SOL     OW14542   2.019   4.309   1.388
 4548SOL    HW114543   2.105   4.279   1.348
 4548SOL    HW214544   2.037   4.354   1.475
 4549SOL     OW14545   2.406   3.963   1.239
 4549SOL    HW114546   2.444   3.933   1.327
 4549SOL    HW214547   2.307   3.956   1.242
 4550SOL     OW14548   2.729   4.197   0.639
 4550SOL    HW114549   2.676   4.247   0.570
 4550SOL    HW214550   2.772   4.117   0.597
 4551SOL     OW14551   2.925   3.761   0.722
 4551SOL    HW114552   2.852   3.763   0.655
 4551SOL    HW214553   2.937   3.668   0.756
 4552SOL     OW14554   3.266   4.860   0.912
 4552SOL    HW114555   3.211   4.779   0.933
 4552SOL    HW214556   3.272   4.871   0.812
 4553SOL     OW14557   3.290   4.394   0.951
 4553SOL    HW114558   3.220   4.322   0.954
 4553SOL    HW214559   3.339   4.396   1.038
 4554SOL     OW14560   3.689   4.517   0.394
 4554SOL    HW114561   3.745   4.457   0.452
 4554SOL    HW214562   3.689   4.482   0.301
 4555SOL     OW14563   2.343   5.160   0.183
 4555SOL    HW114564   2.276   5.137   0.254
 4555SOL    HW214565   2.365   5.079   0.129
 4556SOL     OW14566   3.564   4.980   0.609
 4556SOL    HW114567   3.660   4.956   0.625
 4556SOL    HW214568   3.544   5.067   0.655
 4557SOL     OW14569   3.202   4.262   0.073
 4557SOL    HW114570   3.141   4.267   0.153
 4557SOL    HW214571   3.274   4.195   0.091
 4558SOL     OW14572   2.369   3.967   0.277
 4558SOL    HW114573   2.436   3.927   0.216
 4558SOL    HW214574   2.331   4.050   0.236
 4559SOL     OW14575   3.530   4.952   1.587
 4559SOL    HW114576   3.559   4.878   1.648
 4559SOL    HW214577   3.586   5.033   1.603
 4560SOL     OW14578   2.881   5.135   1.342
 4560SOL    HW114579   2.793   5.103   1.377
 4560SOL    HW214580   2.954   5.079   1.381
 4561SOL     OW14581   3.470   5.374   1.676
 4561SOL    HW114582   3.462   5.417   1.586
 4561SOL    HW214583   3.538   5.301   1.671
 4562SOL     OW14584   2.994   5.011   1.120
 4562SOL    HW114585   2.931   5.048   1.188
 4562SOL    HW214586   2.959   5.029   1.028
 4563SOL     OW14587   3.465   4.839   1.107
 4563SOL    HW114588   3.456   4.901   1.185
 4563SOL    HW214589   3.385   4.849   1.047
 4564SOL     OW14590   2.748   3.843   1.488
 4564SOL    HW114591   2.807   3.875   1.414
 4564SOL    HW214592   2.789   3.868   1.576
 4565SOL     OW14593   2.791   4.905   1.716
 4565SOL    HW114594   2.697   4.901   1.751
 4565SOL    HW214595   2.812   4.820   1.667
 4566SOL     OW14596   2.570   4.779   0.409
 4566SOL    HW114597   2.559   4.745   0.503
 4566SOL    HW214598   2.640   4.724   0.363
 4567SOL     OW14599   2.271   4.533   1.284
 4567SOL    HW114600   2.347   4.566   1.339
 4567SOL    HW214601   2.266   4.433   1.288
 4568SOL     OW14602   3.110   4.119   1.286
 4568SOL    HW114603   3.143   4.206   1.322
 4568SOL    HW214604   3.029   4.135   1.230
 4569SOL     OW14605   1.942   5.305   1.349
 4569SOL    HW114606   1.905   5.379   1.292
 4569SOL    HW214607   2.041   5.300   1.336
 4570SOL     OW14608   2.138   4.843   0.460
 4570SOL    HW114609   2.141   4.934   0.420
 4570SOL    HW214610   2.135   4.774   0.387
 4571SOL     OW14611   2.357   4.260   0.852
 4571SOL    HW114612   2.383   4.309   0.768
 4571SOL    HW214613   2.427   4.274   0.922
 4572SOL     OW14614   3.155   5.113   0.502
 4572SOL    HW114615   3.203   5.197   0.529
 4572SOL    HW214616   3.056   5.129   0.506
 4573SOL     OW14617   3.175   5.214   1.160
 4573SOL    HW114618   3.222   5.222   1.248
 4573SOL    HW214619   3.112   5.137   1.162
 4574SOL     OW14620   3.444   4.391   0.467
 4574SOL    HW114621   3.390   4.426   0.543
 4574SOL    HW214622   3.519   4.455   0.448
 4575SOL     OW14623   2.205   5.268   1.269
 4575SOL    HW114624   2.194   5.207   1.191
 4575SOL    HW214625   2.302   5.290   1.280
 4576SOL     OW14626   2.397   4.495   1.639
 4576SOL    HW114627   2.427   4.549   1.560
 4576SOL    HW214628   2.472   4.436   1.669
 4577SOL     OW14629   3.446   4.503   1.662
 4577SOL    HW114630   3.357   4.547   1.662
 4577SOL    HW214631   3.515   4.566   1.697
 4578SOL     OW14632   2.880   3.912   1.713
 4578SOL    HW114633   2.930   3.997   1.730
 4578SOL    HW214634   2.943   3.834   1.718
 4579SOL     OW14635   2.353   3.792   1.712
 4579SOL    HW114636   2.345   3.695   1.735
 4579SOL    HW214637   2.304   3.846   1.780
 4580SOL     OW14638   2.437   4.592   1.069
 4580SOL    HW114639   2.495   4.673   1.084
 4580SOL    HW214640   2.378   4.578   1.148
 4581SOL     OW14641   3.134   4.624   0.987
 4581SOL    HW114642   3.039   4.592   0.981
 4581SOL    HW214643   3.196   4.547   0.974
 4582SOL     OW14644   3.027   4.268   0.281
 4582SOL    HW114645   3.058   4.193   0.340
 4582SOL    HW214646   2.980   4.336   0.336
 4583SOL     OW14647   2.133   3.923   1.266
 4583SOL    HW114648   2.100   3.967   1.349
 4583SOL    HW214649   2.113   3.825   1.269
 4584SOL     OW14650   1.881   5.049   1.263
 4584SOL    HW114651   1.902   4.981   1.334
 4584SOL    HW214652   1.897   5.141   1.300
 4585SOL     OW14653   2.546   4.338   1.033
 4585SOL    HW114654   2.627   4.333   0.975
 4585SOL    HW214655   2.517   4.433   1.043
 4586SOL     OW14656   2.206   3.794   0.662
 4586SOL    HW114657   2.157   3.880   0.681
 4586SOL    HW214658   2.213   3.740   0.746
 4587SOL     OW14659   3.528   4.176   0.322
 4587SOL    HW114660   3.560   4.104   0.384
 4587SOL    HW214661   3.491   4.252   0.375
 4588SOL     OW14662   2.877   4.515   0.981
 4588SOL    HW114663   2.870   4.516   1.081
 4588SOL    HW214664   2.841   4.429   0.946
 4589SOL     OW14665   2.832   5.270   1.796
 4589SOL    HW114666   2.806   5.335   1.724
 4589SOL    HW214667   2.887   5.196   1.755
 4590SOL     OW14668   3.681   5.198   1.603
 4590SOL    HW114669   3.700   5.224   1.508
 4590SOL    HW214670   3.762   5.215   1.659
 4591SOL     OW14671   2.224   4.659   1.788
 4591SOL    HW114672   2.271   4.696   1.868
 4591SOL    HW214673   2.288   4.603   1.735
 4592SOL     OW14674   3.365   4.049   0.143
 4592SOL    HW114675   3.326   3.965   0.182
 4592SOL    HW214676   3.426   4.091   0.210
 4593SOL     OW14677   3.075   4.506   0.031
 4593SOL    HW114678   3.128   4.420   0.032
 4593SOL    HW214679   3.101   4.560   6.951
 4594SOL     OW14680   2.913   5.075   0.867
 4594SOL    HW114681   2.918   4.994   0.808
 4594SOL    HW214682   2.975   5.145   0.833
 4595SOL     OW14683   2.196   4.554   0.938
 4595SOL    HW114684   2.291   4.567   0.966
 4595SOL    HW214685   2.170   4.459   0.954
 4596SOL     OW14686   2.120   4.290   0.974
 4596SOL    HW114687   2.083   4.200   0.996
 4596SOL    HW214688   2.205   4.279   0.922
 4597SOL     OW14689   3.023   4.158   1.691
 4597SOL    HW114690   2.966   4.236   1.715
 4597SOL    HW214691   3.119   4.187   1.687
 4598SOL     OW14692   3.100   3.955   1.511
 4598SOL    HW114693   3.060   4.020   1.576
 4598SOL    HW214694   3.109   4.000   1.422
 4599SOL     OW14695   1.950   5.492   0.918
 4599SOL    HW114696   1.932   5.399   0.884
 4599SOL    HW214697   2.048   5.512   0.910
 4600SOL     OW14698   2.350   5.275   0.900
 4600SOL    HW114699   2.429   5.331   0.924
 4600SOL    HW214700   2.378   5.202   0.838
 4601SOL     OW14701   2.840   4.483   1.248
 4601SOL    HW114702   2.905   4.484   1.325
 4601SOL    HW214703   2.752   4.447   1.279
 4602SOL     OW14704   1.938   4.418   1.147
 4602SOL    HW114705   2.001   4.383   1.077
 4602SOL    HW214706   1.966   4.384   1.237
 4603SOL     OW14707   2.096   4.275   1.853
 4603SOL    HW114708   2.180   4.247   1.900
 4603SOL    HW214709   2.120   4.318   1.766
 4604SOL     OW14710   3.222   4.658   1.650
 4604SOL    HW114711   3.219   4.755   1.672
 4604SOL    HW214712   3.218   4.647   1.551
 4605SOL     OW14713   2.656   4.297   0.379
 4605SOL    HW114714   2.676   4.216   0.325
 4605SOL    HW214715   2.571   4.339   0.346
 4606SOL     OW14716   3.417   4.385   1.189
 4606SOL    HW114717   3.369   4.347   1.268
 4606SOL    HW214718   3.508   4.343   1.183
 4607SOL     OW14719   2.097   5.268   1.697
 4607SOL    HW114720   2.075   5.342   1.761
 4607SOL    HW214721   2.114   5.184   1.748
 4608SOL     OW14722   2.622   4.143   1.206
 4608SOL    HW114723   2.552   4.073   1.215
 4608SOL    HW214724   2.591   4.213   1.141
 4609SOL     OW14725   2.738   5.428   1.575
 4609SOL    HW114726   2.687   5.358   1.526
 4609SOL    HW214727   2.763   5.502   1.512
 4610SOL     OW14728   2.265   4.206   0.177
 4610SOL    HW114729   2.331   4.277   0.201
 4610SOL    HW214730   2.187   4.211   0.239
 4611SOL     OW14731   1.970   4.868   1.457
 4611SOL    HW114732   1.985   4.846   1.553
 4611SOL    HW214733   2.002   4.791   1.400
 4612SOL     OW14734   3.125   4.790   1.206
 4612SOL    HW114735   3.133   4.723   1.132
 4612SOL    HW214736   3.078   4.871   1.173
 4613SOL     OW14737   3.087   4.604   0.289
 4613SOL    HW114738   3.029   4.555   0.354
 4613SOL    HW214739   3.087   4.557   0.201
 4614SOL     OW14740   3.609   5.427   1.158
 4614SOL    HW114741   3.680   5.446   1.090
 4614SOL    HW214742   3.570   5.337   1.142
 4615SOL     OW14743   3.128   5.480   1.107
 4615SOL    HW114744   3.217   5.524   1.097
 4615SOL    HW214745   3.139   5.382   1.124
 4616SOL     OW14746   1.924   5.023   0.997
 4616SOL    HW114747   1.904   5.034   1.094
 4616SOL    HW214748   1.885   4.936   0.965
 4617SOL     OW14749   2.547   5.455   1.767
 4617SOL    HW114750   2.479   5.526   1.747
 4617SOL    HW214751   2.623   5.463   1.703
 4618SOL     OW14752   2.821   3.827   0.146
 4618SOL    HW114753   2.899   3.863   0.094
 4618SOL    HW214754   2.850   3.746   0.197
 4619SOL     OW14755   3.603   3.961   0.477
 4619SOL    HW114756   3.667   3.915   0.415
 4619SOL    HW214757   3.545   3.893   0.521
 4620SOL     OW14758   3.306   5.334   0.561
 4620SOL    HW114759   3.351   5.368   0.478
 4620SOL    HW214760   3.247   5.406   0.599
 4621SOL     OW14761   2.005   5.490   1.838
 4621SOL    HW114762   1.955   5.420   1.888
 4621SOL    HW214763   2.053   5.550   1.902
 4622SOL     OW14764   3.137   4.690   0.655
 4622SOL    HW114765   3.207   4.619   0.665
 4622SOL    HW214766   3.181   4.777   0.635
 4623SOL     OW14767   2.626   5.061   1.408
 4623SOL    HW114768   2.591   5.117   1.483
 4623SOL    HW214769   2.555   5.053   1.337
 4624SOL     OW14770   2.605   5.304   0.166
 4624SOL    HW114771   2.593   5.338   0.073
 4624SOL    HW214772   2.527   5.246   0.190
 4625SOL     OW14773   3.471   5.471   1.407
 4625SOL    HW114774   3.523   5.460   1.323
 4625SOL    HW214775   3.444   5.567   1.417
 4626SOL     OW14776   2.083   4.032   0.727
 4626SOL    HW114777   2.000   4.082   0.702
 4626SOL    HW214778   2.097   4.036   0.826
 4627SOL     OW14779   3.081   5.346   0.037
 4627SOL    HW114780   3.088   5.247   0.050
 4627SOL    HW214781   3.004   5.367   6.977
 4628SOL     OW14782   2.689   4.793   1.389
 4628SOL    HW114783   2.747   4.750   1.458
 4628SOL    HW214784   2.675   4.890   1.412
 4629SOL     OW14785   2.746   4.630   0.275
 4629SOL    HW114786   2.793   4.648   0.189
 4629SOL    HW214787   2.800   4.567   0.331
 4630SOL     OW14788   3.336   5.449   0.091
 4630SOL    HW114789   3.245   5.411   0.071
 4630SOL    HW214790   3.398   5.427   0.016
 4631SOL     OW14791   2.200   5.029   1.429
 4631SOL    HW114792   2.189   5.115   1.379
 4631SOL    HW214793   2.113   4.980   1.430
 4632SOL     OW14794   3.439   5.016   1.327
 4632SOL    HW114795   3.484   4.976   1.406
 4632SOL    HW214796   3.382   5.093   1.356
 4633SOL     OW14797   2.912   4.844   0.730
 4633SOL    HW114798   2.840   4.791   0.775
 4633SOL    HW214799   2.984   4.782   0.699
 4634SOL     OW14800   2.855   3.889   0.962
 4634SOL    HW114801   2.887   3.860   0.872
 4634SOL    HW214802   2.838   3.809   1.019
 4635SOL     OW14803   2.507   5.202   0.506
 4635SOL    HW114804   2.556   5.147   0.438
 4635SOL    HW214805   2.459   5.277   0.460
 4636SOL     OW14806   2.129   5.097   0.353
 4636SOL    HW114807   2.051   5.115   0.293
 4636SOL    HW214808   2.110   5.134   0.444
 4637SOL     OW14809   1.995   4.806   1.729
 4637SOL    HW114810   1.914   4.780   1.782
 4637SOL    HW214811   2.072   4.747   1.755
 4638SOL     OW14812   2.478   3.882   1.495
 4638SOL    HW114813   2.578   3.871   1.496
 4638SOL    HW214814   2.440   3.851   1.582
 4639SOL     OW14815   1.918   3.979   0.018
 4639SOL    HW114816   1.875   3.915   6.954
 4639SOL    HW214817   1.871   4.067   0.015
 4640SOL     OW14818   3.249   4.620   1.382
 4640SOL    HW114819   3.196   4.680   1.322
 4640SOL    HW214820   3.347   4.630   1.362
 4641SOL     OW14821   1.984   3.896   0.274
 4641SOL    HW114822   1.960   3.918   0.179
 4641SOL    HW214823   2.083   3.892   0.284
 4642SOL     OW14824   3.095   5.071   0.062
 4642SOL    HW114825   2.999   5.072   0.090
 4642SOL    HW214826   3.153   5.065   0.144
 4643SOL     OW14827   2.498   4.600   1.408
 4643SOL    HW114828   2.561   4.678   1.403
 4643SOL    HW214829   2.549   4.516   1.392
 4644SOL     OW14830   3.385   5.585   1.077
 4644SOL    HW114831   3.416   5.632   0.994
 4644SOL    HW214832   3.460   5.530   1.113
 4645SOL     OW14833   2.639   4.333   1.650
 4645SOL    HW114834   2.724   4.375   1.682
 4645SOL    HW214835   2.629   4.242   1.690
 4646SOL     OW14836   3.257   4.950   1.663
 4646SOL    HW114837   3.279   4.950   1.760
 4646SOL    HW214838   3.342   4.955   1.610
 4647SOL     OW14839   2.219   5.483   1.559
 4647SOL    HW114840   2.128   5.522   1.547
 4647SOL    HW214841   2.210   5.389   1.593
 4648SOL     OW14842   3.505   4.633   1.289
 4648SOL    HW114843   3.490   4.545   1.244
 4648SOL    HW214844   3.508   4.706   1.220
 4649SOL     OW14845   3.108   4.077   0.465
 4649SOL    HW114846   3.189   4.021   0.450
 4649SOL    HW214847   3.121   4.134   0.546
 4650SOL     OW14848   2.433   4.424   0.648
 4650SOL    HW114849   2.476   4.515   0.650
 4650SOL    HW214850   2.359   4.424   0.581
 4651SOL     OW14851   3.642   4.105   1.510
 4651SOL    HW114852   3.682   4.083   1.421
 4651SOL    HW214853   3.599   4.022   1.548
 4652SOL     OW14854   3.686   4.634   1.503
 4652SOL    HW114855   3.646   4.661   1.591
 4652SOL    HW214856   3.616   4.638   1.432
 4653SOL     OW14857   2.834   5.108   0.145
 4653SOL    HW114858   2.784   5.065   0.220
 4653SOL    HW214859   2.789   5.193   0.118
 4654SOL     OW14860   2.554   5.453   0.934
 4654SOL    HW114861   2.530   5.550   0.930
 4654SOL    HW214862   2.654   5.443   0.928
 4655SOL     OW14863   2.713   4.719   0.888
 4655SOL    HW114864   2.771   4.644   0.921
 4655SOL    HW214865   2.670   4.764   0.966
 4656SOL     OW14866   2.859   4.675   0.027
 4656SOL    HW114867   2.896   4.767   0.013
 4656SOL    HW214868   2.935   4.610   0.037
 4657SOL     OW14869   3.724   5.231   0.865
 4657SOL    HW114870   3.636   5.221   0.818
 4657SOL    HW214871   3.750   5.143   0.905
 4658SOL     OW14872   2.129   5.031   1.831
 4658SOL    HW114873   2.072   4.955   1.799
 4658SOL    HW214874   2.125   5.036   1.930
 4659SOL     OW14875   1.965   4.887   0.687
 4659SOL    HW114876   2.023   4.863   0.765
 4659SOL    HW214877   2.016   4.872   0.602
 4660SOL     OW14878   2.523   5.221   1.606
 4660SOL    HW114879   2.456   5.151   1.630
 4660SOL    HW214880   2.527   5.290   1.678
 4661SOL     OW14881   2.208   4.114   0.479
 4661SOL    HW114882   2.273   4.048   0.440
 4661SOL    HW214883   2.177   4.081   0.568
 4662SOL     OW14884   3.510   5.185   1.117
 4662SOL    HW114885   3.447   5.158   1.044
 4662SOL    HW214886   3.505   5.118   1.191
 4663SOL     OW14887   2.270   4.256   1.296
 4663SOL    HW114888   2.283   4.198   1.376
 4663SOL    HW214889   2.323   4.219   1.219
 4664SOL     OW14890   2.696   5.251   0.696
 4664SOL    HW114891   2.626   5.245   0.625
 4664SOL    HW214892   2.661   5.210   0.781
 4665SOL     OW14893   3.278   3.922   1.199
 4665SOL    HW114894   3.217   3.847   1.175
 4665SOL    HW214895   3.224   4.001   1.229
 4666SOL     OW14896   2.835   3.665   1.126
 4666SOL    HW114897   2.814   3.588   1.186
 4666SOL    HW214898   2.932   3.688   1.134
 4667SOL     OW14899   2.680   5.030   0.367
 4667SOL    HW114900   2.642   4.940   0.385
 4667SOL    HW214901   2.757   5.047   0.428
 4668SOL     OW14902   2.474   5.336   1.252
 4668SOL    HW114903   2.461   5.421   1.303
 4668SOL    HW214904   2.567   5.334   1.215
 4669SOL     OW14905   3.242   3.806   0.244
 4669SOL    HW114906   3.318   3.749   0.278
 4669SOL    HW214907   3.156   3.756   0.255
 4670SOL     OW14908   3.131   4.241   0.681
 4670SOL    HW114909   3.082   4.326   0.667
 4670SOL    HW214910   3.119   4.211   0.776
 4671SOL     OW14911   3.294   3.986   0.925
 4671SOL    HW114912   3.319   3.961   1.019
 4671SOL    HW214913   3.370   4.037   0.883
 4672SOL     OW14914   1.861   4.728   0.236
 4672SOL    HW114915   1.960   4.725   0.221
 4672SOL    HW214916   1.836   4.666   0.310
 4673SOL     OW14917   2.784   5.399   0.361
 4673SOL    HW114918   2.714   5.369   0.297
 4673SOL    HW214919   2.749   5.473   0.417
 4674SOL     OW14920   1.999   4.443   2.048
 4674SOL    HW114921   1.907   4.406   2.064
 4674SOL    HW214922   2.045   4.389   1.978
 4675SOL     OW14923   2.086   4.002   2.835
 4675SOL    HW114924   2.115   3.975   2.927
 4675SOL    HW214925   1.991   3.976   2.821
 4676SOL     OW14926   1.857   4.154   2.489
 4676SOL    HW114927   1.776   4.171   2.545
 4676SOL    HW214928   1.834   4.088   2.417
 4677SOL     OW14929   2.418   5.055   3.090
 4677SOL    HW114930   2.332   5.047   3.039
 4677SOL    HW214931   2.436   5.151   3.111
 4678SOL     OW14932   3.469   5.240   2.558
 4678SOL    HW114933   3.409   5.225   2.637
 4678SOL    HW214934   3.414   5.264   2.478
 4679SOL     OW14935   3.664   4.106   1.920
 4679SOL    HW114936   3.635   4.166   1.845
 4679SOL    HW214937   3.601   4.116   1.997
 4680SOL     OW14938   2.579   4.895   2.932
 4680SOL    HW114939   2.523   4.936   3.005
 4680SOL    HW214940   2.611   4.967   2.871
 4681SOL     OW14941   2.558   4.667   3.689
 4681SOL    HW114942   2.629   4.655   3.758
 4681SOL    HW214943   2.553   4.763   3.662
 4682SOL     OW14944   2.550   4.733   2.487
 4682SOL    HW114945   2.613   4.738   2.564
 4682SOL    HW214946   2.473   4.794   2.503
 4683SOL     OW14947   2.554   4.933   3.642
 4683SOL    HW114948   2.599   5.002   3.699
 4683SOL    HW214949   2.462   4.963   3.618
 4684SOL     OW14950   2.186   5.120   2.931
 4684SOL    HW114951   2.104   5.080   2.890
 4684SOL    HW214952   2.237   5.171   2.862
 4685SOL     OW14953   3.265   5.277   3.245
 4685SOL    HW114954   3.335   5.345   3.267
 4685SOL    HW214955   3.190   5.285   3.311
 4686SOL     OW14956   2.217   4.161   3.514
 4686SOL    HW114957   2.234   4.111   3.599
 4686SOL    HW214958   2.182   4.098   3.445
 4687SOL     OW14959   3.405   4.133   2.632
 4687SOL    HW114960   3.310   4.125   2.601
 4687SOL    HW214961   3.407   4.175   2.723
 4688SOL     OW14962   2.098   5.468   2.339
 4688SOL    HW114963   2.116   5.536   2.409
 4688SOL    HW214964   2.169   5.471   2.269
 4689SOL     OW14965   2.968   5.099   3.567
 4689SOL    HW114966   3.047   5.068   3.619
 4689SOL    HW214967   2.914   5.020   3.539
 4690SOL     OW14968   2.098   5.191   2.347
 4690SOL    HW114969   2.094   5.290   2.363
 4690SOL    HW214970   2.059   5.143   2.426
 4691SOL     OW14971   2.144   4.845   2.711
 4691SOL    HW114972   2.167   4.752   2.739
 4691SOL    HW214973   2.087   4.888   2.781
 4692SOL     OW14974   2.420   5.562   3.282
 4692SOL    HW114975   2.338   5.541   3.335
 4692SOL    HW214976   2.472   5.634   3.328
 4693SOL     OW14977   2.381   4.752   2.006
 4693SOL    HW114978   2.437   4.790   1.932
 4693SOL    HW214979   2.424   4.774   2.094
 4694SOL     OW14980   3.413   3.861   3.261
 4694SOL    HW114981   3.493   3.919   3.245
 4694SOL    HW214982   3.389   3.865   3.358
 4695SOL     OW14983   1.969   4.410   2.445
 4695SOL    HW114984   1.938   4.316   2.461
 4695SOL    HW214985   1.977   4.458   2.532
 4696SOL     OW14986   3.717   5.515   2.158
 4696SOL    HW114987   3.790   5.499   2.226
 4696SOL    HW214988   3.722   5.610   2.127
 4697SOL     OW14989   1.895   5.293   1.982
 4697SOL    HW114990   1.877   5.195   1.994
 4697SOL    HW214991   1.883   5.340   2.069
 4698SOL     OW14992   3.465   4.892   2.277
 4698SOL    HW114993   3.518   4.855   2.201
 4698SOL    HW214994   3.528   4.926   2.348
 4699SOL     OW14995   1.957   4.495   3.422
 4699SOL    HW114996   2.044   4.544   3.420
 4699SOL    HW214997   1.884   4.558   3.396
 4700SOL     OW14998   2.469   5.135   2.558
 4700SOL    HW114999   2.426   5.044   2.555
 4700SOL    HW215000   2.468   5.175   2.466
 4701SOL     OW15001   3.085   4.978   3.316
 4701SOL    HW115002   3.126   4.935   3.235
 4701SOL    HW215003   3.151   4.979   3.390
 4702SOL     OW15004   2.108   4.661   3.182
 4702SOL    HW115005   2.202   4.629   3.194
 4702SOL    HW215006   2.069   4.621   3.099
 4703SOL     OW15007   3.113   5.587   3.503
 4703SOL    HW115008   3.078   5.646   3.430
 4703SOL    HW215009   3.101   5.491   3.478
 4704SOL     OW15010   2.184   4.027   3.761
 4704SOL    HW115011   2.222   4.096   3.822
 4704SOL    HW215012   2.086   4.042   3.751
 4705SOL     OW15013   3.287   5.206   2.768
 4705SOL    HW115014   3.240   5.228   2.853
 4705SOL    HW215015   3.263   5.113   2.739
 4706SOL     OW15016   3.499   5.600   2.388
 4706SOL    HW115017   3.488   5.537   2.312
 4706SOL    HW215018   3.516   5.548   2.472
 4707SOL     OW15019   2.363   4.438   2.069
 4707SOL    HW115020   2.405   4.526   2.046
 4707SOL    HW215021   2.316   4.446   2.157
 4708SOL     OW15022   3.134   4.028   2.889
 4708SOL    HW115023   3.050   3.979   2.867
 4708SOL    HW215024   3.199   3.964   2.931
 4709SOL     OW15025   3.458   5.426   2.177
 4709SOL    HW115026   3.556   5.442   2.163
 4709SOL    HW215027   3.415   5.406   2.089
 4710SOL     OW15028   3.311   4.183   3.592
 4710SOL    HW115029   3.305   4.184   3.692
 4710SOL    HW215030   3.405   4.164   3.565
 4711SOL     OW15031   1.959   4.566   2.681
 4711SOL    HW115032   2.052   4.562   2.717
 4711SOL    HW215033   1.908   4.638   2.729
 4712SOL     OW15034   1.941   5.638   3.463
 4712SOL    HW115035   1.951   5.593   3.552
 4712SOL    HW215036   1.844   5.641   3.439
 4713SOL     OW15037   3.247   4.919   2.444
 4713SOL    HW115038   3.324   4.893   2.386
 4713SOL    HW215039   3.188   4.983   2.394
 4714SOL     OW15040   2.859   5.223   2.352
 4714SOL    HW115041   2.837   5.294   2.285
 4714SOL    HW215042   2.816   5.246   2.440
 4715SOL     OW15043   2.212   5.520   2.750
 4715SOL    HW115044   2.248   5.427   2.748
 4715SOL    HW215045   2.284   5.583   2.779
 4716SOL     OW15046   3.639   4.928   2.748
 4716SOL    HW115047   3.614   4.933   2.651
 4716SOL    HW215048   3.557   4.910   2.802
 4717SOL     OW15049   3.045   5.317   3.406
 4717SOL    HW115050   3.032   5.235   3.462
 4717SOL    HW215051   2.966   5.328   3.345
 4718SOL     OW15052   2.124   4.677   2.117
 4718SOL    HW115053   2.210   4.692   2.068
 4718SOL    HW215054   2.087   4.588   2.091
 4719SOL     OW15055   2.308   5.052   3.593
 4719SOL    HW115056   2.284   5.053   3.496
 4719SOL    HW215057   2.226   5.036   3.648
 4720SOL     OW15058   3.015   5.487   2.104
 4720SOL    HW115059   2.923   5.473   2.140
 4720SOL    HW215060   3.041   5.409   2.048
 4721SOL     OW15061   2.085   3.974   3.347
 4721SOL    HW115062   2.001   4.026   3.331
 4721SOL    HW215063   2.062   3.887   3.392
 4722SOL     OW15064   3.523   5.169   1.956
 4722SOL    HW115065   3.466   5.249   1.941
 4722SOL    HW215066   3.471   5.086   1.934
 4723SOL     OW15067   2.313   5.521   2.175
 4723SOL    HW115068   2.359   5.568   2.250
 4723SOL    HW215069   2.380   5.470   2.121
 4724SOL     OW15070   3.289   3.853   2.304
 4724SOL    HW115071   3.283   3.828   2.207
 4724SOL    HW215072   3.384   3.878   2.325
 4725SOL     OW15073   2.070   5.520   3.070
 4725SOL    HW115074   2.121   5.442   3.105
 4725SOL    HW215075   2.040   5.501   2.976
 4726SOL     OW15076   2.814   5.434   2.753
 4726SOL    HW115077   2.905   5.392   2.753
 4726SOL    HW215078   2.759   5.394   2.680
 4727SOL     OW15079   2.231   4.404   2.316
 4727SOL    HW115080   2.241   4.305   2.313
 4727SOL    HW215081   2.137   4.427   2.342
 4728SOL     OW15082   3.393   3.872   3.538
 4728SOL    HW115083   3.407   3.894   3.635
 4728SOL    HW215084   3.323   3.800   3.530
 4729SOL     OW15085   2.687   5.244   3.033
 4729SOL    HW115086   2.670   5.201   2.944
 4729SOL    HW215087   2.753   5.190   3.084
 4730SOL     OW15088   2.645   5.112   2.782
 4730SOL    HW115089   2.739   5.117   2.748
 4730SOL    HW215090   2.581   5.122   2.706
 4731SOL     OW15091   3.375   4.943   1.912
 4731SOL    HW115092   3.454   4.884   1.926
 4731SOL    HW215093   3.310   4.931   1.987
 4732SOL     OW15094   2.111   3.709   2.012
 4732SOL    HW115095   2.172   3.779   1.976
 4732SOL    HW215096   2.143   3.619   1.984
 4733SOL     OW15097   3.062   5.331   2.650
 4733SOL    HW115098   3.079   5.399   2.579
 4733SOL    HW215099   3.150   5.297   2.686
 4734SOL     OW15100   2.334   4.898   2.523
 4734SOL    HW115101   2.272   4.879   2.598
 4734SOL    HW215102   2.285   4.892   2.436
 4735SOL     OW15103   3.109   5.537   2.470
 4735SOL    HW115104   3.158   5.601   2.411
 4735SOL    HW215105   3.028   5.582   2.509
 4736SOL     OW15106   1.984   4.280   3.254
 4736SOL    HW115107   2.081   4.278   3.231
 4736SOL    HW215108   1.967   4.354   3.320
 4737SOL     OW15109   2.913   3.756   2.572
 4737SOL    HW115110   2.944   3.828   2.511
 4737SOL    HW215111   2.867   3.684   2.520
 4738SOL     OW15112   3.214   4.951   2.711
 4738SOL    HW115113   3.124   4.912   2.726
 4738SOL    HW215114   3.242   4.935   2.617
 4739SOL     OW15115   3.360   4.184   2.903
 4739SOL    HW115116   3.274   4.136   2.886
 4739SOL    HW215117   3.366   4.209   3.000
 4740SOL     OW15118   2.367   5.199   2.059
 4740SOL    HW115119   2.279   5.151   2.061
 4740SOL    HW215120   2.431   5.149   2.001
 4741SOL     OW15121   3.613   5.004   2.481
 4741SOL    HW115122   3.711   5.016   2.466
 4741SOL    HW215123   3.571   5.094   2.493
 4742SOL     OW15124   3.559   5.005   3.381
 4742SOL    HW115125   3.629   4.934   3.373
 4742SOL    HW215126   3.598   5.086   3.424
 4743SOL     OW15127   2.852   5.074   3.192
 4743SOL    HW115128   2.768   5.053   3.241
 4743SOL    HW215129   2.931   5.044   3.245
 4744SOL     OW15130   3.490   5.340   3.567
 4744SOL    HW115131   3.454   5.386   3.487
 4744SOL    HW215132   3.579   5.300   3.545
 4745SOL     OW15133   2.988   5.028   2.956
 4745SOL    HW115134   2.925   5.038   3.033
 4745SOL    HW215135   2.943   5.055   2.871
 4746SOL     OW15136   3.414   4.922   2.907
 4746SOL    HW115137   3.413   4.990   2.980
 4746SOL    HW215138   3.338   4.940   2.844
 4747SOL     OW15139   2.885   3.746   3.289
 4747SOL    HW115140   2.876   3.747   3.190
 4747SOL    HW215141   2.951   3.816   3.317
 4748SOL     OW15142   2.802   4.873   3.538
 4748SOL    HW115143   2.713   4.902   3.573
 4748SOL    HW215144   2.790   4.818   3.456
 4749SOL     OW15145   2.564   4.821   2.222
 4749SOL    HW115146   2.565   4.783   2.314
 4749SOL    HW215147   2.615   4.761   2.160
 4750SOL     OW15148   2.359   4.542   3.197
 4750SOL    HW115149   2.414   4.552   3.280
 4750SOL    HW215150   2.325   4.448   3.190
 4751SOL     OW15151   3.144   4.088   3.169
 4751SOL    HW115152   3.236   4.126   3.177
 4751SOL    HW215153   3.119   4.079   3.073
 4752SOL     OW15154   1.907   5.281   3.207
 4752SOL    HW115155   1.866   5.354   3.152
 4752SOL    HW215156   2.007   5.290   3.204
 4753SOL     OW15157   2.170   4.875   2.301
 4753SOL    HW115158   2.168   4.950   2.235
 4753SOL    HW215159   2.155   4.789   2.253
 4754SOL     OW15160   2.346   4.349   2.720
 4754SOL    HW115161   2.370   4.396   2.636
 4754SOL    HW215162   2.422   4.291   2.750
 4755SOL     OW15163   3.106   5.112   2.310
 4755SOL    HW115164   3.174   5.184   2.324
 4755SOL    HW215165   3.015   5.150   2.326
 4756SOL     OW15166   3.152   5.243   3.000
 4756SOL    HW115167   3.192   5.250   3.091
 4756SOL    HW215168   3.093   5.163   2.995
 4757SOL     OW15169   2.182   5.276   3.152
 4757SOL    HW115170   2.174   5.215   3.073
 4757SOL    HW215171   2.277   5.301   3.166
 4758SOL     OW15172   2.279   4.438   3.497
 4758SOL    HW115173   2.371   4.469   3.471
 4758SOL    HW215174   2.277   4.338   3.496
 4759SOL     OW15175   2.911   3.801   3.606
 4759SOL    HW115176   2.969   3.881   3.614
 4759SOL    HW215177   2.879   3.792   3.512
 4760SOL     OW15178   2.400   4.678   2.957
 4760SOL    HW115179   2.469   4.750   2.956
 4760SOL    HW215180   2.398   4.635   3.048
 4761SOL     OW15181   2.138   3.898   3.079
 4761SOL    HW115182   2.131   3.927   3.175
 4761SOL    HW215183   2.127   3.799   3.073
 4762SOL     OW15184   1.910   5.024   3.107
 4762SOL    HW115185   1.944   4.964   3.180
 4762SOL    HW215186   1.897   5.117   3.144
 4763SOL     OW15187   2.102   3.770   2.509
 4763SOL    HW115188   2.105   3.870   2.509
 4763SOL    HW215189   2.117   3.735   2.601
 4764SOL     OW15190   3.482   4.114   2.124
 4764SOL    HW115191   3.505   4.046   2.194
 4764SOL    HW215192   3.457   4.200   2.169
 4765SOL     OW15193   2.834   5.319   3.651
 4765SOL    HW115194   2.800   5.373   3.574
 4765SOL    HW215195   2.873   5.233   3.616
 4766SOL     OW15196   3.718   5.215   3.479
 4766SOL    HW115197   3.758   5.257   3.397
 4766SOL    HW215198   3.791   5.189   3.542
 4767SOL     OW15199   2.175   4.635   3.657
 4767SOL    HW115200   2.234   4.651   3.736
 4767SOL    HW215201   2.212   4.560   3.602
 4768SOL     OW15202   3.345   3.989   1.903
 4768SOL    HW115203   3.310   3.910   1.953
 4768SOL    HW215204   3.394   4.049   1.966
 4769SOL     OW15205   2.902   5.113   2.705
 4769SOL    HW115206   2.928   5.026   2.664
 4769SOL    HW215207   2.962   5.185   2.671
 4770SOL     OW15208   2.214   4.586   2.787
 4770SOL    HW115209   2.277   4.627   2.853
 4770SOL    HW215210   2.252   4.501   2.752
 4771SOL     OW15211   2.153   4.261   2.895
 4771SOL    HW115212   2.129   4.168   2.868
 4771SOL    HW215213   2.217   4.299   2.828
 4772SOL     OW15214   3.084   4.032   3.623
 4772SOL    HW115215   3.070   4.043   3.722
 4772SOL    HW215216   3.163   4.087   3.595
 4773SOL     OW15217   3.069   3.924   3.371
 4773SOL    HW115218   3.073   3.973   3.458
 4773SOL    HW215219   3.096   3.985   3.297
 4774SOL     OW15220   1.855   5.014   2.046
 4774SOL    HW115221   1.765   5.043   2.013
 4774SOL    HW215222   1.850   4.919   2.078
 4775SOL     OW15223   1.951   5.477   2.818
 4775SOL    HW115224   1.919   5.392   2.777
 4775SOL    HW215225   2.043   5.497   2.784
 4776SOL     OW15226   2.333   5.271   2.756
 4776SOL    HW115227   2.408   5.325   2.796
 4776SOL    HW215228   2.367   5.218   2.679
 4777SOL     OW15229   1.897   4.326   2.998
 4777SOL    HW115230   1.979   4.316   2.941
 4777SOL    HW215231   1.922   4.314   3.094
 4778SOL     OW15232   2.021   4.324   3.634
 4778SOL    HW115233   2.097   4.276   3.592
 4778SOL    HW215234   1.985   4.392   3.570
 4779SOL     OW15235   3.400   4.193   3.183
 4779SOL    HW115236   3.407   4.211   3.281
 4779SOL    HW215237   3.492   4.190   3.144
 4780SOL     OW15238   2.072   5.282   3.561
 4780SOL    HW115239   2.049   5.357   3.623
 4780SOL    HW215240   2.079   5.197   3.613
 4781SOL     OW15241   2.726   5.443   3.416
 4781SOL    HW115242   2.670   5.377   3.367
 4781SOL    HW215243   2.750   5.518   3.355
 4782SOL     OW15244   2.282   4.178   2.035
 4782SOL    HW115245   2.329   4.266   2.037
 4782SOL    HW215246   2.256   4.152   2.128
 4783SOL     OW15247   1.996   4.867   3.319
 4783SOL    HW115248   1.993   4.842   3.416
 4783SOL    HW215249   2.037   4.792   3.267
 4784SOL     OW15250   3.183   4.883   3.082
 4784SOL    HW115251   3.262   4.854   3.029
 4784SOL    HW215252   3.115   4.924   3.021
 4785SOL     OW15253   3.670   5.456   3.062
 4785SOL    HW115254   3.736   5.473   2.989
 4785SOL    HW215255   3.595   5.400   3.027
 4786SOL     OW15256   3.110   5.514   2.985
 4786SOL    HW115257   3.201   5.549   2.963
 4786SOL    HW215258   3.112   5.415   2.991
 4787SOL     OW15259   1.943   4.996   2.842
 4787SOL    HW115260   1.925   5.008   2.940
 4787SOL    HW215261   1.887   4.921   2.807
 4788SOL     OW15262   2.542   5.467   3.623
 4788SOL    HW115263   2.473   5.538   3.613
 4788SOL    HW215264   2.615   5.481   3.556
 4789SOL     OW15265   3.576   3.912   2.299
 4789SOL    HW115266   3.647   3.908   2.228
 4789SOL    HW215267   3.570   3.823   2.345
 4790SOL     OW15268   3.281   5.328   2.368
 4790SOL    HW115269   3.338   5.358   2.291
 4790SOL    HW215270   3.216   5.400   2.392
 4791SOL     OW15271   1.990   5.510   3.701
 4791SOL    HW115272   1.941   5.439   3.751
 4791SOL    HW215273   2.047   5.562   3.765
 4792SOL     OW15274   2.601   5.024   3.300
 4792SOL    HW115275   2.579   5.088   3.374
 4792SOL    HW215276   2.528   5.026   3.232
 4793SOL     OW15277   2.534   5.418   2.034
 4793SOL    HW115278   2.554   5.425   1.937
 4793SOL    HW215279   2.489   5.331   2.053
 4794SOL     OW15280   3.466   5.457   3.298
 4794SOL    HW115281   3.539   5.447   3.231
 4794SOL    HW215282   3.446   5.554   3.311
 4795SOL     OW15283   3.698   3.822   2.845
 4795SOL    HW115284   3.746   3.745   2.802
 4795SOL    HW215285   3.614   3.841   2.796
 4796SOL     OW15286   2.104   4.047   2.547
 4796SOL    HW115287   2.015   4.088   2.527
 4796SOL    HW215288   2.118   4.043   2.646
 4797SOL     OW15289   3.085   5.279   1.939
 4797SOL    HW115290   3.101   5.185   1.970
 4797SOL    HW215291   3.000   5.282   1.886
 4798SOL     OW15292   2.689   4.761   3.304
 4798SOL    HW115293   2.741   4.747   3.220
 4798SOL    HW215294   2.649   4.853   3.304
 4799SOL     OW15295   2.682   4.646   2.059
 4799SOL    HW115296   2.726   4.644   1.969
 4799SOL    HW215297   2.709   4.564   2.111
 4800SOL     OW15298   3.343   5.391   1.922
 4800SOL    HW115299   3.252   5.349   1.917
 4800SOL    HW215300   3.383   5.394   1.830
 4801SOL     OW15301   2.207   5.057   3.344
 4801SOL    HW115302   2.194   5.135   3.283
 4801SOL    HW215303   2.134   4.990   3.327
 4802SOL     OW15304   3.437   5.096   3.134
 4802SOL    HW115305   3.490   5.047   3.203
 4802SOL    HW215306   3.364   5.148   3.178
 4803SOL     OW15307   2.952   4.852   2.641
 4803SOL    HW115308   2.867   4.806   2.668
 4803SOL    HW215309   2.990   4.807   2.559
 4804SOL     OW15310   2.928   3.878   2.816
 4804SOL    HW115311   2.919   3.833   2.728
 4804SOL    HW215312   2.898   3.816   2.889
 4805SOL     OW15313   2.486   5.235   2.310
 4805SOL    HW115314   2.563   5.184   2.272
 4805SOL    HW215315   2.412   5.237   2.243
 4806SOL     OW15316   3.653   3.999   3.223
 4806SOL    HW115317   3.650   4.064   3.147
 4806SOL    HW215318   3.678   3.909   3.188
 4807SOL     OW15319   2.113   5.074   2.107
 4807SOL    HW115320   2.018   5.051   2.084
 4807SOL    HW215321   2.114   5.128   2.192
 4808SOL     OW15322   1.970   4.795   3.580
 4808SOL    HW115323   1.886   4.776   3.631
 4808SOL    HW215324   2.042   4.733   3.612
 4809SOL     OW15325   1.944   4.052   1.855
 4809SOL    HW115326   1.875   4.060   1.784
 4809SOL    HW215327   1.993   4.138   1.865
 4810SOL     OW15328   1.907   3.880   2.073
 4810SOL    HW115329   1.904   3.948   2.000
 4810SOL    HW215330   1.986   3.820   2.061
 4811SOL     OW15331   3.109   5.022   2.037
 4811SOL    HW115332   3.054   4.944   2.009
 4811SOL    HW215333   3.105   5.032   2.137
 4812SOL     OW15334   2.517   4.577   3.427
 4812SOL    HW115335   2.582   4.633   3.377
 4812SOL    HW215336   2.527   4.593   3.525
 4813SOL     OW15337   3.370   5.575   2.923
 4813SOL    HW115338   3.417   5.615   2.844
 4813SOL    HW215339   3.409   5.485   2.943
 4814SOL     OW15340   3.296   4.975   3.515
 4814SOL    HW115341   3.318   4.960   3.611
 4814SOL    HW215342   3.380   4.983   3.462
 4815SOL     OW15343   2.195   5.509   3.440
 4815SOL    HW115344   2.110   5.559   3.426
 4815SOL    HW215345   2.176   5.416   3.468
 4816SOL     OW15346   3.050   3.935   2.422
 4816SOL    HW115347   3.125   3.912   2.360
 4816SOL    HW215348   3.083   3.999   2.491
 4817SOL     OW15349   2.418   4.485   2.502
 4817SOL    HW115350   2.468   4.570   2.484
 4817SOL    HW215351   2.357   4.465   2.426
 4818SOL     OW15352   3.552   4.083   3.466
 4818SOL    HW115353   3.594   4.061   3.378
 4818SOL    HW215354   3.499   4.004   3.498
 4819SOL     OW15355   2.621   5.136   1.934
 4819SOL    HW115356   2.651   5.115   2.027
 4819SOL    HW215357   2.693   5.185   1.885
 4820SOL     OW15358   2.530   5.440   2.826
 4820SOL    HW115359   2.506   5.536   2.816
 4820SOL    HW215360   2.630   5.432   2.831
 4821SOL     OW15361   2.705   4.736   2.727
 4821SOL    HW115362   2.702   4.639   2.750
 4821SOL    HW215363   2.662   4.789   2.800
 4822SOL     OW15364   2.950   4.820   1.930
 4822SOL    HW115365   2.895   4.870   1.863
 4822SOL    HW215366   2.935   4.722   1.919
 4823SOL     OW15367   3.703   5.267   2.712
 4823SOL    HW115368   3.624   5.262   2.650
 4823SOL    HW215369   3.728   5.175   2.742
 4824SOL     OW15370   2.050   5.033   3.690
 4824SOL    HW115371   2.025   4.951   3.638
 4824SOL    HW215372   1.997   5.037   3.774
 4825SOL     OW15373   2.000   4.964   2.504
 4825SOL    HW115374   2.044   4.925   2.584
 4825SOL    HW215375   2.045   4.930   2.421
 4826SOL     OW15376   2.517   5.215   3.489
 4826SOL    HW115377   2.441   5.162   3.526
 4826SOL    HW215378   2.531   5.297   3.544
 4827SOL     OW15379   3.720   3.767   3.112
 4827SOL    HW115380   3.809   3.721   3.116
 4827SOL    HW215381   3.698   3.787   3.016
 4828SOL     OW15382   2.250   4.127   2.318
 4828SOL    HW115383   2.337   4.077   2.319
 4828SOL    HW215384   2.194   4.098   2.396
 4829SOL     OW15385   3.469   5.309   2.960
 4829SOL    HW115386   3.427   5.279   2.874
 4829SOL    HW215387   3.467   5.234   3.026
 4830SOL     OW15388   2.246   4.284   3.154
 4830SOL    HW115389   2.299   4.202   3.176
 4830SOL    HW215390   2.215   4.280   3.059
 4831SOL     OW15391   2.676   5.343   2.538
 4831SOL    HW115392   2.653   5.412   2.470
 4831SOL    HW215393   2.602   5.277   2.546
 4832SOL     OW15394   3.322   3.872   3.001
 4832SOL    HW115395   3.330   3.778   2.968
 4832SOL    HW215396   3.341   3.875   3.099
 4833SOL     OW15397   2.880   3.695   3.016
 4833SOL    HW115398   2.819   3.616   3.018
 4833SOL    HW215399   2.974   3.664   3.000
 4834SOL     OW15400   2.674   5.074   2.194
 4834SOL    HW115401   2.642   4.980   2.206
 4834SOL    HW215402   2.758   5.087   2.247
 4835SOL     OW15403   2.452   5.325   3.147
 4835SOL    HW115404   2.451   5.414   3.194
 4835SOL    HW215405   2.539   5.314   3.100
 4836SOL     OW15406   3.276   3.766   2.046
 4836SOL    HW115407   3.334   3.703   1.994
 4836SOL    HW215408   3.190   3.721   2.069
 4837SOL     OW15409   3.132   4.104   2.621
 4837SOL    HW115410   3.065   4.178   2.610
 4837SOL    HW215411   3.128   4.069   2.714
 4838SOL     OW15412   3.453   3.884   2.750
 4838SOL    HW115413   3.408   3.904   2.837
 4838SOL    HW215414   3.443   3.962   2.689
 4839SOL     OW15415   1.864   4.756   2.175
 4839SOL    HW115416   1.959   4.741   2.147
 4839SOL    HW215417   1.823   4.669   2.202
 4840SOL     OW15418   2.761   5.435   2.202
 4840SOL    HW115419   2.685   5.422   2.139
 4840SOL    HW215420   2.738   5.509   2.266
 4841SOL     OW15421   2.030   4.401   3.899
 4841SOL    HW115422   1.941   4.367   3.929
 4841SOL    HW215423   2.037   4.393   3.800
 4842SOL     OW15424   2.107   4.016   4.765
 4842SOL    HW115425   2.161   4.018   4.849
 4842SOL    HW215426   2.010   4.006   4.788
 4843SOL     OW15427   1.872   4.156   4.382
 4843SOL    HW115428   1.787   4.174   4.431
 4843SOL    HW215429   1.854   4.092   4.307
 4844SOL     OW15430   2.394   5.069   5.008
 4844SOL    HW115431   2.335   5.053   4.928
 4844SOL    HW215432   2.415   5.167   5.014
 4845SOL     OW15433   3.426   5.268   4.431
 4845SOL    HW115434   3.370   5.243   4.510
 4845SOL    HW215435   3.367   5.286   4.352
 4846SOL     OW15436   3.541   4.217   3.895
 4846SOL    HW115437   3.453   4.254   3.864
 4846SOL    HW215438   3.529   4.170   3.982
 4847SOL     OW15439   2.617   4.833   4.782
 4847SOL    HW115440   2.674   4.819   4.863
 4847SOL    HW215441   2.610   4.931   4.762
 4848SOL     OW15442   2.791   4.459   5.471
 4848SOL    HW115443   2.813   4.543   5.521
 4848SOL    HW215444   2.795   4.477   5.373
 4849SOL     OW15445   2.564   4.743   4.320
 4849SOL    HW115446   2.629   4.736   4.396
 4849SOL    HW215447   2.481   4.789   4.351
 4850SOL     OW15448   2.545   4.863   5.599
 4850SOL    HW115449   2.630   4.914   5.613
 4850SOL    HW215450   2.480   4.921   5.549
 4851SOL     OW15451   2.200   5.104   4.792
 4851SOL    HW115452   2.107   5.090   4.758
 4851SOL    HW215453   2.248   5.169   4.732
 4852SOL     OW15454   3.263   5.302   5.109
 4852SOL    HW115455   3.330   5.374   5.125
 4852SOL    HW215456   3.194   5.304   5.182
 4853SOL     OW15457   3.421   4.150   4.468
 4853SOL    HW115458   3.331   4.151   4.423
 4853SOL    HW215459   3.411   4.179   4.563
 4854SOL     OW15460   2.093   5.473   4.193
 4854SOL    HW115461   2.115   5.538   4.265
 4854SOL    HW215462   2.167   5.473   4.125
 4855SOL     OW15463   2.983   5.042   5.432
 4855SOL    HW115464   3.025   5.008   5.516
 4855SOL    HW215465   2.943   4.965   5.382
 4856SOL     OW15466   2.154   5.206   4.238
 4856SOL    HW115467   2.117   5.299   4.239
 4856SOL    HW215468   2.108   5.150   4.307
 4857SOL     OW15469   2.158   4.859   4.609
 4857SOL    HW115470   2.140   4.763   4.633
 4857SOL    HW215471   2.189   4.908   4.690
 4858SOL     OW15472   2.392   5.568   5.157
 4858SOL    HW115473   2.327   5.530   5.223
 4858SOL    HW215474   2.451   5.635   5.203
 4859SOL     OW15475   2.369   4.686   3.887
 4859SOL    HW115476   2.429   4.669   3.809
 4859SOL    HW215477   2.414   4.751   3.950
 4860SOL     OW15478   3.409   3.866   5.207
 4860SOL    HW115479   3.493   3.919   5.193
 4860SOL    HW215480   3.364   3.898   5.290
 4861SOL     OW15481   1.953   4.428   4.321
 4861SOL    HW115482   1.938   4.333   4.348
 4861SOL    HW215483   1.943   4.487   4.400
 4862SOL     OW15484   3.718   5.497   4.050
 4862SOL    HW115485   3.797   5.484   4.110
 4862SOL    HW215486   3.721   5.589   4.011
 4863SOL     OW15487   1.890   5.307   3.845
 4863SOL    HW115488   1.859   5.213   3.859
 4863SOL    HW215489   1.880   5.359   3.929
 4864SOL     OW15490   3.453   4.942   4.082
 4864SOL    HW115491   3.538   4.900   4.050
 4864SOL    HW215492   3.471   4.990   4.168
 4865SOL     OW15493   2.096   4.480   5.318
 4865SOL    HW115494   2.196   4.482   5.321
 4865SOL    HW215495   2.060   4.569   5.345
 4866SOL     OW15496   2.463   5.100   4.469
 4866SOL    HW115497   2.426   5.008   4.457
 4866SOL    HW215498   2.451   5.151   4.384
 4867SOL     OW15499   3.102   5.023   5.142
 4867SOL    HW115500   3.133   4.967   5.064
 4867SOL    HW215501   3.156   5.000   5.223
 4868SOL     OW15502   2.099   4.689   4.995
 4868SOL    HW115503   2.183   4.639   5.015
 4868SOL    HW215504   2.065   4.664   4.904
 4869SOL     OW15505   3.099   5.589   5.380
 4869SOL    HW115506   3.066   5.644   5.304
 4869SOL    HW215507   3.091   5.492   5.357
 4870SOL     OW15508   2.206   3.991   5.618
 4870SOL    HW115509   2.242   4.073   5.662
 4870SOL    HW215510   2.109   4.005   5.596
 4871SOL     OW15511   3.263   5.194   4.642
 4871SOL    HW115512   3.215   5.197   4.730
 4871SOL    HW215513   3.250   5.104   4.600
 4872SOL     OW15514   3.492   5.601   4.265
 4872SOL    HW115515   3.481   5.537   4.189
 4872SOL    HW215516   3.506   5.550   4.350
 4873SOL     OW15517   2.402   4.440   4.024
 4873SOL    HW115518   2.393   4.529   3.978
 4873SOL    HW215519   2.343   4.438   4.104
 4874SOL     OW15520   3.125   4.031   4.662
 4874SOL    HW115521   3.040   3.981   4.644
 4874SOL    HW215522   3.181   3.979   4.725
 4875SOL     OW15523   3.451   5.426   4.053
 4875SOL    HW115524   3.551   5.436   4.046
 4875SOL    HW215525   3.413   5.416   3.961
 4876SOL     OW15526   3.266   4.236   5.408
 4876SOL    HW115527   3.261   4.267   5.503
 4876SOL    HW215528   3.290   4.139   5.407
 4877SOL     OW15529   1.914   4.616   4.530
 4877SOL    HW115530   1.995   4.594   4.585
 4877SOL    HW215531   1.872   4.700   4.564
 4878SOL     OW15532   1.957   5.601   5.313
 4878SOL    HW115533   1.953   5.582   5.411
 4878SOL    HW215534   1.878   5.560   5.268
 4879SOL     OW15535   3.569   4.330   5.526
 4879SOL    HW115536   3.512   4.388   5.469
 4879SOL    HW215537   3.572   4.238   5.487
 4880SOL     OW15538   3.213   4.921   4.234
 4880SOL    HW115539   3.295   4.904   4.180
 4880SOL    HW215540   3.160   4.994   4.192
 4881SOL     OW15541   2.829   5.207   4.184
 4881SOL    HW115542   2.809   5.286   4.127
 4881SOL    HW215543   2.794   5.223   4.277
 4882SOL     OW15544   2.214   5.528   4.622
 4882SOL    HW115545   2.252   5.436   4.627
 4882SOL    HW215546   2.283   5.594   4.649
 4883SOL     OW15547   3.607   4.989   4.629
 4883SOL    HW115548   3.566   4.951   4.546
 4883SOL    HW215549   3.543   4.978   4.705
 4884SOL     OW15550   3.062   5.306   5.297
 4884SOL    HW115551   3.077   5.227   5.357
 4884SOL    HW215552   2.988   5.286   5.233
 4885SOL     OW15553   2.122   4.646   3.999
 4885SOL    HW115554   2.210   4.663   3.955
 4885SOL    HW215555   2.089   4.555   3.972
 4886SOL     OW15556   2.333   5.020   5.493
 4886SOL    HW115557   2.320   5.009   5.394
 4886SOL    HW215558   2.249   4.993   5.541
 4887SOL     OW15559   3.001   5.497   3.976
 4887SOL    HW115560   2.907   5.478   4.005
 4887SOL    HW215561   3.030   5.427   3.910
 4888SOL     OW15562   2.107   4.032   5.308
 4888SOL    HW115563   2.046   3.954   5.317
 4888SOL    HW215564   2.186   4.007   5.252
 4889SOL     OW15565   3.548   5.110   3.737
 4889SOL    HW115566   3.521   5.192   3.687
 4889SOL    HW215567   3.467   5.060   3.766
 4890SOL     OW15568   2.317   5.508   4.035
 4890SOL    HW115569   2.365   5.553   4.110
 4890SOL    HW215570   2.382   5.454   3.982
 4891SOL     OW15571   3.277   3.790   4.185
 4891SOL    HW115572   3.290   3.772   4.087
 4891SOL    HW215573   3.356   3.757   4.236
 4892SOL     OW15574   2.050   5.557   4.929
 4892SOL    HW115575   2.104   5.478   4.959
 4892SOL    HW215576   2.018   5.542   4.835
 4893SOL     OW15577   2.791   5.426   4.591
 4893SOL    HW115578   2.884   5.392   4.603
 4893SOL    HW215579   2.745   5.374   4.519
 4894SOL     OW15580   2.228   4.415   4.238
 4894SOL    HW115581   2.238   4.316   4.250
 4894SOL    HW215582   2.133   4.441   4.254
 4895SOL     OW15583   3.313   3.962   5.454
 4895SOL    HW115584   3.322   3.983   5.551
 4895SOL    HW215585   3.241   3.894   5.441
 4896SOL     OW15586   2.611   4.043   5.513
 4896SOL    HW115587   2.696   3.995   5.491
 4896SOL    HW215588   2.534   3.993   5.472
 4897SOL     OW15589   2.693   5.280   4.917
 4897SOL    HW115590   2.674   5.217   4.842
 4897SOL    HW215591   2.769   5.243   4.972
 4898SOL     OW15592   2.634   5.099   4.700
 4898SOL    HW115593   2.725   5.103   4.658
 4898SOL    HW215594   2.564   5.100   4.628
 4899SOL     OW15595   3.333   4.973   3.826
 4899SOL    HW115596   3.371   4.956   3.917
 4899SOL    HW215597   3.238   5.003   3.834
 4900SOL     OW15598   2.138   3.777   3.858
 4900SOL    HW115599   2.172   3.862   3.817
 4900SOL    HW215600   2.207   3.741   3.922
 4901SOL     OW15601   3.041   5.317   4.523
 4901SOL    HW115602   3.064   5.387   4.455
 4901SOL    HW215603   3.125   5.282   4.564
 4902SOL     OW15604   2.337   4.866   4.401
 4902SOL    HW115605   2.279   4.851   4.481
 4902SOL    HW215606   2.282   4.858   4.318
 4903SOL     OW15607   3.095   5.535   4.346
 4903SOL    HW115608   3.148   5.602   4.294
 4903SOL    HW215609   3.013   5.578   4.383
 4904SOL     OW15610   1.980   4.309   5.126
 4904SOL    HW115611   2.069   4.285   5.087
 4904SOL    HW215612   1.992   4.375   5.199
 4905SOL     OW15613   2.875   3.640   4.450
 4905SOL    HW115614   2.782   3.651   4.414
 4905SOL    HW215615   2.874   3.573   4.524
 4906SOL     OW15616   3.202   4.968   4.506
 4906SOL    HW115617   3.118   4.919   4.528
 4906SOL    HW215618   3.226   4.951   4.410
 4907SOL     OW15619   3.360   4.187   4.727
 4907SOL    HW115620   3.268   4.148   4.725
 4907SOL    HW215621   3.403   4.169   4.815
 4908SOL     OW15622   2.345   5.181   3.854
 4908SOL    HW115623   2.275   5.135   3.909
 4908SOL    HW215624   2.349   5.139   3.764
 4909SOL     OW15625   3.553   5.042   4.320
 4909SOL    HW115626   3.650   5.033   4.344
 4909SOL    HW215627   3.515   5.125   4.362
 4910SOL     OW15628   3.256   4.136   3.870
 4910SOL    HW115629   3.224   4.126   3.964
 4910SOL    HW215630   3.320   4.062   3.848
 4911SOL     OW15631   3.563   5.001   5.269
 4911SOL    HW115632   3.629   4.925   5.271
 4911SOL    HW215633   3.605   5.082   5.311
 4912SOL     OW15634   2.865   5.174   5.135
 4912SOL    HW115635   2.785   5.116   5.147
 4912SOL    HW215636   2.947   5.118   5.133
 4913SOL     OW15637   3.484   5.373   5.412
 4913SOL    HW115638   3.465   5.416   5.324
 4913SOL    HW215639   3.565   5.315   5.404
 4914SOL     OW15640   2.952   4.999   4.846
 4914SOL    HW115641   2.883   4.944   4.895
 4914SOL    HW215642   2.915   5.027   4.758
 4915SOL     OW15643   3.424   4.966   4.830
 4915SOL    HW115644   3.448   5.019   4.911
 4915SOL    HW215645   3.339   4.916   4.846
 4916SOL     OW15646   2.877   3.790   5.116
 4916SOL    HW115647   2.880   3.784   5.016
 4916SOL    HW215648   2.939   3.863   5.147
 4917SOL     OW15649   2.859   4.805   5.336
 4917SOL    HW115650   2.760   4.798   5.341
 4917SOL    HW215651   2.893   4.747   5.262
 4918SOL     OW15652   2.551   4.824   4.056
 4918SOL    HW115653   2.557   4.790   4.150
 4918SOL    HW215654   2.621   4.780   4.000
 4919SOL     OW15655   2.333   4.541   5.015
 4919SOL    HW115656   2.411   4.551   5.077
 4919SOL    HW215657   2.300   4.447   5.018
 4920SOL     OW15658   3.226   4.108   5.022
 4920SOL    HW115659   3.323   4.131   5.012
 4920SOL    HW215660   3.170   4.184   4.987
 4921SOL     OW15661   1.914   5.304   5.079
 4921SOL    HW115662   1.860   5.357   5.014
 4921SOL    HW215663   2.011   5.313   5.056
 4922SOL     OW15664   2.167   4.852   4.184
 4922SOL    HW115665   2.173   4.923   4.114
 4922SOL    HW215666   2.149   4.764   4.140
 4923SOL     OW15667   2.373   4.368   4.625
 4923SOL    HW115668   2.394   4.420   4.542
 4923SOL    HW215669   2.459   4.336   4.666
 4924SOL     OW15670   3.083   5.133   4.121
 4924SOL    HW115671   3.146   5.202   4.155
 4924SOL    HW215672   2.989   5.156   4.148
 4925SOL     OW15673   3.127   5.216   4.879
 4925SOL    HW115674   3.172   5.232   4.967
 4925SOL    HW215675   3.065   5.139   4.886
 4926SOL     OW15676   2.171   5.315   4.976
 4926SOL    HW115677   2.167   5.233   4.919
 4926SOL    HW215678   2.266   5.333   5.001
 4927SOL     OW15679   2.374   4.496   5.360
 4927SOL    HW115680   2.434   4.543   5.296
 4927SOL    HW215681   2.424   4.421   5.403
 4928SOL     OW15682   3.382   4.489   5.381
 4928SOL    HW115683   3.320   4.558   5.342
 4928SOL    HW215684   3.339   4.398   5.373
 4929SOL     OW15685   2.853   3.916   5.467
 4929SOL    HW115686   2.904   3.996   5.435
 4929SOL    HW215687   2.915   3.837   5.472
 4930SOL     OW15688   2.390   3.900   5.432
 4930SOL    HW115689   2.373   3.908   5.334
 4930SOL    HW215690   2.312   3.937   5.483
 4931SOL     OW15691   2.372   4.690   4.786
 4931SOL    HW115692   2.459   4.739   4.781
 4931SOL    HW215693   2.368   4.637   4.870
 4932SOL     OW15694   1.927   5.041   4.989
 4932SOL    HW115695   1.960   4.974   5.056
 4932SOL    HW215696   1.916   5.130   5.035
 4933SOL     OW15697   3.544   4.676   5.549
 4933SOL    HW115698   3.491   4.612   5.494
 4933SOL    HW215699   3.493   4.698   5.633
 4934SOL     OW15700   2.109   3.752   4.420
 4934SOL    HW115701   2.103   3.851   4.421
 4934SOL    HW215702   2.132   3.718   4.511
 4935SOL     OW15703   3.478   4.078   4.112
 4935SOL    HW115704   3.527   4.015   4.173
 4935SOL    HW215705   3.380   4.077   4.135
 4936SOL     OW15706   2.843   5.261   5.512
 4936SOL    HW115707   2.808   5.322   5.440
 4936SOL    HW215708   2.881   5.178   5.470
 4937SOL     OW15709   3.712   5.228   5.338
 4937SOL    HW115710   3.738   5.247   5.243
 4937SOL    HW215711   3.793   5.229   5.396
 4938SOL     OW15712   2.250   4.649   5.553
 4938SOL    HW115713   2.311   4.668   5.630
 4938SOL    HW215714   2.298   4.593   5.485
 4939SOL     OW15715   3.435   3.940   3.801
 4939SOL    HW115716   3.389   3.867   3.853
 4939SOL    HW215717   3.525   3.957   3.839
 4940SOL     OW15718   2.882   5.095   4.591
 4940SOL    HW115719   2.907   5.014   4.539
 4940SOL    HW215720   2.938   5.172   4.561
 4941SOL     OW15721   2.137   4.586   4.695
 4941SOL    HW115722   2.228   4.618   4.720
 4941SOL    HW215723   2.134   4.486   4.700
 4942SOL     OW15724   2.138   4.295   4.722
 4942SOL    HW115725   2.127   4.196   4.723
 4942SOL    HW215726   2.224   4.319   4.677
 4943SOL     OW15727   3.005   4.140   5.394
 4943SOL    HW115728   2.956   4.177   5.473
 4943SOL    HW215729   3.094   4.185   5.385
 4944SOL     OW15730   3.069   3.965   5.195
 4944SOL    HW115731   3.037   4.033   5.262
 4944SOL    HW215732   3.131   4.010   5.130
 4945SOL     OW15733   1.879   5.010   3.913
 4945SOL    HW115734   1.788   5.039   3.882
 4945SOL    HW215735   1.875   4.917   3.948
 4946SOL     OW15736   1.949   5.501   4.677
 4946SOL    HW115737   1.910   5.421   4.632
 4946SOL    HW215738   2.044   5.512   4.648
 4947SOL     OW15739   2.341   5.281   4.637
 4947SOL    HW115740   2.414   5.344   4.663
 4947SOL    HW215741   2.376   5.214   4.572
 4948SOL     OW15742   1.895   4.332   4.862
 4948SOL    HW115743   1.976   4.327   4.805
 4948SOL    HW215744   1.922   4.330   4.959
 4949SOL     OW15745   2.069   4.253   5.469
 4949SOL    HW115746   2.091   4.175   5.410
 4949SOL    HW215747   2.077   4.338   5.416
 4950SOL     OW15748   3.172   4.670   5.310
 4950SOL    HW115749   3.211   4.762   5.310
 4950SOL    HW215750   3.096   4.666   5.245
 4951SOL     OW15751   3.496   4.148   4.974
 4951SOL    HW115752   3.522   4.096   5.055
 4951SOL    HW215753   3.579   4.180   4.927
 4952SOL     OW15754   2.078   5.243   5.466
 4952SOL    HW115755   2.037   5.272   5.553
 4952SOL    HW215756   2.103   5.146   5.471
 4953SOL     OW15757   2.749   5.413   5.277
 4953SOL    HW115758   2.767   5.334   5.219
 4953SOL    HW215759   2.761   5.497   5.224
 4954SOL     OW15760   2.251   4.233   3.922
 4954SOL    HW115761   2.329   4.287   3.954
 4954SOL    HW215762   2.168   4.288   3.927
 4955SOL     OW15763   2.002   4.852   5.190
 4955SOL    HW115764   2.005   4.806   5.279
 4955SOL    HW215765   2.031   4.789   5.118
 4956SOL     OW15766   3.177   4.867   4.923
 4956SOL    HW115767   3.158   4.771   4.945
 4956SOL    HW215768   3.096   4.908   4.882
 4957SOL     OW15769   3.656   5.445   4.920
 4957SOL    HW115770   3.722   5.459   4.846
 4957SOL    HW215771   3.579   5.391   4.886
 4958SOL     OW15772   3.082   5.486   4.830
 4958SOL    HW115773   3.173   5.522   4.810
 4958SOL    HW215774   3.088   5.388   4.848
 4959SOL     OW15775   1.934   5.059   4.720
 4959SOL    HW115776   1.923   5.054   4.819
 4959SOL    HW215777   1.896   4.976   4.679
 4960SOL     OW15778   2.563   5.430   5.481
 4960SOL    HW115779   2.497   5.505   5.476
 4960SOL    HW215780   2.629   5.437   5.407
 4961SOL     OW15781   3.618   3.888   4.252
 4961SOL    HW115782   3.676   3.876   4.171
 4961SOL    HW215783   3.579   3.800   4.278
 4962SOL     OW15784   3.252   5.331   4.223
 4962SOL    HW115785   3.316   5.366   4.155
 4962SOL    HW215786   3.191   5.405   4.253
 4963SOL     OW15787   1.968   5.535   5.573
 4963SOL    HW115788   1.937   5.445   5.604
 4963SOL    HW215789   2.036   5.571   5.637
 4964SOL     OW15790   2.632   5.023   5.160
 4964SOL    HW115791   2.608   5.065   5.248
 4964SOL    HW215792   2.552   5.027   5.100
 4965SOL     OW15793   2.518   5.391   3.885
 4965SOL    HW115794   2.539   5.415   3.790
 4965SOL    HW215795   2.465   5.306   3.886
 4966SOL     OW15796   3.470   5.480   5.149
 4966SOL    HW115797   3.535   5.468   5.073
 4966SOL    HW215798   3.443   5.576   5.154
 4967SOL     OW15799   3.696   3.870   4.713
 4967SOL    HW115800   3.736   3.781   4.690
 4967SOL    HW215801   3.611   3.882   4.662
 4968SOL     OW15802   2.095   4.022   4.478
 4968SOL    HW115803   2.015   4.075   4.451
 4968SOL    HW215804   2.105   4.026   4.578
 4969SOL     OW15805   3.079   5.315   3.785
 4969SOL    HW115806   3.083   5.219   3.811
 4969SOL    HW215807   2.996   5.332   3.732
 4970SOL     OW15808   2.783   4.840   5.002
 4970SOL    HW115809   2.843   4.773   5.044
 4970SOL    HW215810   2.741   4.896   5.074
 4971SOL     OW15811   2.738   4.698   3.902
 4971SOL    HW115812   2.812   4.751   3.861
 4971SOL    HW215813   2.775   4.616   3.945
 4972SOL     OW15814   3.340   5.417   3.797
 4972SOL    HW115815   3.248   5.378   3.784
 4972SOL    HW215816   3.396   5.396   3.717
 4973SOL     OW15817   2.258   4.988   5.235
 4973SOL    HW115818   2.307   5.013   5.152
 4973SOL    HW215819   2.172   4.942   5.212
 4974SOL     OW15820   3.461   5.128   5.046
 4974SOL    HW115821   3.501   5.077   5.122
 4974SOL    HW215822   3.382   5.180   5.078
 4975SOL     OW15823   2.941   4.858   4.472
 4975SOL    HW115824   2.864   4.801   4.499
 4975SOL    HW215825   2.978   4.824   4.385
 4976SOL     OW15826   2.922   3.858   4.621
 4976SOL    HW115827   2.912   3.788   4.550
 4976SOL    HW215828   2.902   3.817   4.710
 4977SOL     OW15829   2.433   5.233   4.233
 4977SOL    HW115830   2.480   5.191   4.155
 4977SOL    HW215831   2.334   5.227   4.219
 4978SOL     OW15832   3.643   4.012   5.174
 4978SOL    HW115833   3.717   4.079   5.176
 4978SOL    HW215834   3.663   3.942   5.105
 4979SOL     OW15835   2.141   5.064   4.007
 4979SOL    HW115836   2.047   5.054   3.976
 4979SOL    HW215837   2.143   5.124   4.087
 4980SOL     OW15838   2.015   4.728   5.441
 4980SOL    HW115839   1.932   4.710   5.495
 4980SOL    HW215840   2.095   4.696   5.492
 4981SOL     OW15841   1.916   4.091   3.740
 4981SOL    HW115842   1.840   4.073   3.678
 4981SOL    HW215843   1.951   4.183   3.725
 4982SOL     OW15844   1.907   3.894   3.947
 4982SOL    HW115845   1.891   3.970   3.884
 4982SOL    HW215846   1.993   3.848   3.922
 4983SOL     OW15847   3.073   5.050   3.860
 4983SOL    HW115848   3.011   4.974   3.842
 4983SOL    HW215849   3.071   5.073   3.957
 4984SOL     OW15850   2.549   4.609   5.175
 4984SOL    HW115851   2.562   4.701   5.136
 4984SOL    HW215852   2.639   4.567   5.191
 4985SOL     OW15853   3.345   5.558   4.777
 4985SOL    HW115854   3.394   5.595   4.698
 4985SOL    HW215855   3.383   5.469   4.801
 4986SOL     OW15856   2.551   4.315   5.469
 4986SOL    HW115857   2.637   4.364   5.474
 4986SOL    HW215858   2.567   4.217   5.484
 4987SOL     OW15859   3.294   4.925   5.335
 4987SOL    HW115860   3.288   4.931   5.435
 4987SOL    HW215861   3.386   4.947   5.305
 4988SOL     OW15862   2.205   5.474   5.346
 4988SOL    HW115863   2.120   5.521   5.323
 4988SOL    HW215864   2.183   5.383   5.382
 4989SOL     OW15865   3.207   4.055   4.150
 4989SOL    HW115866   3.218   3.956   4.156
 4989SOL    HW215867   3.179   4.091   4.239
 4990SOL     OW15868   2.436   4.502   4.397
 4990SOL    HW115869   2.485   4.578   4.354
 4990SOL    HW215870   2.362   4.472   4.337
 4991SOL     OW15871   3.578   4.068   5.436
 4991SOL    HW115872   3.606   4.047   5.342
 4991SOL    HW215873   3.493   4.020   5.457
 4992SOL     OW15874   2.673   5.124   3.787
 4992SOL    HW115875   2.645   5.132   3.882
 4992SOL    HW215876   2.724   5.206   3.760
 4993SOL     OW15877   2.528   5.473   4.670
 4993SOL    HW115878   2.504   5.570   4.666
 4993SOL    HW215879   2.626   5.462   4.650
 4994SOL     OW15880   2.715   4.716   4.552
 4994SOL    HW115881   2.717   4.617   4.566
 4994SOL    HW215882   2.677   4.761   4.633
 4995SOL     OW15883   2.943   4.821   3.765
 4995SOL    HW115884   2.890   4.842   3.682
 4995SOL    HW215885   3.023   4.766   3.741
 4996SOL     OW15886   3.670   5.258   4.566
 4996SOL    HW115887   3.587   5.278   4.513
 4996SOL    HW215888   3.664   5.166   4.603
 4997SOL     OW15889   2.070   4.975   5.556
 4997SOL    HW115890   2.054   4.891   5.504
 4997SOL    HW215891   2.001   4.985   5.626
 4998SOL     OW15892   2.037   4.994   4.388
 4998SOL    HW115893   2.068   4.957   4.476
 4998SOL    HW215894   2.073   4.937   4.314
 4999SOL     OW15895   2.551   5.158   5.388
 4999SOL    HW115896   2.471   5.114   5.429
 4999SOL    HW215897   2.559   5.252   5.421
 5000SOL     OW15898   3.679   3.826   4.987
 5000SOL    HW115899   3.702   3.728   4.981
 5000SOL    HW215900   3.683   3.866   4.896
 5001SOL     OW15901   2.236   4.148   4.274
 5001SOL    HW115902   2.263   4.084   4.202
 5001SOL    HW215903   2.196   4.098   4.350
 5002SOL     OW15904   3.448   5.300   4.828
 5002SOL    HW115905   3.398   5.257   4.752
 5002SOL    HW215906   3.455   5.236   4.904
 5003SOL     OW15907   2.217   4.290   4.986
 5003SOL    HW115908   2.239   4.194   5.001
 5003SOL    HW215909   2.197   4.305   4.890
 5004SOL     OW15910   2.666   5.283   4.397
 5004SOL    HW115911   2.601   5.319   4.330
 5004SOL    HW215912   2.626   5.203   4.443
 5005SOL     OW15913   3.288   3.900   4.830
 5005SOL    HW115914   3.317   3.805   4.834
 5005SOL    HW215915   3.274   3.935   4.923
 5006SOL     OW15916   2.908   3.707   4.853
 5006SOL    HW115917   2.853   3.631   4.888
 5006SOL    HW215918   2.996   3.672   4.822
 5007SOL     OW15919   2.601   5.098   4.057
 5007SOL    HW115920   2.579   5.001   4.055
 5007SOL    HW215921   2.689   5.111   4.103
 5008SOL     OW15922   2.444   5.339   5.015
 5008SOL    HW115923   2.438   5.424   5.067
 5008SOL    HW215924   2.535   5.330   4.976
 5009SOL     OW15925   3.290   3.741   3.914
 5009SOL    HW115926   3.328   3.672   3.853
 5009SOL    HW215927   3.195   3.720   3.935
 5010SOL     OW15928   3.148   4.131   4.407
 5010SOL    HW115929   3.074   4.199   4.403
 5010SOL    HW215930   3.146   4.085   4.496
 5011SOL     OW15931   3.451   3.894   4.599
 5011SOL    HW115932   3.389   3.915   4.675
 5011SOL    HW215933   3.448   3.969   4.533
 5012SOL     OW15934   1.871   4.750   4.032
 5012SOL    HW115935   1.966   4.729   4.012
 5012SOL    HW215936   1.822   4.666   4.055
 5013SOL     OW15937   2.742   5.428   4.051
 5013SOL    HW115938   2.662   5.411   3.994
 5013SOL    HW215939   2.721   5.500   4.117
 5014SOL     OW15940   2.055   4.369   5.729
 5014SOL    HW115941   1.962   4.347   5.756
 5014SOL    HW215942   2.068   4.343   5.633
 5015SOL     OW15943   2.065   4.019   6.604
 5015SOL    HW115944   2.100   3.985   6.691
 5015SOL    HW215945   1.983   3.967   6.579
 5016SOL     OW15946   1.878   4.141   6.222
 5016SOL    HW115947   1.794   4.155   6.274
 5016SOL    HW215948   1.861   4.079   6.146
 5017SOL     OW15949   2.396   5.023   6.785
 5017SOL    HW115950   2.313   5.045   6.732
 5017SOL    HW215951   2.433   5.108   6.823
 5018SOL     OW15952   3.467   5.206   6.322
 5018SOL    HW115953   3.404   5.182   6.395
 5018SOL    HW215954   3.416   5.233   6.241
 5019SOL     OW15955   2.966   4.463   6.256
 5019SOL    HW115956   3.025   4.542   6.240
 5019SOL    HW215957   2.926   4.469   6.348
 5020SOL     OW15958   3.668   4.321   5.777
 5020SOL    HW115959   3.639   4.332   5.681
 5020SOL    HW215960   3.614   4.248   5.819
 5021SOL     OW15961   2.558   4.852   6.637
 5021SOL    HW115962   2.497   4.893   6.705
 5021SOL    HW215963   2.593   4.923   6.576
 5022SOL     OW15964   2.555   4.695   6.250
 5022SOL    HW115965   2.624   4.695   6.323
 5022SOL    HW215966   2.483   4.761   6.272
 5023SOL     OW15967   2.180   5.127   6.633
 5023SOL    HW115968   2.094   5.090   6.598
 5023SOL    HW215969   2.231   5.171   6.559
 5024SOL     OW15970   3.484   4.196   6.330
 5024SOL    HW115971   3.466   4.236   6.240
 5024SOL    HW215972   3.435   4.247   6.400
 5025SOL     OW15973   2.106   5.466   6.056
 5025SOL    HW115974   2.125   5.539   6.121
 5025SOL    HW215975   2.184   5.456   5.993
 5026SOL     OW15976   2.039   5.200   6.105
 5026SOL    HW115977   2.060   5.298   6.103
 5026SOL    HW215978   2.037   5.168   6.200
 5027SOL     OW15979   2.154   4.791   6.486
 5027SOL    HW115980   2.176   4.694   6.473
 5027SOL    HW215981   2.120   4.806   6.579
 5028SOL     OW15982   2.458   5.569   6.948
 5028SOL    HW115983   2.403   5.519   0.015
 5028SOL    HW215984   2.506   5.644   6.995
 5029SOL     OW15985   2.418   4.710   5.784
 5029SOL    HW115986   2.464   4.756   5.708
 5029SOL    HW215987   2.465   4.732   5.870
 5030SOL     OW15988   1.967   4.399   6.156
 5030SOL    HW115989   1.946   4.303   6.177
 5030SOL    HW215990   1.964   4.453   6.240
 5031SOL     OW15991   3.733   5.470   5.895
 5031SOL    HW115992   3.810   5.460   5.959
 5031SOL    HW215993   3.730   5.564   5.861
 5032SOL     OW15994   1.930   5.289   5.697
 5032SOL    HW115995   1.900   5.196   5.717
 5032SOL    HW215996   1.915   5.347   5.777
 5033SOL     OW15997   3.556   4.667   6.245
 5033SOL    HW115998   3.646   4.625   6.254
 5033SOL    HW215999   3.549   4.713   6.156
 5034SOL     OW16000   3.537   4.834   6.015
 5034SOL    HW116001   3.616   4.807   5.959
 5034SOL    HW216002   3.565   4.906   6.079
 5035SOL     OW16003   2.464   5.108   6.269
 5035SOL    HW116004   2.423   5.017   6.282
 5035SOL    HW216005   2.454   5.136   6.174
 5036SOL     OW16006   2.695   3.756   6.082
 5036SOL    HW116007   2.740   3.838   6.045
 5036SOL    HW216008   2.597   3.773   6.089
 5037SOL     OW16009   2.071   4.671   6.748
 5037SOL    HW116010   2.159   4.634   6.778
 5037SOL    HW216011   2.008   4.595   6.728
 5038SOL     OW16012   3.398   4.751   5.781
 5038SOL    HW116013   3.317   4.698   5.807
 5038SOL    HW216014   3.446   4.782   5.863
 5039SOL     OW16015   3.281   5.137   6.521
 5039SOL    HW116016   3.235   5.144   6.610
 5039SOL    HW216017   3.275   5.043   6.487
 5040SOL     OW16018   3.504   5.591   6.115
 5040SOL    HW116019   3.495   5.522   6.042
 5040SOL    HW216020   3.533   5.546   6.199
 5041SOL     OW16021   2.431   4.436   5.874
 5041SOL    HW116022   2.432   4.526   5.831
 5041SOL    HW216023   2.359   4.432   5.943
 5042SOL     OW16024   3.148   4.138   6.507
 5042SOL    HW116025   3.056   4.097   6.505
 5042SOL    HW216026   3.209   4.079   6.560
 5043SOL     OW16027   3.468   5.400   5.915
 5043SOL    HW116028   3.567   5.410   5.903
 5043SOL    HW216029   3.425   5.385   5.826
 5044SOL     OW16030   2.656   4.366   6.978
 5044SOL    HW116031   2.597   4.442   0.007
 5044SOL    HW216032   2.599   4.288   6.951
 5045SOL     OW16033   2.892   4.157   6.788
 5045SOL    HW116034   2.885   4.180   6.885
 5045SOL    HW216035   2.800   4.147   6.750
 5046SOL     OW16036   2.903   4.449   5.985
 5046SOL    HW116037   2.922   4.451   6.084
 5046SOL    HW216038   2.816   4.402   5.970
 5047SOL     OW16039   1.949   4.565   6.375
 5047SOL    HW116040   2.041   4.542   6.406
 5047SOL    HW216041   1.913   4.641   6.430
 5048SOL     OW16042   2.056   5.510   0.061
 5048SOL    HW116043   2.005   5.425   0.053
 5048SOL    HW216044   2.076   5.546   6.970
 5049SOL     OW16045   2.720   4.108   5.765
 5049SOL    HW116046   2.794   4.153   5.716
 5049SOL    HW216047   2.654   4.070   5.700
 5050SOL     OW16048   3.279   4.892   6.142
 5050SOL    HW116049   3.364   4.874   6.092
 5050SOL    HW216050   3.224   4.958   6.090
 5051SOL     OW16051   2.437   3.821   6.538
 5051SOL    HW116052   2.431   3.858   6.631
 5051SOL    HW216053   2.463   3.894   6.475
 5052SOL     OW16054   2.875   5.189   6.061
 5052SOL    HW116055   2.846   5.262   5.998
 5052SOL    HW216056   2.834   5.204   6.151
 5053SOL     OW16057   2.226   5.519   6.466
 5053SOL    HW116058   2.259   5.425   6.458
 5053SOL    HW216059   2.301   5.577   6.496
 5054SOL     OW16060   3.647   4.799   6.475
 5054SOL    HW116061   3.604   4.781   6.386
 5054SOL    HW216062   3.577   4.794   6.547
 5055SOL     OW16063   2.150   4.651   5.861
 5055SOL    HW116064   2.241   4.678   5.828
 5055SOL    HW216065   2.126   4.562   5.822
 5056SOL     OW16066   3.338   4.512   6.296
 5056SOL    HW116067   3.339   4.459   6.381
 5056SOL    HW216068   3.420   4.569   6.291
 5057SOL     OW16069   3.001   5.478   5.813
 5057SOL    HW116070   2.914   5.454   5.855
 5057SOL    HW216071   3.032   5.404   5.754
 5058SOL     OW16072   3.489   5.112   5.683
 5058SOL    HW116073   3.454   5.205   5.674
 5058SOL    HW216074   3.420   5.047   5.650
 5059SOL     OW16075   2.338   5.489   5.901
 5059SOL    HW116076   2.384   5.541   5.974
 5059SOL    HW216077   2.407   5.440   5.848
 5060SOL     OW16078   3.255   3.848   6.039
 5060SOL    HW116079   3.251   3.819   5.944
 5060SOL    HW216080   3.348   3.833   6.074
 5061SOL     OW16081   2.110   5.554   6.792
 5061SOL    HW116082   2.162   5.470   6.806
 5061SOL    HW216083   2.058   5.547   6.707
 5062SOL     OW16084   2.820   5.386   6.452
 5062SOL    HW116085   2.910   5.343   6.449
 5062SOL    HW216086   2.762   5.346   6.381
 5063SOL     OW16087   2.239   4.398   6.069
 5063SOL    HW116088   2.256   4.300   6.081
 5063SOL    HW216089   2.141   4.417   6.081
 5064SOL     OW16090   2.469   3.820   5.697
 5064SOL    HW116091   2.554   3.769   5.691
 5064SOL    HW216092   2.439   3.846   5.605
 5065SOL     OW16093   2.709   5.186   6.741
 5065SOL    HW116094   2.664   5.165   6.654
 5065SOL    HW216095   2.785   5.122   6.755
 5066SOL     OW16096   2.638   5.072   6.490
 5066SOL    HW116097   2.733   5.077   6.461
 5066SOL    HW216098   2.578   5.085   6.411
 5067SOL     OW16099   2.793   4.220   6.455
 5067SOL    HW116100   2.768   4.217   6.359
 5067SOL    HW216101   2.837   4.134   6.481
 5068SOL     OW16102   2.426   3.799   6.088
 5068SOL    HW116103   2.350   3.793   6.153
 5068SOL    HW216104   2.409   3.873   6.024
 5069SOL     OW16105   3.283   4.937   5.613
 5069SOL    HW116106   3.327   4.863   5.664
 5069SOL    HW216107   3.197   4.962   5.659
 5070SOL     OW16108   2.160   3.743   5.734
 5070SOL    HW116109   2.203   3.824   5.694
 5070SOL    HW216110   2.227   3.695   5.791
 5071SOL     OW16111   2.815   3.987   5.998
 5071SOL    HW116112   2.778   4.023   5.913
 5071SOL    HW216113   2.913   4.007   6.003
 5072SOL     OW16114   3.074   5.286   6.385
 5072SOL    HW116115   3.101   5.356   6.319
 5072SOL    HW216116   3.156   5.251   6.431
 5073SOL     OW16117   2.340   4.866   6.291
 5073SOL    HW116118   2.281   4.845   6.369
 5073SOL    HW216119   2.288   4.856   6.206
 5074SOL     OW16120   3.124   5.499   6.205
 5074SOL    HW116121   3.170   5.566   6.147
 5074SOL    HW216122   3.039   5.539   6.240
 5075SOL     OW16123   2.900   4.252   5.618
 5075SOL    HW116124   2.863   4.334   5.574
 5075SOL    HW216125   2.964   4.278   5.690
 5076SOL     OW16126   2.409   3.901   6.799
 5076SOL    HW116127   2.439   3.816   6.843
 5076SOL    HW216128   2.313   3.917   6.821
 5077SOL     OW16129   2.733   4.186   6.188
 5077SOL    HW116130   2.695   4.248   6.120
 5077SOL    HW216131   2.766   4.103   6.143
 5078SOL     OW16132   2.882   3.780   6.297
 5078SOL    HW116133   2.820   3.785   6.218
 5078SOL    HW216134   2.853   3.705   6.357
 5079SOL     OW16135   3.265   4.876   6.431
 5079SOL    HW116136   3.193   4.808   6.446
 5079SOL    HW216137   3.283   4.883   6.332
 5080SOL     OW16138   3.324   4.357   6.524
 5080SOL    HW116139   3.256   4.284   6.528
 5080SOL    HW216140   3.385   4.349   6.603
 5081SOL     OW16141   3.664   4.503   5.976
 5081SOL    HW116142   3.733   4.470   6.040
 5081SOL    HW216143   3.662   4.442   5.896
 5082SOL     OW16144   2.342   5.159   5.752
 5082SOL    HW116145   2.260   5.124   5.797
 5082SOL    HW216146   2.351   5.116   5.662
 5083SOL     OW16147   3.625   5.005   6.201
 5083SOL    HW116148   3.721   5.001   6.228
 5083SOL    HW216149   3.580   5.080   6.249
 5084SOL     OW16150   3.261   4.334   5.661
 5084SOL    HW116151   3.192   4.309   5.730
 5084SOL    HW216152   3.352   4.308   5.694
 5085SOL     OW16153   2.368   3.983   5.898
 5085SOL    HW116154   2.406   3.924   5.826
 5085SOL    HW216155   2.337   4.068   5.857
 5086SOL     OW16156   3.635   4.837   0.175
 5086SOL    HW116157   3.719   4.822   0.123
 5086SOL    HW216158   3.604   4.931   0.161
 5087SOL     OW16159   2.925   5.010   6.700
 5087SOL    HW116160   2.932   4.912   6.713
 5087SOL    HW216161   2.915   5.031   6.603
 5088SOL     OW16162   3.431   4.812   6.648
 5088SOL    HW116163   3.430   4.891   6.709
 5088SOL    HW216164   3.368   4.828   6.572
 5089SOL     OW16165   2.594   4.777   5.989
 5089SOL    HW116166   2.587   4.738   6.081
 5089SOL    HW216167   2.672   4.736   5.942
 5090SOL     OW16168   2.292   4.556   6.864
 5090SOL    HW116169   2.344   4.595   6.940
 5090SOL    HW216170   2.255   4.467   6.891
 5091SOL     OW16171   3.147   4.095   6.856
 5091SOL    HW116172   3.171   4.166   6.923
 5091SOL    HW216173   3.058   4.116   6.816
 5092SOL     OW16174   1.958   5.274   6.947
 5092SOL    HW116175   1.900   5.329   6.888
 5092SOL    HW216176   2.052   5.275   6.912
 5093SOL     OW16177   2.175   4.851   6.066
 5093SOL    HW116178   2.171   4.928   6.002
 5093SOL    HW216179   2.168   4.765   6.015
 5094SOL     OW16180   2.386   4.282   6.493
 5094SOL    HW116181   2.400   4.330   6.407
 5094SOL    HW216182   2.471   4.282   6.545
 5095SOL     OW16183   3.128   5.090   6.009
 5095SOL    HW116184   3.194   5.159   6.038
 5095SOL    HW216185   3.036   5.120   6.032
 5096SOL     OW16186   3.150   5.153   6.764
 5096SOL    HW116187   3.174   5.138   6.859
 5096SOL    HW216188   3.063   5.109   6.743
 5097SOL     OW16189   3.453   4.354   6.097
 5097SOL    HW116190   3.387   4.407   6.150
 5097SOL    HW216191   3.519   4.416   6.055
 5098SOL     OW16192   2.210   5.301   6.837
 5098SOL    HW116193   2.195   5.237   6.762
 5098SOL    HW216194   2.307   5.301   6.863
 5099SOL     OW16195   2.521   4.585   6.706
 5099SOL    HW116196   2.528   4.679   6.672
 5099SOL    HW216197   2.428   4.568   6.737
 5100SOL     OW16198   3.146   4.584   6.575
 5100SOL    HW116199   3.055   4.547   6.555
 5100SOL    HW216200   3.215   4.514   6.557
 5101SOL     OW16201   3.063   4.278   5.843
 5101SOL    HW116202   3.076   4.194   5.895
 5101SOL    HW216203   3.010   4.343   5.898
 5102SOL     OW16204   2.139   3.921   6.851
 5102SOL    HW116205   2.074   3.941   6.924
 5102SOL    HW216206   2.138   3.823   6.831
 5103SOL     OW16207   1.878   5.024   6.855
 5103SOL    HW116208   1.928   4.949   6.898
 5103SOL    HW216209   1.909   5.111   6.895
 5104SOL     OW16210   2.611   4.303   6.648
 5104SOL    HW116211   2.680   4.281   6.579
 5104SOL    HW216212   2.611   4.402   6.665
 5105SOL     OW16213   2.202   3.781   6.251
 5105SOL    HW116214   2.164   3.872   6.272
 5105SOL    HW216215   2.209   3.728   6.336
 5106SOL     OW16216   3.489   4.153   5.911
 5106SOL    HW116217   3.545   4.084   5.957
 5106SOL    HW216218   3.458   4.221   5.977
 5107SOL     OW16219   2.886   4.467   6.534
 5107SOL    HW116220   2.869   4.478   6.632
 5107SOL    HW216221   2.864   4.374   6.507
 5108SOL     OW16222   3.346   4.018   5.714
 5108SOL    HW116223   3.306   3.934   5.749
 5108SOL    HW216224   3.395   4.065   5.787
 5109SOL     OW16225   3.140   4.569   5.573
 5109SOL    HW116226   3.191   4.484   5.591
 5109SOL    HW216227   3.157   4.599   5.479
 5110SOL     OW16228   2.904   5.076   6.433
 5110SOL    HW116229   2.929   4.986   6.396
 5110SOL    HW216230   2.970   5.144   6.403
 5111SOL     OW16231   2.199   4.520   6.468
 5111SOL    HW116232   2.273   4.505   6.402
 5111SOL    HW216233   2.198   4.444   6.533
 5112SOL     OW16234   2.162   4.268   6.637
 5112SOL    HW116235   2.117   4.180   6.623
 5112SOL    HW216236   2.249   4.270   6.588
 5113SOL     OW16237   3.058   3.909   0.042
 5113SOL    HW116238   3.134   3.881   0.101
 5113SOL    HW216239   3.092   3.969   6.971
 5114SOL     OW16240   1.882   4.999   5.756
 5114SOL    HW116241   1.791   5.032   5.730
 5114SOL    HW216242   1.875   4.907   5.795
 5115SOL     OW16243   1.968   5.492   6.551
 5115SOL    HW116244   1.926   5.412   6.508
 5115SOL    HW216245   2.060   5.505   6.513
 5116SOL     OW16246   2.341   5.268   6.459
 5116SOL    HW116247   2.419   5.315   6.501
 5116SOL    HW216248   2.374   5.210   6.385
 5117SOL     OW16249   2.820   4.503   6.794
 5117SOL    HW116250   2.861   4.573   6.852
 5117SOL    HW216251   2.765   4.441   6.850
 5118SOL     OW16252   1.944   4.409   6.742
 5118SOL    HW116253   2.012   4.362   6.686
 5118SOL    HW216254   1.967   4.397   6.839
 5119SOL     OW16255   2.668   4.314   5.944
 5119SOL    HW116256   2.681   4.237   5.882
 5119SOL    HW216257   2.583   4.362   5.920
 5120SOL     OW16258   3.504   4.341   6.735
 5120SOL    HW116259   3.479   4.266   6.797
 5120SOL    HW216260   3.603   4.345   6.726
 5121SOL     OW16261   2.529   4.145   6.861
 5121SOL    HW116262   2.487   4.059   6.834
 5121SOL    HW216263   2.553   4.197   6.779
 5122SOL     OW16264   2.853   5.380   6.884
 5122SOL    HW116265   2.800   5.309   6.837
 5122SOL    HW216266   2.867   5.457   6.822
 5123SOL     OW16267   2.283   4.214   5.773
 5123SOL    HW116268   2.359   4.278   5.787
 5123SOL    HW216269   2.197   4.264   5.768
 5124SOL     OW16270   2.028   4.830   6.968
 5124SOL    HW116271   2.072   4.789   0.048
 5124SOL    HW216272   2.044   4.773   6.888
 5125SOL     OW16273   3.110   4.689   6.829
 5125SOL    HW116274   3.134   4.659   6.737
 5125SOL    HW216275   3.183   4.746   6.866
 5126SOL     OW16276   3.167   4.622   5.845
 5126SOL    HW116277   3.100   4.576   5.903
 5126SOL    HW216278   3.148   4.602   5.749
 5127SOL     OW16279   3.602   5.478   6.764
 5127SOL    HW116280   3.686   5.471   6.710
 5127SOL    HW216281   3.557   5.389   6.766
 5128SOL     OW16282   3.147   5.434   6.700
 5128SOL    HW116283   3.235   5.478   6.680
 5128SOL    HW216284   3.163   5.340   6.729
 5129SOL     OW16285   1.918   5.032   6.578
 5129SOL    HW116286   1.901   5.024   6.677
 5129SOL    HW216287   1.892   4.946   6.534
 5130SOL     OW16288   3.650   3.970   6.036
 5130SOL    HW116289   3.707   3.944   5.958
 5130SOL    HW216290   3.599   3.891   6.069
 5131SOL     OW16291   3.299   5.294   6.110
 5131SOL    HW116292   3.358   5.327   6.036
 5131SOL    HW216293   3.235   5.367   6.136
 5132SOL     OW16294   3.135   4.673   6.223
 5132SOL    HW116295   3.207   4.608   6.248
 5132SOL    HW216296   3.176   4.750   6.175
 5133SOL     OW16297   2.535   5.361   5.749
 5133SOL    HW116298   2.556   5.382   5.654
 5133SOL    HW216299   2.474   5.281   5.752
 5134SOL     OW16300   3.703   3.858   6.580
 5134SOL    HW116301   3.736   3.771   6.542
 5134SOL    HW216302   3.623   3.888   6.528
 5135SOL     OW16303   2.108   4.026   6.324
 5135SOL    HW116304   2.027   4.071   6.287
 5135SOL    HW216305   2.107   4.032   6.424
 5136SOL     OW16306   3.087   5.279   5.645
 5136SOL    HW116307   3.088   5.186   5.681
 5136SOL    HW216308   3.006   5.292   5.588
 5137SOL     OW16309   2.577   4.640   6.977
 5137SOL    HW116310   2.571   4.626   6.878
 5137SOL    HW216311   2.672   4.660   0.002
 5138SOL     OW16312   2.805   4.678   5.856
 5138SOL    HW116313   2.832   4.686   5.760
 5138SOL    HW216314   2.848   4.596   5.895
 5139SOL     OW16315   3.354   5.370   5.656
 5139SOL    HW116316   3.260   5.337   5.642
 5139SOL    HW216317   3.399   5.379   5.568
 5140SOL     OW16318   3.460   5.003   6.860
 5140SOL    HW116319   3.555   4.973   6.863
 5140SOL    HW216320   3.403   4.936   6.908
 5141SOL     OW16321   2.955   4.823   6.364
 5141SOL    HW116322   2.873   4.772   6.391
 5141SOL    HW216323   3.012   4.765   6.305
 5142SOL     OW16324   2.916   3.973   6.500
 5142SOL    HW116325   2.911   3.919   6.416
 5142SOL    HW216326   2.918   3.912   6.579
 5143SOL     OW16327   2.462   5.182   6.010
 5143SOL    HW116328   2.543   5.132   5.980
 5143SOL    HW216329   2.397   5.188   5.935
 5144SOL     OW16330   3.476   4.123   6.899
 5144SOL    HW116331   3.429   4.098   6.984
 5144SOL    HW216332   3.528   4.044   6.866
 5145SOL     OW16333   2.121   5.062   5.890
 5145SOL    HW116334   2.040   5.038   5.836
 5145SOL    HW216335   2.093   5.118   5.968
 5146SOL     OW16336   2.563   3.894   0.080
 5146SOL    HW116337   2.656   3.865   0.103
 5146SOL    HW216338   2.567   3.981   0.031
 5147SOL     OW16339   1.928   4.061   5.601
 5147SOL    HW116340   1.844   4.049   5.549
 5147SOL    HW216341   1.978   4.141   5.567
 5148SOL     OW16342   1.933   3.875   5.807
 5148SOL    HW116343   1.919   3.947   5.738
 5148SOL    HW216344   2.019   3.827   5.788
 5149SOL     OW16345   3.049   5.020   5.736
 5149SOL    HW116346   2.952   4.998   5.727
 5149SOL    HW216347   3.074   5.024   5.833
 5150SOL     OW16348   3.378   5.575   6.639
 5150SOL    HW116349   3.406   5.620   6.554
 5150SOL    HW216350   3.459   5.542   6.687
 5151SOL     OW16351   3.275   5.042   0.267
 5151SOL    HW116352   3.234   5.072   0.353
 5151SOL    HW216353   3.286   4.942   0.268
 5152SOL     OW16354   2.311   5.427   0.127
 5152SOL    HW116355   2.216   5.456   0.113
 5152SOL    HW216356   2.314   5.328   0.135
 5153SOL     OW16357   3.513   4.607   6.823
 5153SOL    HW116358   3.494   4.514   6.791
 5153SOL    HW216359   3.476   4.673   6.758
 5154SOL     OW16360   3.080   4.064   6.023
 5154SOL    HW116361   3.144   3.987   6.028
 5154SOL    HW216362   3.091   4.121   6.104
 5155SOL     OW16363   2.394   4.470   6.285
 5155SOL    HW116364   2.462   4.540   6.263
 5155SOL    HW216365   2.347   4.443   6.201
 5156SOL     OW16366   3.594   4.560   0.091
 5156SOL    HW116367   3.595   4.647   0.139
 5156SOL    HW216368   3.557   4.572   6.999
 5157SOL     OW16369   2.765   5.036   5.674
 5157SOL    HW116370   2.723   5.045   5.765
 5157SOL    HW216371   2.770   5.126   5.631
 5158SOL     OW16372   2.547   5.422   6.548
 5158SOL    HW116373   2.522   5.519   6.546
 5158SOL    HW216374   2.645   5.412   6.534
 5159SOL     OW16375   2.732   4.695   6.465
 5159SOL    HW116376   2.775   4.610   6.496
 5159SOL    HW216377   2.677   4.734   6.539
 5160SOL     OW16378   2.896   4.688   5.590
 5160SOL    HW116379   2.884   4.743   5.508
 5160SOL    HW216380   2.987   4.647   5.589
 5161SOL     OW16381   3.700   5.255   6.474
 5161SOL    HW116382   3.620   5.241   6.415
 5161SOL    HW216383   3.729   5.167   6.513
 5162SOL     OW16384   2.017   4.941   6.279
 5162SOL    HW116385   2.052   4.892   6.359
 5162SOL    HW216386   2.065   4.910   6.198
 5163SOL     OW16387   3.650   3.917   6.847
 5163SOL    HW116388   3.664   3.841   6.910
 5163SOL    HW216389   3.667   3.887   6.753
 5164SOL     OW16390   2.268   4.136   6.118
 5164SOL    HW116391   2.302   4.071   6.050
 5164SOL    HW216392   2.222   4.087   6.191
 5165SOL     OW16393   3.458   5.249   6.737
 5165SOL    HW116394   3.417   5.234   6.647
 5165SOL    HW216395   3.461   5.162   6.786
 5166SOL     OW16396   2.178   4.310   6.923
 5166SOL    HW116397   2.221   4.246   6.987
 5166SOL    HW216398   2.185   4.273   6.830
 5167SOL     OW16399   2.675   5.294   6.241
 5167SOL    HW116400   2.655   5.354   6.164
 5167SOL    HW216401   2.601   5.228   6.253
 5168SOL     OW16402   3.297   3.971   6.666
 5168SOL    HW116403   3.312   3.874   6.688
 5168SOL    HW216404   3.254   4.016   6.743
 5169SOL     OW16405   2.913   3.713   6.653
 5169SOL    HW116406   2.869   3.657   6.583
 5169SOL    HW216407   3.005   3.677   6.671
 5170SOL     OW16408   2.675   5.035   5.934
 5170SOL    HW116409   2.648   4.941   5.953
 5170SOL    HW216410   2.757   5.058   5.986
 5171SOL     OW16411   2.488   5.298   6.866
 5171SOL    HW116412   2.492   5.398   6.871
 5171SOL    HW216413   2.570   5.263   6.820
 5172SOL     OW16414   3.243   3.768   5.780
 5172SOL    HW116415   3.295   3.703   5.726
 5172SOL    HW216416   3.148   3.737   5.789
 5173SOL     OW16417   3.106   4.221   6.242
 5173SOL    HW116418   3.053   4.306   6.245
 5173SOL    HW216419   3.128   4.192   6.335
 5174SOL     OW16420   3.474   3.941   6.460
 5174SOL    HW116421   3.408   3.962   6.532
 5174SOL    HW216422   3.479   4.017   6.395
 5175SOL     OW16423   1.891   4.747   5.892
 5175SOL    HW116424   1.988   4.730   5.875
 5175SOL    HW216425   1.844   4.661   5.909
 5176SOL     OW16426   2.755   5.402   5.924
 5176SOL    HW116427   2.678   5.382   5.863
 5176SOL    HW216428   2.734   5.482   5.979
 5177SOL     OW16429   2.016   6.189   0.140
 5177SOL    HW116430   1.926   6.148   0.125
 5177SOL    HW216431   2.058   6.212   0.052
 5178SOL     OW16432   2.054   5.877   0.980
 5178SOL    HW116433   2.086   5.845   1.069
 5178SOL    HW216434   1.969   5.830   0.957
 5179SOL     OW16435   1.838   6.004   0.621
 5179SOL    HW116436   1.754   6.012   0.674
 5179SOL    HW216437   1.826   5.937   0.548
 5180SOL     OW16438   2.401   6.932   1.222
 5180SOL    HW116439   2.339   6.956   1.147
 5180SOL    HW216440   2.351   6.933   1.309
 5181SOL     OW16441   3.538   0.063   0.681
 5181SOL    HW116442   3.533   0.131   0.755
 5181SOL    HW216443   3.446   0.029   0.662
 5182SOL     OW16444   2.963   6.315   0.668
 5182SOL    HW116445   3.001   6.407   0.681
 5182SOL    HW216446   2.891   6.300   0.735
 5183SOL     OW16447   3.666   6.174   0.187
 5183SOL    HW116448   3.623   6.240   0.125
 5183SOL    HW216449   3.595   6.117   0.229
 5184SOL     OW16450   2.512   6.694   1.014
 5184SOL    HW116451   2.498   6.770   1.077
 5184SOL    HW216452   2.473   6.717   0.925
 5185SOL     OW16453   2.748   6.315   1.863
 5185SOL    HW116454   2.757   6.376   1.942
 5185SOL    HW216455   2.758   6.369   1.779
 5186SOL     OW16456   2.556   6.545   0.656
 5186SOL    HW116457   2.633   6.539   0.720
 5186SOL    HW216458   2.487   6.607   0.692
 5187SOL     OW16459   2.552   6.767   1.846
 5187SOL    HW116460   2.547   6.816   1.933
 5187SOL    HW216461   2.546   6.832   1.771
 5188SOL     OW16462   2.205   0.022   1.049
 5188SOL    HW116463   2.122   6.972   1.022
 5188SOL    HW216464   2.223   0.095   0.984
 5189SOL     OW16465   2.343   5.914   1.460
 5189SOL    HW116466   2.426   5.863   1.483
 5189SOL    HW216467   2.263   5.863   1.490
 5190SOL     OW16468   3.467   6.045   0.764
 5190SOL    HW116469   3.444   6.082   0.674
 5190SOL    HW216470   3.418   6.097   0.834
 5191SOL     OW16471   2.147   6.688   0.905
 5191SOL    HW116472   2.142   6.591   0.926
 5191SOL    HW216473   2.096   6.740   0.974
 5192SOL     OW16474   2.444   6.504   0.210
 5192SOL    HW116475   2.469   6.520   0.115
 5192SOL    HW216476   2.502   6.559   0.270
 5193SOL     OW16477   3.418   5.736   1.445
 5193SOL    HW116478   3.482   5.811   1.426
 5193SOL    HW216479   3.374   5.753   1.534
 5194SOL     OW16480   1.956   6.260   0.573
 5194SOL    HW116481   1.916   6.170   0.591
 5194SOL    HW216482   1.946   6.318   0.654
 5195SOL     OW16483   3.545   6.417   0.643
 5195SOL    HW116484   3.627   6.417   0.700
 5195SOL    HW216485   3.546   6.497   0.583
 5196SOL     OW16486   3.543   6.664   0.512
 5196SOL    HW116487   3.578   6.697   0.424
 5196SOL    HW216488   3.588   6.713   0.586
 5197SOL     OW16489   1.967   6.365   1.524
 5197SOL    HW116490   2.025   6.409   1.456
 5197SOL    HW216491   1.883   6.418   1.535
 5198SOL     OW16492   3.119   6.802   1.420
 5198SOL    HW116493   3.130   6.720   1.365
 5198SOL    HW216494   3.162   6.788   1.510
 5199SOL     OW16495   2.711   5.628   0.507
 5199SOL    HW116496   2.759   5.715   0.495
 5199SOL    HW216497   2.613   5.645   0.507
 5200SOL     OW16498   2.091   6.492   1.315
 5200SOL    HW116499   2.180   6.448   1.300
 5200SOL    HW216500   2.035   6.481   1.233
 5201SOL     OW16501   3.311   6.657   0.299
 5201SOL    HW116502   3.239   6.588   0.308
 5201SOL    HW216503   3.389   6.630   0.356
 5202SOL     OW16504   2.213   5.861   1.855
 5202SOL    HW116505   2.253   5.937   1.906
 5202SOL    HW216506   2.132   5.893   1.806
 5203SOL     OW16507   3.268   6.914   0.960
 5203SOL    HW116508   3.179   6.903   1.006
 5203SOL    HW216509   3.302   6.824   0.933
 5204SOL     OW16510   2.421   6.244   0.284
 5204SOL    HW116511   2.438   6.337   0.251
 5204SOL    HW216512   2.356   6.248   0.361
 5205SOL     OW16513   3.129   5.957   0.920
 5205SOL    HW116514   3.043   5.905   0.917
 5205SOL    HW216515   3.192   5.914   0.984
 5206SOL     OW16516   2.653   6.127   1.471
 5206SOL    HW116517   2.620   6.098   1.561
 5206SOL    HW216518   2.630   6.057   1.403
 5207SOL     OW16519   3.238   6.044   1.652
 5207SOL    HW116520   3.246   6.092   1.740
 5207SOL    HW216521   3.276   5.952   1.660
 5208SOL     OW16522   2.790   6.462   1.628
 5208SOL    HW116523   2.843   6.392   1.579
 5208SOL    HW216524   2.736   6.514   1.562
 5209SOL     OW16525   2.853   5.978   1.112
 5209SOL    HW116526   2.770   5.970   1.166
 5209SOL    HW216527   2.869   5.893   1.062
 5210SOL     OW16528   2.902   6.306   0.401
 5210SOL    HW116529   2.931   6.312   0.497
 5210SOL    HW216530   2.813   6.262   0.396
 5211SOL     OW16531   1.933   6.441   0.790
 5211SOL    HW116532   2.021   6.420   0.833
 5211SOL    HW216533   1.892   6.521   0.835
 5212SOL     OW16534   2.791   5.958   0.246
 5212SOL    HW116535   2.874   6.010   0.224
 5212SOL    HW216536   2.793   5.871   0.196
 5213SOL     OW16537   3.516   6.147   1.827
 5213SOL    HW116538   3.520   6.230   1.772
 5213SOL    HW216539   3.538   6.068   1.771
 5214SOL     OW16540   3.305   6.730   0.641
 5214SOL    HW116541   3.384   6.708   0.583
 5214SOL    HW216542   3.292   6.829   0.643
 5215SOL     OW16543   2.432   5.707   0.931
 5215SOL    HW116544   2.432   5.733   1.027
 5215SOL    HW216545   2.450   5.787   0.875
 5216SOL     OW16546   3.687   6.668   0.932
 5216SOL    HW116547   3.659   6.720   0.852
 5216SOL    HW216548   3.611   6.663   0.998
 5217SOL     OW16549   2.228   6.533   0.371
 5217SOL    HW116550   2.302   6.525   0.304
 5217SOL    HW216551   2.214   6.444   0.416
 5218SOL     OW16552   3.295   6.371   0.744
 5218SOL    HW116553   3.299   6.301   0.815
 5218SOL    HW216554   3.387   6.393   0.713
 5219SOL     OW16555   2.089   5.803   1.507
 5219SOL    HW116556   2.060   5.871   1.575
 5219SOL    HW216557   2.041   5.717   1.524
 5220SOL     OW16558   3.584   6.987   0.111
 5220SOL    HW116559   3.639   0.057   0.156
 5220SOL    HW216560   3.490   0.020   0.100
 5221SOL     OW16561   2.217   6.266   0.482
 5221SOL    HW116562   2.238   6.168   0.484
 5221SOL    HW216563   2.122   6.280   0.512
 5222SOL     OW16564   3.317   5.781   1.705
 5222SOL    HW116565   3.328   5.803   1.802
 5222SOL    HW216566   3.253   5.705   1.695
 5223SOL     OW16567   2.639   5.833   1.788
 5223SOL    HW116568   2.728   5.788   1.779
 5223SOL    HW216569   2.582   5.781   1.852
 5224SOL     OW16570   3.144   6.174   1.429
 5224SOL    HW116571   3.186   6.132   1.509
 5224SOL    HW216572   3.190   6.261   1.410
 5225SOL     OW16573   2.799   6.156   0.902
 5225SOL    HW116574   2.780   6.114   0.813
 5225SOL    HW216575   2.829   6.085   0.966
 5226SOL     OW16576   2.437   5.676   0.483
 5226SOL    HW116577   2.361   5.677   0.548
 5226SOL    HW216578   2.418   5.739   0.408
 5227SOL     OW16579   3.302   6.775   0.046
 5227SOL    HW116580   3.302   6.731   0.135
 5227SOL    HW216581   3.252   6.718   6.980
 5228SOL     OW16582   2.858   5.860   0.488
 5228SOL    HW116583   2.820   5.895   0.402
 5228SOL    HW216584   2.957   5.870   0.488
 5229SOL     OW16585   2.887   6.270   1.456
 5229SOL    HW116586   2.817   6.200   1.470
 5229SOL    HW216587   2.977   6.226   1.450
 5230SOL     OW16588   3.272   6.996   0.694
 5230SOL    HW116589   3.213   0.068   0.659
 5230SOL    HW216590   3.259   6.986   0.792
 5231SOL     OW16591   2.380   6.722   0.771
 5231SOL    HW116592   2.296   6.711   0.824
 5231SOL    HW216593   2.357   6.753   0.678
 5232SOL     OW16594   2.861   6.217   0.022
 5232SOL    HW116595   2.767   6.196   0.049
 5232SOL    HW216596   2.924   6.180   0.091
 5233SOL     OW16597   1.968   6.121   1.397
 5233SOL    HW116598   2.064   6.104   1.376
 5233SOL    HW216599   1.961   6.202   1.455
 5234SOL     OW16600   2.413   5.770   1.195
 5234SOL    HW116601   2.436   5.693   1.254
 5234SOL    HW216602   2.317   5.795   1.209
 5235SOL     OW16603   2.750   6.059   0.653
 5235SOL    HW116604   2.702   6.109   0.581
 5235SOL    HW216605   2.791   5.976   0.613
 5236SOL     OW16606   2.899   5.620   0.720
 5236SOL    HW116607   2.837   5.626   0.642
 5236SOL    HW216608   2.872   5.543   0.778
 5237SOL     OW16609   3.315   6.648   0.907
 5237SOL    HW116610   3.257   6.570   0.929
 5237SOL    HW216611   3.314   6.663   0.808
 5238SOL     OW16612   3.295   6.187   0.949
 5238SOL    HW116613   3.230   6.111   0.952
 5238SOL    HW216614   3.361   6.177   1.024
 5239SOL     OW16615   3.738   6.379   0.358
 5239SOL    HW116616   3.767   6.340   0.445
 5239SOL    HW216617   3.711   6.305   0.296
 5240SOL     OW16618   3.664   6.820   0.703
 5240SOL    HW116619   3.762   6.825   0.680
 5240SOL    HW216620   3.623   6.911   0.693
 5241SOL     OW16621   3.190   6.160   0.032
 5241SOL    HW116622   3.127   6.148   0.108
 5241SOL    HW216623   3.268   6.098   0.042
 5242SOL     OW16624   2.385   5.846   0.271
 5242SOL    HW116625   2.456   5.816   0.208
 5242SOL    HW216626   2.328   5.915   0.227
 5243SOL     OW16627   3.559   6.784   1.587
 5243SOL    HW116628   3.584   6.734   1.670
 5243SOL    HW216629   3.616   6.867   1.580
 5244SOL     OW16630   2.876   6.885   1.276
 5244SOL    HW116631   2.789   6.874   1.324
 5244SOL    HW216632   2.952   6.873   1.340
 5245SOL     OW16633   3.037   6.818   1.067
 5245SOL    HW116634   2.969   6.843   1.136
 5245SOL    HW216635   2.991   6.789   0.983
 5246SOL     OW16636   3.484   6.657   1.120
 5246SOL    HW116637   3.454   6.717   1.195
 5246SOL    HW216638   3.414   6.656   1.049
 5247SOL     OW16639   2.793   5.640   1.401
 5247SOL    HW116640   2.808   5.610   1.307
 5247SOL    HW216641   2.872   5.693   1.432
 5248SOL     OW16642   2.810   6.676   1.797
 5248SOL    HW116643   2.716   6.705   1.817
 5248SOL    HW216644   2.808   6.600   1.732
 5249SOL     OW16645   2.594   6.641   0.396
 5249SOL    HW116646   2.585   6.607   0.489
 5249SOL    HW216647   2.672   6.597   0.352
 5250SOL     OW16648   2.318   6.350   1.282
 5250SOL    HW116649   2.384   6.360   1.357
 5250SOL    HW216650   2.282   6.257   1.282
 5251SOL     OW16651   3.089   5.963   1.264
 5251SOL    HW116652   3.108   6.045   1.319
 5251SOL    HW216653   3.006   5.979   1.210
 5252SOL     OW16654   2.294   6.760   0.511
 5252SOL    HW116655   2.358   6.816   0.459
 5252SOL    HW216656   2.272   6.678   0.459
 5253SOL     OW16657   2.379   6.126   0.886
 5253SOL    HW116658   2.393   6.183   0.806
 5253SOL    HW216659   2.455   6.138   0.950
 5254SOL     OW16660   3.409   6.192   0.536
 5254SOL    HW116661   3.314   6.212   0.561
 5254SOL    HW216662   3.466   6.272   0.556
 5255SOL     OW16663   2.352   6.265   1.694
 5255SOL    HW116664   2.392   6.310   1.614
 5255SOL    HW216665   2.415   6.196   1.729
 5256SOL     OW16666   3.513   6.385   1.691
 5256SOL    HW116667   3.418   6.414   1.678
 5256SOL    HW216668   3.568   6.416   1.613
 5257SOL     OW16669   2.879   5.715   1.758
 5257SOL    HW116670   2.925   5.801   1.735
 5257SOL    HW216671   2.943   5.639   1.746
 5258SOL     OW16672   2.344   5.644   1.749
 5258SOL    HW116673   2.294   5.590   1.682
 5258SOL    HW216674   2.293   5.727   1.771
 5259SOL     OW16675   2.429   6.433   1.046
 5259SOL    HW116676   2.460   6.528   1.042
 5259SOL    HW216677   2.388   6.414   1.136
 5260SOL     OW16678   3.160   6.431   1.013
 5260SOL    HW116679   3.062   6.420   1.002
 5260SOL    HW216680   3.207   6.345   0.992
 5261SOL     OW16681   3.018   6.116   0.243
 5261SOL    HW116682   3.066   6.049   0.301
 5261SOL    HW216683   2.985   6.191   0.299
 5262SOL     OW16684   2.136   5.789   1.230
 5262SOL    HW116685   2.113   5.807   1.326
 5262SOL    HW216686   2.133   5.691   1.213
 5263SOL     OW16687   1.916   6.863   1.338
 5263SOL    HW116688   1.977   6.796   1.380
 5263SOL    HW216689   1.913   6.946   1.395
 5264SOL     OW16690   2.580   6.204   1.065
 5264SOL    HW116691   2.655   6.197   1.000
 5264SOL    HW216692   2.530   6.289   1.050
 5265SOL     OW16693   3.603   6.617   1.818
 5265SOL    HW116694   3.574   6.526   1.787
 5265SOL    HW216695   3.566   6.634   1.909
 5266SOL     OW16696   2.211   5.664   0.651
 5266SOL    HW116697   2.163   5.751   0.665
 5266SOL    HW216698   2.216   5.614   0.738
 5267SOL     OW16699   3.480   6.023   0.334
 5267SOL    HW116700   3.532   5.951   0.380
 5267SOL    HW216701   3.450   6.090   0.402
 5268SOL     OW16702   2.888   6.389   1.006
 5268SOL    HW116703   2.850   6.395   1.098
 5268SOL    HW216704   2.863   6.300   0.965
 5269SOL     OW16705   3.731   0.007   1.579
 5269SOL    HW116706   3.772   0.090   1.542
 5269SOL    HW216707   3.784   6.977   1.659
 5270SOL     OW16708   2.227   6.485   1.818
 5270SOL    HW116709   2.291   6.515   1.889
 5270SOL    HW216710   2.265   6.405   1.771
 5271SOL     OW16711   3.338   5.933   0.120
 5271SOL    HW116712   3.294   5.846   0.143
 5271SOL    HW216713   3.390   5.965   0.199
 5272SOL     OW16714   3.127   6.435   0.032
 5272SOL    HW116715   3.157   6.340   0.017
 5272SOL    HW216716   3.161   6.492   6.957
 5273SOL     OW16717   2.166   6.408   0.945
 5273SOL    HW116718   2.265   6.419   0.956
 5273SOL    HW216719   2.141   6.313   0.965
 5274SOL     OW16720   2.134   6.134   0.994
 5274SOL    HW116721   2.093   6.043   0.985
 5274SOL    HW216722   2.225   6.134   0.952
 5275SOL     OW16723   2.981   5.959   1.685
 5275SOL    HW116724   2.940   6.005   1.763
 5275SOL    HW216725   3.073   5.995   1.669
 5276SOL     OW16726   3.012   5.789   1.468
 5276SOL    HW116727   2.994   5.853   1.543
 5276SOL    HW216728   3.049   5.838   1.390
 5277SOL     OW16729   2.752   6.373   1.241
 5277SOL    HW116730   2.807   6.341   1.318
 5277SOL    HW216731   2.686   6.303   1.215
 5278SOL     OW16732   1.911   6.205   1.142
 5278SOL    HW116733   1.990   6.187   1.084
 5278SOL    HW216734   1.932   6.176   1.236
 5279SOL     OW16735   2.081   6.213   1.721
 5279SOL    HW116736   2.180   6.224   1.714
 5279SOL    HW216737   2.036   6.277   1.659
 5280SOL     OW16738   3.266   6.492   1.636
 5280SOL    HW116739   3.268   6.592   1.639
 5280SOL    HW216740   3.256   6.461   1.542
 5281SOL     OW16741   2.670   6.159   0.392
 5281SOL    HW116742   2.699   6.082   0.335
 5281SOL    HW216743   2.580   6.190   0.363
 5282SOL     OW16744   3.489   6.160   1.141
 5282SOL    HW116745   3.468   6.082   1.201
 5282SOL    HW216746   3.588   6.163   1.126
 5283SOL     OW16747   2.602   5.980   1.234
 5283SOL    HW116748   2.535   5.906   1.226
 5283SOL    HW216749   2.575   6.056   1.176
 5284SOL     OW16750   2.262   6.064   0.150
 5284SOL    HW116751   2.324   6.125   0.199
 5284SOL    HW216752   2.168   6.092   0.167
 5285SOL     OW16753   2.092   6.712   1.483
 5285SOL    HW116754   2.066   6.686   1.577
 5285SOL    HW216755   2.101   6.629   1.428
 5286SOL     OW16756   3.150   6.614   1.213
 5286SOL    HW116757   3.159   6.541   1.145
 5286SOL    HW216758   3.116   6.696   1.168
 5287SOL     OW16759   3.127   6.457   0.305
 5287SOL    HW116760   3.050   6.408   0.345
 5287SOL    HW216761   3.126   6.446   0.205
 5288SOL     OW16762   1.972   6.852   1.060
 5288SOL    HW116763   1.953   6.860   1.158
 5288SOL    HW216764   1.912   6.784   1.019
 5289SOL     OW16765   2.823   5.720   0.116
 5289SOL    HW116766   2.892   5.758   0.055
 5289SOL    HW216767   2.861   5.640   0.164
 5290SOL     OW16768   3.616   5.827   0.466
 5290SOL    HW116769   3.677   5.780   0.402
 5290SOL    HW216770   3.552   5.760   0.506
 5291SOL     OW16771   3.102   6.553   0.696
 5291SOL    HW116772   3.166   6.479   0.718
 5291SOL    HW216773   3.151   6.627   0.650
 5292SOL     OW16774   2.617   6.845   1.386
 5292SOL    HW116775   2.590   6.876   1.477
 5292SOL    HW216776   2.550   6.878   1.319
 5293SOL     OW16777   3.707   5.723   0.973
 5293SOL    HW116778   3.730   5.628   0.948
 5293SOL    HW216779   3.617   5.746   0.935
 5294SOL     OW16780   2.089   5.903   0.700
 5294SOL    HW116781   2.002   5.943   0.670
 5294SOL    HW216782   2.093   5.903   0.800
 5295SOL     OW16783   2.657   6.574   1.417
 5295SOL    HW116784   2.695   6.531   1.335
 5295SOL    HW216785   2.644   6.672   1.401
 5296SOL     OW16786   2.785   6.521   0.255
 5296SOL    HW116787   2.822   6.545   0.165
 5296SOL    HW216788   2.839   6.447   0.295
 5297SOL     OW16789   2.243   6.947   1.447
 5297SOL    HW116790   2.256   6.992   1.535
 5297SOL    HW216791   2.189   6.863   1.460
 5298SOL     OW16792   3.406   6.821   1.337
 5298SOL    HW116793   3.464   6.817   1.419
 5298SOL    HW216794   3.312   6.841   1.364
 5299SOL     OW16795   2.930   6.732   0.828
 5299SOL    HW116796   2.846   6.679   0.838
 5299SOL    HW216797   2.998   6.678   0.778
 5300SOL     OW16798   2.912   5.761   0.960
 5300SOL    HW116799   2.908   5.722   0.868
 5300SOL    HW216800   2.898   5.688   1.027
 5301SOL     OW16801   3.629   5.925   1.411
 5301SOL    HW116802   3.690   6.003   1.405
 5301SOL    HW216803   3.663   5.851   1.352
 5302SOL     OW16804   2.017   6.646   1.746
 5302SOL    HW116805   1.931   6.623   1.791
 5302SOL    HW216806   2.088   6.583   1.775
 5303SOL     OW16807   2.572   5.761   1.522
 5303SOL    HW116808   2.655   5.727   1.478
 5303SOL    HW216809   2.594   5.789   1.616
 5304SOL     OW16810   1.911   5.877   0.005
 5304SOL    HW116811   1.850   5.826   6.944
 5304SOL    HW216812   1.863   5.957   0.040
 5305SOL     OW16813   3.262   6.420   1.375
 5305SOL    HW116814   3.212   6.489   1.322
 5305SOL    HW216815   3.356   6.414   1.340
 5306SOL     OW16816   1.930   5.696   0.216
 5306SOL    HW116817   1.920   5.774   0.155
 5306SOL    HW216818   1.990   5.628   0.174
 5307SOL     OW16819   2.500   6.358   1.481
 5307SOL    HW116820   2.553   6.442   1.469
 5307SOL    HW216821   2.562   6.280   1.478
 5308SOL     OW16822   2.581   6.104   1.742
 5308SOL    HW116823   2.639   6.166   1.795
 5308SOL    HW216824   2.603   6.009   1.767
 5309SOL     OW16825   3.285   6.764   1.651
 5309SOL    HW116826   3.270   6.785   1.747
 5309SOL    HW216827   3.380   6.784   1.627
 5310SOL     OW16828   3.512   6.421   1.260
 5310SOL    HW116829   3.511   6.336   1.207
 5310SOL    HW216830   3.509   6.499   1.198
 5311SOL     OW16831   3.123   5.946   0.438
 5311SOL    HW116832   3.206   5.891   0.424
 5311SOL    HW216833   3.133   6.001   0.521
 5312SOL     OW16834   2.414   6.304   0.682
 5312SOL    HW116835   2.469   6.386   0.668
 5312SOL    HW216836   2.343   6.299   0.611
 5313SOL     OW16837   3.571   5.917   1.682
 5313SOL    HW116838   3.594   5.917   1.585
 5313SOL    HW216839   3.495   5.854   1.699
 5314SOL     OW16840   3.647   6.504   1.484
 5314SOL    HW116841   3.639   6.603   1.492
 5314SOL    HW216842   3.604   6.473   1.399
 5315SOL     OW16843   2.721   6.565   0.876
 5315SOL    HW116844   2.780   6.502   0.928
 5315SOL    HW216845   2.654   6.605   0.938
 5316SOL     OW16846   2.885   6.571   6.997
 5316SOL    HW116847   2.837   6.513   6.930
 5316SOL    HW216848   2.976   6.533   0.014
 5317SOL     OW16849   2.053   6.916   1.779
 5317SOL    HW116850   2.039   6.817   1.770
 5317SOL    HW216851   2.072   6.938   1.874
 5318SOL     OW16852   2.078   6.822   0.670
 5318SOL    HW116853   2.094   6.775   0.757
 5318SOL    HW216854   2.146   6.793   0.603
 5319SOL     OW16855   2.525   6.960   1.631
 5319SOL    HW116856   2.430   6.971   1.661
 5319SOL    HW216857   2.558   0.047   1.593
 5320SOL     OW16858   3.726   5.733   1.248
 5320SOL    HW116859   3.789   5.657   1.266
 5320SOL    HW216860   3.708   5.739   1.150
 5321SOL     OW16861   2.258   6.002   0.488
 5321SOL    HW116862   2.304   5.933   0.433
 5321SOL    HW216863   2.209   5.958   0.563
 5322SOL     OW16864   3.419   0.033   1.156
 5322SOL    HW116865   3.371   6.994   1.077
 5322SOL    HW216866   3.417   6.967   1.232
 5323SOL     OW16867   2.225   6.095   1.297
 5323SOL    HW116868   2.276   6.034   1.358
 5323SOL    HW216869   2.215   6.052   1.207
 5324SOL     OW16870   3.291   5.851   1.115
 5324SOL    HW116871   3.314   5.757   1.140
 5324SOL    HW216872   3.225   5.887   1.181
 5325SOL     OW16873   2.868   5.552   1.148
 5325SOL    HW116874   2.814   5.469   1.139
 5325SOL    HW216875   2.965   5.530   1.137
 5326SOL     OW16876   2.679   6.891   0.311
 5326SOL    HW116877   2.651   6.799   0.339
 5326SOL    HW216878   2.691   6.948   0.393
 5327SOL     OW16879   3.209   5.688   0.164
 5327SOL    HW116880   3.272   5.615   0.137
 5327SOL    HW216881   3.127   5.649   0.205
 5328SOL     OW16882   3.135   6.093   0.666
 5328SOL    HW116883   3.075   6.173   0.669
 5328SOL    HW216884   3.132   6.046   0.754
 5329SOL     OW16885   3.456   5.799   0.898
 5329SOL    HW116886   3.399   5.827   0.975
 5329SOL    HW216887   3.463   5.874   0.832
 5330SOL     OW16888   1.991   6.608   0.244
 5330SOL    HW116889   2.080   6.607   0.290
 5330SOL    HW216890   1.941   6.524   0.265
 5331SOL     OW16891   2.047   6.166   1.993
 5331SOL    HW116892   1.952   6.159   2.024
 5331SOL    HW216893   2.050   6.196   1.898
 5332SOL     OW16894   2.076   5.872   2.854
 5332SOL    HW116895   2.114   5.839   2.940
 5332SOL    HW216896   1.988   5.828   2.837
 5333SOL     OW16897   1.867   6.017   2.496
 5333SOL    HW116898   1.785   6.036   2.550
 5333SOL    HW216899   1.846   5.945   2.429
 5334SOL     OW16900   2.415   6.944   3.122
 5334SOL    HW116901   2.364   6.945   3.036
 5334SOL    HW216902   2.351   6.950   3.199
 5335SOL     OW16903   3.540   0.089   2.531
 5335SOL    HW116904   3.534   0.156   2.605
 5335SOL    HW216905   3.451   0.046   2.517
 5336SOL     OW16906   2.967   6.333   2.527
 5336SOL    HW116907   3.009   6.423   2.513
 5336SOL    HW216908   2.925   6.330   2.618
 5337SOL     OW16909   3.641   6.166   2.065
 5337SOL    HW116910   3.602   6.166   1.973
 5337SOL    HW216911   3.590   6.102   2.122
 5338SOL     OW16912   2.516   6.653   2.821
 5338SOL    HW116913   2.510   6.731   2.884
 5338SOL    HW216914   2.472   6.676   2.735
 5339SOL     OW16915   2.752   6.318   3.719
 5339SOL    HW116916   2.758   6.379   3.798
 5339SOL    HW216917   2.763   6.371   3.635
 5340SOL     OW16918   2.563   6.541   2.468
 5340SOL    HW116919   2.640   6.531   2.531
 5340SOL    HW216920   2.499   6.609   2.503
 5341SOL     OW16921   2.558   6.777   3.713
 5341SOL    HW116922   2.559   6.825   3.801
 5341SOL    HW216923   2.542   6.843   3.639
 5342SOL     OW16924   2.255   6.979   2.903
 5342SOL    HW116925   2.173   6.931   2.872
 5342SOL    HW216926   2.278   0.051   2.838
 5343SOL     OW16927   2.351   5.934   3.309
 5343SOL    HW116928   2.431   5.879   3.334
 5343SOL    HW216929   2.269   5.893   3.348
 5344SOL     OW16930   3.486   6.044   2.623
 5344SOL    HW116931   3.454   6.070   2.532
 5344SOL    HW216932   3.444   6.103   2.692
 5345SOL     OW16933   2.168   6.668   2.737
 5345SOL    HW116934   2.166   6.569   2.753
 5345SOL    HW216935   2.122   6.715   2.813
 5346SOL     OW16936   2.419   6.565   2.004
 5346SOL    HW116937   2.452   6.620   1.927
 5346SOL    HW216938   2.479   6.580   2.083
 5347SOL     OW16939   3.434   5.723   3.336
 5347SOL    HW116940   3.485   5.803   3.304
 5347SOL    HW216941   3.379   5.748   3.416
 5348SOL     OW16942   1.959   6.277   2.429
 5348SOL    HW116943   1.935   6.183   2.452
 5348SOL    HW216944   1.944   6.336   2.509
 5349SOL     OW16945   3.531   6.409   2.466
 5349SOL    HW116946   3.609   6.415   2.529
 5349SOL    HW216947   3.549   6.465   2.386
 5350SOL     OW16948   3.578   6.689   2.329
 5350SOL    HW116949   3.657   6.674   2.269
 5350SOL    HW216950   3.606   6.741   2.409
 5351SOL     OW16951   1.976   6.360   3.400
 5351SOL    HW116952   2.041   6.414   3.346
 5351SOL    HW216953   1.886   6.403   3.398
 5352SOL     OW16954   3.093   6.787   3.283
 5352SOL    HW116955   3.127   6.722   3.215
 5352SOL    HW216956   3.159   6.796   3.356
 5353SOL     OW16957   2.689   5.631   2.383
 5353SOL    HW116958   2.736   5.713   2.351
 5353SOL    HW216959   2.591   5.648   2.387
 5354SOL     OW16960   2.098   6.517   3.201
 5354SOL    HW116961   2.184   6.474   3.176
 5354SOL    HW216962   2.037   6.518   3.122
 5355SOL     OW16963   3.456   6.638   2.067
 5355SOL    HW116964   3.400   6.556   2.082
 5355SOL    HW216965   3.497   6.666   2.154
 5356SOL     OW16966   2.216   5.876   3.747
 5356SOL    HW116967   2.253   5.953   3.798
 5356SOL    HW216968   2.125   5.899   3.713
 5357SOL     OW16969   3.244   6.917   2.796
 5357SOL    HW116970   3.157   6.907   2.845
 5357SOL    HW216971   3.280   6.827   2.773
 5358SOL     OW16972   2.423   6.296   2.121
 5358SOL    HW116973   2.428   6.380   2.067
 5358SOL    HW216974   2.350   6.304   2.189
 5359SOL     OW16975   3.141   5.984   2.778
 5359SOL    HW116976   3.050   5.942   2.776
 5359SOL    HW216977   3.201   5.931   2.838
 5360SOL     OW16978   2.650   6.137   3.325
 5360SOL    HW116979   2.619   6.108   3.416
 5360SOL    HW216980   2.624   6.067   3.258
 5361SOL     OW16981   3.230   6.053   3.516
 5361SOL    HW116982   3.237   6.101   3.604
 5361SOL    HW216983   3.267   5.960   3.526
 5362SOL     OW16984   2.795   6.462   3.482
 5362SOL    HW116985   2.849   6.394   3.432
 5362SOL    HW216986   2.742   6.517   3.418
 5363SOL     OW16987   2.870   5.966   3.044
 5363SOL    HW116988   2.776   5.967   3.079
 5363SOL    HW216989   2.870   5.926   2.953
 5364SOL     OW16990   2.894   6.285   2.263
 5364SOL    HW116991   2.917   6.298   2.359
 5364SOL    HW216992   2.804   6.242   2.255
 5365SOL     OW16993   1.920   6.450   2.646
 5365SOL    HW116994   2.010   6.424   2.682
 5365SOL    HW216995   1.887   6.531   2.695
 5366SOL     OW16996   2.718   5.949   2.066
 5366SOL    HW116997   2.785   5.991   2.005
 5366SOL    HW216998   2.663   5.883   2.015
 5367SOL     OW16999   3.509   6.155   3.695
 5367SOL    HW117000   3.513   6.237   3.638
 5367SOL    HW217001   3.532   6.075   3.639
 5368SOL     OW17002   3.339   6.718   2.478
 5368SOL    HW117003   3.415   6.698   2.416
 5368SOL    HW217004   3.327   6.817   2.486
 5369SOL     OW17005   2.423   5.695   2.804
 5369SOL    HW117006   2.428   5.720   2.900
 5369SOL    HW217007   2.438   5.776   2.747
 5370SOL     OW17008   3.669   6.669   2.765
 5370SOL    HW117009   3.641   6.729   2.689
 5370SOL    HW217010   3.599   6.669   2.835
 5371SOL     OW17011   2.192   6.558   2.182
 5371SOL    HW117012   2.258   6.561   2.107
 5371SOL    HW217013   2.194   6.467   2.224
 5372SOL     OW17014   3.295   6.384   2.595
 5372SOL    HW117015   3.307   6.315   2.667
 5372SOL    HW217016   3.383   6.402   2.551
 5373SOL     OW17017   2.092   5.846   3.362
 5373SOL    HW117018   2.043   5.933   3.371
 5373SOL    HW217019   2.037   5.773   3.403
 5374SOL     OW17020   3.465   6.969   1.990
 5374SOL    HW117021   3.438   0.066   1.995
 5374SOL    HW217022   3.387   6.914   1.963
 5375SOL     OW17023   3.257   5.709   2.312
 5375SOL    HW117024   3.251   5.681   2.216
 5375SOL    HW217025   3.347   5.687   2.348
 5376SOL     OW17026   2.212   6.295   2.313
 5376SOL    HW117027   2.242   6.200   2.324
 5376SOL    HW217028   2.117   6.303   2.343
 5377SOL     OW17029   3.308   5.790   3.576
 5377SOL    HW117030   3.318   5.812   3.673
 5377SOL    HW217031   3.243   5.714   3.566
 5378SOL     OW17032   2.494   5.694   1.977
 5378SOL    HW117033   2.527   5.607   2.014
 5378SOL    HW217034   2.431   5.676   1.902
 5379SOL     OW17035   2.638   5.841   3.642
 5379SOL    HW117036   2.726   5.794   3.637
 5379SOL    HW217037   2.580   5.795   3.709
 5380SOL     OW17038   3.144   6.187   3.292
 5380SOL    HW117039   3.183   6.147   3.375
 5380SOL    HW217040   3.189   6.274   3.272
 5381SOL     OW17041   2.794   6.088   2.730
 5381SOL    HW117042   2.766   6.086   2.634
 5381SOL    HW217043   2.828   5.998   2.757
 5382SOL     OW17044   2.420   5.680   2.372
 5382SOL    HW117045   2.340   5.673   2.432
 5382SOL    HW217046   2.408   5.757   2.309
 5383SOL     OW17047   3.257   6.778   1.940
 5383SOL    HW117048   3.331   6.728   1.983
 5383SOL    HW217049   3.173   6.723   1.944
 5384SOL     OW17050   2.129   5.656   2.019
 5384SOL    HW117051   2.171   5.731   1.968
 5384SOL    HW217052   2.198   5.611   2.075
 5385SOL     OW17053   2.823   5.855   2.304
 5385SOL    HW117054   2.787   5.886   2.215
 5385SOL    HW217055   2.921   5.873   2.308
 5386SOL     OW17056   2.880   6.282   3.284
 5386SOL    HW117057   2.808   6.214   3.300
 5386SOL    HW217058   2.969   6.236   3.284
 5387SOL     OW17059   3.292   6.983   2.519
 5387SOL    HW117060   3.239   0.038   2.456
 5387SOL    HW217061   3.250   6.987   2.610
 5388SOL     OW17062   2.381   6.709   2.579
 5388SOL    HW117063   2.303   6.695   2.640
 5388SOL    HW217064   2.350   6.748   2.492
 5389SOL     OW17065   2.895   6.089   1.910
 5389SOL    HW117066   2.849   6.176   1.893
 5389SOL    HW217067   2.967   6.103   1.978
 5390SOL     OW17068   1.983   6.114   3.278
 5390SOL    HW117069   2.075   6.111   3.238
 5390SOL    HW217070   1.973   6.198   3.331
 5391SOL     OW17071   2.424   5.752   3.068
 5391SOL    HW117072   2.447   5.677   3.131
 5391SOL    HW217073   2.328   5.777   3.081
 5392SOL     OW17074   2.725   6.056   2.470
 5392SOL    HW117075   2.679   6.112   2.401
 5392SOL    HW217076   2.762   5.974   2.427
 5393SOL     OW17077   2.877   5.645   2.588
 5393SOL    HW117078   2.811   5.643   2.513
 5393SOL    HW217079   2.856   5.573   2.653
 5394SOL     OW17080   3.312   6.654   2.755
 5394SOL    HW117081   3.253   6.577   2.776
 5394SOL    HW217082   3.327   6.658   2.656
 5395SOL     OW17083   3.314   6.203   2.801
 5395SOL    HW117084   3.249   6.127   2.805
 5395SOL    HW217085   3.376   6.198   2.879
 5396SOL     OW17086   3.703   6.392   2.208
 5396SOL    HW117087   3.752   6.351   2.285
 5396SOL    HW217088   3.672   6.319   2.146
 5397SOL     OW17089   3.656   6.842   2.546
 5397SOL    HW117090   3.756   6.847   2.538
 5397SOL    HW217091   3.617   6.933   2.539
 5398SOL     OW17092   3.245   6.154   1.903
 5398SOL    HW117093   3.203   6.122   1.988
 5398SOL    HW217094   3.343   6.139   1.907
 5399SOL     OW17095   2.383   5.861   2.171
 5399SOL    HW117096   2.428   5.799   2.107
 5399SOL    HW217097   2.348   5.941   2.122
 5400SOL     OW17098   3.592   6.772   3.445
 5400SOL    HW117099   3.606   6.733   3.536
 5400SOL    HW217100   3.645   6.857   3.437
 5401SOL     OW17101   2.866   6.874   3.141
 5401SOL    HW117102   2.782   6.873   3.195
 5401SOL    HW217103   2.944   6.853   3.200
 5402SOL     OW17104   3.022   6.816   2.921
 5402SOL    HW117105   2.954   6.837   2.992
 5402SOL    HW217106   2.975   6.787   2.838
 5403SOL     OW17107   3.482   6.671   2.971
 5403SOL    HW117108   3.462   6.738   3.043
 5403SOL    HW217109   3.407   6.670   2.905
 5404SOL     OW17110   2.788   5.655   3.244
 5404SOL    HW117111   2.797   5.642   3.145
 5404SOL    HW217112   2.869   5.701   3.279
 5405SOL     OW17113   2.812   6.675   3.660
 5405SOL    HW117114   2.719   6.705   3.679
 5405SOL    HW217115   2.810   6.600   3.593
 5406SOL     OW17116   2.599   6.613   2.201
 5406SOL    HW117117   2.589   6.586   2.296
 5406SOL    HW217118   2.680   6.570   2.162
 5407SOL     OW17119   2.318   6.369   3.140
 5407SOL    HW117120   2.384   6.378   3.215
 5407SOL    HW217121   2.279   6.277   3.140
 5408SOL     OW17122   3.119   5.958   3.145
 5408SOL    HW117123   3.137   6.042   3.195
 5408SOL    HW217124   3.027   5.962   3.104
 5409SOL     OW17125   2.254   6.777   2.339
 5409SOL    HW117126   2.291   6.853   2.286
 5409SOL    HW217127   2.231   6.701   2.278
 5410SOL     OW17128   2.364   6.142   2.723
 5410SOL    HW117129   2.378   6.205   2.647
 5410SOL    HW217130   2.447   6.137   2.778
 5411SOL     OW17131   3.387   6.165   2.394
 5411SOL    HW117132   3.295   6.166   2.433
 5411SOL    HW217133   3.430   6.255   2.408
 5412SOL     OW17134   2.354   6.267   3.544
 5412SOL    HW117135   2.391   6.316   3.465
 5412SOL    HW217136   2.421   6.201   3.577
 5413SOL     OW17137   3.509   6.390   3.555
 5413SOL    HW117138   3.416   6.423   3.538
 5413SOL    HW217139   3.569   6.417   3.479
 5414SOL     OW17140   2.876   5.716   3.626
 5414SOL    HW117141   2.921   5.802   3.603
 5414SOL    HW217142   2.941   5.640   3.618
 5415SOL     OW17143   2.341   5.659   3.627
 5415SOL    HW117144   2.285   5.606   3.564
 5415SOL    HW217145   2.295   5.745   3.650
 5416SOL     OW17146   2.528   6.411   2.964
 5416SOL    HW117147   2.519   6.495   2.911
 5416SOL    HW217148   2.447   6.399   3.021
 5417SOL     OW17149   3.150   6.432   2.858
 5417SOL    HW117150   3.056   6.407   2.834
 5417SOL    HW217151   3.210   6.354   2.842
 5418SOL     OW17152   3.071   6.124   2.124
 5418SOL    HW117153   3.085   6.045   2.183
 5418SOL    HW217154   3.013   6.191   2.172
 5419SOL     OW17155   2.152   5.777   3.100
 5419SOL    HW117156   2.130   5.810   3.192
 5419SOL    HW217157   2.122   5.682   3.091
 5420SOL     OW17158   1.919   6.886   3.156
 5420SOL    HW117159   1.967   6.846   3.234
 5420SOL    HW217160   1.916   6.985   3.166
 5421SOL     OW17161   2.579   6.148   2.892
 5421SOL    HW117162   2.660   6.134   2.836
 5421SOL    HW217163   2.570   6.245   2.915
 5422SOL     OW17164   3.603   6.615   3.692
 5422SOL    HW117165   3.571   6.527   3.656
 5422SOL    HW217166   3.566   6.628   3.784
 5423SOL     OW17167   2.186   5.659   2.515
 5423SOL    HW117168   2.155   5.752   2.533
 5423SOL    HW217169   2.191   5.608   2.602
 5424SOL     OW17170   3.466   5.994   2.194
 5424SOL    HW117171   3.526   5.929   2.241
 5424SOL    HW217172   3.426   6.057   2.261
 5425SOL     OW17173   2.886   6.337   2.804
 5425SOL    HW117174   2.862   6.362   2.898
 5425SOL    HW217175   2.860   6.242   2.787
 5426SOL     OW17176   3.751   0.016   3.435
 5426SOL    HW117177   3.802   0.093   3.397
 5426SOL    HW217178   3.797   6.984   3.518
 5427SOL     OW17179   2.227   6.484   3.667
 5427SOL    HW117180   2.291   6.522   3.734
 5427SOL    HW217181   2.270   6.406   3.621
 5428SOL     OW17182   3.354   5.857   1.967
 5428SOL    HW117183   3.310   5.776   2.005
 5428SOL    HW217184   3.397   5.909   2.041
 5429SOL     OW17185   3.148   6.403   1.864
 5429SOL    HW117186   3.170   6.306   1.874
 5429SOL    HW217187   3.185   6.436   1.777
 5430SOL     OW17188   2.168   6.392   2.745
 5430SOL    HW117189   2.242   6.379   2.679
 5430SOL    HW217190   2.160   6.310   2.802
 5431SOL     OW17191   2.145   6.131   2.872
 5431SOL    HW117192   2.106   6.039   2.865
 5431SOL    HW217193   2.228   6.136   2.817
 5432SOL     OW17194   2.976   5.958   3.551
 5432SOL    HW117195   2.934   6.005   3.629
 5432SOL    HW217196   3.065   5.999   3.532
 5433SOL     OW17197   3.011   5.785   3.336
 5433SOL    HW117198   2.989   5.850   3.409
 5433SOL    HW217199   3.060   5.833   3.263
 5434SOL     OW17200   1.876   6.899   2.086
 5434SOL    HW117201   1.783   6.914   2.054
 5434SOL    HW217202   1.888   6.803   2.111
 5435SOL     OW17203   2.795   6.407   3.051
 5435SOL    HW117204   2.825   6.362   3.135
 5435SOL    HW217205   2.696   6.400   3.042
 5436SOL     OW17206   1.903   6.178   3.014
 5436SOL    HW117207   1.986   6.175   2.957
 5436SOL    HW217208   1.928   6.158   3.108
 5437SOL     OW17209   2.085   6.210   3.607
 5437SOL    HW117210   2.183   6.214   3.590
 5437SOL    HW217211   2.037   6.269   3.542
 5438SOL     OW17212   3.267   6.504   3.494
 5438SOL    HW117213   3.273   6.604   3.496
 5438SOL    HW217214   3.254   6.474   3.399
 5439SOL     OW17215   2.648   6.168   2.224
 5439SOL    HW117216   2.664   6.086   2.168
 5439SOL    HW217217   2.568   6.217   2.189
 5440SOL     OW17218   3.496   6.184   3.005
 5440SOL    HW117219   3.474   6.109   3.067
 5440SOL    HW217220   3.595   6.188   2.991
 5441SOL     OW17221   2.599   5.972   3.103
 5441SOL    HW117222   2.537   5.894   3.098
 5441SOL    HW217223   2.580   6.034   3.028
 5442SOL     OW17224   2.296   6.069   2.020
 5442SOL    HW117225   2.358   6.145   2.042
 5442SOL    HW217226   2.202   6.102   2.018
 5443SOL     OW17227   2.063   6.745   3.353
 5443SOL    HW117228   2.038   6.715   3.445
 5443SOL    HW217229   2.083   6.665   3.296
 5444SOL     OW17230   3.153   6.618   3.058
 5444SOL    HW117231   3.154   6.543   2.992
 5444SOL    HW217232   3.113   6.699   3.016
 5445SOL     OW17233   3.283   6.433   2.105
 5445SOL    HW117234   3.260   6.358   2.167
 5445SOL    HW217235   3.231   6.423   2.020
 5446SOL     OW17236   2.013   6.821   2.904
 5446SOL    HW117237   1.984   6.847   2.996
 5446SOL    HW217238   1.940   6.770   2.859
 5447SOL     OW17239   3.642   5.828   2.323
 5447SOL    HW117240   3.697   5.810   2.242
 5447SOL    HW217241   3.596   5.744   2.352
 5448SOL     OW17242   3.112   6.569   2.530
 5448SOL    HW117243   3.170   6.494   2.561
 5448SOL    HW217244   3.168   6.639   2.486
 5449SOL     OW17245   2.620   6.849   3.278
 5449SOL    HW117246   2.591   6.878   3.369
 5449SOL    HW217247   2.554   6.883   3.210
 5450SOL     OW17248   3.722   5.733   2.831
 5450SOL    HW117249   3.749   5.638   2.814
 5450SOL    HW217250   3.631   5.750   2.793
 5451SOL     OW17251   2.112   5.914   2.576
 5451SOL    HW117252   2.026   5.957   2.547
 5451SOL    HW217253   2.114   5.909   2.676
 5452SOL     OW17254   3.117   0.169   1.870
 5452SOL    HW117255   3.110   0.103   1.945
 5452SOL    HW217256   3.029   0.177   1.824
 5453SOL     OW17257   2.674   6.581   3.266
 5453SOL    HW117258   2.736   6.564   3.190
 5453SOL    HW217259   2.652   6.679   3.270
 5454SOL     OW17260   2.818   6.484   2.087
 5454SOL    HW117261   2.893   6.541   2.054
 5454SOL    HW217262   2.853   6.416   2.151
 5455SOL     OW17263   2.221   6.971   3.319
 5455SOL    HW117264   2.216   0.030   3.399
 5455SOL    HW217265   2.169   6.887   3.336
 5456SOL     OW17266   3.451   6.851   3.198
 5456SOL    HW117267   3.511   6.792   3.252
 5456SOL    HW217268   3.432   6.935   3.250
 5457SOL     OW17269   2.925   6.730   2.673
 5457SOL    HW117270   2.846   6.669   2.675
 5457SOL    HW217271   3.000   6.686   2.622
 5458SOL     OW17272   2.896   5.832   2.795
 5458SOL    HW117273   2.895   5.788   2.705
 5458SOL    HW217274   2.886   5.763   2.866
 5459SOL     OW17275   3.630   5.930   3.285
 5459SOL    HW117276   3.693   6.007   3.274
 5459SOL    HW217277   3.652   5.859   3.218
 5460SOL     OW17278   2.008   6.640   3.606
 5460SOL    HW117279   1.925   6.610   3.652
 5460SOL    HW217280   2.083   6.578   3.627
 5461SOL     OW17281   2.568   5.770   3.380
 5461SOL    HW117282   2.651   5.742   3.330
 5461SOL    HW217283   2.594   5.800   3.472
 5462SOL     OW17284   1.995   5.957   1.715
 5462SOL    HW117285   1.895   5.952   1.711
 5462SOL    HW217286   2.023   6.053   1.718
 5463SOL     OW17287   3.263   6.432   3.232
 5463SOL    HW117288   3.211   6.497   3.177
 5463SOL    HW217289   3.358   6.430   3.200
 5464SOL     OW17290   1.877   5.721   2.093
 5464SOL    HW117291   1.831   5.763   2.015
 5464SOL    HW217292   1.973   5.704   2.070
 5465SOL     OW17293   2.505   6.372   3.332
 5465SOL    HW117294   2.562   6.453   3.316
 5465SOL    HW217295   2.563   6.291   3.329
 5466SOL     OW17296   2.582   6.112   3.597
 5466SOL    HW117297   2.641   6.174   3.649
 5466SOL    HW217298   2.606   6.017   3.621
 5467SOL     OW17299   3.303   6.775   3.505
 5467SOL    HW117300   3.295   6.797   3.602
 5467SOL    HW217301   3.396   6.795   3.474
 5468SOL     OW17302   3.516   6.443   3.123
 5468SOL    HW117303   3.516   6.358   3.071
 5468SOL    HW217304   3.512   6.521   3.060
 5469SOL     OW17305   3.090   5.928   2.318
 5469SOL    HW117306   3.153   5.850   2.318
 5469SOL    HW217307   3.113   5.989   2.394
 5470SOL     OW17308   2.362   6.356   2.543
 5470SOL    HW117309   2.440   6.413   2.518
 5470SOL    HW217310   2.309   6.333   2.461
 5471SOL     OW17311   3.564   5.921   3.555
 5471SOL    HW117312   3.588   5.924   3.457
 5471SOL    HW217313   3.484   5.863   3.568
 5472SOL     OW17314   3.656   6.503   3.353
 5472SOL    HW117315   3.649   6.602   3.370
 5472SOL    HW217316   3.611   6.482   3.266
 5473SOL     OW17317   2.730   6.539   2.689
 5473SOL    HW117318   2.780   6.466   2.736
 5473SOL    HW217319   2.658   6.574   2.749
 5474SOL     OW17320   3.026   6.629   1.950
 5474SOL    HW117321   2.949   6.656   1.892
 5474SOL    HW217322   3.064   6.543   1.918
 5475SOL     OW17323   2.028   6.898   3.689
 5475SOL    HW117324   2.031   6.804   3.655
 5475SOL    HW217325   1.973   6.901   3.773
 5476SOL     OW17326   2.070   6.829   2.535
 5476SOL    HW117327   2.097   6.770   2.611
 5476SOL    HW217328   2.126   6.808   2.455
 5477SOL     OW17329   2.500   6.965   3.511
 5477SOL    HW117330   2.407   6.972   3.547
 5477SOL    HW217331   2.524   0.052   3.466
 5478SOL     OW17332   3.685   5.737   3.106
 5478SOL    HW117333   3.675   5.638   3.117
 5478SOL    HW217334   3.703   5.758   3.009
 5479SOL     OW17335   2.272   6.038   2.372
 5479SOL    HW117336   2.315   5.969   2.314
 5479SOL    HW217337   2.227   5.993   2.449
 5480SOL     OW17338   3.405   0.028   2.991
 5480SOL    HW117339   3.351   6.992   2.915
 5480SOL    HW217340   3.413   6.958   3.062
 5481SOL     OW17341   2.223   6.115   3.152
 5481SOL    HW117342   2.281   6.050   3.201
 5481SOL    HW217343   2.221   6.091   3.055
 5482SOL     OW17344   3.291   5.844   2.962
 5482SOL    HW117345   3.310   5.748   2.980
 5482SOL    HW217346   3.235   5.881   3.037
 5483SOL     OW17347   2.862   5.617   2.967
 5483SOL    HW117348   2.820   5.550   2.905
 5483SOL    HW217349   2.956   5.589   2.987
 5484SOL     OW17350   2.527   6.872   2.108
 5484SOL    HW117351   2.561   6.785   2.144
 5484SOL    HW217352   2.498   6.931   2.184
 5485SOL     OW17353   3.241   5.623   2.050
 5485SOL    HW117354   3.293   5.555   1.999
 5485SOL    HW217355   3.149   5.588   2.070
 5486SOL     OW17356   3.141   6.110   2.521
 5486SOL    HW117357   3.079   6.189   2.523
 5486SOL    HW217358   3.142   6.066   2.611
 5487SOL     OW17359   3.469   5.795   2.754
 5487SOL    HW117360   3.406   5.821   2.827
 5487SOL    HW217361   3.478   5.871   2.690
 5488SOL     OW17362   1.916   6.624   2.174
 5488SOL    HW117363   2.015   6.613   2.171
 5488SOL    HW217364   1.872   6.534   2.174
 5489SOL     OW17365   2.053   6.267   3.882
 5489SOL    HW117366   1.964   6.231   3.908
 5489SOL    HW217367   2.064   6.263   3.783
 5490SOL     OW17368   2.034   5.919   4.766
 5490SOL    HW117369   2.075   5.879   4.847
 5490SOL    HW217370   1.959   5.862   4.734
 5491SOL     OW17371   1.855   5.996   4.376
 5491SOL    HW117372   1.770   6.017   4.423
 5491SOL    HW217373   1.838   5.927   4.305
 5492SOL     OW17374   2.442   6.875   4.956
 5492SOL    HW117375   2.410   6.915   4.870
 5492SOL    HW217376   2.370   6.880   5.024
 5493SOL     OW17377   3.480   0.046   4.332
 5493SOL    HW117378   3.474   0.102   4.415
 5493SOL    HW217379   3.407   0.072   4.269
 5494SOL     OW17380   2.961   6.345   4.400
 5494SOL    HW117381   3.007   6.433   4.389
 5494SOL    HW217382   2.908   6.346   4.485
 5495SOL     OW17383   3.640   6.169   3.929
 5495SOL    HW117384   3.598   6.173   3.839
 5495SOL    HW217385   3.590   6.104   3.987
 5496SOL     OW17386   2.532   6.702   4.749
 5496SOL    HW117387   2.518   6.748   4.837
 5496SOL    HW217388   2.490   6.756   4.676
 5497SOL     OW17389   2.748   6.326   5.573
 5497SOL    HW117390   2.760   6.386   5.652
 5497SOL    HW217391   2.767   6.378   5.489
 5498SOL     OW17392   2.563   6.579   4.336
 5498SOL    HW117393   2.627   6.578   4.412
 5498SOL    HW217394   2.488   6.642   4.356
 5499SOL     OW17395   2.572   6.771   5.592
 5499SOL    HW117396   2.600   6.818   5.676
 5499SOL    HW217397   2.557   6.838   5.520
 5500SOL     OW17398   2.365   6.960   4.703
 5500SOL    HW117399   2.295   6.935   4.637
 5500SOL    HW217400   2.393   0.055   4.687
 5501SOL     OW17401   2.339   5.941   5.233
 5501SOL    HW117402   2.418   5.881   5.231
 5501SOL    HW217403   2.256   5.887   5.250
 5502SOL     OW17404   3.472   6.039   4.480
 5502SOL    HW117405   3.446   6.070   4.389
 5502SOL    HW217406   3.426   6.096   4.549
 5503SOL     OW17407   2.122   6.677   4.580
 5503SOL    HW117408   2.183   6.613   4.627
 5503SOL    HW217409   2.053   6.711   4.644
 5504SOL     OW17410   2.398   6.594   3.858
 5504SOL    HW117411   2.438   6.650   3.785
 5504SOL    HW217412   2.456   6.596   3.938
 5505SOL     OW17413   3.409   5.741   5.178
 5505SOL    HW117414   3.472   5.816   5.158
 5505SOL    HW217415   3.363   5.759   5.265
 5506SOL     OW17416   1.979   6.242   4.334
 5506SOL    HW117417   1.941   6.151   4.350
 5506SOL    HW217418   1.988   6.290   4.421
 5507SOL     OW17419   3.540   6.424   4.339
 5507SOL    HW117420   3.618   6.424   4.401
 5507SOL    HW217421   3.553   6.494   4.268
 5508SOL     OW17422   3.581   6.675   4.199
 5508SOL    HW117423   3.661   6.667   4.140
 5508SOL    HW217424   3.603   6.731   4.278
 5509SOL     OW17425   2.069   6.334   5.304
 5509SOL    HW117426   2.169   6.343   5.310
 5509SOL    HW217427   2.026   6.419   5.335
 5510SOL     OW17428   3.111   6.782   5.151
 5510SOL    HW117429   3.134   6.710   5.086
 5510SOL    HW217430   3.175   6.779   5.228
 5511SOL     OW17431   2.689   5.631   4.228
 5511SOL    HW117432   2.734   5.717   4.202
 5511SOL    HW217433   2.591   5.647   4.240
 5512SOL     OW17434   3.457   6.629   3.940
 5512SOL    HW117435   3.397   6.551   3.954
 5512SOL    HW217436   3.501   6.653   4.027
 5513SOL     OW17437   2.227   5.846   5.606
 5513SOL    HW117438   2.263   5.926   5.653
 5513SOL    HW217439   2.130   5.858   5.588
 5514SOL     OW17440   3.316   6.945   4.659
 5514SOL    HW117441   3.261   6.997   4.594
 5514SOL    HW217442   3.294   6.848   4.650
 5515SOL     OW17443   2.423   6.296   4.028
 5515SOL    HW117444   2.426   6.390   3.991
 5515SOL    HW217445   2.355   6.292   4.101
 5516SOL     OW17446   3.130   5.979   4.645
 5516SOL    HW117447   3.039   5.937   4.645
 5516SOL    HW217448   3.192   5.925   4.701
 5517SOL     OW17449   2.587   6.194   5.125
 5517SOL    HW117450   2.588   6.173   5.223
 5517SOL    HW217451   2.586   6.109   5.073
 5518SOL     OW17452   3.232   6.042   5.388
 5518SOL    HW117453   3.241   6.089   5.476
 5518SOL    HW217454   3.265   5.948   5.396
 5519SOL     OW17455   2.792   6.450   5.325
 5519SOL    HW117456   2.848   6.376   5.288
 5519SOL    HW217457   2.747   6.499   5.250
 5520SOL     OW17458   2.860   5.963   4.915
 5520SOL    HW117459   2.764   5.973   4.941
 5520SOL    HW217460   2.866   5.915   4.827
 5521SOL     OW17461   2.898   6.294   4.131
 5521SOL    HW117462   2.920   6.311   4.227
 5521SOL    HW217463   2.809   6.249   4.124
 5522SOL     OW17464   1.995   6.401   4.568
 5522SOL    HW117465   2.043   6.482   4.534
 5522SOL    HW217466   1.900   6.425   4.589
 5523SOL     OW17467   2.706   5.950   3.933
 5523SOL    HW117468   2.770   5.990   3.868
 5523SOL    HW217469   2.650   5.881   3.887
 5524SOL     OW17470   3.517   6.136   5.557
 5524SOL    HW117471   3.516   6.219   5.501
 5524SOL    HW217472   3.536   6.057   5.498
 5525SOL     OW17473   3.333   6.752   4.354
 5525SOL    HW117474   3.400   6.712   4.291
 5525SOL    HW217475   3.351   6.850   4.365
 5526SOL     OW17476   2.404   5.725   4.677
 5526SOL    HW117477   2.412   5.739   4.776
 5526SOL    HW217478   2.410   5.813   4.630
 5527SOL     OW17479   3.675   6.678   4.632
 5527SOL    HW117480   3.645   6.734   4.554
 5527SOL    HW217481   3.600   6.669   4.698
 5528SOL     OW17482   2.140   6.544   3.972
 5528SOL    HW117483   2.225   6.571   3.926
 5528SOL    HW217484   2.116   6.451   3.945
 5529SOL     OW17485   3.295   6.388   4.447
 5529SOL    HW117486   3.300   6.318   4.518
 5529SOL    HW217487   3.386   6.406   4.411
 5530SOL     OW17488   2.084   5.836   5.258
 5530SOL    HW117489   2.045   5.908   5.316
 5530SOL    HW217490   2.038   5.750   5.277
 5531SOL     OW17491   3.494   6.970   3.849
 5531SOL    HW117492   3.458   0.064   3.850
 5531SOL    HW217493   3.420   6.907   3.826
 5532SOL     OW17494   3.248   5.710   4.196
 5532SOL    HW117495   3.243   5.686   4.099
 5532SOL    HW217496   3.339   5.689   4.231
 5533SOL     OW17497   2.242   6.246   4.231
 5533SOL    HW117498   2.274   6.155   4.258
 5533SOL    HW217499   2.144   6.254   4.250
 5534SOL     OW17500   3.304   5.778   5.436
 5534SOL    HW117501   3.317   5.799   5.533
 5534SOL    HW217502   3.238   5.704   5.426
 5535SOL     OW17503   2.502   5.714   3.850
 5535SOL    HW117504   2.544   5.631   3.886
 5535SOL    HW217505   2.435   5.689   3.780
 5536SOL     OW17506   2.624   5.892   5.476
 5536SOL    HW117507   2.713   5.846   5.481
 5536SOL    HW217508   2.565   5.858   5.549
 5537SOL     OW17509   3.184   6.166   5.149
 5537SOL    HW117510   3.216   6.128   5.236
 5537SOL    HW217511   3.226   6.256   5.135
 5538SOL     OW17512   2.792   6.091   4.600
 5538SOL    HW117513   2.767   6.085   4.504
 5538SOL    HW217514   2.821   6.001   4.633
 5539SOL     OW17515   2.418   5.671   4.231
 5539SOL    HW117516   2.342   5.661   4.296
 5539SOL    HW217517   2.401   5.750   4.173
 5540SOL     OW17518   3.277   6.781   3.802
 5540SOL    HW117519   3.344   6.725   3.849
 5540SOL    HW217520   3.189   6.733   3.799
 5541SOL     OW17521   2.137   5.651   3.886
 5541SOL    HW117522   2.181   5.730   3.842
 5541SOL    HW217523   2.205   5.600   3.937
 5542SOL     OW17524   2.820   5.862   4.167
 5542SOL    HW117525   2.784   5.893   4.079
 5542SOL    HW217526   2.918   5.879   4.171
 5543SOL     OW17527   2.925   6.236   5.205
 5543SOL    HW117528   2.885   6.154   5.245
 5543SOL    HW217529   3.020   6.219   5.181
 5544SOL     OW17530   3.165   0.098   4.492
 5544SOL    HW117531   3.070   0.068   4.483
 5544SOL    HW217532   3.167   0.198   4.500
 5545SOL     OW17533   2.333   6.718   4.388
 5545SOL    HW117534   2.262   6.704   4.456
 5545SOL    HW217535   2.291   6.744   4.301
 5546SOL     OW17536   2.886   6.087   3.777
 5546SOL    HW117537   2.844   6.175   3.755
 5546SOL    HW217538   2.959   6.101   3.844
 5547SOL     OW17539   1.976   6.147   5.115
 5547SOL    HW117540   2.069   6.116   5.095
 5547SOL    HW217541   1.979   6.222   5.180
 5548SOL     OW17542   2.409   5.770   4.946
 5548SOL    HW117543   2.435   5.695   5.006
 5548SOL    HW217544   2.313   5.793   4.961
 5549SOL     OW17545   2.721   6.052   4.343
 5549SOL    HW117546   2.682   6.112   4.273
 5549SOL    HW217547   2.759   5.971   4.299
 5550SOL     OW17548   2.859   5.649   4.450
 5550SOL    HW117549   2.802   5.647   4.369
 5550SOL    HW217550   2.834   5.573   4.511
 5551SOL     OW17551   3.284   6.671   4.630
 5551SOL    HW117552   3.227   6.592   4.648
 5551SOL    HW217553   3.300   6.680   4.532
 5552SOL     OW17554   3.299   6.203   4.654
 5552SOL    HW117555   3.235   6.126   4.661
 5552SOL    HW217556   3.363   6.200   4.730
 5553SOL     OW17557   3.711   6.396   4.067
 5553SOL    HW117558   3.753   6.357   4.149
 5553SOL    HW217559   3.678   6.323   4.008
 5554SOL     OW17560   3.642   6.838   4.409
 5554SOL    HW117561   3.740   6.856   4.400
 5554SOL    HW217562   3.591   6.920   4.384
 5555SOL     OW17563   3.237   6.162   3.766
 5555SOL    HW117564   3.194   6.131   3.851
 5555SOL    HW217565   3.336   6.148   3.772
 5556SOL     OW17566   2.371   5.872   4.052
 5556SOL    HW117567   2.422   5.820   3.983
 5556SOL    HW217568   2.329   5.952   4.010
 5557SOL     OW17569   3.579   6.738   5.331
 5557SOL    HW117570   3.652   6.721   5.397
 5557SOL    HW217571   3.572   6.836   5.312
 5558SOL     OW17572   2.889   6.894   5.026
 5558SOL    HW117573   2.809   6.884   5.085
 5558SOL    HW217574   2.971   6.867   5.077
 5559SOL     OW17575   2.896   6.700   4.833
 5559SOL    HW117576   2.893   6.781   4.892
 5559SOL    HW217577   2.915   6.728   4.739
 5560SOL     OW17578   3.479   6.666   4.825
 5560SOL    HW117579   3.477   6.736   4.897
 5560SOL    HW217580   3.400   6.676   4.766
 5561SOL     OW17581   2.783   5.647   5.121
 5561SOL    HW117582   2.792   5.632   5.023
 5561SOL    HW217583   2.864   5.695   5.155
 5562SOL     OW17584   2.816   6.656   5.511
 5562SOL    HW117585   2.725   6.688   5.536
 5562SOL    HW217586   2.810   6.589   5.438
 5563SOL     OW17587   2.584   6.605   4.057
 5563SOL    HW117588   2.582   6.593   4.156
 5563SOL    HW217589   2.667   6.564   4.020
 5564SOL     OW17590   2.210   6.364   4.970
 5564SOL    HW117591   2.281   6.422   5.011
 5564SOL    HW217592   2.215   6.272   5.009
 5565SOL     OW17593   3.116   5.945   5.005
 5565SOL    HW117594   3.145   6.028   5.052
 5565SOL    HW217595   3.022   5.957   4.971
 5566SOL     OW17596   2.175   6.769   4.160
 5566SOL    HW117597   2.178   6.855   4.110
 5566SOL    HW217598   2.164   6.693   4.096
 5567SOL     OW17599   2.411   5.985   4.575
 5567SOL    HW117600   2.401   5.998   4.476
 5567SOL    HW217601   2.479   6.049   4.610
 5568SOL     OW17602   3.398   6.181   4.253
 5568SOL    HW117603   3.305   6.197   4.288
 5568SOL    HW217604   3.452   6.265   4.263
 5569SOL     OW17605   2.351   6.337   5.342
 5569SOL    HW117606   2.383   6.383   5.260
 5569SOL    HW217607   2.419   6.270   5.371
 5570SOL     OW17608   3.505   6.376   5.426
 5570SOL    HW117609   3.412   6.408   5.413
 5570SOL    HW217610   3.563   6.407   5.350
 5571SOL     OW17611   2.856   5.748   5.493
 5571SOL    HW117612   2.909   5.827   5.462
 5571SOL    HW217613   2.914   5.666   5.492
 5572SOL     OW17614   2.367   5.633   5.504
 5572SOL    HW117615   2.308   5.570   5.453
 5572SOL    HW217616   2.317   5.716   5.527
 5573SOL     OW17617   2.503   6.434   4.817
 5573SOL    HW117618   2.527   6.528   4.792
 5573SOL    HW217619   2.491   6.428   4.916
 5574SOL     OW17620   3.138   6.434   4.711
 5574SOL    HW117621   3.042   6.410   4.698
 5574SOL    HW217622   3.195   6.355   4.688
 5575SOL     OW17623   3.066   6.127   3.988
 5575SOL    HW117624   3.082   6.049   4.047
 5575SOL    HW217625   3.011   6.195   4.036
 5576SOL     OW17626   2.142   5.804   4.989
 5576SOL    HW117627   2.120   5.827   5.084
 5576SOL    HW217628   2.115   5.710   4.970
 5577SOL     OW17629   1.959   6.887   4.988
 5577SOL    HW117630   1.985   6.842   5.073
 5577SOL    HW217631   1.918   6.976   5.009
 5578SOL     OW17632   2.559   6.165   4.729
 5578SOL    HW117633   2.648   6.154   4.686
 5578SOL    HW217634   2.544   6.261   4.751
 5579SOL     OW17635   3.616   6.569   5.599
 5579SOL    HW117636   3.575   6.490   5.554
 5579SOL    HW217637   3.561   6.593   5.680
 5580SOL     OW17638   2.185   5.651   4.381
 5580SOL    HW117639   2.147   5.741   4.404
 5580SOL    HW217640   2.197   5.597   4.464
 5581SOL     OW17641   3.466   5.997   4.059
 5581SOL    HW117642   3.523   5.930   4.106
 5581SOL    HW217643   3.430   6.063   4.125
 5582SOL     OW17644   2.862   6.343   4.689
 5582SOL    HW117645   2.843   6.351   4.787
 5582SOL    HW217646   2.846   6.249   4.659
 5583SOL     OW17647   3.799   0.056   5.282
 5583SOL    HW117648   3.860   0.133   5.262
 5583SOL    HW217649   3.836   0.004   5.359
 5584SOL     OW17650   2.238   6.495   5.546
 5584SOL    HW117651   2.302   6.518   5.620
 5584SOL    HW217652   2.284   6.438   5.479
 5585SOL     OW17653   3.345   5.863   3.838
 5585SOL    HW117654   3.299   5.784   3.879
 5585SOL    HW217655   3.391   5.916   3.909
 5586SOL     OW17656   3.155   6.416   3.725
 5586SOL    HW117657   3.173   6.318   3.734
 5586SOL    HW217658   3.190   6.449   3.637
 5587SOL     OW17659   2.278   6.460   4.664
 5587SOL    HW117660   2.357   6.453   4.726
 5587SOL    HW217661   2.308   6.438   4.571
 5588SOL     OW17662   2.223   6.109   4.737
 5588SOL    HW117663   2.156   6.035   4.745
 5588SOL    HW217664   2.300   6.077   4.681
 5589SOL     OW17665   2.964   5.985   5.393
 5589SOL    HW117666   2.924   6.023   5.476
 5589SOL    HW217667   3.061   6.012   5.387
 5590SOL     OW17668   3.006   5.784   5.204
 5590SOL    HW117669   2.983   5.857   5.267
 5590SOL    HW217670   3.058   5.821   5.127
 5591SOL     OW17671   1.849   6.867   3.901
 5591SOL    HW117672   1.755   6.891   3.877
 5591SOL    HW217673   1.852   6.775   3.939
 5592SOL     OW17674   2.796   6.325   4.963
 5592SOL    HW117675   2.868   6.307   5.031
 5592SOL    HW217676   2.710   6.283   4.994
 5593SOL     OW17677   1.936   6.170   4.845
 5593SOL    HW117678   1.959   6.079   4.811
 5593SOL    HW217679   1.940   6.171   4.945
 5594SOL     OW17680   2.100   6.098   5.438
 5594SOL    HW117681   2.196   6.076   5.419
 5594SOL    HW217682   2.076   6.182   5.390
 5595SOL     OW17683   3.258   6.483   5.368
 5595SOL    HW117684   3.265   6.583   5.373
 5595SOL    HW217685   3.254   6.454   5.273
 5596SOL     OW17686   2.656   6.169   4.097
 5596SOL    HW117687   2.667   6.089   4.038
 5596SOL    HW217688   2.573   6.219   4.072
 5597SOL     OW17689   3.485   6.183   4.855
 5597SOL    HW117690   3.460   6.108   4.916
 5597SOL    HW217691   3.584   6.185   4.844
 5598SOL     OW17692   2.583   5.988   4.945
 5598SOL    HW117693   2.525   5.906   4.945
 5598SOL    HW217694   2.563   6.042   4.863
 5599SOL     OW17695   2.273   6.092   3.916
 5599SOL    HW117696   2.346   6.156   3.941
 5599SOL    HW217697   2.186   6.142   3.909
 5600SOL     OW17698   2.054   6.701   5.180
 5600SOL    HW117699   2.037   6.675   5.275
 5600SOL    HW217700   2.025   6.626   5.120
 5601SOL     OW17701   3.114   6.576   4.943
 5601SOL    HW117702   3.144   6.522   4.864
 5601SOL    HW217703   3.029   6.623   4.922
 5602SOL     OW17704   3.274   6.433   3.974
 5602SOL    HW117705   3.243   6.357   4.032
 5602SOL    HW217706   3.227   6.429   3.886
 5603SOL     OW17707   1.924   6.765   4.749
 5603SOL    HW117708   1.949   6.813   4.833
 5603SOL    HW217709   1.829   6.734   4.756
 5604SOL     OW17710   3.637   5.824   4.185
 5604SOL    HW117711   3.692   5.800   4.105
 5604SOL    HW217712   3.590   5.743   4.220
 5605SOL     OW17713   3.113   6.581   4.396
 5605SOL    HW117714   3.175   6.505   4.418
 5605SOL    HW217715   3.165   6.656   4.356
 5606SOL     OW17716   2.641   6.853   5.147
 5606SOL    HW117717   2.604   6.883   5.235
 5606SOL    HW217718   2.573   6.868   5.076
 5607SOL     OW17719   3.715   5.723   4.688
 5607SOL    HW117720   3.739   5.627   4.672
 5607SOL    HW217721   3.624   5.741   4.652
 5608SOL     OW17722   2.095   5.896   4.463
 5608SOL    HW117723   2.008   5.932   4.430
 5608SOL    HW217724   2.098   5.901   4.563
 5609SOL     OW17725   3.112   0.161   3.761
 5609SOL    HW117726   3.109   0.094   3.835
 5609SOL    HW217727   3.026   0.160   3.711
 5610SOL     OW17728   2.687   6.586   5.107
 5610SOL    HW117729   2.749   6.570   5.030
 5610SOL    HW217730   2.678   6.684   5.122
 5611SOL     OW17731   2.816   6.487   3.947
 5611SOL    HW117732   2.888   6.548   3.915
 5611SOL    HW217733   2.854   6.422   4.013
 5612SOL     OW17734   2.244   6.903   5.148
 5612SOL    HW117735   2.251   6.947   5.237
 5612SOL    HW217736   2.181   6.825   5.153
 5613SOL     OW17737   3.518   6.855   5.030
 5613SOL    HW117738   3.618   6.857   5.018
 5613SOL    HW217739   3.495   6.891   5.120
 5614SOL     OW17740   2.927   6.745   4.547
 5614SOL    HW117741   2.844   6.689   4.546
 5614SOL    HW217742   3.000   6.698   4.498
 5615SOL     OW17743   2.881   5.822   4.671
 5615SOL    HW117744   2.879   5.781   4.580
 5615SOL    HW217745   2.869   5.750   4.740
 5616SOL     OW17746   3.632   5.917   5.146
 5616SOL    HW117747   3.691   5.996   5.130
 5616SOL    HW217748   3.653   5.846   5.079
 5617SOL     OW17749   2.005   6.582   5.426
 5617SOL    HW117750   1.924   6.600   5.482
 5617SOL    HW217751   2.083   6.561   5.485
 5618SOL     OW17752   2.560   5.766   5.240
 5618SOL    HW117753   2.641   5.730   5.194
 5618SOL    HW217754   2.588   5.813   5.324
 5619SOL     OW17755   1.970   5.968   3.675
 5619SOL    HW117756   1.878   5.959   3.635
 5619SOL    HW217757   2.007   6.058   3.651
 5620SOL     OW17758   3.272   6.421   5.105
 5620SOL    HW117759   3.208   6.477   5.052
 5620SOL    HW217760   3.363   6.428   5.065
 5621SOL     OW17761   1.894   5.748   3.953
 5621SOL    HW117762   1.865   5.811   3.881
 5621SOL    HW217763   1.987   5.716   3.934
 5622SOL     OW17764   2.463   6.429   5.095
 5622SOL    HW117765   2.534   6.498   5.109
 5622SOL    HW217766   2.504   6.338   5.105
 5623SOL     OW17767   2.575   6.164   5.407
 5623SOL    HW117768   2.630   6.219   5.470
 5623SOL    HW217769   2.587   6.067   5.429
 5624SOL     OW17770   3.301   6.752   5.377
 5624SOL    HW117771   3.289   6.777   5.473
 5624SOL    HW217772   3.399   6.748   5.356
 5625SOL     OW17773   3.513   6.439   4.977
 5625SOL    HW117774   3.511   6.355   4.924
 5625SOL    HW217775   3.509   6.518   4.915
 5626SOL     OW17776   3.086   5.934   4.184
 5626SOL    HW117777   3.147   5.854   4.190
 5626SOL    HW217778   3.105   5.996   4.260
 5627SOL     OW17779   2.368   6.397   4.421
 5627SOL    HW117780   2.442   6.452   4.383
 5627SOL    HW217781   2.325   6.344   4.348
 5628SOL     OW17782   3.566   5.903   5.414
 5628SOL    HW117783   3.591   5.906   5.317
 5628SOL    HW217784   3.487   5.843   5.427
 5629SOL     OW17785   3.642   6.491   5.216
 5629SOL    HW117786   3.621   6.585   5.244
 5629SOL    HW217787   3.600   6.473   5.127
 5630SOL     OW17788   2.715   6.571   4.578
 5630SOL    HW117789   2.761   6.493   4.621
 5630SOL    HW217790   2.658   6.617   4.646
 5631SOL     OW17791   3.035   6.645   3.809
 5631SOL    HW117792   2.955   6.668   3.753
 5631SOL    HW217793   3.073   6.557   3.780
 5632SOL     OW17794   2.040   6.952   5.582
 5632SOL    HW117795   1.970   6.901   5.633
 5632SOL    HW217796   2.098   0.002   5.645
 5633SOL     OW17797   2.041   6.861   4.382
 5633SOL    HW117798   2.061   6.797   4.456
 5633SOL    HW217799   2.077   6.826   4.296
 5634SOL     OW17800   2.518   6.959   5.379
 5634SOL    HW117801   2.419   6.952   5.393
 5634SOL    HW217802   2.541   0.052   5.350
 5635SOL     OW17803   3.686   5.726   4.965
 5635SOL    HW117804   3.681   5.627   4.976
 5635SOL    HW217805   3.699   5.748   4.868
 5636SOL     OW17806   2.310   5.993   4.308
 5636SOL    HW117807   2.334   5.943   4.225
 5636SOL    HW217808   2.234   5.948   4.354
 5637SOL     OW17809   3.426   0.058   4.876
 5637SOL    HW117810   3.386   0.018   4.793
 5637SOL    HW217811   3.454   6.985   4.937
 5638SOL     OW17812   2.237   6.104   5.041
 5638SOL    HW117813   2.283   6.051   5.112
 5638SOL    HW217814   2.271   6.076   4.951
 5639SOL     OW17815   3.282   5.830   4.819
 5639SOL    HW117816   3.297   5.732   4.833
 5639SOL    HW217817   3.230   5.866   4.896
 5640SOL     OW17818   2.839   5.603   4.847
 5640SOL    HW117819   2.776   5.531   4.816
 5640SOL    HW217820   2.933   5.567   4.846
 5641SOL     OW17821   2.535   6.877   3.982
 5641SOL    HW117822   2.558   6.784   4.012
 5641SOL    HW217823   2.511   6.933   4.061
 5642SOL     OW17824   3.230   5.634   3.933
 5642SOL    HW117825   3.282   5.567   3.881
 5642SOL    HW217826   3.138   5.599   3.950
 5643SOL     OW17827   3.127   6.113   4.388
 5643SOL    HW117828   3.068   6.193   4.394
 5643SOL    HW217829   3.128   6.066   4.477
 5644SOL     OW17830   3.462   5.788   4.612
 5644SOL    HW117831   3.400   5.811   4.687
 5644SOL    HW217832   3.468   5.865   4.549
 5645SOL     OW17833   1.875   6.602   4.039
 5645SOL    HW117834   1.971   6.597   4.013
 5645SOL    HW217835   1.844   6.512   4.068
 5646SOL     OW17836   2.063   6.158   5.719
 5646SOL    HW117837   1.968   6.151   5.750
 5646SOL    HW217838   2.064   6.165   5.619
 5647SOL     OW17839   2.059   5.889   6.582
 5647SOL    HW117840   2.099   5.866   6.671
 5647SOL    HW217841   1.971   5.844   6.573
 5648SOL     OW17842   1.842   6.023   6.219
 5648SOL    HW117843   1.755   6.035   6.267
 5648SOL    HW217844   1.831   5.957   6.145
 5649SOL     OW17845   2.378   6.926   6.769
 5649SOL    HW117846   2.293   6.953   6.724
 5649SOL    HW217847   2.359   6.904   6.865
 5650SOL     OW17848   3.459   0.049   6.200
 5650SOL    HW117849   3.427   0.048   6.295
 5650SOL    HW217850   3.384   0.077   6.140
 5651SOL     OW17851   2.991   6.304   6.236
 5651SOL    HW117852   3.026   6.398   6.242
 5651SOL    HW217853   2.931   6.286   6.314
 5652SOL     OW17854   3.646   6.149   5.791
 5652SOL    HW117855   3.608   6.153   5.699
 5652SOL    HW217856   3.591   6.087   5.847
 5653SOL     OW17857   2.511   6.720   6.580
 5653SOL    HW117858   2.478   6.787   6.647
 5653SOL    HW217859   2.462   6.731   6.494
 5654SOL     OW17860   2.559   6.560   6.230
 5654SOL    HW117861   2.637   6.564   6.292
 5654SOL    HW217862   2.487   6.620   6.264
 5655SOL     OW17863   2.154   0.048   6.664
 5655SOL    HW117864   2.069   0.000   6.641
 5655SOL    HW217865   2.178   0.112   6.591
 5656SOL     OW17866   3.445   6.043   6.321
 5656SOL    HW117867   3.362   6.050   6.265
 5656SOL    HW217868   3.438   6.106   6.398
 5657SOL     OW17869   2.147   6.661   6.520
 5657SOL    HW117870   2.162   6.564   6.506
 5657SOL    HW217871   2.102   6.676   6.608
 5658SOL     OW17872   2.424   6.574   5.747
 5658SOL    HW117873   2.459   6.632   5.673
 5658SOL    HW217874   2.483   6.584   5.827
 5659SOL     OW17875   1.961   6.277   6.163
 5659SOL    HW117876   1.925   6.187   6.187
 5659SOL    HW217877   1.948   6.340   6.240
 5660SOL     OW17878   3.559   6.462   6.240
 5660SOL    HW117879   3.646   6.451   6.287
 5660SOL    HW217880   3.568   6.530   6.168
 5661SOL     OW17881   3.578   6.679   6.062
 5661SOL    HW117882   3.657   6.659   6.004
 5661SOL    HW217883   3.605   6.746   6.131
 5662SOL     OW17884   2.697   5.616   6.090
 5662SOL    HW117885   2.743   5.702   6.069
 5662SOL    HW217886   2.599   5.632   6.101
 5663SOL     OW17887   2.037   6.579   6.781
 5663SOL    HW117888   2.115   6.518   6.790
 5663SOL    HW217889   1.953   6.524   6.774
 5664SOL     OW17890   3.447   6.637   5.814
 5664SOL    HW117891   3.388   6.558   5.829
 5664SOL    HW217892   3.493   6.661   5.900
 5665SOL     OW17893   3.347   6.959   6.448
 5665SOL    HW117894   3.268   0.011   6.417
 5665SOL    HW217895   3.322   6.863   6.461
 5666SOL     OW17896   2.432   6.291   5.869
 5666SOL    HW117897   2.439   6.376   5.818
 5666SOL    HW217898   2.357   6.298   5.936
 5667SOL     OW17899   3.125   5.973   6.482
 5667SOL    HW117900   3.040   5.921   6.480
 5667SOL    HW217901   3.192   5.927   6.540
 5668SOL     OW17902   2.600   6.168   0.068
 5668SOL    HW117903   2.526   6.178   0.135
 5668SOL    HW217904   2.571   6.106   6.995
 5669SOL     OW17905   2.864   6.004   6.674
 5669SOL    HW117906   2.804   5.986   6.752
 5669SOL    HW217907   2.879   5.919   6.624
 5670SOL     OW17908   2.901   6.273   5.977
 5670SOL    HW117909   2.937   6.285   6.070
 5670SOL    HW217910   2.810   6.231   5.982
 5671SOL     OW17911   1.935   6.467   6.369
 5671SOL    HW117912   2.022   6.437   6.408
 5671SOL    HW217913   1.906   6.552   6.413
 5672SOL     OW17914   2.710   5.940   5.805
 5672SOL    HW117915   2.767   5.983   5.735
 5672SOL    HW217916   2.655   5.868   5.763
 5673SOL     OW17917   3.326   6.741   6.184
 5673SOL    HW117918   3.403   6.703   6.132
 5673SOL    HW217919   3.338   6.840   6.194
 5674SOL     OW17920   2.441   5.681   6.530
 5674SOL    HW117921   2.429   5.723   6.620
 5674SOL    HW217922   2.472   5.751   6.465
 5675SOL     OW17923   3.699   6.686   6.462
 5675SOL    HW117924   3.664   6.741   6.386
 5675SOL    HW217925   3.625   6.662   6.524
 5676SOL     OW17926   2.188   6.555   5.919
 5676SOL    HW117927   2.256   6.565   5.846
 5676SOL    HW217928   2.193   6.462   5.956
 5677SOL     OW17929   3.316   6.358   6.284
 5677SOL    HW117930   3.309   6.307   6.370
 5677SOL    HW217931   3.407   6.398   6.277
 5678SOL     OW17932   3.491   6.967   5.709
 5678SOL    HW117933   3.459   0.062   5.712
 5678SOL    HW217934   3.414   6.907   5.685
 5679SOL     OW17935   3.254   5.680   6.043
 5679SOL    HW117936   3.250   5.653   5.946
 5679SOL    HW217937   3.347   5.665   6.077
 5680SOL     OW17938   2.219   6.285   6.056
 5680SOL    HW117939   2.244   6.189   6.063
 5680SOL    HW217940   2.125   6.298   6.086
 5681SOL     OW17941   2.551   5.720   5.697
 5681SOL    HW117942   2.630   5.659   5.702
 5681SOL    HW217943   2.483   5.681   5.636
 5682SOL     OW17944   2.814   6.182   6.468
 5682SOL    HW117945   2.788   6.137   6.382
 5682SOL    HW217946   2.846   6.113   6.533
 5683SOL     OW17947   2.427   5.664   6.096
 5683SOL    HW117948   2.345   5.661   6.154
 5683SOL    HW217949   2.418   5.739   6.031
 5684SOL     OW17950   3.268   6.777   5.664
 5684SOL    HW117951   3.338   6.726   5.715
 5684SOL    HW217952   3.183   6.725   5.663
 5685SOL     OW17953   2.152   5.629   5.758
 5685SOL    HW117954   2.198   5.704   5.710
 5685SOL    HW217955   2.219   5.573   5.807
 5686SOL     OW17956   2.823   5.854   6.042
 5686SOL    HW117957   2.786   5.887   5.956
 5686SOL    HW217958   2.923   5.865   6.042
 5687SOL     OW17959   3.153   0.114   6.343
 5687SOL    HW117960   3.152   0.209   6.375
 5687SOL    HW217961   3.059   0.084   6.325
 5688SOL     OW17962   2.356   6.711   6.347
 5688SOL    HW117963   2.282   6.698   6.413
 5688SOL    HW217964   2.319   6.736   6.258
 5689SOL     OW17965   2.872   6.085   5.630
 5689SOL    HW117966   2.832   6.175   5.615
 5689SOL    HW217967   2.945   6.092   5.698
 5690SOL     OW17968   2.400   5.785   6.780
 5690SOL    HW117969   2.425   5.703   6.833
 5690SOL    HW217970   2.306   5.811   6.803
 5691SOL     OW17971   2.748   6.061   6.228
 5691SOL    HW117972   2.698   6.111   6.157
 5691SOL    HW217973   2.782   5.976   6.190
 5692SOL     OW17974   2.882   5.606   6.300
 5692SOL    HW117975   2.819   5.612   6.222
 5692SOL    HW217976   2.855   5.531   6.359
 5693SOL     OW17977   3.296   6.687   6.463
 5693SOL    HW117978   3.239   6.612   6.497
 5693SOL    HW217979   3.299   6.683   6.363
 5694SOL     OW17980   3.290   6.214   6.523
 5694SOL    HW117981   3.228   6.136   6.525
 5694SOL    HW217982   3.362   6.202   6.591
 5695SOL     OW17983   3.673   6.374   5.943
 5695SOL    HW117984   3.731   6.344   6.019
 5695SOL    HW217985   3.664   6.301   5.876
 5696SOL     OW17986   3.654   6.856   6.250
 5696SOL    HW117987   3.751   6.881   6.254
 5696SOL    HW217988   3.599   6.938   6.236
 5697SOL     OW17989   3.244   6.147   5.639
 5697SOL    HW117990   3.195   6.109   5.717
 5697SOL    HW217991   3.342   6.127   5.648
 5698SOL     OW17992   2.398   5.848   5.899
 5698SOL    HW117993   2.454   5.796   5.834
 5698SOL    HW217994   2.362   5.930   5.854
 5699SOL     OW17995   3.634   6.782   0.284
 5699SOL    HW117996   3.717   6.728   0.271
 5699SOL    HW217997   3.623   6.845   0.208
 5700SOL     OW17998   2.790   6.819   6.889
 5700SOL    HW117999   2.705   6.832   6.940
 5700SOL    HW218000   2.842   6.744   6.930
 5701SOL     OW18001   2.991   6.750   6.696
 5701SOL    HW118002   2.912   6.788   6.744
 5701SOL    HW218003   2.982   6.769   6.598
 5702SOL     OW18004   3.497   6.632   6.637
 5702SOL    HW118005   3.490   6.695   6.714
 5702SOL    HW218006   3.421   6.648   6.574
 5703SOL     OW18007   2.606   6.606   5.947
 5703SOL    HW118008   2.598   6.586   6.044
 5703SOL    HW218009   2.686   6.559   5.909
 5704SOL     OW18010   2.274   6.443   6.839
 5704SOL    HW118011   2.347   6.484   6.893
 5704SOL    HW218012   2.247   6.356   6.880
 5705SOL     OW18013   3.121   6.010   6.808
 5705SOL    HW118014   3.141   6.081   6.875
 5705SOL    HW218015   3.037   6.033   6.759
 5706SOL     OW18016   2.226   6.756   6.107
 5706SOL    HW118017   2.246   6.843   6.063
 5706SOL    HW218018   2.211   6.686   6.037
 5707SOL     OW18019   2.391   6.153   6.483
 5707SOL    HW118020   2.396   6.211   6.402
 5707SOL    HW218021   2.475   6.163   6.536
 5708SOL     OW18022   3.408   6.252   6.032
 5708SOL    HW118023   3.364   6.278   6.118
 5708SOL    HW218024   3.492   6.305   6.019
 5709SOL     OW18025   2.476   6.452   6.646
 5709SOL    HW118026   2.493   6.547   6.619
 5709SOL    HW218027   2.393   6.448   6.702
 5710SOL     OW18028   3.173   6.466   6.577
 5710SOL    HW118029   3.073   6.459   6.580
 5710SOL    HW218030   3.213   6.376   6.560
 5711SOL     OW18031   3.056   6.093   5.838
 5711SOL    HW118032   3.076   6.017   5.900
 5711SOL    HW218033   3.010   6.166   5.888
 5712SOL     OW18034   2.133   5.821   6.839
 5712SOL    HW118035   2.068   5.852   6.908
 5712SOL    HW218036   2.125   5.722   6.828
 5713SOL     OW18037   1.876   6.890   6.899
 5713SOL    HW118038   1.954   6.840   6.936
 5713SOL    HW218039   1.831   6.941   6.972
 5714SOL     OW18040   2.604   6.216   6.653
 5714SOL    HW118041   2.676   6.210   6.585
 5714SOL    HW218042   2.557   6.304   6.645
 5715SOL     OW18043   2.187   5.661   6.234
 5715SOL    HW118044   2.147   5.750   6.252
 5715SOL    HW218045   2.195   5.609   6.320
 5716SOL     OW18046   3.439   6.001   5.910
 5716SOL    HW118047   3.493   5.940   5.968
 5716SOL    HW218048   3.415   6.083   5.962
 5717SOL     OW18049   2.892   6.418   6.586
 5717SOL    HW118050   2.860   6.417   6.681
 5717SOL    HW218051   2.869   6.331   6.542
 5718SOL     OW18052   3.339   5.845   5.697
 5718SOL    HW118053   3.302   5.760   5.736
 5718SOL    HW218054   3.376   5.902   5.770
 5719SOL     OW18055   3.147   6.394   5.600
 5719SOL    HW118056   3.173   6.298   5.611
 5719SOL    HW218057   3.182   6.428   5.512
 5720SOL     OW18058   2.176   6.391   6.475
 5720SOL    HW118059   2.252   6.380   6.411
 5720SOL    HW218060   2.171   6.312   6.536
 5721SOL     OW18061   2.164   6.135   6.622
 5721SOL    HW118062   2.122   6.047   6.602
 5721SOL    HW218063   2.252   6.141   6.575
 5722SOL     OW18064   3.034   5.821   6.988
 5722SOL    HW118065   3.108   5.779   0.040
 5722SOL    HW218066   3.072   5.885   6.920
 5723SOL     OW18067   1.855   6.855   5.762
 5723SOL    HW118068   1.759   6.874   5.740
 5723SOL    HW218069   1.863   6.763   5.801
 5724SOL     OW18070   2.761   6.381   6.833
 5724SOL    HW118071   2.806   6.323   6.902
 5724SOL    HW218072   2.691   6.327   6.786
 5725SOL     OW18073   1.904   6.179   6.730
 5725SOL    HW118074   1.983   6.169   6.670
 5725SOL    HW218075   1.935   6.189   6.825
 5726SOL     OW18076   2.653   6.155   5.975
 5726SOL    HW118077   2.665   6.074   5.917
 5726SOL    HW218078   2.574   6.207   5.942
 5727SOL     OW18079   3.500   6.169   6.693
 5727SOL    HW118080   3.471   6.107   6.766
 5727SOL    HW218081   3.597   6.155   6.675
 5728SOL     OW18082   2.559   6.004   6.847
 5728SOL    HW118083   2.502   5.929   6.810
 5728SOL    HW218084   2.571   6.074   6.776
 5729SOL     OW18085   2.311   6.064   5.759
 5729SOL    HW118086   2.372   6.138   5.787
 5729SOL    HW218087   2.217   6.099   5.754
 5730SOL     OW18088   2.072   6.730   0.006
 5730SOL    HW118089   2.041   6.680   0.087
 5730SOL    HW218090   2.061   6.671   6.925
 5731SOL     OW18091   3.186   6.610   6.829
 5731SOL    HW118092   3.224   6.557   6.754
 5731SOL    HW218093   3.115   6.671   6.795
 5732SOL     OW18094   3.283   6.430   5.849
 5732SOL    HW118095   3.307   6.350   5.903
 5732SOL    HW218096   3.227   6.402   5.771
 5733SOL     OW18097   1.913   6.922   6.626
 5733SOL    HW118098   1.892   6.908   6.723
 5733SOL    HW218099   1.887   6.841   6.574
 5734SOL     OW18100   3.618   5.829   6.032
 5734SOL    HW118101   3.677   5.805   5.954
 5734SOL    HW218102   3.578   5.746   6.070
 5735SOL     OW18103   3.127   6.552   6.248
 5735SOL    HW118104   3.192   6.478   6.263
 5735SOL    HW218105   3.173   6.626   6.199
 5736SOL     OW18106   2.562   6.817   0.056
 5736SOL    HW118107   2.605   6.847   0.141
 5736SOL    HW218108   2.468   6.851   0.052
 5737SOL     OW18109   3.712   5.736   6.561
 5737SOL    HW118110   3.737   5.640   6.553
 5737SOL    HW218111   3.625   5.752   6.514
 5738SOL     OW18112   2.087   5.909   6.300
 5738SOL    HW118113   2.002   5.953   6.270
 5738SOL    HW218114   2.091   5.909   6.400
 5739SOL     OW18115   3.122   0.164   5.618
 5739SOL    HW118116   3.115   0.096   5.691
 5739SOL    HW218117   3.036   0.168   5.568
 5740SOL     OW18118   2.513   6.558   6.952
 5740SOL    HW118119   2.592   6.516   6.906
 5740SOL    HW218120   2.535   6.652   6.976
 5741SOL     OW18121   2.822   6.481   5.812
 5741SOL    HW118122   2.895   6.540   5.780
 5741SOL    HW218123   2.860   6.408   5.870
 5742SOL     OW18124   2.290   6.891   0.041
 5742SOL    HW118125   2.263   6.955   0.113
 5742SOL    HW218126   2.216   6.827   0.024
 5743SOL     OW18127   3.482   6.808   6.840
 5743SOL    HW118128   3.577   6.834   6.860
 5743SOL    HW218129   3.431   6.801   6.926
 5744SOL     OW18130   2.952   6.755   6.392
 5744SOL    HW118131   2.866   6.704   6.404
 5744SOL    HW218132   3.020   6.695   6.350
 5745SOL     OW18133   2.915   5.783   6.518
 5745SOL    HW118134   2.906   5.743   6.427
 5745SOL    HW218135   2.918   5.710   6.586
 5746SOL     OW18136   3.464   5.972   6.882
 5746SOL    HW118137   3.419   5.957   6.970
 5746SOL    HW218138   3.519   5.892   6.858
 5747SOL     OW18139   2.568   5.793   0.062
 5747SOL    HW118140   2.660   5.760   0.084
 5747SOL    HW218141   2.575   5.871   0.000
 5748SOL     OW18142   1.955   5.900   5.558
 5748SOL    HW118143   1.866   5.891   5.514
 5748SOL    HW218144   2.000   5.983   5.526
 5749SOL     OW18145   1.917   5.754   5.813
 5749SOL    HW118146   1.902   5.810   5.731
 5749SOL    HW218147   2.007   5.712   5.808
 5750SOL     OW18148   3.397   6.916   0.379
 5750SOL    HW118149   3.333   6.844   0.353
 5750SOL    HW218150   3.490   6.891   0.351
 5751SOL     OW18151   3.626   6.425   6.768
 5751SOL    HW118152   3.589   6.338   6.737
 5751SOL    HW218153   3.582   6.500   6.718
 5752SOL     OW18154   3.094   5.905   6.038
 5752SOL    HW118155   3.152   5.823   6.038
 5752SOL    HW218156   3.127   5.968   6.108
 5753SOL     OW18157   2.375   6.349   6.284
 5753SOL    HW118158   2.448   6.415   6.264
 5753SOL    HW218159   2.326   6.327   6.200
 5754SOL     OW18160   3.566   6.374   0.034
 5754SOL    HW118161   3.517   6.453   0.070
 5754SOL    HW218162   3.594   6.392   6.940
 5755SOL     OW18163   2.732   6.601   6.448
 5755SOL    HW118164   2.788   6.538   6.503
 5755SOL    HW218165   2.663   6.644   6.507
 5756SOL     OW18166   3.034   6.631   5.670
 5756SOL    HW118167   2.957   6.650   5.609
 5756SOL    HW218168   3.073   6.542   5.649
 5757SOL     OW18169   2.054   6.838   6.305
 5757SOL    HW118170   2.066   6.786   6.389
 5757SOL    HW218171   2.106   6.795   6.231
 5758SOL     OW18172   3.630   5.758   6.825
 5758SOL    HW118173   3.613   5.661   6.843
 5758SOL    HW218174   3.664   5.769   6.732
 5759SOL     OW18175   2.263   6.021   6.100
 5759SOL    HW118176   2.309   5.950   6.047
 5759SOL    HW218177   2.209   5.978   6.173
 5760SOL     OW18178   3.405   0.034   6.707
 5760SOL    HW118179   3.391   0.013   6.610
 5760SOL    HW218180   3.420   6.949   6.757
 5761SOL     OW18181   2.170   6.187   6.902
 5761SOL    HW118182   2.221   6.122   6.959
 5761SOL    HW218183   2.178   6.161   6.806
 5762SOL     OW18184   3.285   5.844   6.656
 5762SOL    HW118185   3.294   5.750   6.688
 5762SOL    HW218186   3.246   5.900   6.729
 5763SOL     OW18187   2.907   5.546   6.662
 5763SOL    HW118188   2.866   5.488   6.592
 5763SOL    HW218189   3.000   5.514   6.681
 5764SOL     OW18190   2.627   6.876   5.857
 5764SOL    HW118191   2.616   6.782   5.890
 5764SOL    HW218192   2.666   6.932   5.930
 5765SOL     OW18193   3.241   5.602   5.782
 5765SOL    HW118194   3.294   5.533   5.732
 5765SOL    HW218195   3.147   5.571   5.792
 5766SOL     OW18196   3.171   6.079   6.235
 5766SOL    HW118197   3.123   6.165   6.225
 5766SOL    HW218198   3.151   6.039   6.324
 5767SOL     OW18199   3.466   5.794   6.458
 5767SOL    HW118200   3.403   5.820   6.531
 5767SOL    HW218201   3.469   5.866   6.389
 5768SOL     OW18202   1.908   6.609   5.894
 5768SOL    HW118203   2.007   6.602   5.896
 5768SOL    HW218204   1.868   6.517   5.900
 5769SOL     OW18205   3.964   0.671   0.134
 5769SOL    HW118206   3.870   0.639   0.140
 5769SOL    HW218207   3.997   0.660   0.040
 5770SOL     OW18208   3.937   0.291   1.033
 5770SOL    HW118209   3.976   0.253   1.117
 5770SOL    HW218210   3.853   0.242   1.009
 5771SOL     OW18211   3.745   0.408   0.661
 5771SOL    HW118212   3.666   0.443   0.712
 5771SOL    HW218213   3.714   0.348   0.588
 5772SOL     OW18214   4.279   1.300   1.246
 5772SOL    HW118215   4.195   1.305   1.192
 5772SOL    HW218216   4.305   1.392   1.275
 5773SOL     OW18217   5.292   1.595   0.692
 5773SOL    HW118218   5.253   1.549   0.772
 5773SOL    HW218219   5.231   1.583   0.613
 5774SOL     OW18220   4.852   0.706   0.659
 5774SOL    HW118221   4.892   0.797   0.667
 5774SOL    HW218222   4.777   0.696   0.724
 5775SOL     OW18223   5.561   0.583   0.131
 5775SOL    HW118224   5.514   0.665   0.100
 5775SOL    HW218225   5.509   0.540   0.205
 5776SOL     OW18226   4.433   1.127   1.091
 5776SOL    HW118227   4.372   1.166   1.160
 5776SOL    HW218228   4.477   1.201   1.039
 5777SOL     OW18229   4.597   0.728   1.865
 5777SOL    HW118230   4.586   0.784   1.947
 5777SOL    HW218231   4.611   0.788   1.786
 5778SOL     OW18232   4.423   0.961   0.659
 5778SOL    HW118233   4.483   0.971   0.737
 5778SOL    HW218234   4.345   1.022   0.669
 5779SOL     OW18235   4.410   1.159   1.859
 5779SOL    HW118236   4.469   1.229   1.900
 5779SOL    HW218237   4.330   1.202   1.818
 5780SOL     OW18238   4.063   1.378   1.087
 5780SOL    HW118239   3.991   1.317   1.054
 5780SOL    HW218240   4.104   1.428   1.011
 5781SOL     OW18241   5.191   1.469   1.379
 5781SOL    HW118242   5.240   1.553   1.403
 5781SOL    HW218243   5.109   1.461   1.435
 5782SOL     OW18244   4.215   0.347   1.423
 5782SOL    HW118245   4.291   0.312   1.478
 5782SOL    HW218246   4.128   0.323   1.467
 5783SOL     OW18247   5.361   0.505   0.753
 5783SOL    HW118248   5.347   0.547   0.663
 5783SOL    HW218249   5.303   0.551   0.820
 5784SOL     OW18250   3.983   1.711   0.493
 5784SOL    HW118251   3.994   1.793   0.550
 5784SOL    HW218252   4.066   1.697   0.438
 5785SOL     OW18253   4.826   1.326   1.719
 5785SOL    HW118254   4.866   1.328   1.810
 5785SOL    HW218255   4.761   1.250   1.713
 5786SOL     OW18256   3.928   1.447   0.544
 5786SOL    HW118257   3.947   1.546   0.544
 5786SOL    HW218258   3.889   1.421   0.633
 5787SOL     OW18259   4.019   1.073   0.858
 5787SOL    HW118260   4.038   0.978   0.885
 5787SOL    HW218261   3.968   1.119   0.930
 5788SOL     OW18262   4.311   1.773   1.489
 5788SOL    HW118263   4.213   1.780   1.507
 5788SOL    HW218264   4.350   1.865   1.478
 5789SOL     OW18265   4.301   0.963   0.207
 5789SOL    HW118266   4.337   0.985   0.116
 5789SOL    HW218267   4.354   1.012   0.276
 5790SOL     OW18268   5.348   0.034   1.519
 5790SOL    HW118269   5.444   0.026   1.547
 5790SOL    HW218270   5.302   0.101   1.578
 5791SOL     OW18271   3.866   0.654   0.595
 5791SOL    HW118272   3.837   0.562   0.620
 5791SOL    HW218273   3.854   0.715   0.673
 5792SOL     OW18274   5.557   1.755   0.356
 5792SOL    HW118275   5.634   1.720   0.410
 5792SOL    HW218276   5.579   1.846   0.320
 5793SOL     OW18277   3.713   1.480   0.204
 5793SOL    HW118278   3.623   1.477   0.159
 5793SOL    HW218279   3.720   1.565   0.256
 5794SOL     OW18280   5.436   0.928   0.661
 5794SOL    HW118281   5.520   0.881   0.633
 5794SOL    HW218282   5.406   0.989   0.588
 5795SOL     OW18283   5.366   1.112   0.470
 5795SOL    HW118284   5.408   1.112   0.379
 5795SOL    HW218285   5.403   1.188   0.523
 5796SOL     OW18286   3.820   0.798   1.569
 5796SOL    HW118287   3.862   0.867   1.628
 5796SOL    HW218288   3.738   0.837   1.525
 5797SOL     OW18289   4.351   1.362   0.732
 5797SOL    HW118290   4.306   1.273   0.723
 5797SOL    HW218291   4.342   1.412   0.645
 5798SOL     OW18292   4.917   1.144   1.447
 5798SOL    HW118293   4.943   1.116   1.355
 5798SOL    HW218294   4.936   1.241   1.460
 5799SOL     OW18295   4.579   0.055   0.535
 5799SOL    HW118296   4.619   0.145   0.514
 5799SOL    HW218297   4.479   0.062   0.531
 5800SOL     OW18298   3.950   0.988   1.290
 5800SOL    HW118299   4.027   0.925   1.289
 5800SOL    HW218300   3.924   1.011   1.197
 5801SOL     OW18301   5.176   1.031   0.204
 5801SOL    HW118302   5.110   0.966   0.241
 5801SOL    HW218303   5.268   0.992   0.211
 5802SOL     OW18304   5.022   1.889   1.650
 5802SOL    HW118305   4.968   1.942   1.584
 5802SOL    HW218306   4.968   1.810   1.679
 5803SOL     OW18307   4.041   0.291   1.813
 5803SOL    HW118308   4.101   0.354   1.862
 5803SOL    HW218309   3.949   0.296   1.851
 5804SOL     OW18310   5.210   1.446   0.912
 5804SOL    HW118311   5.143   1.456   0.985
 5804SOL    HW218312   5.199   1.356   0.869
 5805SOL     OW18313   5.299   1.866   0.559
 5805SOL    HW118314   5.289   1.828   0.467
 5805SOL    HW218315   5.319   1.792   0.623
 5806SOL     OW18316   4.308   0.702   0.282
 5806SOL    HW118317   4.307   0.798   0.256
 5806SOL    HW218318   4.242   0.686   0.355
 5807SOL     OW18319   5.014   0.392   0.924
 5807SOL    HW118320   4.926   0.346   0.931
 5807SOL    HW218321   5.080   0.348   0.986
 5808SOL     OW18322   5.279   1.757   0.304
 5808SOL    HW118323   5.378   1.747   0.314
 5808SOL    HW218324   5.252   1.728   0.212
 5809SOL     OW18325   4.503   0.567   1.475
 5809SOL    HW118326   4.474   0.528   1.562
 5809SOL    HW218327   4.490   0.501   1.402
 5810SOL     OW18328   5.136   0.492   1.675
 5810SOL    HW118329   5.144   0.538   1.764
 5810SOL    HW218330   5.187   0.406   1.678
 5811SOL     OW18331   4.656   0.864   1.623
 5811SOL    HW118332   4.708   0.788   1.583
 5811SOL    HW218333   4.604   0.910   1.551
 5812SOL     OW18334   4.767   0.396   1.188
 5812SOL    HW118335   4.672   0.412   1.216
 5812SOL    HW218336   4.768   0.344   1.103
 5813SOL     OW18337   4.771   0.708   0.398
 5813SOL    HW118338   4.801   0.706   0.494
 5813SOL    HW218339   4.682   0.663   0.390
 5814SOL     OW18340   3.823   0.825   0.809
 5814SOL    HW118341   3.915   0.818   0.849
 5814SOL    HW218342   3.768   0.887   0.865
 5815SOL     OW18343   3.830   1.931   1.601
 5815SOL    HW118344   3.825   1.881   1.688
 5815SOL    HW218345   3.755   1.997   1.597
 5816SOL     OW18346   4.591   0.337   0.223
 5816SOL    HW118347   4.622   0.395   0.148
 5816SOL    HW218348   4.596   0.241   0.195
 5817SOL     OW18349   5.403   0.593   1.826
 5817SOL    HW118350   5.376   0.669   1.767
 5817SOL    HW218351   5.433   0.516   1.769
 5818SOL     OW18352   5.099   1.161   0.549
 5818SOL    HW118353   5.185   1.141   0.503
 5818SOL    HW218354   5.050   1.233   0.500
 5819SOL     OW18355   4.233   0.222   0.943
 5819SOL    HW118356   4.268   0.228   1.037
 5819SOL    HW218357   4.246   0.309   0.897
 5820SOL     OW18358   4.719   1.462   0.471
 5820SOL    HW118359   4.692   1.540   0.414
 5820SOL    HW218360   4.685   1.475   0.564
 5821SOL     OW18361   4.088   1.785   0.882
 5821SOL    HW118362   4.124   1.692   0.884
 5821SOL    HW218363   4.154   1.847   0.924
 5822SOL     OW18364   5.525   1.014   0.903
 5822SOL    HW118365   5.491   0.994   0.811
 5822SOL    HW218366   5.448   1.036   0.963
 5823SOL     OW18367   4.936   1.422   1.482
 5823SOL    HW118368   4.907   1.395   1.574
 5823SOL    HW218369   4.876   1.493   1.447
 5824SOL     OW18370   4.034   0.920   0.250
 5824SOL    HW118371   4.129   0.941   0.229
 5824SOL    HW218372   4.010   0.831   0.212
 5825SOL     OW18373   5.198   0.803   0.724
 5825SOL    HW118374   5.194   0.746   0.806
 5825SOL    HW218375   5.286   0.849   0.720
 5826SOL     OW18376   4.180   1.300   1.765
 5826SOL    HW118377   4.167   1.304   1.666
 5826SOL    HW218378   4.092   1.288   1.810
 5827SOL     OW18379   4.868   1.782   0.260
 5827SOL    HW118380   4.789   1.746   0.309
 5827SOL    HW218381   4.902   1.714   0.195
 5828SOL     OW18382   3.980   0.269   1.539
 5828SOL    HW118383   3.890   0.305   1.519
 5828SOL    HW218384   4.001   0.281   1.637
 5829SOL     OW18385   5.344   1.453   0.112
 5829SOL    HW118386   5.287   1.528   0.081
 5829SOL    HW218387   5.292   1.394   0.173
 5830SOL     OW18388   4.231   1.712   0.372
 5830SOL    HW118389   4.258   1.800   0.412
 5830SOL    HW218390   4.285   1.695   0.290
 5831SOL     OW18391   5.204   0.187   0.379
 5831SOL    HW118392   5.201   0.088   0.373
 5831SOL    HW218393   5.292   0.215   0.417
 5832SOL     OW18394   3.943   1.811   1.218
 5832SOL    HW118395   3.994   1.731   1.251
 5832SOL    HW218396   3.906   1.791   1.127
 5833SOL     OW18397   4.670   1.702   0.877
 5833SOL    HW118398   4.763   1.664   0.880
 5833SOL    HW218399   4.616   1.653   0.808
 5834SOL     OW18400   4.130   0.645   0.484
 5834SOL    HW118401   4.139   0.546   0.495
 5834SOL    HW218402   4.037   0.672   0.510
 5835SOL     OW18403   5.228   0.222   1.706
 5835SOL    HW118404   5.241   0.221   1.805
 5835SOL    HW218405   5.137   0.189   1.683
 5836SOL     OW18406   4.382   0.116   0.030
 5836SOL    HW118407   4.481   0.122   0.047
 5836SOL    HW218408   4.360   0.165   6.945
 5837SOL     OW18409   4.515   0.243   1.827
 5837SOL    HW118410   4.604   0.203   1.803
 5837SOL    HW218411   4.461   0.176   1.878
 5838SOL     OW18412   4.580   1.478   1.214
 5838SOL    HW118413   4.553   1.454   1.121
 5838SOL    HW218414   4.614   1.397   1.262
 5839SOL     OW18415   5.055   0.603   1.435
 5839SOL    HW118416   5.093   0.574   1.523
 5839SOL    HW218417   4.965   0.645   1.450
 5840SOL     OW18418   4.527   1.351   0.961
 5840SOL    HW118419   4.621   1.364   0.929
 5840SOL    HW218420   4.465   1.353   0.883
 5841SOL     OW18421   4.663   0.533   0.887
 5841SOL    HW118422   4.634   0.524   0.791
 5841SOL    HW218423   4.697   0.445   0.920
 5842SOL     OW18424   4.305   0.074   0.478
 5842SOL    HW118425   4.218   0.064   0.528
 5842SOL    HW218426   4.288   0.120   0.391
 5843SOL     OW18427   5.093   1.181   6.987
 5843SOL    HW118428   5.130   1.117   0.056
 5843SOL    HW218429   5.026   1.241   0.030
 5844SOL     OW18430   3.999   0.096   0.314
 5844SOL    HW118431   4.081   0.145   0.285
 5844SOL    HW218432   4.004   0.078   0.413
 5845SOL     OW18433   4.704   0.289   0.467
 5845SOL    HW118434   4.661   0.311   0.379
 5845SOL    HW218435   4.804   0.293   0.456
 5846SOL     OW18436   4.763   0.640   1.499
 5846SOL    HW118437   4.668   0.614   1.484
 5846SOL    HW218438   4.806   0.575   1.562
 5847SOL     OW18439   4.928   1.616   0.835
 5847SOL    HW118440   4.960   1.668   0.755
 5847SOL    HW218441   4.968   1.655   0.918
 5848SOL     OW18442   4.208   1.134   0.673
 5848SOL    HW118443   4.142   1.113   0.746
 5848SOL    HW218444   4.161   1.138   0.585
 5849SOL     OW18445   5.001   1.803   0.638
 5849SOL    HW118446   5.079   1.867   0.635
 5849SOL    HW218447   4.917   1.854   0.656
 5850SOL     OW18448   4.695   0.500   0.031
 5850SOL    HW118449   4.628   0.575   0.031
 5850SOL    HW218450   4.768   0.521   0.096
 5851SOL     OW18451   3.840   0.588   1.386
 5851SOL    HW118452   3.936   0.577   1.359
 5851SOL    HW218453   3.833   0.664   1.451
 5852SOL     OW18454   4.324   0.214   1.208
 5852SOL    HW118455   4.311   0.115   1.220
 5852SOL    HW218456   4.271   0.263   1.278
 5853SOL     OW18457   4.607   0.493   0.629
 5853SOL    HW118458   4.550   0.542   0.564
 5853SOL    HW218459   4.646   0.412   0.584
 5854SOL     OW18460   4.785   0.036   0.738
 5854SOL    HW118461   4.713   0.041   0.669
 5854SOL    HW218462   4.795   6.941   0.769
 5855SOL     OW18463   5.234   1.203   0.790
 5855SOL    HW118464   5.169   1.176   0.719
 5855SOL    HW218465   5.320   1.230   0.748
 5856SOL     OW18466   5.175   0.629   0.937
 5856SOL    HW118467   5.111   0.552   0.939
 5856SOL    HW218468   5.235   0.625   1.017
 5857SOL     OW18469   5.520   0.794   0.384
 5857SOL    HW118470   5.595   0.735   0.417
 5857SOL    HW218471   5.515   0.788   0.284
 5858SOL     OW18472   4.140   1.489   0.165
 5858SOL    HW118473   4.076   1.435   0.219
 5858SOL    HW218474   4.125   1.472   0.068
 5859SOL     OW18475   5.459   1.297   0.658
 5859SOL    HW118476   5.552   1.260   0.661
 5859SOL    HW218477   5.463   1.396   0.645
 5860SOL     OW18478   5.057   0.505   0.043
 5860SOL    HW118479   4.992   0.511   0.119
 5860SOL    HW218480   5.140   0.457   0.074
 5861SOL     OW18481   4.235   0.216   0.248
 5861SOL    HW118482   4.286   0.178   0.171
 5861SOL    HW218483   4.213   0.312   0.229
 5862SOL     OW18484   5.489   1.238   1.576
 5862SOL    HW118485   5.575   1.201   1.540
 5862SOL    HW218486   5.502   1.334   1.602
 5863SOL     OW18487   4.676   1.258   1.350
 5863SOL    HW118488   4.591   1.262   1.403
 5863SOL    HW218489   4.746   1.210   1.403
 5864SOL     OW18490   5.347   1.624   1.690
 5864SOL    HW118491   5.322   1.664   1.602
 5864SOL    HW218492   5.434   1.574   1.680
 5865SOL     OW18493   4.864   1.275   1.142
 5865SOL    HW118494   4.788   1.271   1.207
 5865SOL    HW218495   4.831   1.305   1.053
 5866SOL     OW18496   5.303   1.096   1.037
 5866SOL    HW118497   5.271   1.152   1.113
 5866SOL    HW218498   5.261   1.129   0.952
 5867SOL     OW18499   4.638   0.199   1.413
 5867SOL    HW118500   4.640   0.184   1.314
 5867SOL    HW218501   4.731   0.210   1.447
 5868SOL     OW18502   4.660   1.109   1.741
 5868SOL    HW118503   4.566   1.125   1.773
 5868SOL    HW218504   4.663   1.020   1.695
 5869SOL     OW18505   4.470   1.065   0.400
 5869SOL    HW118506   4.456   1.026   0.492
 5869SOL    HW218507   4.544   1.016   0.354
 5870SOL     OW18508   4.164   0.812   1.289
 5870SOL    HW118509   4.225   0.819   1.369
 5870SOL    HW218510   4.129   0.719   1.282
 5871SOL     OW18511   5.010   0.371   1.301
 5871SOL    HW118512   5.037   0.457   1.344
 5871SOL    HW218513   4.921   0.380   1.258
 5872SOL     OW18514   3.784   1.557   1.350
 5872SOL    HW118515   3.735   1.625   1.296
 5872SOL    HW218516   3.883   1.574   1.341
 5873SOL     OW18517   4.042   1.131   0.448
 5873SOL    HW118518   4.016   1.209   0.391
 5873SOL    HW218519   4.040   1.047   0.394
 5874SOL     OW18520   4.268   0.502   0.870
 5874SOL    HW118521   4.282   0.554   0.786
 5874SOL    HW218522   4.333   0.533   0.940
 5875SOL     OW18523   4.975   1.379   0.411
 5875SOL    HW118524   5.028   1.460   0.436
 5875SOL    HW218525   4.879   1.392   0.435
 5876SOL     OW18526   5.060   1.468   1.140
 5876SOL    HW118527   5.110   1.469   1.226
 5876SOL    HW218528   4.986   1.401   1.145
 5877SOL     OW18529   5.323   0.654   0.520
 5877SOL    HW118530   5.252   0.705   0.568
 5877SOL    HW218531   5.385   0.718   0.475
 5878SOL     OW18532   4.058   1.562   1.288
 5878SOL    HW118533   4.049   1.494   1.215
 5878SOL    HW218534   4.155   1.575   1.309
 5879SOL     OW18535   4.216   0.676   1.699
 5879SOL    HW118536   4.252   0.726   1.620
 5879SOL    HW218537   4.283   0.609   1.729
 5880SOL     OW18538   5.312   0.807   1.675
 5880SOL    HW118539   5.213   0.817   1.661
 5880SOL    HW218540   5.361   0.858   1.605
 5881SOL     OW18541   4.755   0.122   1.745
 5881SOL    HW118542   4.800   0.156   1.662
 5881SOL    HW218543   4.738   0.024   1.735
 5882SOL     OW18544   4.112   0.030   1.733
 5882SOL    HW118545   4.031   6.979   1.761
 5882SOL    HW218546   4.102   0.126   1.759
 5883SOL     OW18547   4.315   0.871   1.068
 5883SOL    HW118548   4.354   0.963   1.071
 5883SOL    HW218549   4.261   0.855   1.151
 5884SOL     OW18550   5.004   0.848   1.043
 5884SOL    HW118551   4.909   0.829   1.017
 5884SOL    HW218552   5.063   0.778   1.004
 5885SOL     OW18553   4.879   0.511   0.244
 5885SOL    HW118554   4.915   0.442   0.307
 5885SOL    HW218555   4.843   0.588   0.296
 5886SOL     OW18556   3.993   0.167   1.271
 5886SOL    HW118557   4.003   0.194   1.367
 5886SOL    HW218558   3.954   0.076   1.266
 5887SOL     OW18559   3.788   1.293   1.278
 5887SOL    HW118560   3.817   1.241   1.359
 5887SOL    HW218561   3.780   1.390   1.303
 5888SOL     OW18562   4.444   0.622   1.045
 5888SOL    HW118563   4.520   0.613   0.981
 5888SOL    HW218564   4.407   0.715   1.042
 5889SOL     OW18565   5.463   0.975   1.843
 5889SOL    HW118566   5.408   0.909   1.794
 5889SOL    HW218567   5.412   1.009   1.922
 5890SOL     OW18568   4.043   0.068   0.585
 5890SOL    HW118569   4.022   0.144   0.646
 5890SOL    HW218570   4.002   6.984   0.621
 5891SOL     OW18571   5.411   0.471   0.336
 5891SOL    HW118572   5.441   0.391   0.387
 5891SOL    HW218573   5.368   0.537   0.398
 5892SOL     OW18574   4.737   0.775   0.991
 5892SOL    HW118575   4.715   0.774   1.089
 5892SOL    HW218576   4.721   0.685   0.952
 5893SOL     OW18577   4.781   1.597   1.681
 5893SOL    HW118578   4.751   1.624   1.589
 5893SOL    HW218579   4.767   1.499   1.693
 5894SOL     OW18580   5.581   1.497   1.600
 5894SOL    HW118581   5.584   1.515   1.502
 5894SOL    HW218582   5.668   1.521   1.642
 5895SOL     OW18583   4.110   0.899   1.829
 5895SOL    HW118584   4.176   0.929   1.898
 5895SOL    HW218585   4.144   0.817   1.784
 5896SOL     OW18586   5.263   0.354   0.138
 5896SOL    HW118587   5.235   0.264   0.172
 5896SOL    HW218588   5.316   0.401   0.209
 5897SOL     OW18589   4.998   0.771   0.020
 5897SOL    HW118590   5.026   0.675   0.012
 5897SOL    HW218591   5.041   0.825   6.948
 5898SOL     OW18592   4.792   1.375   0.895
 5898SOL    HW118593   4.805   1.293   0.840
 5898SOL    HW218594   4.848   1.449   0.858
 5899SOL     OW18595   4.068   0.812   0.944
 5899SOL    HW118596   4.162   0.834   0.970
 5899SOL    HW218597   4.048   0.717   0.968
 5900SOL     OW18598   4.034   0.538   1.004
 5900SOL    HW118599   3.988   0.450   1.011
 5900SOL    HW218600   4.115   0.529   0.946
 5901SOL     OW18601   4.869   0.464   1.675
 5901SOL    HW118602   4.828   0.478   1.765
 5901SOL    HW218603   4.968   0.474   1.681
 5902SOL     OW18604   4.887   0.241   1.524
 5902SOL    HW118605   4.874   0.324   1.577
 5902SOL    HW218606   4.942   0.260   1.443
 5903SOL     OW18607   3.828   1.749   0.964
 5903SOL    HW118608   3.784   1.674   0.914
 5903SOL    HW218609   3.919   1.765   0.926
 5904SOL     OW18610   4.208   1.531   0.904
 5904SOL    HW118611   4.280   1.590   0.939
 5904SOL    HW218612   4.246   1.467   0.837
 5905SOL     OW18613   4.662   0.747   1.251
 5905SOL    HW118614   4.722   0.717   1.326
 5905SOL    HW218615   4.579   0.692   1.251
 5906SOL     OW18616   3.763   0.601   1.120
 5906SOL    HW118617   3.846   0.593   1.065
 5906SOL    HW218618   3.787   0.602   1.217
 5907SOL     OW18619   3.948   0.626   1.750
 5907SOL    HW118620   4.045   0.633   1.725
 5907SOL    HW218621   3.892   0.673   1.682
 5908SOL     OW18622   5.066   0.960   1.600
 5908SOL    HW118623   5.125   1.034   1.632
 5908SOL    HW218624   4.982   0.998   1.562
 5909SOL     OW18625   4.537   0.575   0.364
 5909SOL    HW118626   4.539   0.486   0.318
 5909SOL    HW218627   4.452   0.623   0.340
 5910SOL     OW18628   5.350   0.622   1.147
 5910SOL    HW118629   5.328   0.549   1.211
 5910SOL    HW218630   5.449   0.626   1.134
 5911SOL     OW18631   3.940   1.543   1.709
 5911SOL    HW118632   3.912   1.615   1.771
 5911SOL    HW218633   3.939   1.455   1.757
 5912SOL     OW18634   4.494   0.432   1.233
 5912SOL    HW118635   4.441   0.348   1.222
 5912SOL    HW218636   4.467   0.498   1.163
 5913SOL     OW18637   4.733   1.625   1.404
 5913SOL    HW118638   4.679   1.577   1.335
 5913SOL    HW218639   4.719   1.724   1.394
 5914SOL     OW18640   4.171   0.477   0.189
 5914SOL    HW118641   4.237   0.546   0.218
 5914SOL    HW218642   4.082   0.520   0.176
 5915SOL     OW18643   3.871   1.141   1.497
 5915SOL    HW118644   3.879   1.096   1.586
 5915SOL    HW218645   3.900   1.077   1.425
 5916SOL     OW18646   5.027   1.062   1.212
 5916SOL    HW118647   5.024   0.981   1.153
 5916SOL    HW218648   4.977   1.136   1.168
 5917SOL     OW18649   4.998   0.843   0.283
 5917SOL    HW118650   4.924   0.801   0.336
 5917SOL    HW218651   4.997   0.806   0.190
 5918SOL     OW18652   5.474   1.698   1.154
 5918SOL    HW118653   5.546   1.742   1.101
 5918SOL    HW218654   5.455   1.608   1.117
 5919SOL     OW18655   5.014   1.731   1.069
 5919SOL    HW118656   5.099   1.783   1.074
 5919SOL    HW218657   5.028   1.640   1.108
 5920SOL     OW18658   3.858   1.184   1.043
 5920SOL    HW118659   3.827   1.226   1.128
 5920SOL    HW218660   3.781   1.137   0.999
 5921SOL     OW18661   4.336   1.718   1.758
 5921SOL    HW118662   4.258   1.775   1.786
 5921SOL    HW218663   4.353   1.731   1.661
 5922SOL     OW18664   4.647   0.088   0.125
 5922SOL    HW118665   4.744   0.091   0.098
 5922SOL    HW218666   4.632   0.010   0.185
 5923SOL     OW18667   5.471   0.240   0.474
 5923SOL    HW118668   5.524   0.202   0.399
 5923SOL    HW218669   5.452   0.169   0.542
 5924SOL     OW18670   5.112   1.607   0.477
 5924SOL    HW118671   5.165   1.652   0.405
 5924SOL    HW218672   5.058   1.675   0.527
 5925SOL     OW18673   3.853   1.784   1.834
 5925SOL    HW118674   3.788   1.716   1.868
 5925SOL    HW218675   3.886   1.839   1.910
 5926SOL     OW18676   4.978   0.950   0.671
 5926SOL    HW118677   5.057   0.893   0.697
 5926SOL    HW218678   5.008   1.026   0.614
 5927SOL     OW18679   4.438   1.264   1.486
 5927SOL    HW118680   4.434   1.330   1.561
 5927SOL    HW218681   4.357   1.273   1.429
 5928SOL     OW18682   4.394   1.606   0.172
 5928SOL    HW118683   4.418   1.614   0.076
 5928SOL    HW218684   4.314   1.546   0.182
 5929SOL     OW18685   5.343   1.707   1.410
 5929SOL    HW118686   5.382   1.706   1.318
 5929SOL    HW218687   5.362   1.795   1.453
 5930SOL     OW18688   5.593   0.139   0.996
 5930SOL    HW118689   5.608   0.042   0.975
 5930SOL    HW218690   5.510   0.171   0.950
 5931SOL     OW18691   3.981   0.283   0.741
 5931SOL    HW118692   3.896   0.332   0.720
 5931SOL    HW218693   3.994   0.281   0.840
 5932SOL     OW18694   4.930   1.590   0.072
 5932SOL    HW118695   4.931   1.491   0.089
 5932SOL    HW218696   4.847   1.614   0.021
 5933SOL     OW18697   4.513   1.003   1.434
 5933SOL    HW118698   4.546   1.007   1.340
 5933SOL    HW218699   4.481   1.093   1.463
 5934SOL     OW18700   4.659   0.928   0.268
 5934SOL    HW118701   4.704   0.943   0.179
 5934SOL    HW218702   4.704   0.852   0.315
 5935SOL     OW18703   5.188   1.675   0.054
 5935SOL    HW118704   5.093   1.647   0.058
 5935SOL    HW218705   5.205   1.725   6.968
 5936SOL     OW18706   4.097   1.320   1.508
 5936SOL    HW118707   4.078   1.405   1.458
 5936SOL    HW218708   4.020   1.258   1.498
 5937SOL     OW18709   5.295   1.230   1.293
 5937SOL    HW118710   5.395   1.240   1.286
 5937SOL    HW218711   5.256   1.316   1.327
 5938SOL     OW18712   4.798   1.131   0.780
 5938SOL    HW118713   4.716   1.083   0.811
 5938SOL    HW218714   4.863   1.065   0.743
 5939SOL     OW18715   4.766   0.248   0.945
 5939SOL    HW118716   4.775   0.195   0.861
 5939SOL    HW218717   4.719   0.194   1.014
 5940SOL     OW18718   4.347   1.495   0.495
 5940SOL    HW118719   4.389   1.437   0.424
 5940SOL    HW218720   4.290   1.564   0.451
 5941SOL     OW18721   5.624   0.334   1.462
 5941SOL    HW118722   5.654   0.423   1.426
 5941SOL    HW218723   5.588   0.279   1.387
 5942SOL     OW18724   3.938   1.347   0.296
 5942SOL    HW118725   3.857   1.381   0.248
 5942SOL    HW218726   3.938   1.381   0.390
 5943SOL     OW18727   3.879   1.018   1.743
 5943SOL    HW118728   3.799   0.998   1.798
 5943SOL    HW218729   3.960   0.976   1.785
 5944SOL     OW18730   4.421   0.234   1.565
 5944SOL    HW118731   4.500   0.224   1.505
 5944SOL    HW218732   4.451   0.254   1.658
 5945SOL     OW18733   3.774   0.291   6.990
 5945SOL    HW118734   3.716   0.238   6.928
 5945SOL    HW218735   3.870   0.281   6.963
 5946SOL     OW18736   3.746   0.172   0.239
 5946SOL    HW118737   3.753   0.229   0.157
 5946SOL    HW218738   3.837   0.142   0.267
 5947SOL     OW18739   4.906   1.319   0.135
 5947SOL    HW118740   4.809   1.335   0.118
 5947SOL    HW218741   4.925   1.324   0.233
 5948SOL     OW18742   4.348   0.793   1.488
 5948SOL    HW118743   4.403   0.875   1.476
 5948SOL    HW218744   4.407   0.712   1.480
 5949SOL     OW18745   5.253   1.864   1.075
 5949SOL    HW118746   5.282   1.923   1.000
 5949SOL    HW218747   5.331   1.813   1.110
 5950SOL     OW18748   4.449   0.517   1.748
 5950SOL    HW118749   4.499   0.588   1.797
 5950SOL    HW218750   4.468   0.428   1.790
 5951SOL     OW18751   5.224   1.174   1.635
 5951SOL    HW118752   5.192   1.205   1.724
 5951SOL    HW218753   5.317   1.208   1.619
 5952SOL     OW18754   4.046   1.763   1.568
 5952SOL    HW118755   3.966   1.821   1.557
 5952SOL    HW218756   4.018   1.674   1.605
 5953SOL     OW18757   5.294   0.886   1.220
 5953SOL    HW118758   5.310   0.790   1.196
 5953SOL    HW218759   5.298   0.942   1.137
 5954SOL     OW18760   4.975   0.329   0.423
 5954SOL    HW118761   5.057   0.275   0.404
 5954SOL    HW218762   4.987   0.380   0.508
 5955SOL     OW18763   4.323   0.695   0.676
 5955SOL    HW118764   4.363   0.787   0.668
 5955SOL    HW218765   4.253   0.683   0.605
 5956SOL     OW18766   5.477   0.355   1.694
 5956SOL    HW118767   5.529   0.350   1.609
 5956SOL    HW218768   5.394   0.299   1.686
 5957SOL     OW18769   5.414   0.980   1.489
 5957SOL    HW118770   5.442   1.064   1.536
 5957SOL    HW218771   5.488   0.949   1.429
 5958SOL     OW18772   4.652   1.400   0.104
 5958SOL    HW118773   4.581   1.384   0.172
 5958SOL    HW218774   4.641   1.491   0.064
 5959SOL     OW18775   4.400   1.712   0.966
 5959SOL    HW118776   4.367   1.806   0.970
 5959SOL    HW218777   4.499   1.712   0.953
 5960SOL     OW18778   4.586   0.986   0.889
 5960SOL    HW118779   4.641   0.911   0.923
 5960SOL    HW218780   4.532   1.026   0.964
 5961SOL     OW18781   4.802   0.961   0.031
 5961SOL    HW118782   4.846   1.051   0.037
 5961SOL    HW218783   4.872   0.890   0.026
 5962SOL     OW18784   5.533   1.589   0.824
 5962SOL    HW118785   5.452   1.601   0.766
 5962SOL    HW218786   5.512   1.525   0.898
 5963SOL     OW18787   3.917   1.284   1.832
 5963SOL    HW118788   3.900   1.195   1.790
 5963SOL    HW218789   3.855   1.296   1.909
 5964SOL     OW18790   3.836   1.174   0.658
 5964SOL    HW118791   3.887   1.134   0.734
 5964SOL    HW218792   3.889   1.165   0.573
 5965SOL     OW18793   4.404   1.447   1.701
 5965SOL    HW118794   4.319   1.401   1.727
 5965SOL    HW218795   4.394   1.545   1.714
 5966SOL     OW18796   5.531   0.164   1.266
 5966SOL    HW118797   5.437   0.130   1.261
 5966SOL    HW218798   5.570   0.168   1.173
 5967SOL     OW18799   4.145   0.381   0.534
 5967SOL    HW118800   4.194   0.306   0.489
 5967SOL    HW218801   4.095   0.346   0.613
 5968SOL     OW18802   5.446   1.451   1.048
 5968SOL    HW118803   5.357   1.439   1.003
 5968SOL    HW218804   5.470   1.366   1.095
 5969SOL     OW18805   4.090   0.551   1.280
 5969SOL    HW118806   4.142   0.478   1.324
 5969SOL    HW218807   4.081   0.531   1.182
 5970SOL     OW18808   4.552   1.555   0.684
 5970SOL    HW118809   4.501   1.593   0.606
 5970SOL    HW218810   4.500   1.479   0.723
 5971SOL     OW18811   5.189   0.290   1.107
 5971SOL    HW118812   5.228   0.201   1.129
 5971SOL    HW218813   5.128   0.319   1.182
 5972SOL     OW18814   4.636   0.108   1.142
 5972SOL    HW118815   4.538   0.092   1.130
 5972SOL    HW218816   4.677   0.030   1.190
 5973SOL     OW18817   4.508   1.331   0.338
 5973SOL    HW118818   4.487   1.235   0.356
 5973SOL    HW218819   4.590   1.357   0.387
 5974SOL     OW18820   4.336   1.558   1.325
 5974SOL    HW118821   4.337   1.635   1.388
 5974SOL    HW218822   4.427   1.549   1.282
 5975SOL     OW18823   5.178   0.031   0.074
 5975SOL    HW118824   5.173   6.933   0.058
 5975SOL    HW218825   5.085   0.070   0.068
 5976SOL     OW18826   4.991   0.463   0.657
 5976SOL    HW118827   4.945   0.552   0.651
 5976SOL    HW218828   5.005   0.440   0.753
 5977SOL     OW18829   5.368   0.259   0.881
 5977SOL    HW118830   5.305   0.266   0.959
 5977SOL    HW218831   5.371   0.346   0.832
 5978SOL     OW18832   3.779   0.978   0.333
 5978SOL    HW118833   3.871   0.968   0.296
 5978SOL    HW218834   3.743   0.887   0.357
 5979SOL     OW18835   4.619   1.683   0.341
 5979SOL    HW118836   4.542   1.658   0.282
 5979SOL    HW218837   4.592   1.760   0.399
 5980SOL     OW18838   3.936   0.653   2.021
 5980SOL    HW118839   3.847   0.617   2.049
 5980SOL    HW218840   3.941   0.653   1.921
 5981SOL     OW18841   3.929   0.290   2.891
 5981SOL    HW118842   3.972   0.246   2.970
 5981SOL    HW218843   3.849   0.237   2.862
 5982SOL     OW18844   3.756   0.437   2.509
 5982SOL    HW118845   3.673   0.464   2.557
 5982SOL    HW218846   3.733   0.370   2.439
 5983SOL     OW18847   4.291   1.308   3.095
 5983SOL    HW118848   4.204   1.305   3.047
 5983SOL    HW218849   4.311   1.402   3.122
 5984SOL     OW18850   5.319   1.516   2.557
 5984SOL    HW118851   5.271   1.482   2.637
 5984SOL    HW218852   5.254   1.532   2.482
 5985SOL     OW18853   4.845   0.729   2.537
 5985SOL    HW118854   4.894   0.812   2.510
 5985SOL    HW218855   4.798   0.745   2.624
 5986SOL     OW18856   5.529   0.549   2.060
 5986SOL    HW118857   5.491   0.578   1.972
 5986SOL    HW218858   5.463   0.492   2.107
 5987SOL     OW18859   4.437   1.137   2.924
 5987SOL    HW118860   4.382   1.173   2.999
 5987SOL    HW218861   4.475   1.212   2.871
 5988SOL     OW18862   4.580   0.743   3.712
 5988SOL    HW118863   4.575   0.804   3.791
 5988SOL    HW218864   4.602   0.796   3.630
 5989SOL     OW18865   4.426   0.969   2.517
 5989SOL    HW118866   4.493   0.980   2.590
 5989SOL    HW218867   4.351   1.033   2.531
 5990SOL     OW18868   4.398   1.137   3.707
 5990SOL    HW118869   4.448   1.208   3.757
 5990SOL    HW218870   4.321   1.177   3.658
 5991SOL     OW18871   4.058   1.372   2.953
 5991SOL    HW118872   3.984   1.315   2.918
 5991SOL    HW218873   4.100   1.423   2.878
 5992SOL     OW18874   5.177   1.500   3.238
 5992SOL    HW118875   5.237   1.578   3.252
 5992SOL    HW218876   5.096   1.509   3.296
 5993SOL     OW18877   4.195   0.330   3.279
 5993SOL    HW118878   4.269   0.300   3.339
 5993SOL    HW218879   4.107   0.296   3.315
 5994SOL     OW18880   5.350   0.492   2.597
 5994SOL    HW118881   5.332   0.524   2.504
 5994SOL    HW218882   5.293   0.543   2.662
 5995SOL     OW18883   3.971   1.721   2.309
 5995SOL    HW118884   3.988   1.786   2.383
 5995SOL    HW218885   4.035   1.738   2.235
 5996SOL     OW18886   4.817   1.350   3.570
 5996SOL    HW118887   4.891   1.324   3.632
 5996SOL    HW218888   4.751   1.275   3.564
 5997SOL     OW18889   3.953   1.463   2.393
 5997SOL    HW118890   3.956   1.561   2.372
 5997SOL    HW218891   3.911   1.450   2.483
 5998SOL     OW18892   4.033   1.081   2.731
 5998SOL    HW118893   4.047   0.985   2.758
 5998SOL    HW218894   3.975   1.126   2.799
 5999SOL     OW18895   4.296   1.813   3.284
 5999SOL    HW118896   4.219   1.786   3.342
 5999SOL    HW218897   4.345   1.888   3.327
 6000SOL     OW18898   4.286   0.978   2.034
 6000SOL    HW118899   4.330   1.034   1.963
 6000SOL    HW218900   4.327   0.999   2.123
 6001SOL     OW18901   5.326   0.099   3.370
 6001SOL    HW118902   5.303   0.162   3.296
 6001SOL    HW218903   5.276   0.124   3.452
 6002SOL     OW18904   3.854   0.688   2.435
 6002SOL    HW118905   3.833   0.593   2.459
 6002SOL    HW218906   3.853   0.745   2.517
 6003SOL     OW18907   5.581   1.742   2.186
 6003SOL    HW118908   5.660   1.735   2.247
 6003SOL    HW218909   5.576   1.834   2.148
 6004SOL     OW18910   3.726   1.567   1.934
 6004SOL    HW118911   3.652   1.500   1.929
 6004SOL    HW218912   3.729   1.607   2.025
 6005SOL     OW18913   5.424   0.945   2.522
 6005SOL    HW118914   5.515   0.904   2.520
 6005SOL    HW218915   5.411   1.002   2.440
 6006SOL     OW18916   5.404   1.119   2.297
 6006SOL    HW118917   5.484   1.085   2.247
 6006SOL    HW218918   5.432   1.194   2.357
 6007SOL     OW18919   3.816   0.764   3.389
 6007SOL    HW118920   3.879   0.814   3.330
 6007SOL    HW218921   3.728   0.810   3.391
 6008SOL     OW18922   4.339   1.390   2.564
 6008SOL    HW118923   4.303   1.297   2.568
 6008SOL    HW218924   4.321   1.429   2.474
 6009SOL     OW18925   4.961   1.204   3.293
 6009SOL    HW118926   4.981   1.140   3.219
 6009SOL    HW218927   5.038   1.206   3.357
 6010SOL     OW18928   4.599   0.058   2.395
 6010SOL    HW118929   4.644   0.140   2.358
 6010SOL    HW218930   4.501   0.076   2.407
 6011SOL     OW18931   3.950   0.921   3.202
 6011SOL    HW118932   4.043   0.888   3.184
 6011SOL    HW218933   3.904   0.939   3.115
 6012SOL     OW18934   5.281   1.050   2.056
 6012SOL    HW118935   5.210   0.983   2.078
 6012SOL    HW218936   5.324   1.083   2.140
 6013SOL     OW18937   5.038   1.862   3.488
 6013SOL    HW118938   4.983   1.919   3.427
 6013SOL    HW218939   5.021   1.766   3.468
 6014SOL     OW18940   4.064   0.288   3.676
 6014SOL    HW118941   4.120   0.351   3.731
 6014SOL    HW218942   3.967   0.307   3.693
 6015SOL     OW18943   5.198   1.412   2.779
 6015SOL    HW118944   5.137   1.445   2.851
 6015SOL    HW218945   5.166   1.323   2.746
 6016SOL     OW18946   5.344   1.854   2.400
 6016SOL    HW118947   5.337   1.788   2.325
 6016SOL    HW218948   5.353   1.805   2.486
 6017SOL     OW18949   4.295   0.697   2.123
 6017SOL    HW118950   4.297   0.790   2.084
 6017SOL    HW218951   4.229   0.694   2.199
 6018SOL     OW18952   5.009   0.366   2.768
 6018SOL    HW118953   4.916   0.332   2.784
 6018SOL    HW218954   5.070   0.332   2.838
 6019SOL     OW18955   5.315   1.679   2.187
 6019SOL    HW118956   5.415   1.688   2.183
 6019SOL    HW218957   5.279   1.668   2.095
 6020SOL     OW18958   4.531   0.560   3.347
 6020SOL    HW118959   4.497   0.519   3.432
 6020SOL    HW218960   4.513   0.497   3.271
 6021SOL     OW18961   5.105   0.492   3.544
 6021SOL    HW118962   5.110   0.544   3.630
 6021SOL    HW218963   5.137   0.399   3.560
 6022SOL     OW18964   4.662   0.875   3.477
 6022SOL    HW118965   4.722   0.809   3.433
 6022SOL    HW218966   4.605   0.920   3.408
 6023SOL     OW18967   4.766   0.387   3.039
 6023SOL    HW118968   4.674   0.410   3.072
 6023SOL    HW218969   4.758   0.336   2.954
 6024SOL     OW18970   4.761   0.693   2.274
 6024SOL    HW118971   4.784   0.700   2.371
 6024SOL    HW218972   4.673   0.646   2.264
 6025SOL     OW18973   3.833   0.841   2.660
 6025SOL    HW118974   3.921   0.829   2.704
 6025SOL    HW218975   3.775   0.901   2.716
 6026SOL     OW18976   3.868   1.876   3.504
 6026SOL    HW118977   3.881   1.824   3.588
 6026SOL    HW218978   3.782   1.927   3.509
 6027SOL     OW18979   4.608   0.369   2.059
 6027SOL    HW118980   4.676   0.424   2.010
 6027SOL    HW218981   4.557   0.313   1.994
 6028SOL     OW18982   5.389   0.587   3.701
 6028SOL    HW118983   5.368   0.673   3.656
 6028SOL    HW218984   5.399   0.515   3.632
 6029SOL     OW18985   5.129   1.178   2.400
 6029SOL    HW118986   5.218   1.169   2.355
 6029SOL    HW218987   5.073   1.244   2.351
 6030SOL     OW18988   4.226   0.182   2.811
 6030SOL    HW118989   4.264   0.213   2.898
 6030SOL    HW218990   4.232   0.255   2.744
 6031SOL     OW18991   4.707   1.479   2.321
 6031SOL    HW118992   4.689   1.550   2.253
 6031SOL    HW218993   4.666   1.505   2.408
 6032SOL     OW18994   4.080   1.775   2.756
 6032SOL    HW118995   4.114   1.681   2.758
 6032SOL    HW218996   4.155   1.838   2.777
 6033SOL     OW18997   5.504   1.053   2.766
 6033SOL    HW118998   5.464   1.035   2.677
 6033SOL    HW218999   5.432   1.068   2.834
 6034SOL     OW19000   4.944   1.541   3.377
 6034SOL    HW119001   4.913   1.462   3.429
 6034SOL    HW219002   4.866   1.585   3.332
 6035SOL     OW19003   4.013   0.916   2.130
 6035SOL    HW119004   4.099   0.943   2.087
 6035SOL    HW219005   3.988   0.824   2.099
 6036SOL     OW19006   5.197   0.790   2.551
 6036SOL    HW119007   5.188   0.740   2.637
 6036SOL    HW219008   5.279   0.847   2.555
 6037SOL     OW19009   4.184   1.278   3.605
 6037SOL    HW119010   4.157   1.284   3.508
 6037SOL    HW219011   4.101   1.274   3.661
 6038SOL     OW19012   4.833   1.806   2.012
 6038SOL    HW119013   4.758   1.777   2.071
 6038SOL    HW219014   4.874   1.725   1.968
 6039SOL     OW19015   3.963   0.256   3.409
 6039SOL    HW119016   3.888   0.318   3.389
 6039SOL    HW219017   3.998   0.273   3.501
 6040SOL     OW19018   5.362   1.385   1.952
 6040SOL    HW119019   5.338   1.481   1.940
 6040SOL    HW219020   5.284   1.328   1.927
 6041SOL     OW19021   4.184   1.788   2.140
 6041SOL    HW119022   4.225   1.838   2.216
 6041SOL    HW219023   4.254   1.733   2.094
 6042SOL     OW19024   5.167   0.110   2.278
 6042SOL    HW119025   5.096   0.056   2.233
 6042SOL    HW219026   5.242   0.126   2.214
 6043SOL     OW19027   3.913   1.785   3.133
 6043SOL    HW119028   3.974   1.710   3.161
 6043SOL    HW219029   3.892   1.775   3.036
 6044SOL     OW19030   4.665   1.689   2.737
 6044SOL    HW119031   4.758   1.651   2.736
 6044SOL    HW219032   4.612   1.650   2.662
 6045SOL     OW19033   4.122   0.667   2.336
 6045SOL    HW119034   4.125   0.567   2.347
 6045SOL    HW219035   4.029   0.699   2.357
 6046SOL     OW19036   5.201   0.228   3.595
 6046SOL    HW119037   5.251   0.227   3.682
 6046SOL    HW219038   5.110   0.188   3.609
 6047SOL     OW19039   4.375   0.068   1.989
 6047SOL    HW119040   4.428   0.011   2.052
 6047SOL    HW219041   4.302   0.013   1.948
 6048SOL     OW19042   4.493   0.230   3.699
 6048SOL    HW119043   4.574   0.183   3.663
 6048SOL    HW219044   4.434   0.164   3.744
 6049SOL     OW19045   4.583   1.501   3.064
 6049SOL    HW119046   4.555   1.473   2.973
 6049SOL    HW219047   4.633   1.427   3.109
 6050SOL     OW19048   5.038   0.594   3.298
 6050SOL    HW119049   5.072   0.569   3.389
 6050SOL    HW219050   5.060   0.689   3.278
 6051SOL     OW19051   4.527   1.364   2.798
 6051SOL    HW119052   4.621   1.372   2.765
 6051SOL    HW219053   4.463   1.384   2.723
 6052SOL     OW19054   4.646   0.511   2.734
 6052SOL    HW119055   4.626   0.508   2.636
 6052SOL    HW219056   4.674   0.420   2.766
 6053SOL     OW19057   4.333   0.115   2.388
 6053SOL    HW119058   4.253   0.093   2.444
 6053SOL    HW219059   4.305   0.163   2.306
 6054SOL     OW19060   5.140   1.226   1.895
 6054SOL    HW119061   5.184   1.156   1.953
 6054SOL    HW219062   5.051   1.250   1.934
 6055SOL     OW19063   4.051   0.028   2.174
 6055SOL    HW119064   4.115   0.105   2.176
 6055SOL    HW219065   3.958   0.063   2.161
 6056SOL     OW19066   4.722   0.282   2.295
 6056SOL    HW119067   4.679   0.309   2.209
 6056SOL    HW219068   4.820   0.298   2.290
 6057SOL     OW19069   4.770   0.689   3.301
 6057SOL    HW119070   4.695   0.628   3.326
 6057SOL    HW219071   4.856   0.639   3.303
 6058SOL     OW19072   4.925   1.611   2.681
 6058SOL    HW119073   4.951   1.662   2.599
 6058SOL    HW219074   4.965   1.655   2.762
 6059SOL     OW19075   4.215   1.144   2.540
 6059SOL    HW119076   4.155   1.124   2.618
 6059SOL    HW219077   4.163   1.139   2.455
 6060SOL     OW19078   4.970   1.788   2.467
 6060SOL    HW119079   5.017   1.856   2.411
 6060SOL    HW219080   4.885   1.828   2.502
 6061SOL     OW19081   4.777   0.530   1.920
 6061SOL    HW119082   4.719   0.610   1.906
 6061SOL    HW219083   4.845   0.549   1.990
 6062SOL     OW19084   3.849   0.525   3.258
 6062SOL    HW119085   3.943   0.529   3.226
 6062SOL    HW219086   3.828   0.605   3.314
 6063SOL     OW19087   4.328   0.219   3.069
 6063SOL    HW119088   4.326   0.120   3.088
 6063SOL    HW219089   4.269   0.266   3.135
 6064SOL     OW19090   4.608   0.470   2.470
 6064SOL    HW119091   4.548   0.519   2.407
 6064SOL    HW219092   4.651   0.394   2.423
 6065SOL     OW19093   4.786   0.027   2.601
 6065SOL    HW119094   4.718   0.037   2.529
 6065SOL    HW219095   4.797   6.931   2.625
 6066SOL     OW19096   5.115   1.169   2.691
 6066SOL    HW119097   5.019   1.142   2.702
 6066SOL    HW219098   5.139   1.169   2.595
 6067SOL     OW19099   5.171   0.624   2.777
 6067SOL    HW119100   5.108   0.547   2.783
 6067SOL    HW219101   5.232   0.623   2.856
 6068SOL     OW19102   5.524   0.757   2.241
 6068SOL    HW119103   5.596   0.738   2.308
 6068SOL    HW219104   5.528   0.688   2.169
 6069SOL     OW19105   4.211   1.425   2.021
 6069SOL    HW119106   4.132   1.395   2.074
 6069SOL    HW219107   4.206   1.387   1.929
 6070SOL     OW19108   5.490   1.304   2.467
 6070SOL    HW119109   5.584   1.302   2.501
 6070SOL    HW219110   5.444   1.386   2.503
 6071SOL     OW19111   5.126   0.615   1.919
 6071SOL    HW119112   5.075   0.594   2.002
 6071SOL    HW219113   5.224   0.615   1.939
 6072SOL     OW19114   4.231   0.241   2.156
 6072SOL    HW119115   4.290   0.189   2.094
 6072SOL    HW219116   4.201   0.325   2.110
 6073SOL     OW19117   5.455   1.217   3.384
 6073SOL    HW119118   5.546   1.177   3.375
 6073SOL    HW219119   5.463   1.310   3.421
 6074SOL     OW19120   4.719   1.301   3.195
 6074SOL    HW119121   4.636   1.278   3.246
 6074SOL    HW219122   4.799   1.271   3.247
 6075SOL     OW19123   5.327   1.629   3.543
 6075SOL    HW119124   5.307   1.677   3.458
 6075SOL    HW219125   5.402   1.566   3.529
 6076SOL     OW19126   4.869   1.271   2.970
 6076SOL    HW119127   4.804   1.281   3.045
 6076SOL    HW219128   4.827   1.303   2.885
 6077SOL     OW19129   5.289   1.096   2.931
 6077SOL    HW119130   5.285   1.162   3.005
 6077SOL    HW219131   5.216   1.114   2.865
 6078SOL     OW19132   4.607   0.187   3.260
 6078SOL    HW119133   4.608   0.171   3.161
 6078SOL    HW219134   4.699   0.210   3.291
 6079SOL     OW19135   4.661   1.119   3.602
 6079SOL    HW119136   4.566   1.132   3.628
 6079SOL    HW219137   4.671   1.033   3.552
 6080SOL     OW19138   4.455   1.032   2.249
 6080SOL    HW119139   4.446   1.002   2.344
 6080SOL    HW219140   4.520   0.973   2.201
 6081SOL     OW19141   4.191   0.801   3.148
 6081SOL    HW119142   4.254   0.804   3.226
 6081SOL    HW219143   4.152   0.709   3.140
 6082SOL     OW19144   5.007   0.367   3.155
 6082SOL    HW119145   5.024   0.451   3.207
 6082SOL    HW219146   4.918   0.374   3.110
 6083SOL     OW19147   3.775   1.518   3.215
 6083SOL    HW119148   3.727   1.589   3.164
 6083SOL    HW219149   3.874   1.534   3.211
 6084SOL     OW19150   4.043   1.120   2.324
 6084SOL    HW119151   4.034   1.198   2.262
 6084SOL    HW219152   4.033   1.035   2.271
 6085SOL     OW19153   4.252   0.528   2.736
 6085SOL    HW119154   4.267   0.583   2.654
 6085SOL    HW219155   4.325   0.546   2.802
 6086SOL     OW19156   4.963   1.376   2.271
 6086SOL    HW119157   5.027   1.447   2.302
 6086SOL    HW219158   4.870   1.402   2.297
 6087SOL     OW19159   5.049   1.476   2.998
 6087SOL    HW119160   5.093   1.481   3.088
 6087SOL    HW219161   4.984   1.400   2.998
 6088SOL     OW19162   5.305   0.623   2.354
 6088SOL    HW119163   5.241   0.679   2.407
 6088SOL    HW219164   5.375   0.682   2.314
 6089SOL     OW19165   4.051   1.533   3.171
 6089SOL    HW119166   4.045   1.475   3.090
 6089SOL    HW219167   4.147   1.559   3.186
 6090SOL     OW19168   4.204   0.663   3.549
 6090SOL    HW119169   4.245   0.714   3.474
 6090SOL    HW219170   4.269   0.596   3.584
 6091SOL     OW19171   5.327   0.817   3.567
 6091SOL    HW119172   5.231   0.846   3.565
 6091SOL    HW219173   5.373   0.848   3.484
 6092SOL     OW19174   4.711   0.105   3.567
 6092SOL    HW119175   4.755   0.153   3.492
 6092SOL    HW219176   4.685   0.014   3.538
 6093SOL     OW19177   4.114   0.027   3.595
 6093SOL    HW119178   4.031   6.979   3.623
 6093SOL    HW219179   4.109   0.122   3.625
 6094SOL     OW19180   4.325   0.873   2.917
 6094SOL    HW119181   4.360   0.967   2.914
 6094SOL    HW219182   4.278   0.857   3.003
 6095SOL     OW19183   5.000   0.843   2.866
 6095SOL    HW119184   4.907   0.816   2.842
 6095SOL    HW219185   5.064   0.774   2.833
 6096SOL     OW19186   4.953   0.559   2.129
 6096SOL    HW119187   4.976   0.475   2.179
 6096SOL    HW219188   4.892   0.615   2.185
 6097SOL     OW19189   4.019   0.132   3.096
 6097SOL    HW119190   4.023   0.100   3.190
 6097SOL    HW219191   4.050   0.059   3.035
 6098SOL     OW19192   3.784   1.253   3.148
 6098SOL    HW119193   3.809   1.204   3.231
 6098SOL    HW219194   3.772   1.350   3.168
 6099SOL     OW19195   4.450   0.623   2.906
 6099SOL    HW119196   4.517   0.603   2.834
 6099SOL    HW219197   4.414   0.715   2.892
 6100SOL     OW19198   5.489   0.973   3.730
 6100SOL    HW119199   5.433   0.912   3.674
 6100SOL    HW219200   5.437   1.004   3.809
 6101SOL     OW19201   4.092   0.081   2.516
 6101SOL    HW119202   4.052   0.164   2.555
 6101SOL    HW219203   4.028   0.005   2.526
 6102SOL     OW19204   5.334   0.403   2.186
 6102SOL    HW119205   5.393   0.344   2.241
 6102SOL    HW219206   5.299   0.477   2.244
 6103SOL     OW19207   4.739   0.757   2.810
 6103SOL    HW119208   4.716   0.773   2.906
 6103SOL    HW219209   4.713   0.665   2.783
 6104SOL     OW19210   4.701   1.600   3.555
 6104SOL    HW119211   4.698   1.631   3.459
 6104SOL    HW219212   4.726   1.503   3.557
 6105SOL     OW19213   5.540   1.472   3.454
 6105SOL    HW119214   5.561   1.503   3.361
 6105SOL    HW219215   5.619   1.490   3.513
 6106SOL     OW19216   4.096   0.880   3.687
 6106SOL    HW119217   4.165   0.914   3.751
 6106SOL    HW219218   4.133   0.802   3.636
 6107SOL     OW19219   5.233   0.235   1.983
 6107SOL    HW119220   5.133   0.232   1.976
 6107SOL    HW219221   5.260   0.305   2.049
 6108SOL     OW19222   4.996   0.847   1.849
 6108SOL    HW119223   5.041   0.759   1.863
 6108SOL    HW219224   5.016   0.880   1.757
 6109SOL     OW19225   4.789   1.371   2.723
 6109SOL    HW119226   4.817   1.288   2.674
 6109SOL    HW219227   4.847   1.447   2.696
 6110SOL     OW19228   4.068   0.815   2.809
 6110SOL    HW119229   4.165   0.832   2.828
 6110SOL    HW219230   4.044   0.721   2.835
 6111SOL     OW19231   4.022   0.540   2.872
 6111SOL    HW119232   3.978   0.451   2.876
 6111SOL    HW219233   4.102   0.536   2.813
 6112SOL     OW19234   4.834   0.455   3.530
 6112SOL    HW119235   4.792   0.481   3.617
 6112SOL    HW219236   4.931   0.478   3.531
 6113SOL     OW19237   4.849   0.246   3.364
 6113SOL    HW119238   4.839   0.325   3.424
 6113SOL    HW219239   4.915   0.266   3.292
 6114SOL     OW19240   3.745   1.266   2.047
 6114SOL    HW119241   3.655   1.305   2.024
 6114SOL    HW219242   3.732   1.174   2.083
 6115SOL     OW19243   3.827   1.754   2.863
 6115SOL    HW119244   3.780   1.686   2.807
 6115SOL    HW219245   3.917   1.774   2.823
 6116SOL     OW19246   4.198   1.521   2.768
 6116SOL    HW119247   4.273   1.574   2.807
 6116SOL    HW219248   4.231   1.471   2.688
 6117SOL     OW19249   4.652   0.783   3.067
 6117SOL    HW119250   4.704   0.760   3.150
 6117SOL    HW219251   4.570   0.725   3.063
 6118SOL     OW19252   3.765   0.590   3.000
 6118SOL    HW119253   3.846   0.588   2.942
 6118SOL    HW219254   3.791   0.565   3.094
 6119SOL     OW19255   3.929   0.612   3.600
 6119SOL    HW119256   4.027   0.618   3.582
 6119SOL    HW219257   3.880   0.669   3.534
 6120SOL     OW19258   5.084   0.932   3.500
 6120SOL    HW119259   5.112   1.028   3.496
 6120SOL    HW219260   5.073   0.896   3.408
 6121SOL     OW19261   4.520   0.574   2.224
 6121SOL    HW119262   4.538   0.495   2.166
 6121SOL    HW219263   4.439   0.622   2.191
 6122SOL     OW19264   5.346   0.614   2.987
 6122SOL    HW119265   5.316   0.546   3.053
 6122SOL    HW219266   5.446   0.608   2.977
 6123SOL     OW19267   3.942   1.508   3.572
 6123SOL    HW119268   3.935   1.588   3.632
 6123SOL    HW219269   3.947   1.426   3.629
 6124SOL     OW19270   4.499   0.435   3.098
 6124SOL    HW119271   4.443   0.352   3.087
 6124SOL    HW219272   4.471   0.503   3.029
 6125SOL     OW19273   4.707   1.657   3.279
 6125SOL    HW119274   4.662   1.605   3.207
 6125SOL    HW219275   4.692   1.755   3.264
 6126SOL     OW19276   4.157   0.474   2.016
 6126SOL    HW119277   4.230   0.539   2.040
 6126SOL    HW219278   4.068   0.520   2.024
 6127SOL     OW19279   3.861   1.115   3.375
 6127SOL    HW119280   3.868   1.088   3.471
 6127SOL    HW219281   3.898   1.042   3.317
 6128SOL     OW19282   4.983   1.037   3.061
 6128SOL    HW119283   4.992   0.968   2.989
 6128SOL    HW219284   4.942   1.120   3.022
 6129SOL     OW19285   5.074   0.889   2.118
 6129SOL    HW119286   5.007   0.875   2.191
 6129SOL    HW219287   5.031   0.875   2.029
 6130SOL     OW19288   5.478   1.686   3.013
 6130SOL    HW119289   5.552   1.718   2.953
 6130SOL    HW219290   5.451   1.594   2.986
 6131SOL     OW19291   5.008   1.732   2.914
 6131SOL    HW119292   5.097   1.778   2.917
 6131SOL    HW219293   5.016   1.642   2.956
 6132SOL     OW19294   3.851   1.191   2.895
 6132SOL    HW119295   3.822   1.215   2.988
 6132SOL    HW219296   3.778   1.141   2.850
 6133SOL     OW19297   4.457   1.648   3.669
 6133SOL    HW119298   4.401   1.722   3.633
 6133SOL    HW219299   4.547   1.650   3.626
 6134SOL     OW19300   5.507   0.246   2.327
 6134SOL    HW119301   5.564   0.198   2.260
 6134SOL    HW219302   5.466   0.180   2.390
 6135SOL     OW19303   5.127   1.579   2.363
 6135SOL    HW119304   5.190   1.615   2.293
 6135SOL    HW219305   5.068   1.653   2.395
 6136SOL     OW19306   3.908   1.731   3.727
 6136SOL    HW119307   3.836   1.673   3.764
 6136SOL    HW219308   3.954   1.779   3.802
 6137SOL     OW19309   4.994   0.949   2.469
 6137SOL    HW119310   5.068   0.887   2.497
 6137SOL    HW219311   5.034   1.033   2.431
 6138SOL     OW19312   4.470   1.253   3.303
 6138SOL    HW119313   4.454   1.310   3.384
 6138SOL    HW219314   4.396   1.268   3.237
 6139SOL     OW19315   4.389   1.633   2.014
 6139SOL    HW119316   4.383   1.664   1.919
 6139SOL    HW219317   4.330   1.553   2.027
 6140SOL     OW19318   5.345   1.719   3.261
 6140SOL    HW119319   5.388   1.712   3.171
 6140SOL    HW219320   5.368   1.807   3.303
 6141SOL     OW19321   5.585   0.121   2.842
 6141SOL    HW119322   5.587   0.030   2.801
 6141SOL    HW219323   5.506   0.171   2.808
 6142SOL     OW19324   3.980   0.311   2.612
 6142SOL    HW119325   3.901   0.362   2.578
 6142SOL    HW219326   3.976   0.304   2.711
 6143SOL     OW19327   4.952   1.589   1.892
 6143SOL    HW119328   4.934   1.501   1.935
 6143SOL    HW219329   4.894   1.598   1.810
 6144SOL     OW19330   4.523   0.988   3.272
 6144SOL    HW119331   4.567   0.975   3.183
 6144SOL    HW219332   4.502   1.085   3.285
 6145SOL     OW19333   4.633   0.876   2.108
 6145SOL    HW119334   4.698   0.934   2.059
 6145SOL    HW219335   4.683   0.815   2.169
 6146SOL     OW19336   5.217   1.654   1.928
 6146SOL    HW119337   5.122   1.626   1.912
 6146SOL    HW219338   5.266   1.655   1.842
 6147SOL     OW19339   4.079   1.301   3.357
 6147SOL    HW119340   4.064   1.381   3.299
 6147SOL    HW219341   3.997   1.243   3.356
 6148SOL     OW19342   5.314   1.278   3.145
 6148SOL    HW119343   5.373   1.247   3.219
 6148SOL    HW219344   5.255   1.352   3.178
 6149SOL     OW19345   4.842   1.113   2.637
 6149SOL    HW119346   4.755   1.076   2.669
 6149SOL    HW219347   4.882   1.051   2.570
 6150SOL     OW19348   4.753   0.237   2.799
 6150SOL    HW119349   4.763   0.182   2.716
 6150SOL    HW219350   4.707   0.184   2.869
 6151SOL     OW19351   4.316   1.483   2.313
 6151SOL    HW119352   4.377   1.421   2.263
 6151SOL    HW219353   4.235   1.502   2.257
 6152SOL     OW19354   5.514   0.334   3.267
 6152SOL    HW119355   5.583   0.405   3.251
 6152SOL    HW219356   5.529   0.259   3.203
 6153SOL     OW19357   3.990   1.337   2.161
 6153SOL    HW119358   3.902   1.321   2.116
 6153SOL    HW219359   3.976   1.387   2.246
 6154SOL     OW19360   3.871   1.031   3.634
 6154SOL    HW119361   3.787   1.000   3.679
 6154SOL    HW219362   3.946   0.969   3.656
 6155SOL     OW19363   4.402   0.228   3.428
 6155SOL    HW119364   4.478   0.217   3.364
 6155SOL    HW219365   4.436   0.258   3.516
 6156SOL     OW19366   3.784   0.324   1.915
 6156SOL    HW119367   3.725   0.327   1.835
 6156SOL    HW219368   3.768   0.404   1.973
 6157SOL     OW19369   5.095   0.855   3.237
 6157SOL    HW119370   5.032   0.913   3.184
 6157SOL    HW219371   5.185   0.857   3.194
 6158SOL     OW19372   3.797   0.131   2.118
 6158SOL    HW119373   3.795   0.197   2.043
 6158SOL    HW219374   3.769   0.041   2.084
 6159SOL     OW19375   4.887   1.341   1.998
 6159SOL    HW119376   4.788   1.327   1.995
 6159SOL    HW219377   4.917   1.342   2.093
 6160SOL     OW19378   4.366   0.780   3.354
 6160SOL    HW119379   4.416   0.864   3.335
 6160SOL    HW219380   4.429   0.702   3.353
 6161SOL     OW19381   5.261   1.841   2.915
 6161SOL    HW119382   5.294   1.894   2.837
 6161SOL    HW219383   5.337   1.789   2.955
 6162SOL     OW19384   4.439   0.513   3.612
 6162SOL    HW119385   4.487   0.590   3.654
 6162SOL    HW219386   4.458   0.429   3.663
 6163SOL     OW19387   5.185   1.186   3.477
 6163SOL    HW119388   5.184   1.208   3.575
 6163SOL    HW219389   5.276   1.203   3.440
 6164SOL     OW19390   4.089   1.720   3.444
 6164SOL    HW119391   4.012   1.783   3.448
 6164SOL    HW219392   4.059   1.628   3.466
 6165SOL     OW19393   5.330   0.874   3.095
 6165SOL    HW119394   5.339   0.788   3.046
 6165SOL    HW219395   5.316   0.949   3.030
 6166SOL     OW19396   4.995   0.338   2.291
 6166SOL    HW119397   5.059   0.261   2.298
 6166SOL    HW219398   4.997   0.390   2.376
 6167SOL     OW19399   4.307   0.713   2.538
 6167SOL    HW119400   4.354   0.800   2.528
 6167SOL    HW219401   4.243   0.700   2.463
 6168SOL     OW19402   5.423   0.379   3.520
 6168SOL    HW119403   5.449   0.369   3.424
 6168SOL    HW219404   5.341   0.325   3.538
 6169SOL     OW19405   5.433   0.930   3.343
 6169SOL    HW119406   5.425   1.028   3.361
 6169SOL    HW219407   5.399   0.910   3.251
 6170SOL     OW19408   4.598   1.351   1.965
 6170SOL    HW119409   4.559   1.340   2.056
 6170SOL    HW219410   4.563   1.434   1.923
 6171SOL     OW19411   4.403   1.684   2.832
 6171SOL    HW119412   4.369   1.778   2.818
 6171SOL    HW219413   4.502   1.683   2.819
 6172SOL     OW19414   4.606   0.997   2.733
 6172SOL    HW119415   4.647   0.911   2.765
 6172SOL    HW219416   4.552   1.037   2.807
 6173SOL     OW19417   4.806   1.012   1.953
 6173SOL    HW119418   4.757   1.062   1.882
 6173SOL    HW219419   4.876   0.954   1.911
 6174SOL     OW19420   5.541   1.553   2.716
 6174SOL    HW119421   5.468   1.550   2.647
 6174SOL    HW219422   5.517   1.491   2.791
 6175SOL     OW19423   3.940   1.277   3.731
 6175SOL    HW119424   3.917   1.189   3.691
 6175SOL    HW219425   3.877   1.297   3.806
 6176SOL     OW19426   3.847   1.177   2.529
 6176SOL    HW119427   3.899   1.143   2.607
 6176SOL    HW219428   3.902   1.168   2.446
 6177SOL     OW19429   4.412   1.409   3.521
 6177SOL    HW119430   4.328   1.367   3.555
 6177SOL    HW219431   4.430   1.494   3.570
 6178SOL     OW19432   5.539   0.088   3.132
 6178SOL    HW119433   5.447   0.071   3.097
 6178SOL    HW219434   5.603   0.094   3.055
 6179SOL     OW19435   4.117   0.401   2.377
 6179SOL    HW119436   4.155   0.327   2.322
 6179SOL    HW219437   4.082   0.363   2.463
 6180SOL     OW19438   5.418   1.433   2.935
 6180SOL    HW119439   5.339   1.423   2.875
 6180SOL    HW219440   5.409   1.370   3.012
 6181SOL     OW19441   4.096   0.546   3.142
 6181SOL    HW119442   4.142   0.468   3.184
 6181SOL    HW219443   4.082   0.528   3.045
 6182SOL     OW19444   4.536   1.590   2.520
 6182SOL    HW119445   4.498   1.660   2.459
 6182SOL    HW219446   4.466   1.521   2.538
 6183SOL     OW19447   5.181   0.279   2.963
 6183SOL    HW119448   5.219   0.191   2.990
 6183SOL    HW219449   5.121   0.313   3.036
 6184SOL     OW19450   4.626   0.092   2.992
 6184SOL    HW119451   4.531   0.068   2.970
 6184SOL    HW219452   4.668   0.017   3.043
 6185SOL     OW19453   4.504   1.305   2.214
 6185SOL    HW119454   4.485   1.208   2.232
 6185SOL    HW219455   4.581   1.335   2.270
 6186SOL     OW19456   4.332   1.572   3.164
 6186SOL    HW119457   4.325   1.662   3.206
 6186SOL    HW219458   4.423   1.561   3.124
 6187SOL     OW19459   4.985   6.970   2.115
 6187SOL    HW119460   5.028   6.901   2.057
 6187SOL    HW219461   4.899   6.933   2.152
 6188SOL     OW19462   4.984   0.485   2.517
 6188SOL    HW119463   4.932   0.570   2.521
 6188SOL    HW219464   4.992   0.446   2.609
 6189SOL     OW19465   5.361   0.253   2.738
 6189SOL    HW119466   5.297   0.262   2.814
 6189SOL    HW219467   5.363   0.337   2.685
 6190SOL     OW19468   3.753   1.012   2.176
 6190SOL    HW119469   3.850   0.996   2.154
 6190SOL    HW219470   3.707   0.924   2.190
 6191SOL     OW19471   4.620   1.697   2.164
 6191SOL    HW119472   4.537   1.674   2.113
 6191SOL    HW219473   4.598   1.768   2.231
 6192SOL     OW19474   3.922   0.665   3.877
 6192SOL    HW119475   3.833   0.629   3.905
 6192SOL    HW219476   3.925   0.668   3.777
 6193SOL     OW19477   3.920   0.293   4.757
 6193SOL    HW119478   3.961   0.251   4.837
 6193SOL    HW219479   3.840   0.240   4.728
 6194SOL     OW19480   3.747   0.417   4.362
 6194SOL    HW119481   3.661   0.439   4.409
 6194SOL    HW219482   3.729   0.354   4.287
 6195SOL     OW19483   4.310   1.291   4.946
 6195SOL    HW119484   4.220   1.286   4.903
 6195SOL    HW219485   4.336   1.387   4.958
 6196SOL     OW19486   5.325   1.516   4.420
 6196SOL    HW119487   5.275   1.478   4.498
 6196SOL    HW219488   5.261   1.532   4.345
 6197SOL     OW19489   4.863   0.699   4.384
 6197SOL    HW119490   4.914   0.780   4.355
 6197SOL    HW219491   4.820   0.716   4.472
 6198SOL     OW19492   5.553   0.565   3.916
 6198SOL    HW119493   5.495   0.579   3.836
 6198SOL    HW219494   5.513   0.493   3.973
 6199SOL     OW19495   4.456   1.108   4.794
 6199SOL    HW119496   4.400   1.152   4.864
 6199SOL    HW219497   4.489   1.177   4.730
 6200SOL     OW19498   4.622   0.750   5.522
 6200SOL    HW119499   4.645   0.820   5.589
 6200SOL    HW219500   4.633   0.787   5.430
 6201SOL     OW19501   4.424   0.948   4.373
 6201SOL    HW119502   4.493   0.962   4.443
 6201SOL    HW219503   4.346   1.008   4.391
 6202SOL     OW19504   4.455   1.156   5.568
 6202SOL    HW119505   4.515   1.220   5.616
 6202SOL    HW219506   4.378   1.206   5.528
 6203SOL     OW19507   4.068   1.348   4.816
 6203SOL    HW119508   3.994   1.292   4.778
 6203SOL    HW219509   4.104   1.409   4.745
 6204SOL     OW19510   5.155   1.508   5.108
 6204SOL    HW119511   5.222   1.583   5.116
 6204SOL    HW219512   5.076   1.528   5.166
 6205SOL     OW19513   4.190   0.347   5.130
 6205SOL    HW119514   4.267   0.323   5.189
 6205SOL    HW219515   4.105   0.316   5.172
 6206SOL     OW19516   5.355   0.470   4.469
 6206SOL    HW119517   5.342   0.507   4.377
 6206SOL    HW219518   5.299   0.522   4.534
 6207SOL     OW19519   3.958   1.723   4.208
 6207SOL    HW119520   3.981   1.795   4.274
 6207SOL    HW219521   4.035   1.709   4.146
 6208SOL     OW19522   4.878   1.324   5.400
 6208SOL    HW119523   4.967   1.284   5.376
 6208SOL    HW219524   4.811   1.251   5.411
 6209SOL     OW19525   3.862   1.489   4.306
 6209SOL    HW119526   3.899   1.576   4.276
 6209SOL    HW219527   3.801   1.503   4.384
 6210SOL     OW19528   4.015   1.053   4.601
 6210SOL    HW119529   4.040   0.959   4.625
 6210SOL    HW219530   3.963   1.093   4.677
 6211SOL     OW19531   4.336   1.758   5.172
 6211SOL    HW119532   4.241   1.761   5.202
 6211SOL    HW219533   4.370   1.851   5.156
 6212SOL     OW19534   4.273   0.974   3.893
 6212SOL    HW119535   4.318   1.024   3.818
 6212SOL    HW219536   4.316   0.998   3.980
 6213SOL     OW19537   5.335   0.110   5.213
 6213SOL    HW119538   5.433   0.106   5.232
 6213SOL    HW219539   5.288   0.154   5.289
 6214SOL     OW19540   3.833   0.681   4.328
 6214SOL    HW119541   3.817   0.582   4.335
 6214SOL    HW219542   3.829   0.721   4.420
 6215SOL     OW19543   5.588   1.747   4.029
 6215SOL    HW119544   5.665   1.732   4.092
 6215SOL    HW219545   5.588   1.842   3.999
 6216SOL     OW19546   3.725   1.558   3.817
 6216SOL    HW119547   3.654   1.489   3.807
 6216SOL    HW219548   3.720   1.599   3.908
 6217SOL     OW19549   5.428   0.940   4.393
 6217SOL    HW119550   5.521   0.903   4.398
 6217SOL    HW219551   5.419   0.999   4.313
 6218SOL     OW19552   5.419   1.120   4.176
 6218SOL    HW119553   5.498   1.084   4.126
 6218SOL    HW219554   5.447   1.198   4.231
 6219SOL     OW19555   3.940   0.759   5.322
 6219SOL    HW119556   4.039   0.752   5.332
 6219SOL    HW219557   3.908   0.844   5.364
 6220SOL     OW19558   4.316   1.351   4.465
 6220SOL    HW119559   4.276   1.262   4.444
 6220SOL    HW219560   4.328   1.404   4.381
 6221SOL     OW19561   4.963   1.213   5.120
 6221SOL    HW119562   4.978   1.142   5.050
 6221SOL    HW219563   5.038   1.210   5.186
 6222SOL     OW19564   4.586   0.041   4.223
 6222SOL    HW119565   4.629   0.126   4.193
 6222SOL    HW219566   4.489   0.056   4.240
 6223SOL     OW19567   3.946   0.993   5.020
 6223SOL    HW119568   4.026   0.934   5.012
 6223SOL    HW219569   3.926   1.034   4.931
 6224SOL     OW19570   5.303   1.051   3.931
 6224SOL    HW119571   5.225   0.991   3.952
 6224SOL    HW219572   5.343   1.083   4.017
 6225SOL     OW19573   5.045   1.844   5.352
 6225SOL    HW119574   4.989   1.904   5.296
 6225SOL    HW219575   5.020   1.749   5.334
 6226SOL     OW19576   4.061   0.292   5.543
 6226SOL    HW119577   4.110   0.348   5.610
 6226SOL    HW219578   3.967   0.278   5.573
 6227SOL     OW19579   5.204   1.401   4.637
 6227SOL    HW119580   5.141   1.435   4.707
 6227SOL    HW219581   5.172   1.313   4.603
 6228SOL     OW19582   5.364   1.844   4.264
 6228SOL    HW119583   5.354   1.781   4.187
 6228SOL    HW219584   5.368   1.792   4.349
 6229SOL     OW19585   4.273   0.703   3.995
 6229SOL    HW119586   4.274   0.794   3.953
 6229SOL    HW219587   4.207   0.702   4.070
 6230SOL     OW19588   5.017   0.385   4.659
 6230SOL    HW119589   4.927   0.341   4.665
 6230SOL    HW219590   5.080   0.340   4.722
 6231SOL     OW19591   5.324   1.682   4.043
 6231SOL    HW119592   5.422   1.695   4.033
 6231SOL    HW219593   5.282   1.671   3.953
 6232SOL     OW19594   4.517   0.583   5.193
 6232SOL    HW119595   4.481   0.547   5.279
 6232SOL    HW219596   4.500   0.518   5.119
 6233SOL     OW19597   5.116   0.500   5.393
 6233SOL    HW119598   5.121   0.544   5.483
 6233SOL    HW219599   5.163   0.412   5.397
 6234SOL     OW19600   4.677   0.891   5.283
 6234SOL    HW119601   4.728   0.820   5.234
 6234SOL    HW219602   4.622   0.943   5.218
 6235SOL     OW19603   4.755   0.390   4.902
 6235SOL    HW119604   4.663   0.412   4.933
 6235SOL    HW219605   4.750   0.344   4.814
 6236SOL     OW19606   4.736   0.717   4.134
 6236SOL    HW119607   4.769   0.706   4.228
 6236SOL    HW219608   4.649   0.669   4.123
 6237SOL     OW19609   3.809   0.793   4.581
 6237SOL    HW119610   3.904   0.798   4.612
 6237SOL    HW219611   3.757   0.869   4.620
 6238SOL     OW19612   3.837   1.867   5.348
 6238SOL    HW119613   3.862   1.828   5.437
 6238SOL    HW219614   3.737   1.868   5.340
 6239SOL     OW19615   4.583   0.381   3.909
 6239SOL    HW119616   4.651   0.437   3.862
 6239SOL    HW219617   4.541   0.318   3.844
 6240SOL     OW19618   5.395   0.593   5.561
 6240SOL    HW119619   5.376   0.674   5.505
 6240SOL    HW219620   5.425   0.518   5.502
 6241SOL     OW19621   5.144   1.160   4.267
 6241SOL    HW119622   5.236   1.153   4.227
 6241SOL    HW219623   5.091   1.229   4.219
 6242SOL     OW19624   4.228   0.210   4.667
 6242SOL    HW119625   4.268   0.226   4.758
 6242SOL    HW219626   4.241   0.291   4.610
 6243SOL     OW19627   4.734   1.441   4.203
 6243SOL    HW119628   4.708   1.513   4.138
 6243SOL    HW219629   4.708   1.469   4.296
 6244SOL     OW19630   4.057   1.778   4.649
 6244SOL    HW119631   4.101   1.689   4.642
 6244SOL    HW219632   4.126   1.849   4.660
 6245SOL     OW19633   5.503   1.057   4.634
 6245SOL    HW119634   5.461   1.033   4.547
 6245SOL    HW219635   5.431   1.074   4.702
 6246SOL     OW19636   4.936   1.574   5.271
 6246SOL    HW119637   4.925   1.485   5.317
 6246SOL    HW219638   4.846   1.613   5.253
 6247SOL     OW19639   4.001   0.924   3.982
 6247SOL    HW119640   4.087   0.950   3.939
 6247SOL    HW219641   3.974   0.833   3.951
 6248SOL     OW19642   5.211   0.771   4.411
 6248SOL    HW119643   5.198   0.725   4.499
 6248SOL    HW219644   5.288   0.834   4.418
 6249SOL     OW19645   4.228   1.299   5.470
 6249SOL    HW119646   4.211   1.295   5.372
 6249SOL    HW219647   4.143   1.283   5.520
 6250SOL     OW19648   4.857   1.757   3.930
 6250SOL    HW119649   4.776   1.728   3.981
 6250SOL    HW219650   4.886   1.683   3.869
 6251SOL     OW19651   3.967   0.277   5.273
 6251SOL    HW119652   3.884   0.327   5.247
 6251SOL    HW219653   3.991   0.299   5.367
 6252SOL     OW19654   5.375   1.412   3.825
 6252SOL    HW119655   5.319   1.495   3.825
 6252SOL    HW219656   5.322   1.335   3.789
 6253SOL     OW19657   4.208   1.725   4.079
 6253SOL    HW119658   4.255   1.780   4.148
 6253SOL    HW219659   4.274   1.682   4.018
 6254SOL     OW19660   5.134   0.179   4.033
 6254SOL    HW119661   5.076   0.102   4.008
 6254SOL    HW219662   5.204   0.148   4.098
 6255SOL     OW19663   3.970   1.760   4.920
 6255SOL    HW119664   4.033   1.701   4.970
 6255SOL    HW219665   4.002   1.771   4.826
 6256SOL     OW19666   4.641   1.677   4.644
 6256SOL    HW119667   4.635   1.610   4.719
 6256SOL    HW219668   4.625   1.631   4.557
 6257SOL     OW19669   4.099   0.671   4.209
 6257SOL    HW119670   4.104   0.572   4.217
 6257SOL    HW219671   4.009   0.703   4.238
 6258SOL     OW19672   5.217   0.237   5.441
 6258SOL    HW119673   5.240   0.232   5.538
 6258SOL    HW219674   5.126   0.200   5.426
 6259SOL     OW19675   4.336   0.060   3.867
 6259SOL    HW119676   4.396   0.003   3.923
 6259SOL    HW219677   4.244   0.021   3.864
 6260SOL     OW19678   4.494   0.261   5.545
 6260SOL    HW119679   4.583   0.219   5.525
 6260SOL    HW219680   4.435   0.193   5.589
 6261SOL     OW19681   4.594   1.491   4.843
 6261SOL    HW119682   4.561   1.423   4.778
 6261SOL    HW219683   4.646   1.445   4.915
 6262SOL     OW19684   5.037   0.598   5.150
 6262SOL    HW119685   5.075   0.573   5.239
 6262SOL    HW219686   5.060   0.693   5.129
 6263SOL     OW19687   4.529   1.319   4.639
 6263SOL    HW119688   4.617   1.333   4.594
 6263SOL    HW219689   4.455   1.337   4.574
 6264SOL     OW19690   4.643   0.495   4.583
 6264SOL    HW119691   4.617   0.491   4.486
 6264SOL    HW219692   4.678   0.406   4.612
 6265SOL     OW19693   4.319   0.099   4.231
 6265SOL    HW119694   4.244   0.079   4.294
 6265SOL    HW219695   4.287   0.163   4.160
 6266SOL     OW19696   5.187   1.221   3.750
 6266SOL    HW119697   5.229   1.152   3.809
 6266SOL    HW219698   5.101   1.253   3.791
 6267SOL     OW19699   4.066   6.997   3.992
 6267SOL    HW119700   4.087   0.090   4.021
 6267SOL    HW219701   3.968   6.992   3.969
 6268SOL     OW19702   4.694   0.277   4.137
 6268SOL    HW119703   4.648   0.310   4.055
 6268SOL    HW219704   4.791   0.304   4.134
 6269SOL     OW19705   4.771   0.686   5.131
 6269SOL    HW119706   4.696   0.627   5.163
 6269SOL    HW219707   4.858   0.637   5.140
 6270SOL     OW19708   4.936   1.576   4.519
 6270SOL    HW119709   4.956   1.635   4.441
 6270SOL    HW219710   4.956   1.625   4.604
 6271SOL     OW19711   4.201   1.110   4.406
 6271SOL    HW119712   4.139   1.092   4.483
 6271SOL    HW219713   4.149   1.109   4.321
 6272SOL     OW19714   4.983   1.779   4.331
 6272SOL    HW119715   5.026   1.851   4.278
 6272SOL    HW219716   4.909   1.818   4.386
 6273SOL     OW19717   4.753   0.543   3.775
 6273SOL    HW119718   4.697   0.623   3.754
 6273SOL    HW219719   4.822   0.568   3.843
 6274SOL     OW19720   3.842   0.628   5.093
 6274SOL    HW119721   3.928   0.603   5.050
 6274SOL    HW219722   3.861   0.682   5.176
 6275SOL     OW19723   4.323   0.219   4.929
 6275SOL    HW119724   4.322   0.121   4.948
 6275SOL    HW219725   4.263   0.267   4.993
 6276SOL     OW19726   4.591   0.463   4.321
 6276SOL    HW119727   4.534   0.518   4.260
 6276SOL    HW219728   4.628   0.385   4.270
 6277SOL     OW19729   4.782   0.029   4.440
 6277SOL    HW119730   4.711   0.031   4.369
 6277SOL    HW219731   4.794   6.935   4.472
 6278SOL     OW19732   5.119   1.157   4.552
 6278SOL    HW119733   5.023   1.128   4.560
 6278SOL    HW219734   5.146   1.157   4.456
 6279SOL     OW19735   5.178   0.617   4.642
 6279SOL    HW119736   5.114   0.542   4.655
 6279SOL    HW219737   5.243   0.619   4.718
 6280SOL     OW19738   5.541   0.757   4.110
 6280SOL    HW119739   5.612   0.740   4.178
 6280SOL    HW219740   5.553   0.696   4.033
 6281SOL     OW19741   4.186   1.415   3.939
 6281SOL    HW119742   4.107   1.399   3.997
 6281SOL    HW219743   4.174   1.365   3.853
 6282SOL     OW19744   5.509   1.316   4.329
 6282SOL    HW119745   5.604   1.320   4.361
 6282SOL    HW219746   5.458   1.394   4.365
 6283SOL     OW19747   5.109   0.619   3.785
 6283SOL    HW119748   5.056   0.604   3.868
 6283SOL    HW219749   5.207   0.614   3.806
 6284SOL     OW19750   4.201   0.251   4.021
 6284SOL    HW119751   4.261   0.199   3.961
 6284SOL    HW219752   4.175   0.336   3.977
 6285SOL     OW19753   5.454   1.221   5.242
 6285SOL    HW119754   5.544   1.181   5.228
 6285SOL    HW219755   5.464   1.312   5.284
 6286SOL     OW19756   4.723   1.327   5.031
 6286SOL    HW119757   4.644   1.314   5.090
 6286SOL    HW219758   4.806   1.296   5.079
 6287SOL     OW19759   5.332   1.624   5.415
 6287SOL    HW119760   5.302   1.673   5.334
 6287SOL    HW219761   5.409   1.565   5.392
 6288SOL     OW19762   4.866   1.263   4.807
 6288SOL    HW119763   4.802   1.284   4.881
 6288SOL    HW219764   4.828   1.294   4.720
 6289SOL     OW19765   5.287   1.100   4.797
 6289SOL    HW119766   5.279   1.167   4.871
 6289SOL    HW219767   5.215   1.116   4.730
 6290SOL     OW19768   4.611   0.181   5.127
 6290SOL    HW119769   4.617   0.170   5.027
 6290SOL    HW219770   4.702   0.198   5.164
 6291SOL     OW19771   4.701   1.116   5.438
 6291SOL    HW119772   4.607   1.133   5.470
 6291SOL    HW219773   4.701   1.036   5.378
 6292SOL     OW19774   4.445   1.027   4.106
 6292SOL    HW119775   4.440   0.989   4.199
 6292SOL    HW219776   4.513   0.976   4.053
 6293SOL     OW19777   4.168   0.825   5.001
 6293SOL    HW119778   4.237   0.831   5.073
 6293SOL    HW219779   4.133   0.732   4.996
 6294SOL     OW19780   4.996   0.362   5.020
 6294SOL    HW119781   5.018   0.448   5.066
 6294SOL    HW219782   4.907   0.371   4.974
 6295SOL     OW19783   3.811   1.542   5.052
 6295SOL    HW119784   3.781   1.621   4.999
 6295SOL    HW219785   3.911   1.542   5.058
 6296SOL     OW19786   4.031   1.109   4.189
 6296SOL    HW119787   4.014   1.197   4.147
 6296SOL    HW219788   4.024   1.037   4.120
 6297SOL     OW19789   4.272   0.478   4.574
 6297SOL    HW119790   4.280   0.536   4.493
 6297SOL    HW219791   4.336   0.510   4.644
 6298SOL     OW19792   4.992   1.360   4.137
 6298SOL    HW119793   5.050   1.436   4.166
 6298SOL    HW219794   4.897   1.378   4.165
 6299SOL     OW19795   5.052   1.464   4.856
 6299SOL    HW119796   5.083   1.475   4.950
 6299SOL    HW219797   4.986   1.388   4.851
 6300SOL     OW19798   5.336   0.608   4.225
 6300SOL    HW119799   5.269   0.663   4.275
 6300SOL    HW219800   5.403   0.668   4.182
 6301SOL     OW19801   4.089   1.510   5.032
 6301SOL    HW119802   4.074   1.451   4.953
 6301SOL    HW219803   4.184   1.539   5.035
 6302SOL     OW19804   4.214   0.733   5.396
 6302SOL    HW119805   4.261   0.779   5.320
 6302SOL    HW219806   4.272   0.662   5.434
 6303SOL     OW19807   5.336   0.818   5.416
 6303SOL    HW119808   5.241   0.848   5.410
 6303SOL    HW219809   5.385   0.846   5.333
 6304SOL     OW19810   4.733   0.131   5.469
 6304SOL    HW119811   4.776   0.166   5.385
 6304SOL    HW219812   4.726   0.031   5.463
 6305SOL     OW19813   4.153   0.044   5.446
 6305SOL    HW119814   4.072   6.990   5.464
 6305SOL    HW219815   4.136   0.140   5.468
 6306SOL     OW19816   4.324   0.862   4.775
 6306SOL    HW119817   4.371   0.950   4.774
 6306SOL    HW219818   4.269   0.854   4.858
 6307SOL     OW19819   5.003   0.832   4.718
 6307SOL    HW119820   4.912   0.800   4.690
 6307SOL    HW219821   5.071   0.763   4.692
 6308SOL     OW19822   4.926   0.591   3.985
 6308SOL    HW119823   4.941   0.504   4.033
 6308SOL    HW219824   4.863   0.648   4.038
 6309SOL     OW19825   4.010   0.126   4.960
 6309SOL    HW119826   4.031   0.086   5.049
 6309SOL    HW219827   4.047   0.068   4.887
 6310SOL     OW19828   3.754   1.278   5.018
 6310SOL    HW119829   3.791   1.232   5.099
 6310SOL    HW219830   3.773   1.376   5.025
 6311SOL     OW19831   4.443   0.608   4.751
 6311SOL    HW119832   4.514   0.591   4.682
 6311SOL    HW219833   4.407   0.701   4.739
 6312SOL     OW19834   5.486   0.971   5.592
 6312SOL    HW119835   5.433   0.910   5.532
 6312SOL    HW219836   5.430   0.999   5.669
 6313SOL     OW19837   4.084   0.074   4.372
 6313SOL    HW119838   4.049   0.158   4.414
 6313SOL    HW219839   4.018   0.001   4.384
 6314SOL     OW19840   5.418   0.387   4.076
 6314SOL    HW119841   5.393   0.299   4.115
 6314SOL    HW219842   5.374   0.461   4.127
 6315SOL     OW19843   4.750   0.736   4.647
 6315SOL    HW119844   4.724   0.754   4.742
 6315SOL    HW219845   4.718   0.644   4.622
 6316SOL     OW19846   4.731   1.527   5.509
 6316SOL    HW119847   4.694   1.585   5.437
 6316SOL    HW219848   4.776   1.447   5.469
 6317SOL     OW19849   5.545   1.474   5.317
 6317SOL    HW119850   5.563   1.505   5.223
 6317SOL    HW219851   5.625   1.493   5.374
 6318SOL     OW19852   4.117   0.910   5.598
 6318SOL    HW119853   4.195   0.942   5.651
 6318SOL    HW219854   4.148   0.847   5.527
 6319SOL     OW19855   5.321   0.219   3.840
 6319SOL    HW119856   5.244   0.208   3.904
 6319SOL    HW219857   5.381   0.292   3.874
 6320SOL     OW19858   4.980   0.857   3.741
 6320SOL    HW119859   5.017   0.765   3.754
 6320SOL    HW219860   5.006   0.891   3.650
 6321SOL     OW19861   4.785   1.351   4.555
 6321SOL    HW119862   4.823   1.270   4.509
 6321SOL    HW219863   4.842   1.430   4.535
 6322SOL     OW19864   4.071   0.795   4.673
 6322SOL    HW119865   4.167   0.818   4.690
 6322SOL    HW219866   4.057   0.698   4.689
 6323SOL     OW19867   4.051   0.527   4.723
 6323SOL    HW119868   3.991   0.447   4.733
 6323SOL    HW219869   4.125   0.505   4.660
 6324SOL     OW19870   4.844   0.452   5.390
 6324SOL    HW119871   4.804   0.476   5.479
 6324SOL    HW219872   4.940   0.481   5.389
 6325SOL     OW19873   4.855   0.236   5.236
 6325SOL    HW119874   4.846   0.320   5.290
 6325SOL    HW219875   4.916   0.252   5.159
 6326SOL     OW19876   3.742   1.266   3.930
 6326SOL    HW119877   3.654   1.302   3.897
 6326SOL    HW219878   3.730   1.172   3.960
 6327SOL     OW19879   3.775   1.777   4.638
 6327SOL    HW119880   3.750   1.704   4.574
 6327SOL    HW219881   3.874   1.788   4.638
 6328SOL     OW19882   4.191   1.523   4.641
 6328SOL    HW119883   4.260   1.593   4.658
 6328SOL    HW219884   4.225   1.457   4.574
 6329SOL     OW19885   4.655   0.773   4.897
 6329SOL    HW119886   4.707   0.752   4.979
 6329SOL    HW219887   4.566   0.727   4.902
 6330SOL     OW19888   3.672   0.683   4.877
 6330SOL    HW119889   3.727   0.684   4.794
 6330SOL    HW219890   3.731   0.666   4.956
 6331SOL     OW19891   3.930   0.564   5.517
 6331SOL    HW119892   4.024   0.530   5.509
 6331SOL    HW219893   3.913   0.631   5.444
 6332SOL     OW19894   5.091   0.931   5.357
 6332SOL    HW119895   5.103   1.031   5.358
 6332SOL    HW219896   5.081   0.900   5.263
 6333SOL     OW19897   4.504   0.584   4.082
 6333SOL    HW119898   4.521   0.506   4.021
 6333SOL    HW219899   4.420   0.630   4.055
 6334SOL     OW19900   5.365   0.614   4.841
 6334SOL    HW119901   5.344   0.537   4.901
 6334SOL    HW219902   5.464   0.623   4.831
 6335SOL     OW19903   3.955   1.522   5.420
 6335SOL    HW119904   3.945   1.601   5.480
 6335SOL    HW219905   3.975   1.441   5.475
 6336SOL     OW19906   4.488   0.438   4.958
 6336SOL    HW119907   4.435   0.354   4.949
 6336SOL    HW219908   4.464   0.501   4.884
 6337SOL     OW19909   4.664   1.661   5.264
 6337SOL    HW119910   4.576   1.616   5.246
 6337SOL    HW219911   4.673   1.740   5.204
 6338SOL     OW19912   4.142   0.484   3.880
 6338SOL    HW119913   4.212   0.548   3.909
 6338SOL    HW219914   4.052   0.528   3.883
 6339SOL     OW19915   3.863   1.130   5.235
 6339SOL    HW119916   3.875   1.083   5.322
 6339SOL    HW219917   3.899   1.074   5.161
 6340SOL     OW19918   4.978   1.031   4.905
 6340SOL    HW119919   4.990   0.960   4.836
 6340SOL    HW219920   4.937   1.112   4.862
 6341SOL     OW19921   5.084   0.907   3.998
 6341SOL    HW119922   5.026   0.888   4.077
 6341SOL    HW219923   5.033   0.889   3.914
 6342SOL     OW19924   5.475   1.690   4.875
 6342SOL    HW119925   5.548   1.722   4.814
 6342SOL    HW219926   5.448   1.598   4.850
 6343SOL     OW19927   5.010   1.712   4.753
 6343SOL    HW119928   5.096   1.764   4.759
 6343SOL    HW219929   5.022   1.624   4.798
 6344SOL     OW19930   3.846   1.145   4.795
 6344SOL    HW119931   3.810   1.199   4.871
 6344SOL    HW219932   3.771   1.102   4.746
 6345SOL     OW19933   4.442   1.737   5.472
 6345SOL    HW119934   4.361   1.793   5.454
 6345SOL    HW219935   4.522   1.782   5.432
 6346SOL     OW19936   5.368   0.135   4.176
 6346SOL    HW119937   5.454   0.094   4.145
 6346SOL    HW219938   5.347   0.101   4.268
 6347SOL     OW19939   5.141   1.576   4.220
 6347SOL    HW119940   5.201   1.615   4.150
 6347SOL    HW219941   5.080   1.648   4.254
 6348SOL     OW19942   3.910   1.740   5.580
 6348SOL    HW119943   3.857   1.673   5.632
 6348SOL    HW219944   3.956   1.802   5.643
 6349SOL     OW19945   5.010   0.924   4.312
 6349SOL    HW119946   5.083   0.865   4.346
 6349SOL    HW219947   5.049   1.012   4.285
 6350SOL     OW19948   4.485   1.287   5.166
 6350SOL    HW119949   4.470   1.355   5.238
 6350SOL    HW219950   4.408   1.289   5.103
 6351SOL     OW19951   4.391   1.595   3.925
 6351SOL    HW119952   4.411   1.615   3.829
 6351SOL    HW219953   4.324   1.521   3.930
 6352SOL     OW19954   5.340   1.714   5.125
 6352SOL    HW119955   5.383   1.713   5.034
 6352SOL    HW219956   5.361   1.801   5.170
 6353SOL     OW19957   5.600   0.139   4.724
 6353SOL    HW119958   5.624   0.044   4.707
 6353SOL    HW219959   5.513   0.160   4.679
 6354SOL     OW19960   3.972   0.302   4.473
 6354SOL    HW119961   3.890   0.347   4.439
 6354SOL    HW219962   3.969   0.300   4.573
 6355SOL     OW19963   4.943   1.561   3.760
 6355SOL    HW119964   4.938   1.468   3.797
 6355SOL    HW219965   4.878   1.569   3.683
 6356SOL     OW19966   4.529   1.025   5.098
 6356SOL    HW119967   4.554   1.026   5.001
 6356SOL    HW219968   4.515   1.119   5.129
 6357SOL     OW19969   4.634   0.898   3.951
 6357SOL    HW119970   4.700   0.964   3.915
 6357SOL    HW219971   4.680   0.838   4.016
 6358SOL     OW19972   5.208   1.643   3.790
 6358SOL    HW119973   5.113   1.614   3.778
 6358SOL    HW219974   5.253   1.649   3.701
 6359SOL     OW19975   4.109   1.298   5.224
 6359SOL    HW119976   4.101   1.377   5.163
 6359SOL    HW219977   4.023   1.249   5.227
 6360SOL     OW19978   5.302   1.286   5.014
 6360SOL    HW119979   5.363   1.258   5.088
 6360SOL    HW219980   5.243   1.360   5.046
 6361SOL     OW19981   4.852   1.089   4.483
 6361SOL    HW119982   4.764   1.053   4.514
 6361SOL    HW219983   4.892   1.026   4.417
 6362SOL     OW19984   4.761   0.240   4.656
 6362SOL    HW119985   4.771   0.186   4.572
 6362SOL    HW219986   4.719   0.183   4.727
 6363SOL     OW19987   4.358   1.490   4.235
 6363SOL    HW119988   4.403   1.423   4.176
 6363SOL    HW219989   4.283   1.533   4.184
 6364SOL     OW19990   5.603   0.348   5.187
 6364SOL    HW119991   5.632   0.437   5.152
 6364SOL    HW219992   5.575   0.290   5.110
 6365SOL     OW19993   3.954   1.352   4.086
 6365SOL    HW119994   3.876   1.332   4.028
 6365SOL    HW219995   3.924   1.400   4.168
 6366SOL     OW19996   3.873   0.987   5.469
 6366SOL    HW119997   3.789   0.980   5.523
 6366SOL    HW219998   3.952   0.972   5.529
 6367SOL     OW19999   4.403   0.259   5.278
 6367SOL    HW120000   4.480   0.239   5.219
 6367SOL    HW220001   4.435   0.277   5.371
 6368SOL     OW20002   3.807   0.372   3.696
 6368SOL    HW120003   3.721   0.358   3.648
 6368SOL    HW220004   3.844   0.462   3.674
 6369SOL     OW20005   5.095   0.862   5.092
 6369SOL    HW120006   5.032   0.915   5.035
 6369SOL    HW220007   5.186   0.860   5.049
 6370SOL     OW20008   3.767   0.194   3.934
 6370SOL    HW120009   3.782   0.254   3.855
 6370SOL    HW220010   3.762   0.099   3.904
 6371SOL     OW20011   4.949   1.302   3.866
 6371SOL    HW120012   4.893   1.219   3.859
 6371SOL    HW220013   4.966   1.322   3.963
 6372SOL     OW20014   4.370   0.818   5.183
 6372SOL    HW120015   4.424   0.898   5.159
 6372SOL    HW220016   4.429   0.737   5.186
 6373SOL     OW20017   5.253   1.841   4.775
 6373SOL    HW120018   5.286   1.901   4.703
 6373SOL    HW220019   5.331   1.792   4.816
 6374SOL     OW20020   4.430   0.550   5.464
 6374SOL    HW120021   4.496   0.619   5.494
 6374SOL    HW220022   4.451   0.462   5.507
 6375SOL     OW20023   5.150   1.204   5.350
 6375SOL    HW120024   5.155   1.215   5.449
 6375SOL    HW220025   5.240   1.222   5.310
 6376SOL     OW20026   4.073   1.736   5.272
 6376SOL    HW120027   3.990   1.792   5.273
 6376SOL    HW220028   4.050   1.643   5.301
 6377SOL     OW20029   5.331   0.872   4.951
 6377SOL    HW120030   5.344   0.787   4.901
 6377SOL    HW220031   5.317   0.947   4.887
 6378SOL     OW20032   4.955   0.363   4.128
 6378SOL    HW120033   5.024   0.298   4.096
 6378SOL    HW220034   4.973   0.387   4.224
 6379SOL     OW20035   4.306   0.691   4.395
 6379SOL    HW120036   4.355   0.777   4.386
 6379SOL    HW220037   4.233   0.687   4.327
 6380SOL     OW20038   5.470   0.363   5.426
 6380SOL    HW120039   5.518   0.360   5.339
 6380SOL    HW220040   5.384   0.312   5.418
 6381SOL     OW20041   5.444   0.931   5.192
 6381SOL    HW120042   5.432   1.029   5.208
 6381SOL    HW220043   5.409   0.907   5.101
 6382SOL     OW20044   4.531   1.334   3.833
 6382SOL    HW120045   4.519   1.327   3.932
 6382SOL    HW220046   4.551   1.428   3.808
 6383SOL     OW20047   4.368   1.724   4.658
 6383SOL    HW120048   4.339   1.819   4.655
 6383SOL    HW220049   4.467   1.719   4.658
 6384SOL     OW20050   4.614   0.973   4.581
 6384SOL    HW120051   4.658   0.886   4.604
 6384SOL    HW220052   4.569   1.010   4.662
 6385SOL     OW20053   4.816   1.063   3.819
 6385SOL    HW120054   4.756   1.091   3.744
 6385SOL    HW220055   4.875   0.988   3.789
 6386SOL     OW20056   5.543   1.550   4.583
 6386SOL    HW120057   5.470   1.549   4.514
 6386SOL    HW220058   5.519   1.490   4.659
 6387SOL     OW20059   3.980   1.291   5.582
 6387SOL    HW120060   3.896   1.242   5.562
 6387SOL    HW220061   3.986   1.310   5.680
 6388SOL     OW20062   3.842   1.098   4.392
 6388SOL    HW120063   3.900   1.081   4.471
 6388SOL    HW220064   3.898   1.102   4.309
 6389SOL     OW20065   4.425   1.476   5.362
 6389SOL    HW120066   4.353   1.424   5.408
 6389SOL    HW220067   4.426   1.570   5.397
 6390SOL     OW20068   5.534   0.169   4.991
 6390SOL    HW120069   5.440   0.136   4.991
 6390SOL    HW220070   5.569   0.168   4.897
 6391SOL     OW20071   4.103   0.405   4.244
 6391SOL    HW120072   4.136   0.335   4.181
 6391SOL    HW220073   4.071   0.362   4.328
 6392SOL     OW20074   5.416   1.436   4.802
 6392SOL    HW120075   5.340   1.421   4.739
 6392SOL    HW220076   5.407   1.374   4.880
 6393SOL     OW20077   4.086   0.565   4.991
 6393SOL    HW120078   4.131   0.488   5.037
 6393SOL    HW220079   4.080   0.545   4.893
 6394SOL     OW20080   4.571   1.598   4.385
 6394SOL    HW120081   4.584   1.689   4.346
 6394SOL    HW220082   4.489   1.556   4.346
 6395SOL     OW20083   5.190   0.276   4.844
 6395SOL    HW120084   5.230   0.189   4.871
 6395SOL    HW220085   5.125   0.307   4.915
 6396SOL     OW20086   4.639   0.090   4.853
 6396SOL    HW120087   4.546   0.062   4.831
 6396SOL    HW220088   4.686   0.018   4.904
 6397SOL     OW20089   4.506   1.300   4.103
 6397SOL    HW120090   4.483   1.203   4.109
 6397SOL    HW220091   4.595   1.316   4.146
 6398SOL     OW20092   4.364   1.554   4.997
 6398SOL    HW120093   4.363   1.632   5.059
 6398SOL    HW220094   4.444   1.560   4.937
 6399SOL     OW20095   4.979   6.977   3.932
 6399SOL    HW120096   5.025   6.900   3.890
 6399SOL    HW220097   4.895   6.946   3.977
 6400SOL     OW20098   4.980   0.435   4.391
 6400SOL    HW120099   4.935   0.524   4.380
 6400SOL    HW220100   5.001   0.420   4.488
 6401SOL     OW20101   5.361   0.231   4.616
 6401SOL    HW120102   5.302   0.245   4.695
 6401SOL    HW220103   5.363   0.315   4.561
 6402SOL     OW20104   3.743   1.011   4.048
 6402SOL    HW120105   3.837   0.995   4.017
 6402SOL    HW220106   3.700   0.923   4.071
 6403SOL     OW20107   4.629   1.657   4.057
 6403SOL    HW120108   4.542   1.631   4.016
 6403SOL    HW220109   4.613   1.725   4.129
 6404SOL     OW20110   3.898   0.631   5.780
 6404SOL    HW120111   3.803   0.608   5.805
 6404SOL    HW220112   3.909   0.623   5.681
 6405SOL     OW20113   3.900   0.357   6.660
 6405SOL    HW120114   3.940   0.313   6.740
 6405SOL    HW220115   3.838   0.293   6.614
 6406SOL     OW20116   3.704   0.436   6.222
 6406SOL    HW120117   3.628   0.463   6.281
 6406SOL    HW220118   3.673   0.369   6.155
 6407SOL     OW20119   4.334   1.245   6.827
 6407SOL    HW120120   4.248   1.261   6.778
 6407SOL    HW220121   4.363   1.331   6.870
 6408SOL     OW20122   5.317   1.511   6.289
 6408SOL    HW120123   5.257   1.482   6.364
 6408SOL    HW220124   5.261   1.535   6.209
 6409SOL     OW20125   4.848   0.717   6.249
 6409SOL    HW120126   4.893   0.805   6.234
 6409SOL    HW220127   4.784   0.725   6.325
 6410SOL     OW20128   5.534   0.547   5.784
 6410SOL    HW120129   5.490   0.577   5.699
 6410SOL    HW220130   5.470   0.491   5.836
 6411SOL     OW20131   4.458   1.140   6.607
 6411SOL    HW120132   4.415   1.163   6.694
 6411SOL    HW220133   4.476   1.225   6.556
 6412SOL     OW20134   4.406   0.945   6.240
 6412SOL    HW120135   4.478   0.957   6.309
 6412SOL    HW220136   4.334   1.013   6.255
 6413SOL     OW20137   4.108   1.321   6.679
 6413SOL    HW120138   4.023   1.276   6.650
 6413SOL    HW220139   4.135   1.388   6.610
 6414SOL     OW20140   5.328   0.496   6.320
 6414SOL    HW120141   5.305   0.531   6.229
 6414SOL    HW220142   5.280   0.550   6.390
 6415SOL     OW20143   3.964   1.726   6.060
 6415SOL    HW120144   3.987   1.790   6.133
 6415SOL    HW220145   4.045   1.710   6.003
 6416SOL     OW20146   3.973   1.449   6.090
 6416SOL    HW120147   3.959   1.548   6.098
 6416SOL    HW220148   3.933   1.403   6.170
 6417SOL     OW20149   4.011   1.077   6.439
 6417SOL    HW120150   4.040   0.984   6.461
 6417SOL    HW220151   3.957   1.114   6.516
 6418SOL     OW20152   4.310   1.839   6.941
 6418SOL    HW120153   4.230   1.808   6.991
 6418SOL    HW220154   4.359   1.908   6.994
 6419SOL     OW20155   4.338   0.976   5.752
 6419SOL    HW120156   4.385   1.027   5.680
 6419SOL    HW220157   4.372   1.004   5.841
 6420SOL     OW20158   3.830   0.678   6.176
 6420SOL    HW120159   3.796   0.585   6.185
 6420SOL    HW220160   3.835   0.721   6.266
 6421SOL     OW20161   5.593   1.757   5.913
 6421SOL    HW120162   5.674   1.746   5.972
 6421SOL    HW220163   5.589   1.851   5.880
 6422SOL     OW20164   3.781   1.551   5.721
 6422SOL    HW120165   3.747   1.458   5.739
 6422SOL    HW220166   3.756   1.611   5.796
 6423SOL     OW20167   5.447   0.928   6.235
 6423SOL    HW120168   5.514   0.865   6.195
 6423SOL    HW220169   5.423   0.998   6.168
 6424SOL     OW20170   5.408   1.123   6.035
 6424SOL    HW120171   5.488   1.088   5.985
 6424SOL    HW220172   5.436   1.197   6.095
 6425SOL     OW20173   4.307   1.374   6.307
 6425SOL    HW120174   4.270   1.284   6.287
 6425SOL    HW220175   4.319   1.426   6.223
 6426SOL     OW20176   4.536   0.042   6.023
 6426SOL    HW120177   4.584   0.129   6.033
 6426SOL    HW220178   4.441   0.052   6.053
 6427SOL     OW20179   3.961   1.036   6.865
 6427SOL    HW120180   4.041   0.978   6.849
 6427SOL    HW220181   3.927   1.070   6.778
 6428SOL     OW20182   5.294   1.043   5.792
 6428SOL    HW120183   5.215   0.986   5.812
 6428SOL    HW220184   5.332   1.078   5.878
 6429SOL     OW20185   5.142   1.435   6.491
 6429SOL    HW120186   5.097   1.445   6.580
 6429SOL    HW220187   5.138   1.339   6.463
 6430SOL     OW20188   5.366   1.863   6.133
 6430SOL    HW120189   5.358   1.794   6.062
 6430SOL    HW220190   5.387   1.818   6.220
 6431SOL     OW20191   4.281   0.700   5.853
 6431SOL    HW120192   4.298   0.791   5.817
 6431SOL    HW220193   4.212   0.704   5.925
 6432SOL     OW20194   5.017   0.395   6.497
 6432SOL    HW120195   4.926   0.354   6.502
 6432SOL    HW220196   5.079   0.344   6.556
 6433SOL     OW20197   5.332   1.681   5.924
 6433SOL    HW120198   5.430   1.699   5.916
 6433SOL    HW220199   5.293   1.667   5.833
 6434SOL     OW20200   4.480   0.672   0.030
 6434SOL    HW120201   4.429   0.694   0.112
 6434SOL    HW220202   4.426   0.610   6.972
 6435SOL     OW20203   4.730   0.383   6.783
 6435SOL    HW120204   4.707   0.427   6.870
 6435SOL    HW220205   4.689   0.292   6.780
 6436SOL     OW20206   4.759   0.686   5.992
 6436SOL    HW120207   4.787   0.689   6.088
 6436SOL    HW220208   4.666   0.648   5.985
 6437SOL     OW20209   3.831   0.785   6.428
 6437SOL    HW120210   3.927   0.802   6.451
 6437SOL    HW220211   3.775   0.864   6.455
 6438SOL     OW20212   3.854   1.915   0.078
 6438SOL    HW120213   3.827   1.856   0.002
 6438SOL    HW220214   3.841   2.011   0.052
 6439SOL     OW20215   4.589   0.381   5.785
 6439SOL    HW120216   4.658   0.436   5.737
 6439SOL    HW220217   4.536   0.328   5.718
 6440SOL     OW20218   5.136   1.176   6.139
 6440SOL    HW120219   5.224   1.168   6.091
 6440SOL    HW220220   5.080   1.244   6.094
 6441SOL     OW20221   4.195   0.227   6.494
 6441SOL    HW120222   4.222   0.322   6.475
 6441SOL    HW220223   4.181   0.179   6.407
 6442SOL     OW20224   4.720   1.484   6.054
 6442SOL    HW120225   4.701   1.551   5.983
 6442SOL    HW220226   4.684   1.517   6.142
 6443SOL     OW20227   4.074   1.769   6.535
 6443SOL    HW120228   4.110   1.676   6.524
 6443SOL    HW220229   4.149   1.835   6.533
 6444SOL     OW20230   5.537   1.024   6.479
 6444SOL    HW120231   5.505   1.001   6.387
 6444SOL    HW220232   5.459   1.044   6.538
 6445SOL     OW20233   3.970   0.901   5.834
 6445SOL    HW120234   4.025   0.916   5.752
 6445SOL    HW220235   3.948   0.804   5.843
 6446SOL     OW20236   5.207   0.795   6.283
 6446SOL    HW120237   5.192   0.749   6.370
 6446SOL    HW220238   5.294   0.844   6.285
 6447SOL     OW20239   4.882   1.758   5.804
 6447SOL    HW120240   4.789   1.742   5.839
 6447SOL    HW220241   4.912   1.677   5.753
 6448SOL     OW20242   5.374   1.396   5.697
 6448SOL    HW120243   5.329   1.485   5.691
 6448SOL    HW220244   5.312   1.325   5.664
 6449SOL     OW20245   4.215   1.705   5.943
 6449SOL    HW120246   4.247   1.788   5.990
 6449SOL    HW220247   4.261   1.696   5.855
 6450SOL     OW20248   5.150   0.115   5.985
 6450SOL    HW120249   5.084   0.053   5.942
 6450SOL    HW220250   5.216   0.146   5.917
 6451SOL     OW20251   3.974   1.802   6.813
 6451SOL    HW120252   4.033   1.766   6.885
 6451SOL    HW220253   4.013   1.780   6.724
 6452SOL     OW20254   4.679   1.695   6.448
 6452SOL    HW120255   4.767   1.648   6.442
 6452SOL    HW220256   4.622   1.670   6.370
 6453SOL     OW20257   4.092   0.665   6.057
 6453SOL    HW120258   4.096   0.565   6.056
 6453SOL    HW220259   4.002   0.694   6.089
 6454SOL     OW20260   4.331   0.077   5.680
 6454SOL    HW120261   4.370   0.003   5.734
 6454SOL    HW220262   4.263   0.040   5.617
 6455SOL     OW20263   4.594   1.506   6.735
 6455SOL    HW120264   4.548   1.486   6.648
 6455SOL    HW220265   4.674   1.446   6.744
 6456SOL     OW20266   4.510   1.383   6.493
 6456SOL    HW120267   4.602   1.381   6.453
 6456SOL    HW220268   4.442   1.388   6.420
 6457SOL     OW20269   4.664   0.540   6.486
 6457SOL    HW120270   4.641   0.520   6.390
 6457SOL    HW220271   4.703   0.458   6.528
 6458SOL     OW20272   4.256   0.051   6.060
 6458SOL    HW120273   4.203   0.066   6.144
 6458SOL    HW220274   4.225   0.114   5.989
 6459SOL     OW20275   5.164   1.218   5.624
 6459SOL    HW120276   5.209   1.147   5.679
 6459SOL    HW220277   5.077   1.243   5.666
 6460SOL     OW20278   3.990   0.006   5.745
 6460SOL    HW120279   4.024   0.079   5.804
 6460SOL    HW220280   3.908   6.966   5.786
 6461SOL     OW20281   4.684   0.281   6.027
 6461SOL    HW120282   4.648   0.316   5.940
 6461SOL    HW220283   4.784   0.289   6.027
 6462SOL     OW20284   4.927   1.583   6.371
 6462SOL    HW120285   4.948   1.658   6.308
 6462SOL    HW220286   5.012   1.546   6.408
 6463SOL     OW20287   4.197   1.128   6.248
 6463SOL    HW120288   4.133   1.112   6.323
 6463SOL    HW220289   4.149   1.121   6.160
 6464SOL     OW20290   4.972   1.801   6.202
 6464SOL    HW120291   5.026   1.863   6.145
 6464SOL    HW220292   4.893   1.849   6.240
 6465SOL     OW20293   4.758   0.535   5.637
 6465SOL    HW120294   4.719   0.621   5.605
 6465SOL    HW220295   4.830   0.553   5.703
 6466SOL     OW20296   4.276   0.245   6.798
 6466SOL    HW120297   4.277   0.229   6.699
 6466SOL    HW220298   4.185   0.229   6.834
 6467SOL     OW20299   4.603   0.479   6.222
 6467SOL    HW120300   4.542   0.532   6.162
 6467SOL    HW220301   4.637   0.399   6.172
 6468SOL     OW20302   4.780   0.018   6.334
 6468SOL    HW120303   4.712   0.018   6.260
 6468SOL    HW220304   4.795   6.924   6.365
 6469SOL     OW20305   5.121   1.169   6.421
 6469SOL    HW120306   5.034   1.124   6.438
 6469SOL    HW220307   5.140   1.170   6.323
 6470SOL     OW20308   5.162   0.643   6.511
 6470SOL    HW120309   5.103   0.563   6.519
 6470SOL    HW220310   5.224   0.646   6.590
 6471SOL     OW20311   5.522   0.754   5.969
 6471SOL    HW120312   5.591   0.734   6.039
 6471SOL    HW220313   5.531   0.687   5.894
 6472SOL     OW20314   4.244   1.441   5.724
 6472SOL    HW120315   4.167   1.409   5.779
 6472SOL    HW220316   4.245   1.392   5.637
 6473SOL     OW20317   5.498   1.306   6.205
 6473SOL    HW120318   5.594   1.307   6.235
 6473SOL    HW220319   5.451   1.385   6.243
 6474SOL     OW20320   5.119   0.598   5.646
 6474SOL    HW120321   5.070   0.574   5.729
 6474SOL    HW220322   5.218   0.596   5.663
 6475SOL     OW20323   4.169   0.219   5.857
 6475SOL    HW120324   4.231   0.172   5.793
 6475SOL    HW220325   4.156   0.314   5.828
 6476SOL     OW20326   5.473   1.114   0.206
 6476SOL    HW120327   5.572   1.116   0.192
 6476SOL    HW220328   5.434   1.202   0.178
 6477SOL     OW20329   4.799   1.317   6.696
 6477SOL    HW120330   4.769   1.225   6.719
 6477SOL    HW220331   4.789   1.332   6.598
 6478SOL     OW20332   5.312   1.092   6.622
 6478SOL    HW120333   5.303   1.166   6.689
 6478SOL    HW220334   5.243   1.103   6.550
 6479SOL     OW20335   4.467   1.054   5.989
 6479SOL    HW120336   4.438   1.014   6.075
 6479SOL    HW220337   4.557   1.018   5.963
 6480SOL     OW20338   4.186   0.881   6.832
 6480SOL    HW120339   4.255   0.917   6.894
 6480SOL    HW220340   4.154   0.792   6.866
 6481SOL     OW20341   4.989   0.329   6.847
 6481SOL    HW120342   5.021   0.403   6.906
 6481SOL    HW220343   4.900   0.353   6.809
 6482SOL     OW20344   3.851   1.547   6.859
 6482SOL    HW120345   3.845   1.644   6.833
 6482SOL    HW220346   3.945   1.525   6.884
 6483SOL     OW20347   4.028   1.108   6.024
 6483SOL    HW120348   4.028   1.185   5.961
 6483SOL    HW220349   4.018   1.023   5.973
 6484SOL     OW20350   4.258   0.495   6.450
 6484SOL    HW120351   4.263   0.550   6.367
 6484SOL    HW220352   4.328   0.525   6.514
 6485SOL     OW20353   4.974   1.375   6.025
 6485SOL    HW120354   5.037   1.450   6.046
 6485SOL    HW220355   4.880   1.404   6.041
 6486SOL     OW20356   5.040   1.444   6.742
 6486SOL    HW120357   5.105   1.388   6.794
 6486SOL    HW220358   4.951   1.399   6.741
 6487SOL     OW20359   5.295   0.629   6.074
 6487SOL    HW120360   5.235   0.688   6.129
 6487SOL    HW220361   5.367   0.684   6.033
 6488SOL     OW20362   4.117   1.484   6.893
 6488SOL    HW120363   4.106   1.419   6.818
 6488SOL    HW220364   4.209   1.524   6.888
 6489SOL     OW20365   4.342   0.881   6.608
 6489SOL    HW120366   4.386   0.971   6.599
 6489SOL    HW220367   4.284   0.881   6.689
 6490SOL     OW20368   4.993   0.873   6.580
 6490SOL    HW120369   4.897   0.846   6.585
 6490SOL    HW220370   5.048   0.795   6.550
 6491SOL     OW20371   4.942   0.542   5.849
 6491SOL    HW120372   4.954   0.457   5.901
 6491SOL    HW220373   4.884   0.604   5.901
 6492SOL     OW20374   4.010   0.179   6.859
 6492SOL    HW120375   4.005   0.120   6.939
 6492SOL    HW220376   4.023   0.122   6.777
 6493SOL     OW20377   3.743   1.300   6.858
 6493SOL    HW120378   3.778   1.254   6.940
 6493SOL    HW220379   3.774   1.395   6.859
 6494SOL     OW20380   4.434   0.616   6.621
 6494SOL    HW120381   4.519   0.593   6.574
 6494SOL    HW220382   4.413   0.713   6.609
 6495SOL     OW20383   4.082   0.096   6.271
 6495SOL    HW120384   4.022   0.176   6.276
 6495SOL    HW220385   4.026   0.013   6.278
 6496SOL     OW20386   5.331   0.409   5.911
 6496SOL    HW120387   5.389   0.348   5.965
 6496SOL    HW220388   5.296   0.482   5.969
 6497SOL     OW20389   4.724   0.788   6.602
 6497SOL    HW120390   4.686   0.802   6.693
 6497SOL    HW220391   4.709   0.694   6.573
 6498SOL     OW20392   5.233   0.229   5.720
 6498SOL    HW120393   5.134   0.233   5.705
 6498SOL    HW220394   5.261   0.306   5.779
 6499SOL     OW20395   4.993   0.834   5.593
 6499SOL    HW120396   5.037   0.744   5.606
 6499SOL    HW220397   5.022   0.871   5.505
 6500SOL     OW20398   4.773   1.360   6.424
 6500SOL    HW120399   4.804   1.273   6.385
 6500SOL    HW220400   4.831   1.434   6.390
 6501SOL     OW20401   4.088   0.823   6.512
 6501SOL    HW120402   4.185   0.844   6.518
 6501SOL    HW220403   4.069   0.736   6.557
 6502SOL     OW20404   4.058   0.571   6.618
 6502SOL    HW120405   3.996   0.494   6.634
 6502SOL    HW220406   4.130   0.544   6.555
 6503SOL     OW20407   4.923   0.163   0.064
 6503SOL    HW120408   4.929   0.228   0.141
 6503SOL    HW220409   4.945   0.210   6.979
 6504SOL     OW20410   3.722   1.273   5.776
 6504SOL    HW120411   3.634   1.304   5.741
 6504SOL    HW220412   3.713   1.179   5.809
 6505SOL     OW20413   3.797   1.797   6.533
 6505SOL    HW120414   3.756   1.723   6.480
 6505SOL    HW220415   3.897   1.789   6.530
 6506SOL     OW20416   4.208   1.525   6.514
 6506SOL    HW120417   4.286   1.582   6.541
 6506SOL    HW220418   4.233   1.470   6.435
 6507SOL     OW20419   4.614   0.851   6.862
 6507SOL    HW120420   4.685   0.893   6.918
 6507SOL    HW220421   4.566   0.781   6.916
 6508SOL     OW20422   3.722   0.583   6.588
 6508SOL    HW120423   3.787   0.512   6.615
 6508SOL    HW220424   3.768   0.648   6.528
 6509SOL     OW20425   4.509   0.579   5.962
 6509SOL    HW120426   4.528   0.502   5.901
 6509SOL    HW220427   4.426   0.627   5.930
 6510SOL     OW20428   5.355   0.642   6.709
 6510SOL    HW120429   5.345   0.573   6.780
 6510SOL    HW220430   5.438   0.626   6.657
 6511SOL     OW20431   4.345   0.508   6.857
 6511SOL    HW120432   4.328   0.411   6.846
 6511SOL    HW220433   4.380   0.547   6.772
 6512SOL     OW20434   4.679   1.650   6.968
 6512SOL    HW120435   4.653   1.624   6.875
 6512SOL    HW220436   4.667   1.749   6.980
 6513SOL     OW20437   4.135   0.475   5.752
 6513SOL    HW120438   4.209   0.539   5.773
 6513SOL    HW220439   4.048   0.515   5.781
 6514SOL     OW20440   3.846   1.166   0.073
 6514SOL    HW120441   3.904   1.186   0.152
 6514SOL    HW220442   3.895   1.107   0.009
 6515SOL     OW20443   5.084   0.941   6.832
 6515SOL    HW120444   5.058   0.929   6.736
 6515SOL    HW220445   5.087   1.038   6.854
 6516SOL     OW20446   5.066   0.910   5.850
 6516SOL    HW120447   4.993   0.904   5.917
 6516SOL    HW220448   5.031   0.884   5.760
 6517SOL     OW20449   5.467   1.757   6.757
 6517SOL    HW120450   5.552   1.766   6.705
 6517SOL    HW220451   5.433   1.663   6.748
 6518SOL     OW20452   5.006   1.722   6.736
 6518SOL    HW120453   5.088   1.763   6.697
 6518SOL    HW220454   5.017   1.623   6.744
 6519SOL     OW20455   3.850   1.167   6.640
 6519SOL    HW120456   3.805   1.221   6.712
 6519SOL    HW220457   3.781   1.118   6.587
 6520SOL     OW20458   5.504   0.246   6.044
 6520SOL    HW120459   5.562   0.198   5.978
 6520SOL    HW220460   5.456   0.180   6.101
 6521SOL     OW20461   5.134   1.591   6.094
 6521SOL    HW120462   5.199   1.624   6.025
 6521SOL    HW220463   5.073   1.665   6.120
 6522SOL     OW20464   4.999   0.945   6.199
 6522SOL    HW120465   5.072   0.884   6.228
 6522SOL    HW220466   5.038   1.028   6.160
 6523SOL     OW20467   4.405   1.659   5.731
 6523SOL    HW120468   4.430   1.680   5.637
 6523SOL    HW220469   4.353   1.573   5.734
 6524SOL     OW20470   5.577   0.182   6.546
 6524SOL    HW120471   5.598   0.085   6.559
 6524SOL    HW220472   5.492   0.191   6.494
 6525SOL     OW20473   3.940   0.325   6.304
 6525SOL    HW120474   3.852   0.363   6.275
 6525SOL    HW220475   3.953   0.344   6.402
 6526SOL     OW20476   4.967   1.545   5.655
 6526SOL    HW120477   4.967   1.451   5.691
 6526SOL    HW220478   4.891   1.556   5.592
 6527SOL     OW20479   4.395   1.008   6.954
 6527SOL    HW120480   4.477   0.969   6.914
 6527SOL    HW220481   4.378   1.098   6.914
 6528SOL     OW20482   4.704   0.946   5.919
 6528SOL    HW120483   4.722   0.956   5.821
 6528SOL    HW220484   4.725   0.852   5.947
 6529SOL     OW20485   5.227   1.638   5.667
 6529SOL    HW120486   5.133   1.606   5.660
 6529SOL    HW220487   5.268   1.644   5.576
 6530SOL     OW20488   5.285   1.287   6.820
 6530SOL    HW120489   5.381   1.273   6.843
 6530SOL    HW220490   5.227   1.249   6.893
 6531SOL     OW20491   4.838   1.104   6.356
 6531SOL    HW120492   4.752   1.060   6.381
 6531SOL    HW220493   4.888   1.046   6.292
 6532SOL     OW20494   4.785   0.245   6.506
 6532SOL    HW120495   4.778   0.170   6.440
 6532SOL    HW220496   4.750   0.214   6.594
 6533SOL     OW20497   4.356   1.509   6.077
 6533SOL    HW120498   4.398   1.446   6.013
 6533SOL    HW220499   4.291   1.568   6.029
 6534SOL     OW20500   5.352   0.442   6.892
 6534SOL    HW120501   5.317   0.415   6.981
 6534SOL    HW220502   5.392   0.363   6.846
 6535SOL     OW20503   3.983   1.327   5.853
 6535SOL    HW120504   3.886   1.313   5.831
 6535SOL    HW220505   3.990   1.381   5.937
 6536SOL     OW20506   3.791   0.334   5.598
 6536SOL    HW120507   3.712   0.328   5.537
 6536SOL    HW220508   3.834   0.424   5.588
 6537SOL     OW20509   3.729   0.177   5.830
 6537SOL    HW120510   3.753   0.230   5.748
 6537SOL    HW220511   3.733   0.080   5.809
 6538SOL     OW20512   4.931   1.293   5.758
 6538SOL    HW120513   4.834   1.275   5.738
 6538SOL    HW220514   4.943   1.306   5.856
 6539SOL     OW20515   5.233   1.845   6.644
 6539SOL    HW120516   5.254   1.906   6.567
 6539SOL    HW220517   5.318   1.816   6.687
 6540SOL     OW20518   5.200   1.294   0.271
 6540SOL    HW120519   5.119   1.326   0.321
 6540SOL    HW220520   5.190   1.196   0.252
 6541SOL     OW20521   4.088   1.753   0.067
 6541SOL    HW120522   4.013   1.808   0.103
 6541SOL    HW220523   4.097   1.669   0.121
 6542SOL     OW20524   5.424   0.890   6.814
 6542SOL    HW120525   5.398   0.799   6.783
 6542SOL    HW220526   5.376   0.960   6.761
 6543SOL     OW20527   4.961   0.322   6.020
 6543SOL    HW120528   5.029   0.249   6.019
 6543SOL    HW220529   4.976   0.379   6.101
 6544SOL     OW20530   4.287   0.688   6.253
 6544SOL    HW120531   4.337   0.774   6.248
 6544SOL    HW220532   4.219   0.683   6.181
 6545SOL     OW20533   5.463   0.850   0.099
 6545SOL    HW120534   5.472   0.943   0.136
 6545SOL    HW220535   5.439   0.856   0.002
 6546SOL     OW20536   4.634   1.329   5.690
 6546SOL    HW120537   4.585   1.348   5.775
 6546SOL    HW220538   4.653   1.415   5.642
 6547SOL     OW20539   4.409   1.706   6.559
 6547SOL    HW120540   4.375   1.798   6.542
 6547SOL    HW220541   4.507   1.702   6.538
 6548SOL     OW20542   4.608   0.981   6.442
 6548SOL    HW120543   4.648   0.906   6.496
 6548SOL    HW220544   4.554   1.040   6.502
 6549SOL     OW20545   4.759   0.954   5.654
 6549SOL    HW120546   4.742   1.028   5.590
 6549SOL    HW220547   4.846   0.910   5.632
 6550SOL     OW20548   5.510   1.605   6.462
 6550SOL    HW120549   5.453   1.579   6.383
 6550SOL    HW220550   5.472   1.565   6.545
 6551SOL     OW20551   3.869   1.217   6.237
 6551SOL    HW120552   3.907   1.171   6.317
 6551SOL    HW220553   3.912   1.181   6.154
 6552SOL     OW20554   5.483   0.218   6.804
 6552SOL    HW120555   5.416   0.143   6.803
 6552SOL    HW220556   5.530   0.222   6.717
 6553SOL     OW20557   4.083   0.395   6.073
 6553SOL    HW120558   4.105   0.315   6.018
 6553SOL    HW220559   4.036   0.366   6.157
 6554SOL     OW20560   5.355   1.515   6.673
 6554SOL    HW120561   5.281   1.510   6.606
 6554SOL    HW220562   5.346   1.438   6.737
 6555SOL     OW20563   4.095   0.628   6.889
 6555SOL    HW120564   4.181   0.577   6.903
 6555SOL    HW220565   4.064   0.615   6.795
 6556SOL     OW20566   4.547   1.651   6.216
 6556SOL    HW120567   4.553   1.739   6.170
 6556SOL    HW220568   4.473   1.597   6.176
 6557SOL     OW20569   5.175   0.248   6.662
 6557SOL    HW120570   5.220   0.163   6.689
 6557SOL    HW220571   5.113   0.277   6.735
 6558SOL     OW20572   4.665   0.114   6.744
 6558SOL    HW120573   4.578   0.071   6.718
 6558SOL    HW220574   4.722   0.048   6.793
 6559SOL     OW20575   4.513   1.327   5.940
 6559SOL    HW120576   4.493   1.231   5.958
 6559SOL    HW220577   4.594   1.355   5.992
 6560SOL     OW20578   4.374   1.578   6.882
 6560SOL    HW120579   4.359   1.677   6.882
 6560SOL    HW220580   4.451   1.556   6.823
 6561SOL     OW20581   4.979   6.964   5.821
 6561SOL    HW120582   5.029   6.897   5.766
 6561SOL    HW220583   4.898   6.922   5.860
 6562SOL     OW20584   4.991   0.480   6.237
 6562SOL    HW120585   4.940   0.566   6.236
 6562SOL    HW220586   5.005   0.451   6.332
 6563SOL     OW20587   5.332   0.244   6.428
 6563SOL    HW120588   5.275   0.242   6.510
 6563SOL    HW220589   5.332   0.336   6.389
 6564SOL     OW20590   3.724   1.014   5.899
 6564SOL    HW120591   3.817   0.994   5.870
 6564SOL    HW220592   3.679   0.930   5.928
 6565SOL     OW20593   4.628   1.696   5.897
 6565SOL    HW120594   4.551   1.679   5.835
 6565SOL    HW220595   4.606   1.772   5.957
 6566SOL     OW20596   3.922   2.532   0.131
 6566SOL    HW120597   3.829   2.495   0.125
 6566SOL    HW220598   3.964   2.530   0.040
 6567SOL     OW20599   3.958   2.153   1.010
 6567SOL    HW120600   4.003   2.126   1.095
 6567SOL    HW220601   3.870   2.108   1.002
 6568SOL     OW20602   3.698   2.272   0.658
 6568SOL    HW120603   3.622   2.300   0.716
 6568SOL    HW220604   3.666   2.206   0.590
 6569SOL     OW20605   5.304   3.377   0.699
 6569SOL    HW120606   5.252   3.334   0.773
 6569SOL    HW220607   5.240   3.415   0.632
 6570SOL     OW20608   4.881   2.584   0.671
 6570SOL    HW120609   4.927   2.671   0.656
 6570SOL    HW220610   4.835   2.586   0.760
 6571SOL     OW20611   5.551   2.444   0.124
 6571SOL    HW120612   5.510   2.531   0.100
 6571SOL    HW220613   5.492   2.395   0.188
 6572SOL     OW20614   4.503   2.925   1.115
 6572SOL    HW120615   4.501   2.930   1.215
 6572SOL    HW220616   4.501   3.018   1.078
 6573SOL     OW20617   4.633   2.608   1.804
 6573SOL    HW120618   4.662   2.654   1.887
 6573SOL    HW220619   4.625   2.674   1.729
 6574SOL     OW20620   4.406   2.832   0.665
 6574SOL    HW120621   4.481   2.829   0.732
 6574SOL    HW220622   4.337   2.898   0.695
 6575SOL     OW20623   5.168   3.359   1.377
 6575SOL    HW120624   5.222   3.441   1.395
 6575SOL    HW220625   5.085   3.361   1.433
 6576SOL     OW20626   4.238   2.241   1.466
 6576SOL    HW120627   4.313   2.179   1.489
 6576SOL    HW220628   4.151   2.201   1.496
 6577SOL     OW20629   5.305   2.317   0.746
 6577SOL    HW120630   5.233   2.320   0.677
 6577SOL    HW220631   5.291   2.391   0.812
 6578SOL     OW20632   3.988   3.550   0.529
 6578SOL    HW120633   4.016   3.606   0.607
 6578SOL    HW220634   4.065   3.539   0.466
 6579SOL     OW20635   4.838   3.199   1.725
 6579SOL    HW120636   4.905   3.171   1.794
 6579SOL    HW220637   4.756   3.141   1.733
 6580SOL     OW20638   3.900   3.277   0.492
 6580SOL    HW120639   3.930   3.365   0.529
 6580SOL    HW220640   3.886   3.212   0.567
 6581SOL     OW20641   3.990   2.959   0.890
 6581SOL    HW120642   4.013   2.863   0.907
 6581SOL    HW220643   3.968   3.005   0.976
 6582SOL     OW20644   4.194   3.603   1.326
 6582SOL    HW120645   4.125   3.590   1.397
 6582SOL    HW220646   4.257   3.675   1.353
 6583SOL     OW20647   4.291   2.810   0.211
 6583SOL    HW120648   4.344   2.830   0.129
 6583SOL    HW220649   4.326   2.863   0.288
 6584SOL     OW20650   5.409   1.947   1.528
 6584SOL    HW120651   5.435   2.026   1.472
 6584SOL    HW220652   5.341   1.975   1.596
 6585SOL     OW20653   3.822   2.517   0.585
 6585SOL    HW120654   3.784   2.426   0.602
 6585SOL    HW220655   3.816   2.571   0.670
 6586SOL     OW20656   5.561   3.615   0.352
 6586SOL    HW120657   5.632   3.581   0.413
 6586SOL    HW220658   5.585   3.708   0.321
 6587SOL     OW20659   3.712   3.477   0.146
 6587SOL    HW120660   3.652   3.397   0.145
 6587SOL    HW220661   3.735   3.500   0.241
 6588SOL     OW20662   5.420   2.805   0.647
 6588SOL    HW120663   5.508   2.758   0.654
 6588SOL    HW220664   5.412   2.848   0.558
 6589SOL     OW20665   5.407   2.951   0.411
 6589SOL    HW120666   5.447   2.975   0.322
 6589SOL    HW220667   5.409   3.030   0.471
 6590SOL     OW20668   3.852   2.614   1.565
 6590SOL    HW120669   3.947   2.645   1.560
 6590SOL    HW220670   3.792   2.685   1.527
 6591SOL     OW20671   4.331   3.260   0.788
 6591SOL    HW120672   4.282   3.173   0.780
 6591SOL    HW220673   4.336   3.304   0.698
 6592SOL     OW20674   4.968   3.074   1.426
 6592SOL    HW120675   4.988   3.007   1.355
 6592SOL    HW220676   5.040   3.072   1.496
 6593SOL     OW20677   4.560   1.900   0.502
 6593SOL    HW120678   4.608   1.983   0.476
 6593SOL    HW220679   4.462   1.918   0.507
 6594SOL     OW20680   3.930   2.799   1.326
 6594SOL    HW120681   4.018   2.757   1.300
 6594SOL    HW220682   3.864   2.786   1.253
 6595SOL     OW20683   5.185   2.925   0.247
 6595SOL    HW120684   5.111   2.862   0.270
 6595SOL    HW220685   5.261   2.911   0.310
 6596SOL     OW20686   5.028   3.739   1.628
 6596SOL    HW120687   4.976   3.788   1.559
 6596SOL    HW220688   5.024   3.641   1.611
 6597SOL     OW20689   3.971   2.138   1.855
 6597SOL    HW120690   4.020   2.213   1.810
 6597SOL    HW220691   3.873   2.160   1.859
 6598SOL     OW20692   5.191   3.249   0.916
 6598SOL    HW120693   5.128   3.289   0.983
 6598SOL    HW220694   5.169   3.152   0.903
 6599SOL     OW20695   5.329   3.750   0.550
 6599SOL    HW120696   5.304   3.703   0.465
 6599SOL    HW220697   5.340   3.683   0.623
 6600SOL     OW20698   4.295   2.545   0.281
 6600SOL    HW120699   4.304   2.641   0.253
 6600SOL    HW220700   4.228   2.538   0.355
 6601SOL     OW20701   5.008   2.271   0.927
 6601SOL    HW120702   4.915   2.235   0.924
 6601SOL    HW220703   5.061   2.222   0.996
 6602SOL     OW20704   5.282   3.618   0.305
 6602SOL    HW120705   5.381   3.606   0.316
 6602SOL    HW220706   5.253   3.575   0.219
 6603SOL     OW20707   4.501   2.468   1.472
 6603SOL    HW120708   4.464   2.431   1.557
 6603SOL    HW220709   4.483   2.404   1.397
 6604SOL     OW20710   5.102   2.310   1.650
 6604SOL    HW120711   5.110   2.356   1.739
 6604SOL    HW220712   5.153   2.224   1.652
 6605SOL     OW20713   4.651   2.834   1.625
 6605SOL    HW120714   4.748   2.824   1.603
 6605SOL    HW220715   4.640   2.910   1.689
 6606SOL     OW20716   4.722   2.217   1.193
 6606SOL    HW120717   4.634   2.255   1.222
 6606SOL    HW220718   4.715   2.185   1.098
 6607SOL     OW20719   4.772   2.599   0.421
 6607SOL    HW120720   4.807   2.593   0.514
 6607SOL    HW220721   4.683   2.554   0.415
 6608SOL     OW20722   3.802   2.657   0.825
 6608SOL    HW120723   3.894   2.691   0.840
 6608SOL    HW220724   3.769   2.611   0.907
 6609SOL     OW20725   3.768   3.730   1.581
 6609SOL    HW120726   3.803   3.725   1.675
 6609SOL    HW220727   3.676   3.693   1.578
 6610SOL     OW20728   4.629   2.239   0.217
 6610SOL    HW120729   4.569   2.290   0.154
 6610SOL    HW220730   4.712   2.211   0.169
 6611SOL     OW20731   5.402   2.449   1.843
 6611SOL    HW120732   5.382   2.532   1.791
 6611SOL    HW220733   5.413   2.372   1.780
 6612SOL     OW20734   5.150   3.057   0.628
 6612SOL    HW120735   5.246   3.080   0.613
 6612SOL    HW220736   5.092   3.127   0.585
 6613SOL     OW20737   4.287   1.966   0.969
 6613SOL    HW120738   4.304   1.999   1.062
 6613SOL    HW220739   4.286   2.043   0.905
 6614SOL     OW20740   4.739   3.327   0.503
 6614SOL    HW120741   4.710   3.397   0.437
 6614SOL    HW220742   4.703   3.350   0.593
 6615SOL     OW20743   4.138   3.708   0.724
 6615SOL    HW120744   4.150   3.627   0.783
 6615SOL    HW220745   4.163   3.790   0.776
 6616SOL     OW20746   5.506   2.899   0.901
 6616SOL    HW120747   5.457   2.895   0.814
 6616SOL    HW220748   5.440   2.912   0.975
 6617SOL     OW20749   4.935   3.385   1.517
 6617SOL    HW120750   4.914   3.308   1.577
 6617SOL    HW220751   4.850   3.432   1.494
 6618SOL     OW20752   4.013   2.787   0.214
 6618SOL    HW120753   4.112   2.795   0.214
 6618SOL    HW220754   3.987   2.693   0.192
 6619SOL     OW20755   5.211   2.639   0.692
 6619SOL    HW120756   5.205   2.597   0.782
 6619SOL    HW220757   5.289   2.701   0.688
 6620SOL     OW20758   4.142   3.202   1.794
 6620SOL    HW120759   4.142   3.184   1.696
 6620SOL    HW220760   4.077   3.140   1.839
 6621SOL     OW20761   4.888   3.616   0.261
 6621SOL    HW120762   4.808   3.587   0.314
 6621SOL    HW220763   4.923   3.538   0.209
 6622SOL     OW20764   3.988   2.142   1.516
 6622SOL    HW120765   3.956   2.225   1.561
 6622SOL    HW220766   3.933   2.064   1.547
 6623SOL     OW20767   5.363   3.281   0.123
 6623SOL    HW120768   5.313   3.355   0.078
 6623SOL    HW220769   5.306   3.243   0.197
 6624SOL     OW20770   4.232   3.563   0.382
 6624SOL    HW120771   4.268   3.642   0.432
 6624SOL    HW220772   4.296   3.539   0.309
 6625SOL     OW20773   4.052   3.640   1.091
 6625SOL    HW120774   4.102   3.629   1.177
 6625SOL    HW220775   4.099   3.590   1.019
 6626SOL     OW20776   4.633   3.564   0.934
 6626SOL    HW120777   4.630   3.502   1.012
 6626SOL    HW220778   4.622   3.512   0.849
 6627SOL     OW20779   4.091   2.513   0.468
 6627SOL    HW120780   4.083   2.414   0.466
 6627SOL    HW220781   4.005   2.553   0.500
 6628SOL     OW20782   5.227   2.060   1.709
 6628SOL    HW120783   5.235   2.073   1.807
 6628SOL    HW220784   5.153   1.995   1.689
 6629SOL     OW20785   4.500   2.108   1.727
 6629SOL    HW120786   4.586   2.065   1.754
 6629SOL    HW220787   4.431   2.093   1.798
 6630SOL     OW20788   4.605   3.381   1.137
 6630SOL    HW120789   4.565   3.302   1.089
 6630SOL    HW220790   4.661   3.348   1.214
 6631SOL     OW20791   4.990   2.461   1.445
 6631SOL    HW120792   5.037   2.421   1.524
 6631SOL    HW220793   5.031   2.550   1.424
 6632SOL     OW20794   4.516   3.171   0.981
 6632SOL    HW120795   4.603   3.178   0.932
 6632SOL    HW220796   4.441   3.196   0.919
 6633SOL     OW20797   4.654   2.364   0.882
 6633SOL    HW120798   4.628   2.360   0.786
 6633SOL    HW220799   4.688   2.275   0.912
 6634SOL     OW20800   4.289   1.951   0.486
 6634SOL    HW120801   4.211   1.952   0.548
 6634SOL    HW220802   4.274   2.018   0.413
 6635SOL     OW20803   5.146   3.045   6.994
 6635SOL    HW120804   5.183   2.990   0.069
 6635SOL    HW220805   5.058   3.083   0.021
 6636SOL     OW20806   4.699   2.125   0.449
 6636SOL    HW120807   4.660   2.161   0.364
 6636SOL    HW220808   4.797   2.145   0.452
 6637SOL     OW20809   4.742   2.587   1.396
 6637SOL    HW120810   4.659   2.544   1.433
 6637SOL    HW220811   4.822   2.532   1.421
 6638SOL     OW20812   4.912   3.451   0.820
 6638SOL    HW120813   4.938   3.509   0.743
 6638SOL    HW220814   4.935   3.495   0.906
 6639SOL     OW20815   4.213   3.019   0.735
 6639SOL    HW120816   4.133   3.004   0.794
 6639SOL    HW220817   4.184   3.022   0.640
 6640SOL     OW20818   4.987   3.683   0.657
 6640SOL    HW120819   5.051   3.757   0.680
 6640SOL    HW220820   4.894   3.710   0.681
 6641SOL     OW20821   4.722   2.484   0.011
 6641SOL    HW120822   4.628   2.460   0.038
 6641SOL    HW220823   4.784   2.466   0.088
 6642SOL     OW20824   3.850   2.460   1.332
 6642SOL    HW120825   3.946   2.434   1.319
 6642SOL    HW220826   3.842   2.514   1.416
 6643SOL     OW20827   4.322   2.067   1.222
 6643SOL    HW120828   4.370   2.042   1.306
 6643SOL    HW220829   4.224   2.069   1.239
 6644SOL     OW20830   4.602   2.320   0.623
 6644SOL    HW120831   4.562   2.386   0.559
 6644SOL    HW220832   4.636   2.241   0.572
 6645SOL     OW20833   4.751   1.912   0.713
 6645SOL    HW120834   4.688   1.917   0.636
 6645SOL    HW220835   4.719   1.843   0.778
 6646SOL     OW20836   5.142   2.976   0.892
 6646SOL    HW120837   5.086   2.896   0.913
 6646SOL    HW220838   5.139   2.995   0.794
 6647SOL     OW20839   5.180   2.502   0.933
 6647SOL    HW120840   5.111   2.430   0.938
 6647SOL    HW220841   5.242   2.494   1.011
 6648SOL     OW20842   5.534   2.664   0.376
 6648SOL    HW120843   5.600   2.599   0.415
 6648SOL    HW220844   5.535   2.657   0.277
 6649SOL     OW20845   4.182   3.334   0.162
 6649SOL    HW120846   4.122   3.269   0.209
 6649SOL    HW220847   4.171   3.323   0.063
 6650SOL     OW20848   5.419   3.142   0.604
 6650SOL    HW120849   5.515   3.124   0.625
 6650SOL    HW220850   5.394   3.234   0.634
 6651SOL     OW20851   5.057   2.418   0.050
 6651SOL    HW120852   4.992   2.421   0.126
 6651SOL    HW220853   5.128   2.350   0.069
 6652SOL     OW20854   4.249   2.120   0.274
 6652SOL    HW120855   4.317   2.087   0.209
 6652SOL    HW220856   4.200   2.198   0.235
 6653SOL     OW20857   5.472   3.084   1.529
 6653SOL    HW120858   5.564   3.046   1.516
 6653SOL    HW220859   5.479   3.175   1.568
 6654SOL     OW20860   4.735   3.209   1.326
 6654SOL    HW120861   4.648   3.196   1.373
 6654SOL    HW220862   4.809   3.173   1.382
 6655SOL     OW20863   5.339   3.491   1.676
 6655SOL    HW120864   5.316   3.531   1.587
 6655SOL    HW220865   5.417   3.429   1.665
 6656SOL     OW20866   4.868   3.130   1.104
 6656SOL    HW120867   4.809   3.155   1.181
 6656SOL    HW220868   4.823   3.154   1.018
 6657SOL     OW20869   5.322   2.947   1.100
 6657SOL    HW120870   5.318   3.018   1.170
 6657SOL    HW220871   5.248   2.961   1.034
 6658SOL     OW20872   4.687   1.900   1.355
 6658SOL    HW120873   4.708   1.903   1.257
 6658SOL    HW220874   4.753   1.955   1.405
 6659SOL     OW20875   4.449   2.934   0.407
 6659SOL    HW120876   4.434   2.896   0.498
 6659SOL    HW220877   4.524   2.886   0.363
 6660SOL     OW20878   4.164   2.667   1.262
 6660SOL    HW120879   4.230   2.688   1.334
 6660SOL    HW220880   4.140   2.570   1.266
 6661SOL     OW20881   4.967   2.233   1.299
 6661SOL    HW120882   4.979   2.319   1.349
 6661SOL    HW220883   4.876   2.231   1.258
 6662SOL     OW20884   3.863   3.394   1.335
 6662SOL    HW120885   3.839   3.433   1.246
 6662SOL    HW220886   3.923   3.458   1.384
 6663SOL     OW20887   4.121   3.009   0.482
 6663SOL    HW120888   4.116   3.073   0.405
 6663SOL    HW220889   4.042   2.947   0.479
 6664SOL     OW20890   4.257   2.382   0.832
 6664SOL    HW120891   4.277   2.442   0.754
 6664SOL    HW220892   4.323   2.400   0.905
 6665SOL     OW20893   5.006   3.254   0.501
 6665SOL    HW120894   5.047   3.344   0.512
 6665SOL    HW220895   4.906   3.263   0.501
 6666SOL     OW20896   5.048   3.335   1.133
 6666SOL    HW120897   5.089   3.339   1.224
 6666SOL    HW220898   4.982   3.259   1.130
 6667SOL     OW20899   5.319   2.514   0.467
 6667SOL    HW120900   5.263   2.552   0.541
 6667SOL    HW220901   5.385   2.582   0.437
 6668SOL     OW20902   4.124   2.628   1.590
 6668SOL    HW120903   4.205   2.672   1.550
 6668SOL    HW220904   4.145   2.533   1.613
 6669SOL     OW20905   5.351   2.670   1.695
 6669SOL    HW120906   5.257   2.701   1.686
 6669SOL    HW220907   5.405   2.702   1.617
 6670SOL     OW20908   4.723   1.984   1.822
 6670SOL    HW120909   4.789   2.053   1.792
 6670SOL    HW220910   4.765   1.925   1.891
 6671SOL     OW20911   4.138   1.923   1.778
 6671SOL    HW120912   4.097   1.867   1.705
 6671SOL    HW220913   4.075   1.996   1.803
 6672SOL     OW20914   4.322   2.722   1.045
 6672SOL    HW120915   4.383   2.799   1.064
 6672SOL    HW220916   4.262   2.706   1.124
 6673SOL     OW20917   5.019   2.734   0.975
 6673SOL    HW120918   4.927   2.702   0.956
 6673SOL    HW220919   5.084   2.658   0.964
 6674SOL     OW20920   4.880   2.414   0.252
 6674SOL    HW120921   4.905   2.335   0.308
 6674SOL    HW220922   4.845   2.487   0.311
 6675SOL     OW20923   4.052   2.060   1.256
 6675SOL    HW120924   4.022   2.099   1.343
 6675SOL    HW220925   4.013   1.968   1.245
 6676SOL     OW20926   4.431   2.463   1.026
 6676SOL    HW120927   4.516   2.451   0.975
 6676SOL    HW220928   4.406   2.560   1.027
 6677SOL     OW20929   5.492   2.821   1.878
 6677SOL    HW120930   5.439   2.762   1.817
 6677SOL    HW220931   5.437   2.845   1.958
 6678SOL     OW20932   4.062   1.928   0.648
 6678SOL    HW120933   4.015   2.013   0.670
 6678SOL    HW220934   4.072   1.873   0.730
 6679SOL     OW20935   5.389   2.306   0.310
 6679SOL    HW120936   5.417   2.230   0.369
 6679SOL    HW220937   5.357   2.382   0.367
 6680SOL     OW20938   4.769   2.607   0.926
 6680SOL    HW120939   4.746   2.640   1.018
 6680SOL    HW220940   4.732   2.515   0.914
 6681SOL     OW20941   4.775   3.463   1.760
 6681SOL    HW120942   4.751   3.507   1.673
 6681SOL    HW220943   4.779   3.364   1.747
 6682SOL     OW20944   5.559   3.340   1.596
 6682SOL    HW120945   5.577   3.368   1.502
 6682SOL    HW220946   5.639   3.361   1.653
 6683SOL     OW20947   5.213   2.202   0.131
 6683SOL    HW120948   5.168   2.122   0.172
 6683SOL    HW220949   5.278   2.241   0.196
 6684SOL     OW20950   4.990   2.685   0.038
 6684SOL    HW120951   5.020   2.590   0.031
 6684SOL    HW220952   5.021   2.735   6.957
 6685SOL     OW20953   4.758   3.219   0.862
 6685SOL    HW120954   4.785   3.141   0.806
 6685SOL    HW220955   4.815   3.298   0.839
 6686SOL     OW20956   4.065   2.692   0.926
 6686SOL    HW120957   4.161   2.712   0.946
 6686SOL    HW220958   4.047   2.596   0.943
 6687SOL     OW20959   4.024   2.411   0.961
 6687SOL    HW120960   3.992   2.319   0.982
 6687SOL    HW220961   4.107   2.406   0.905
 6688SOL     OW20962   4.857   2.203   1.716
 6688SOL    HW120963   4.808   2.263   1.780
 6688SOL    HW220964   4.943   2.246   1.689
 6689SOL     OW20965   4.872   2.053   1.487
 6689SOL    HW120966   4.849   2.107   1.568
 6689SOL    HW220967   4.912   2.113   1.417
 6690SOL     OW20968   4.203   3.504   0.899
 6690SOL    HW120969   4.281   3.557   0.932
 6690SOL    HW220970   4.234   3.414   0.869
 6691SOL     OW20971   4.695   2.709   1.159
 6691SOL    HW120972   4.715   2.668   1.248
 6691SOL    HW220973   4.637   2.790   1.171
 6692SOL     OW20974   3.788   2.505   1.067
 6692SOL    HW120975   3.871   2.472   1.020
 6692SOL    HW220976   3.803   2.501   1.166
 6693SOL     OW20977   3.909   2.361   1.659
 6693SOL    HW120978   3.885   2.454   1.631
 6693SOL    HW220979   3.840   2.327   1.723
 6694SOL     OW20980   5.107   2.782   1.637
 6694SOL    HW120981   5.129   2.879   1.636
 6694SOL    HW220982   5.088   2.750   1.544
 6695SOL     OW20983   4.544   2.455   0.385
 6695SOL    HW120984   4.569   2.378   0.325
 6695SOL    HW220985   4.456   2.491   0.356
 6696SOL     OW20986   5.356   2.468   1.141
 6696SOL    HW120987   5.324   2.398   1.205
 6696SOL    HW220988   5.455   2.462   1.133
 6697SOL     OW20989   3.951   3.394   1.723
 6697SOL    HW120990   3.905   3.417   1.809
 6697SOL    HW220991   4.024   3.328   1.742
 6698SOL     OW20992   4.467   2.306   1.245
 6698SOL    HW120993   4.408   2.226   1.236
 6698SOL    HW220994   4.449   2.370   1.170
 6699SOL     OW20995   4.689   3.536   1.504
 6699SOL    HW120996   4.597   3.514   1.536
 6699SOL    HW220997   4.686   3.615   1.442
 6700SOL     OW20998   4.141   2.352   0.163
 6700SOL    HW120999   4.207   2.414   0.206
 6700SOL    HW221000   4.048   2.388   0.176
 6701SOL     OW21001   3.888   2.974   1.531
 6701SOL    HW121002   3.875   2.923   1.616
 6701SOL    HW221003   3.905   2.911   1.456
 6702SOL     OW21004   4.994   2.903   1.197
 6702SOL    HW121005   5.003   2.837   1.122
 6702SOL    HW221006   4.949   2.985   1.164
 6703SOL     OW21007   4.978   2.760   0.298
 6703SOL    HW121008   4.913   2.707   0.351
 6703SOL    HW221009   4.982   2.724   0.204
 6704SOL     OW21010   5.468   3.553   1.155
 6704SOL    HW121011   5.538   3.584   1.090
 6704SOL    HW221012   5.437   3.461   1.129
 6705SOL     OW21013   5.007   3.590   1.050
 6705SOL    HW121014   5.095   3.637   1.051
 6705SOL    HW221015   5.017   3.499   1.089
 6706SOL     OW21016   4.447   3.549   1.646
 6706SOL    HW121017   4.363   3.604   1.646
 6706SOL    HW221018   4.504   3.577   1.723
 6707SOL     OW21019   4.678   1.915   0.086
 6707SOL    HW121020   4.736   1.995   0.069
 6707SOL    HW221021   4.720   1.857   0.157
 6708SOL     OW21022   5.462   2.082   0.458
 6708SOL    HW121023   5.517   2.043   0.384
 6708SOL    HW221024   5.409   2.010   0.502
 6709SOL     OW21025   5.132   3.497   0.518
 6709SOL    HW121026   5.169   3.531   0.432
 6709SOL    HW221027   5.073   3.567   0.559
 6710SOL     OW21028   3.858   3.686   1.826
 6710SOL    HW121029   3.834   3.598   1.868
 6710SOL    HW221030   3.906   3.743   1.894
 6711SOL     OW21031   5.015   2.820   0.641
 6711SOL    HW121032   5.087   2.752   0.652
 6711SOL    HW221033   5.055   2.907   0.616
 6712SOL     OW21034   4.472   3.187   1.416
 6712SOL    HW121035   4.449   3.208   1.511
 6712SOL    HW221036   4.421   3.247   1.354
 6713SOL     OW21037   4.416   3.474   0.185
 6713SOL    HW121038   4.436   3.493   0.089
 6713SOL    HW221039   4.346   3.403   0.192
 6714SOL     OW21040   5.332   3.583   1.404
 6714SOL    HW121041   5.377   3.573   1.315
 6714SOL    HW221042   5.352   3.674   1.441
 6715SOL     OW21043   5.560   2.012   0.992
 6715SOL    HW121044   5.590   1.925   0.953
 6715SOL    HW221045   5.474   2.040   0.949
 6716SOL     OW21046   3.946   2.162   0.721
 6716SOL    HW121047   3.858   2.206   0.701
 6716SOL    HW221048   3.964   2.169   0.820
 6717SOL     OW21049   4.949   3.400   0.095
 6717SOL    HW121050   4.949   3.303   0.117
 6717SOL    HW221051   4.865   3.424   0.046
 6718SOL     OW21052   4.516   2.919   1.396
 6718SOL    HW121053   4.570   2.887   1.474
 6718SOL    HW221054   4.495   3.016   1.408
 6719SOL     OW21055   4.644   2.803   0.277
 6719SOL    HW121056   4.677   2.809   0.183
 6719SOL    HW221057   4.698   2.736   0.327
 6720SOL     OW21058   5.198   3.505   0.060
 6720SOL    HW121059   5.109   3.463   0.077
 6720SOL    HW221060   5.194   3.558   6.975
 6721SOL     OW21061   4.094   3.158   1.532
 6721SOL    HW121062   4.135   3.167   1.441
 6721SOL    HW221063   4.016   3.096   1.527
 6722SOL     OW21064   5.325   3.146   1.296
 6722SOL    HW121065   5.382   3.118   1.373
 6722SOL    HW221066   5.259   3.214   1.327
 6723SOL     OW21067   4.804   2.982   0.739
 6723SOL    HW121068   4.728   2.928   0.774
 6723SOL    HW221069   4.873   2.922   0.698
 6724SOL     OW21070   4.767   2.107   0.931
 6724SOL    HW121071   4.759   2.069   0.839
 6724SOL    HW221072   4.775   2.032   0.997
 6725SOL     OW21073   4.370   3.370   0.534
 6725SOL    HW121074   4.411   3.306   0.469
 6725SOL    HW221075   4.303   3.427   0.486
 6726SOL     OW21076   5.524   2.197   1.429
 6726SOL    HW121077   5.582   2.277   1.418
 6726SOL    HW221078   5.549   2.127   1.362
 6727SOL     OW21079   4.004   3.160   0.270
 6727SOL    HW121080   3.937   3.110   0.215
 6727SOL    HW221081   3.957   3.204   0.347
 6728SOL     OW21082   3.824   2.830   1.764
 6728SOL    HW121083   3.738   2.829   1.816
 6728SOL    HW221084   3.843   2.739   1.728
 6729SOL     OW21085   4.451   2.014   1.468
 6729SOL    HW121086   4.534   1.975   1.428
 6729SOL    HW221087   4.472   2.050   1.558
 6730SOL     OW21088   3.799   2.172   6.996
 6730SOL    HW121089   3.725   2.141   6.937
 6730SOL    HW221090   3.772   2.257   0.041
 6731SOL     OW21091   5.094   2.709   1.374
 6731SOL    HW121092   5.038   2.772   1.320
 6731SOL    HW221093   5.188   2.711   1.339
 6732SOL     OW21094   3.788   1.984   0.333
 6732SOL    HW121095   3.858   2.046   0.369
 6732SOL    HW221096   3.811   1.958   0.239
 6733SOL     OW21097   4.909   3.124   0.119
 6733SOL    HW121098   4.813   3.151   0.112
 6733SOL    HW221099   4.919   3.051   0.186
 6734SOL     OW21100   4.354   2.702   1.452
 6734SOL    HW121101   4.406   2.785   1.437
 6734SOL    HW221102   4.416   2.624   1.461
 6735SOL     OW21103   5.253   3.717   1.057
 6735SOL    HW121104   5.292   3.773   0.984
 6735SOL    HW221105   5.325   3.662   1.099
 6736SOL     OW21106   4.453   2.394   1.745
 6736SOL    HW121107   4.522   2.464   1.764
 6736SOL    HW221108   4.498   2.305   1.736
 6737SOL     OW21109   5.201   3.039   1.621
 6737SOL    HW121110   5.201   3.057   1.719
 6737SOL    HW221111   5.293   3.057   1.584
 6738SOL     OW21112   3.998   3.576   1.523
 6738SOL    HW121113   3.922   3.640   1.531
 6738SOL    HW221114   3.989   3.506   1.594
 6739SOL     OW21115   5.345   2.723   1.258
 6739SOL    HW121116   5.353   2.638   1.206
 6739SOL    HW221117   5.339   2.800   1.194
 6740SOL     OW21118   4.961   2.205   0.423
 6740SOL    HW121119   5.025   2.135   0.394
 6740SOL    HW221120   4.996   2.251   0.505
 6741SOL     OW21121   4.306   2.570   0.640
 6741SOL    HW121122   4.341   2.663   0.643
 6741SOL    HW221123   4.228   2.566   0.578
 6742SOL     OW21124   5.450   2.225   1.692
 6742SOL    HW121125   5.478   2.221   1.596
 6742SOL    HW221126   5.371   2.165   1.705
 6743SOL     OW21127   5.481   2.787   1.487
 6743SOL    HW121128   5.464   2.884   1.504
 6743SOL    HW221129   5.437   2.761   1.401
 6744SOL     OW21130   4.658   3.226   0.123
 6744SOL    HW121131   4.592   3.222   0.199
 6744SOL    HW221132   4.654   3.316   0.081
 6745SOL     OW21133   4.391   3.687   0.969
 6745SOL    HW121134   4.375   3.767   0.910
 6745SOL    HW221135   4.484   3.653   0.955
 6746SOL     OW21136   4.606   2.830   0.862
 6746SOL    HW121137   4.659   2.746   0.879
 6746SOL    HW221138   4.571   2.865   0.949
 6747SOL     OW21139   4.739   2.812   0.015
 6747SOL    HW121140   4.716   2.769   6.928
 6747SOL    HW221141   4.832   2.786   0.041
 6748SOL     OW21142   5.520   3.426   0.861
 6748SOL    HW121143   5.451   3.416   0.789
 6748SOL    HW221144   5.498   3.364   0.936
 6749SOL     OW21145   3.934   3.055   1.891
 6749SOL    HW121146   3.906   2.971   1.844
 6749SOL    HW221147   3.853   3.105   1.920
 6750SOL     OW21148   3.849   3.051   0.659
 6750SOL    HW121149   3.902   3.030   0.741
 6750SOL    HW221150   3.870   2.985   0.587
 6751SOL     OW21151   4.390   3.278   1.655
 6751SOL    HW121152   4.325   3.253   1.726
 6751SOL    HW221153   4.404   3.377   1.656
 6752SOL     OW21154   5.589   1.997   1.263
 6752SOL    HW121155   5.657   1.924   1.273
 6752SOL    HW221156   5.571   2.012   1.166
 6753SOL     OW21157   4.058   2.242   0.472
 6753SOL    HW121158   4.133   2.185   0.439
 6753SOL    HW221159   4.033   2.214   0.565
 6754SOL     OW21160   5.403   3.300   1.079
 6754SOL    HW121161   5.328   3.281   1.016
 6754SOL    HW221162   5.396   3.240   1.159
 6755SOL     OW21163   4.114   2.399   1.278
 6755SOL    HW121164   4.165   2.347   1.346
 6755SOL    HW221165   4.130   2.360   1.187
 6756SOL     OW21166   4.575   3.417   0.713
 6756SOL    HW121167   4.503   3.425   0.643
 6756SOL    HW221168   4.561   3.334   0.766
 6757SOL     OW21169   5.143   2.129   1.120
 6757SOL    HW121170   5.165   2.034   1.141
 6757SOL    HW221171   5.085   2.166   1.193
 6758SOL     OW21172   4.774   1.872   1.083
 6758SOL    HW121173   4.715   1.814   1.026
 6758SOL    HW221174   4.865   1.829   1.091
 6759SOL     OW21175   4.517   3.199   0.371
 6759SOL    HW121176   4.486   3.104   0.381
 6759SOL    HW221177   4.604   3.210   0.419
 6760SOL     OW21178   4.347   3.377   1.261
 6760SOL    HW121179   4.289   3.455   1.283
 6760SOL    HW221180   4.430   3.409   1.214
 6761SOL     OW21181   5.072   1.978   0.268
 6761SOL    HW121182   5.154   1.923   0.282
 6761SOL    HW221183   4.991   1.918   0.269
 6762SOL     OW21184   5.029   2.340   0.656
 6762SOL    HW121185   4.984   2.429   0.647
 6762SOL    HW221186   5.022   2.309   0.750
 6763SOL     OW21187   5.314   2.088   0.907
 6763SOL    HW121188   5.254   2.118   0.981
 6763SOL    HW221189   5.316   2.157   0.835
 6764SOL     OW21190   3.888   2.864   0.447
 6764SOL    HW121191   3.936   2.842   0.362
 6764SOL    HW221192   3.802   2.814   0.451
 6765SOL     OW21193   4.639   3.536   0.354
 6765SOL    HW121194   4.563   3.511   0.295
 6765SOL    HW221195   4.611   3.610   0.415
 6766SOL     OW21196   3.946   2.126   2.855
 6766SOL    HW121197   3.994   2.080   2.929
 6766SOL    HW221198   3.847   2.109   2.864
 6767SOL     OW21199   3.662   2.085   2.607
 6767SOL    HW121200   3.589   2.086   2.675
 6767SOL    HW221201   3.624   2.062   2.517
 6768SOL     OW21202   4.119   3.200   3.139
 6768SOL    HW121203   4.065   3.219   3.057
 6768SOL    HW221204   4.176   3.120   3.122
 6769SOL     OW21205   5.332   3.395   2.572
 6769SOL    HW121206   5.278   3.363   2.649
 6769SOL    HW221207   5.277   3.391   2.488
 6770SOL     OW21208   4.893   2.580   2.540
 6770SOL    HW121209   4.944   2.665   2.529
 6770SOL    HW221210   4.827   2.590   2.615
 6771SOL     OW21211   5.528   2.438   2.080
 6771SOL    HW121212   5.485   2.465   1.994
 6771SOL    HW221213   5.468   2.377   2.130
 6772SOL     OW21214   4.653   2.577   3.660
 6772SOL    HW121215   4.657   2.622   3.749
 6772SOL    HW221216   4.677   2.642   3.588
 6773SOL     OW21217   3.990   3.252   2.904
 6773SOL    HW121218   3.899   3.263   2.865
 6773SOL    HW221219   4.050   3.324   2.869
 6774SOL     OW21220   5.208   3.354   3.257
 6774SOL    HW121221   5.261   3.437   3.270
 6774SOL    HW221222   5.133   3.352   3.323
 6775SOL     OW21223   4.186   2.132   3.471
 6775SOL    HW121224   4.269   2.114   3.418
 6775SOL    HW221225   4.108   2.139   3.409
 6776SOL     OW21226   5.305   2.288   2.582
 6776SOL    HW121227   5.229   2.289   2.518
 6776SOL    HW221228   5.289   2.357   2.653
 6777SOL     OW21229   3.952   3.594   2.333
 6777SOL    HW121230   3.955   3.662   2.407
 6777SOL    HW221231   4.015   3.621   2.260
 6778SOL     OW21232   4.936   3.221   3.649
 6778SOL    HW121233   4.968   3.204   3.743
 6778SOL    HW221234   4.893   3.139   3.613
 6779SOL     OW21235   3.808   3.373   2.391
 6779SOL    HW121236   3.858   3.457   2.370
 6779SOL    HW221237   3.774   3.377   2.485
 6780SOL     OW21238   3.939   2.978   2.878
 6780SOL    HW121239   3.849   2.962   2.837
 6780SOL    HW221240   3.953   3.076   2.889
 6781SOL     OW21241   5.412   1.957   3.376
 6781SOL    HW121242   5.436   2.040   3.326
 6781SOL    HW221243   5.345   1.978   3.447
 6782SOL     OW21244   5.607   3.596   2.175
 6782SOL    HW121245   5.685   3.588   2.237
 6782SOL    HW221246   5.591   3.692   2.154
 6783SOL     OW21247   3.803   3.442   1.948
 6783SOL    HW121248   3.759   3.353   1.961
 6783SOL    HW221249   3.784   3.501   2.026
 6784SOL     OW21250   5.449   2.796   2.493
 6784SOL    HW121251   5.492   2.731   2.430
 6784SOL    HW221252   5.427   2.880   2.445
 6785SOL     OW21253   5.432   3.007   2.307
 6785SOL    HW121254   5.512   2.967   2.261
 6785SOL    HW221255   5.460   3.090   2.355
 6786SOL     OW21256   4.135   3.290   2.599
 6786SOL    HW121257   4.092   3.200   2.601
 6786SOL    HW221258   4.146   3.320   2.504
 6787SOL     OW21259   5.072   3.034   3.299
 6787SOL    HW121260   5.104   2.969   3.230
 6787SOL    HW221261   5.135   3.033   3.377
 6788SOL     OW21262   4.555   1.893   2.351
 6788SOL    HW121263   4.597   1.979   2.322
 6788SOL    HW221264   4.456   1.905   2.358
 6789SOL     OW21265   3.839   2.912   3.131
 6789SOL    HW121266   3.898   2.916   3.051
 6789SOL    HW221267   3.753   2.867   3.108
 6790SOL     OW21268   5.308   2.882   2.084
 6790SOL    HW121269   5.240   2.815   2.111
 6790SOL    HW221270   5.342   2.929   2.165
 6791SOL     OW21271   4.941   3.629   3.458
 6791SOL    HW121272   4.913   3.699   3.393
 6791SOL    HW221273   4.944   3.540   3.412
 6792SOL     OW21274   4.090   2.057   3.713
 6792SOL    HW121275   4.127   2.100   3.631
 6792SOL    HW221276   3.992   2.080   3.722
 6793SOL     OW21277   5.194   3.286   2.784
 6793SOL    HW121278   5.109   3.332   2.809
 6793SOL    HW221279   5.175   3.193   2.754
 6794SOL     OW21280   5.342   3.692   2.411
 6794SOL    HW121281   5.344   3.635   2.329
 6794SOL    HW221282   5.334   3.633   2.492
 6795SOL     OW21283   5.033   2.245   2.788
 6795SOL    HW121284   4.944   2.201   2.781
 6795SOL    HW221285   5.089   2.196   2.855
 6796SOL     OW21286   5.342   3.538   2.183
 6796SOL    HW121287   5.442   3.546   2.178
 6796SOL    HW221288   5.305   3.526   2.090
 6797SOL     OW21289   4.601   2.340   3.260
 6797SOL    HW121290   4.562   2.344   3.352
 6797SOL    HW221291   4.533   2.303   3.196
 6798SOL     OW21292   5.128   2.307   3.533
 6798SOL    HW121293   5.128   2.354   3.621
 6798SOL    HW221294   5.172   2.218   3.542
 6799SOL     OW21295   4.756   2.748   3.446
 6799SOL    HW121296   4.782   2.656   3.418
 6799SOL    HW221297   4.748   2.807   3.365
 6800SOL     OW21298   4.762   2.253   3.055
 6800SOL    HW121299   4.710   2.284   3.135
 6800SOL    HW221300   4.698   2.225   2.984
 6801SOL     OW21301   4.856   2.593   2.263
 6801SOL    HW121302   4.877   2.590   2.361
 6801SOL    HW221303   4.760   2.570   2.249
 6802SOL     OW21304   3.831   3.721   3.448
 6802SOL    HW121305   3.824   3.728   3.547
 6802SOL    HW221306   3.755   3.665   3.414
 6803SOL     OW21307   4.562   2.290   2.082
 6803SOL    HW121308   4.626   2.306   2.007
 6803SOL    HW221309   4.468   2.298   2.048
 6804SOL     OW21310   5.400   2.435   3.704
 6804SOL    HW121311   5.390   2.517   3.647
 6804SOL    HW221312   5.421   2.356   3.646
 6805SOL     OW21313   5.182   3.019   2.416
 6805SOL    HW121314   5.271   3.021   2.371
 6805SOL    HW221315   5.116   3.072   2.362
 6806SOL     OW21316   4.303   1.936   2.796
 6806SOL    HW121317   4.318   1.962   2.891
 6806SOL    HW221318   4.308   2.017   2.738
 6807SOL     OW21319   4.917   3.444   2.353
 6807SOL    HW121320   4.853   3.504   2.304
 6807SOL    HW221321   4.907   3.460   2.452
 6808SOL     OW21322   4.101   3.696   2.753
 6808SOL    HW121323   4.138   3.606   2.773
 6808SOL    HW221324   4.133   3.761   2.822
 6809SOL     OW21325   5.537   2.878   2.744
 6809SOL    HW121326   5.500   2.854   2.654
 6809SOL    HW221327   5.462   2.898   2.807
 6810SOL     OW21328   4.964   3.350   3.399
 6810SOL    HW121329   4.961   3.305   3.488
 6810SOL    HW221330   4.910   3.297   3.333
 6811SOL     OW21331   5.248   2.612   2.549
 6811SOL    HW121332   5.242   2.568   2.639
 6811SOL    HW221333   5.327   2.674   2.548
 6812SOL     OW21334   4.106   3.202   3.680
 6812SOL    HW121335   4.115   3.188   3.581
 6812SOL    HW221336   4.051   3.129   3.719
 6813SOL     OW21337   4.889   3.678   2.029
 6813SOL    HW121338   4.842   3.730   1.957
 6813SOL    HW221339   4.889   3.581   2.006
 6814SOL     OW21340   3.939   2.089   3.346
 6814SOL    HW121341   3.867   2.087   3.278
 6814SOL    HW221342   3.929   2.012   3.409
 6815SOL     OW21343   5.399   3.268   1.958
 6815SOL    HW121344   5.340   3.349   1.956
 6815SOL    HW221345   5.345   3.188   1.930
 6816SOL     OW21346   4.124   3.591   2.107
 6816SOL    HW121347   4.209   3.622   2.150
 6816SOL    HW221348   4.133   3.495   2.080
 6817SOL     OW21349   5.107   1.964   2.307
 6817SOL    HW121350   5.106   1.938   2.210
 6817SOL    HW221351   5.198   1.943   2.345
 6818SOL     OW21352   3.974   3.663   3.040
 6818SOL    HW121353   4.033   3.597   3.088
 6818SOL    HW221354   3.948   3.626   2.951
 6819SOL     OW21355   5.231   2.046   3.570
 6819SOL    HW121356   5.233   2.060   3.669
 6819SOL    HW221357   5.161   1.978   3.547
 6820SOL     OW21358   4.348   1.994   1.938
 6820SOL    HW121359   4.414   1.919   1.938
 6820SOL    HW221360   4.268   1.968   1.883
 6821SOL     OW21361   4.517   2.107   3.625
 6821SOL    HW121362   4.605   2.058   3.630
 6821SOL    HW221363   4.451   2.063   3.686
 6822SOL     OW21364   5.070   2.433   3.297
 6822SOL    HW121365   5.101   2.396   3.385
 6822SOL    HW221366   5.101   2.527   3.288
 6823SOL     OW21367   4.710   2.351   2.716
 6823SOL    HW121368   4.688   2.356   2.619
 6823SOL    HW221369   4.742   2.259   2.738
 6824SOL     OW21370   4.284   1.934   2.348
 6824SOL    HW121371   4.211   1.925   2.415
 6824SOL    HW221372   4.277   2.022   2.302
 6825SOL     OW21373   5.215   3.066   1.897
 6825SOL    HW121374   5.247   2.991   1.954
 6825SOL    HW221375   5.122   3.092   1.925
 6826SOL     OW21376   3.960   1.934   2.043
 6826SOL    HW121377   3.977   2.017   1.991
 6826SOL    HW221378   4.048   1.894   2.072
 6827SOL     OW21379   4.670   2.131   2.281
 6827SOL    HW121380   4.629   2.181   2.204
 6827SOL    HW221381   4.769   2.147   2.282
 6828SOL     OW21382   4.807   2.512   3.318
 6828SOL    HW121383   4.740   2.438   3.315
 6828SOL    HW221384   4.899   2.474   3.311
 6829SOL     OW21385   4.924   3.510   2.621
 6829SOL    HW121386   4.927   3.600   2.577
 6829SOL    HW221387   4.960   3.517   2.714
 6830SOL     OW21388   4.031   3.034   2.620
 6830SOL    HW121389   4.010   3.002   2.713
 6830SOL    HW221390   4.090   2.968   2.574
 6831SOL     OW21391   4.944   3.750   2.495
 6831SOL    HW121392   5.004   3.772   2.418
 6831SOL    HW221393   4.898   3.833   2.526
 6832SOL     OW21394   4.750   2.375   1.899
 6832SOL    HW121395   4.722   2.464   1.864
 6832SOL    HW221396   4.822   2.387   1.967
 6833SOL     OW21397   4.330   1.998   3.058
 6833SOL    HW121398   4.352   1.932   3.130
 6833SOL    HW221399   4.232   2.018   3.060
 6834SOL     OW21400   4.634   2.350   2.457
 6834SOL    HW121401   4.614   2.423   2.392
 6834SOL    HW221402   4.636   2.262   2.409
 6835SOL     OW21403   4.736   1.898   2.568
 6835SOL    HW121404   4.671   1.904   2.492
 6835SOL    HW221405   4.702   1.833   2.636
 6836SOL     OW21406   5.159   3.026   2.699
 6836SOL    HW121407   5.061   3.010   2.703
 6836SOL    HW221408   5.189   3.025   2.604
 6837SOL     OW21409   5.214   2.460   2.783
 6837SOL    HW121410   5.143   2.391   2.793
 6837SOL    HW221411   5.272   2.460   2.864
 6838SOL     OW21412   5.557   2.642   2.286
 6838SOL    HW121413   5.627   2.596   2.341
 6838SOL    HW221414   5.523   2.579   2.216
 6839SOL     OW21415   4.136   3.321   2.061
 6839SOL    HW121416   4.051   3.282   2.096
 6839SOL    HW221417   4.160   3.279   1.974
 6840SOL     OW21418   5.515   3.213   2.455
 6840SOL    HW121419   5.606   3.213   2.497
 6840SOL    HW221420   5.458   3.282   2.499
 6841SOL     OW21421   5.120   2.412   1.898
 6841SOL    HW121422   5.064   2.393   1.979
 6841SOL    HW221423   5.217   2.411   1.924
 6842SOL     OW21424   4.260   2.141   2.159
 6842SOL    HW121425   4.290   2.076   2.090
 6842SOL    HW221426   4.265   2.234   2.123
 6843SOL     OW21427   5.496   3.070   3.376
 6843SOL    HW121428   5.588   3.035   3.359
 6843SOL    HW221429   5.502   3.162   3.414
 6844SOL     OW21430   4.859   3.160   3.205
 6844SOL    HW121431   4.779   3.101   3.219
 6844SOL    HW221432   4.940   3.115   3.242
 6845SOL     OW21433   5.366   3.496   3.548
 6845SOL    HW121434   5.347   3.543   3.461
 6845SOL    HW221435   5.434   3.424   3.532
 6846SOL     OW21436   4.878   3.066   2.938
 6846SOL    HW121437   4.860   3.115   3.023
 6846SOL    HW221438   4.886   3.132   2.863
 6847SOL     OW21439   5.327   2.947   2.916
 6847SOL    HW121440   5.324   3.014   2.990
 6847SOL    HW221441   5.260   2.973   2.846
 6848SOL     OW21442   4.678   1.927   3.216
 6848SOL    HW121443   4.695   1.923   3.118
 6848SOL    HW221444   4.755   1.971   3.261
 6849SOL     OW21445   4.801   2.982   3.589
 6849SOL    HW121446   4.707   3.015   3.590
 6849SOL    HW221447   4.805   2.895   3.539
 6850SOL     OW21448   5.012   2.214   3.147
 6850SOL    HW121449   5.038   2.296   3.198
 6850SOL    HW221450   4.923   2.229   3.104
 6851SOL     OW21451   3.835   3.403   3.197
 6851SOL    HW121452   3.785   3.443   3.120
 6851SOL    HW221453   3.931   3.431   3.192
 6852SOL     OW21454   3.942   2.965   2.224
 6852SOL    HW121455   3.942   3.064   2.207
 6852SOL    HW221456   4.022   2.924   2.181
 6853SOL     OW21457   4.316   2.180   2.671
 6853SOL    HW121458   4.269   2.194   2.583
 6853SOL    HW221459   4.375   2.258   2.690
 6854SOL     OW21460   5.026   3.183   2.260
 6854SOL    HW121461   5.095   3.251   2.281
 6854SOL    HW221462   4.936   3.217   2.285
 6855SOL     OW21463   5.011   3.354   3.065
 6855SOL    HW121464   5.091   3.356   3.125
 6855SOL    HW221465   4.941   3.295   3.105
 6856SOL     OW21466   5.241   2.493   2.298
 6856SOL    HW121467   5.243   2.526   2.392
 6856SOL    HW221468   5.198   2.562   2.239
 6857SOL     OW21469   4.105   3.474   3.185
 6857SOL    HW121470   4.134   3.378   3.179
 6857SOL    HW221471   4.107   3.503   3.280
 6858SOL     OW21472   5.371   2.661   3.555
 6858SOL    HW121473   5.275   2.689   3.557
 6858SOL    HW221474   5.413   2.694   3.471
 6859SOL     OW21475   4.752   1.976   3.642
 6859SOL    HW121476   4.807   2.053   3.611
 6859SOL    HW221477   4.811   1.898   3.664
 6860SOL     OW21478   4.247   1.842   3.641
 6860SOL    HW121479   4.199   1.786   3.574
 6860SOL    HW221480   4.191   1.922   3.663
 6861SOL     OW21481   5.041   2.656   2.890
 6861SOL    HW121482   4.948   2.623   2.873
 6861SOL    HW221483   5.106   2.596   2.842
 6862SOL     OW21484   4.940   2.382   2.105
 6862SOL    HW121485   4.944   2.303   2.167
 6862SOL    HW221486   4.920   2.465   2.158
 6863SOL     OW21487   4.057   2.016   3.076
 6863SOL    HW121488   4.069   2.090   3.142
 6863SOL    HW221489   4.009   1.940   3.120
 6864SOL     OW21490   3.736   3.168   3.098
 6864SOL    HW121491   3.783   3.083   3.124
 6864SOL    HW221492   3.779   3.245   3.145
 6865SOL     OW21493   4.451   2.391   2.793
 6865SOL    HW121494   4.547   2.381   2.767
 6865SOL    HW221495   4.421   2.484   2.775
 6866SOL     OW21496   5.524   2.819   3.724
 6866SOL    HW121497   5.468   2.756   3.671
 6866SOL    HW221498   5.478   2.839   3.811
 6867SOL     OW21499   4.056   1.894   2.507
 6867SOL    HW121500   4.009   1.981   2.522
 6867SOL    HW221501   4.062   1.844   2.594
 6868SOL     OW21502   5.339   2.267   2.183
 6868SOL    HW121503   5.379   2.206   2.251
 6868SOL    HW221504   5.293   2.343   2.230
 6869SOL     OW21505   4.779   2.579   2.856
 6869SOL    HW121506   4.736   2.583   2.947
 6869SOL    HW221507   4.757   2.491   2.813
 6870SOL     OW21508   5.567   3.326   3.453
 6870SOL    HW121509   5.585   3.352   3.358
 6870SOL    HW221510   5.645   3.352   3.510
 6871SOL     OW21511   5.256   2.105   1.973
 6871SOL    HW121512   5.195   2.034   2.009
 6871SOL    HW221513   5.282   2.167   2.046
 6872SOL     OW21514   5.073   2.683   1.894
 6872SOL    HW121515   5.082   2.584   1.880
 6872SOL    HW221516   5.067   2.729   1.805
 6873SOL     OW21517   4.904   3.239   2.724
 6873SOL    HW121518   4.891   3.165   2.658
 6873SOL    HW221519   4.894   3.327   2.679
 6874SOL     OW21520   4.181   2.260   2.901
 6874SOL    HW121521   4.086   2.233   2.883
 6874SOL    HW221522   4.237   2.238   2.822
 6875SOL     OW21523   4.874   2.206   3.552
 6875SOL    HW121524   4.824   2.256   3.622
 6875SOL    HW221525   4.964   2.247   3.539
 6876SOL     OW21526   4.897   2.044   3.333
 6876SOL    HW121527   4.876   2.104   3.409
 6876SOL    HW221528   4.945   2.096   3.262
 6877SOL     OW21529   3.704   3.181   2.001
 6877SOL    HW121530   3.618   3.218   1.966
 6877SOL    HW221531   3.686   3.093   2.045
 6878SOL     OW21532   3.844   3.596   2.777
 6878SOL    HW121533   3.802   3.533   2.712
 6878SOL    HW221534   3.930   3.630   2.741
 6879SOL     OW21535   4.175   3.441   2.813
 6879SOL    HW121536   4.266   3.424   2.850
 6879SOL    HW221537   4.164   3.390   2.727
 6880SOL     OW21538   4.663   2.613   3.106
 6880SOL    HW121539   4.723   2.580   3.179
 6880SOL    HW221540   4.574   2.568   3.113
 6881SOL     OW21541   5.123   2.772   3.520
 6881SOL    HW121542   5.158   2.865   3.520
 6881SOL    HW221543   5.108   2.742   3.426
 6882SOL     OW21544   4.595   2.517   2.233
 6882SOL    HW121545   4.577   2.435   2.179
 6882SOL    HW221546   4.555   2.596   2.186
 6883SOL     OW21547   5.374   2.460   3.004
 6883SOL    HW121548   5.343   2.396   3.074
 6883SOL    HW221549   5.474   2.456   2.996
 6884SOL     OW21550   3.924   3.396   3.622
 6884SOL    HW121551   3.867   3.418   3.701
 6884SOL    HW221552   3.993   3.329   3.649
 6885SOL     OW21553   4.455   2.250   3.047
 6885SOL    HW121554   4.409   2.162   3.053
 6885SOL    HW221555   4.429   2.296   2.962
 6886SOL     OW21556   4.310   2.358   1.980
 6886SOL    HW121557   4.351   2.373   1.889
 6886SOL    HW221558   4.229   2.415   1.989
 6887SOL     OW21559   3.841   3.014   3.388
 6887SOL    HW121560   3.823   2.953   3.465
 6887SOL    HW221561   3.849   2.960   3.304
 6888SOL     OW21562   5.004   2.858   3.062
 6888SOL    HW121563   5.026   2.785   2.998
 6888SOL    HW221564   4.973   2.939   3.012
 6889SOL     OW21565   5.109   2.695   2.159
 6889SOL    HW121566   5.023   2.687   2.208
 6889SOL    HW221567   5.092   2.696   2.060
 6890SOL     OW21568   5.477   3.557   3.023
 6890SOL    HW121569   5.549   3.586   2.960
 6890SOL    HW221570   5.444   3.466   2.997
 6891SOL     OW21571   5.036   3.536   2.866
 6891SOL    HW121572   5.104   3.604   2.894
 6891SOL    HW221573   5.016   3.475   2.943
 6892SOL     OW21574   3.729   3.210   2.824
 6892SOL    HW121575   3.718   3.204   2.923
 6892SOL    HW221576   3.710   3.121   2.783
 6893SOL     OW21577   5.486   2.078   2.324
 6893SOL    HW121578   5.533   2.051   2.240
 6893SOL    HW221579   5.437   1.999   2.361
 6894SOL     OW21580   5.183   3.392   2.346
 6894SOL    HW121581   5.236   3.444   2.279
 6894SOL    HW221582   5.088   3.425   2.347
 6895SOL     OW21583   3.801   3.704   3.717
 6895SOL    HW121584   3.767   3.613   3.741
 6895SOL    HW221585   3.873   3.731   3.781
 6896SOL     OW21586   5.054   2.790   2.483
 6896SOL    HW121587   5.123   2.721   2.504
 6896SOL    HW221588   5.098   2.872   2.447
 6897SOL     OW21589   5.358   3.590   3.278
 6897SOL    HW121590   5.399   3.585   3.186
 6897SOL    HW221591   5.369   3.683   3.313
 6898SOL     OW21592   5.580   2.001   2.848
 6898SOL    HW121593   5.608   1.909   2.821
 6898SOL    HW221594   5.495   2.025   2.801
 6899SOL     OW21595   3.934   2.128   2.578
 6899SOL    HW121596   3.835   2.120   2.568
 6899SOL    HW221597   3.957   2.138   2.675
 6900SOL     OW21598   4.977   3.415   1.935
 6900SOL    HW121599   4.968   3.319   1.961
 6900SOL    HW221600   4.906   3.438   1.868
 6901SOL     OW21601   4.762   2.864   3.196
 6901SOL    HW121602   4.708   2.791   3.154
 6901SOL    HW221603   4.853   2.866   3.155
 6902SOL     OW21604   4.732   2.728   2.028
 6902SOL    HW121605   4.741   2.824   2.002
 6902SOL    HW221606   4.794   2.708   2.103
 6903SOL     OW21607   5.237   3.500   1.930
 6903SOL    HW121608   5.142   3.469   1.930
 6903SOL    HW221609   5.271   3.504   1.836
 6904SOL     OW21610   4.072   3.161   3.410
 6904SOL    HW121611   4.095   3.186   3.316
 6904SOL    HW221612   3.985   3.113   3.411
 6905SOL     OW21613   5.337   3.128   3.147
 6905SOL    HW121614   5.399   3.098   3.219
 6905SOL    HW221615   5.276   3.199   3.184
 6906SOL     OW21616   4.892   2.992   2.598
 6906SOL    HW121617   4.829   2.945   2.660
 6906SOL    HW221618   4.934   2.926   2.536
 6907SOL     OW21619   4.799   2.092   2.765
 6907SOL    HW121620   4.782   2.040   2.681
 6907SOL    HW221621   4.789   2.032   2.844
 6908SOL     OW21622   4.147   3.379   2.343
 6908SOL    HW121623   4.165   3.347   2.250
 6908SOL    HW221624   4.077   3.451   2.341
 6909SOL     OW21625   5.531   2.207   3.288
 6909SOL    HW121626   5.590   2.287   3.281
 6909SOL    HW221627   5.560   2.139   3.221
 6910SOL     OW21628   3.906   3.230   2.180
 6910SOL    HW121629   3.829   3.221   2.116
 6910SOL    HW221630   3.874   3.275   2.264
 6911SOL     OW21631   3.785   2.858   3.606
 6911SOL    HW121632   3.710   2.862   3.672
 6911SOL    HW221633   3.802   2.763   3.580
 6912SOL     OW21634   4.448   2.022   3.369
 6912SOL    HW121635   4.529   2.001   3.314
 6912SOL    HW221636   4.477   2.061   3.457
 6913SOL     OW21637   5.133   2.700   3.252
 6913SOL    HW121638   5.063   2.746   3.196
 6913SOL    HW221639   5.221   2.703   3.205
 6914SOL     OW21640   3.707   1.978   2.140
 6914SOL    HW121641   3.663   2.043   2.078
 6914SOL    HW221642   3.804   1.969   2.116
 6915SOL     OW21643   4.965   3.138   1.991
 6915SOL    HW121644   4.887   3.078   1.979
 6915SOL    HW221645   4.988   3.145   2.088
 6916SOL     OW21646   5.247   3.711   2.932
 6916SOL    HW121647   5.281   3.768   2.856
 6916SOL    HW221648   5.323   3.661   2.972
 6917SOL     OW21649   4.523   2.366   3.517
 6917SOL    HW121650   4.557   2.439   3.576
 6917SOL    HW221651   4.516   2.281   3.568
 6918SOL     OW21652   5.253   3.014   3.507
 6918SOL    HW121653   5.249   3.040   3.604
 6918SOL    HW221654   5.342   3.036   3.469
 6919SOL     OW21655   4.052   3.554   3.439
 6919SOL    HW121656   3.985   3.628   3.431
 6919SOL    HW221657   4.018   3.486   3.504
 6920SOL     OW21658   5.355   2.728   3.090
 6920SOL    HW121659   5.361   2.638   3.045
 6920SOL    HW221660   5.343   2.799   3.020
 6921SOL     OW21661   4.943   2.186   2.302
 6921SOL    HW121662   5.000   2.104   2.302
 6921SOL    HW221663   4.966   2.242   2.382
 6922SOL     OW21664   5.457   2.214   3.553
 6922SOL    HW121665   5.480   2.216   3.455
 6922SOL    HW221666   5.382   2.149   3.568
 6923SOL     OW21667   5.472   2.781   3.330
 6923SOL    HW121668   5.468   2.879   3.347
 6923SOL    HW221669   5.436   2.762   3.239
 6924SOL     OW21670   4.764   2.849   2.786
 6924SOL    HW121671   4.765   2.755   2.821
 6924SOL    HW221672   4.789   2.912   2.860
 6925SOL     OW21673   5.551   3.406   2.736
 6925SOL    HW121674   5.480   3.412   2.666
 6925SOL    HW221675   5.518   3.350   2.812
 6926SOL     OW21676   3.926   3.024   3.776
 6926SOL    HW121677   3.888   2.961   3.707
 6926SOL    HW221678   3.851   3.073   3.821
 6927SOL     OW21679   3.809   3.044   2.458
 6927SOL    HW121680   3.884   3.053   2.524
 6927SOL    HW221681   3.843   3.006   2.373
 6928SOL     OW21682   5.605   2.009   3.121
 6928SOL    HW121683   5.668   1.933   3.136
 6928SOL    HW221684   5.585   2.016   3.023
 6929SOL     OW21685   4.167   2.211   2.443
 6929SOL    HW121686   4.167   2.207   2.343
 6929SOL    HW221687   4.075   2.194   2.477
 6930SOL     OW21688   5.406   3.307   2.949
 6930SOL    HW121689   5.325   3.301   2.890
 6930SOL    HW221690   5.399   3.238   3.021
 6931SOL     OW21691   4.166   2.248   3.176
 6931SOL    HW121692   4.220   2.316   3.226
 6931SOL    HW221693   4.178   2.263   3.078
 6932SOL     OW21694   5.183   2.106   2.970
 6932SOL    HW121695   5.197   2.008   2.984
 6932SOL    HW221696   5.126   2.143   3.043
 6933SOL     OW21697   4.768   1.874   2.943
 6933SOL    HW121698   4.705   1.815   2.892
 6933SOL    HW221699   4.858   1.831   2.946
 6934SOL     OW21700   5.097   1.889   2.045
 6934SOL    HW121701   5.146   1.815   1.999
 6934SOL    HW221702   4.999   1.875   2.034
 6935SOL     OW21703   5.018   2.331   2.524
 6935SOL    HW121704   4.974   2.420   2.522
 6935SOL    HW221705   5.021   2.297   2.617
 6936SOL     OW21706   5.337   2.061   2.746
 6936SOL    HW121707   5.282   2.092   2.823
 6936SOL    HW221708   5.329   2.127   2.671
 6937SOL     OW21709   3.688   2.934   2.119
 6937SOL    HW121710   3.781   2.920   2.151
 6937SOL    HW221711   3.666   2.866   2.048
 6938SOL     OW21712   3.925   2.136   4.729
 6938SOL    HW121713   3.945   2.098   4.820
 6938SOL    HW221714   3.829   2.117   4.706
 6939SOL     OW21715   3.751   2.108   4.402
 6939SOL    HW121716   3.697   2.096   4.486
 6939SOL    HW221717   3.696   2.083   4.323
 6940SOL     OW21718   5.323   3.404   4.422
 6940SOL    HW121719   5.281   3.374   4.508
 6940SOL    HW221720   5.254   3.404   4.350
 6941SOL     OW21721   4.871   2.584   4.382
 6941SOL    HW121722   4.927   2.662   4.353
 6941SOL    HW221723   4.825   2.606   4.468
 6942SOL     OW21724   5.522   2.431   3.943
 6942SOL    HW121725   5.483   2.442   3.851
 6942SOL    HW221726   5.467   2.365   3.994
 6943SOL     OW21727   4.666   2.586   5.514
 6943SOL    HW121728   4.687   2.658   5.579
 6943SOL    HW221729   4.655   2.625   5.423
 6944SOL     OW21730   4.427   2.986   5.606
 6944SOL    HW121731   4.500   3.043   5.645
 6944SOL    HW221732   4.355   3.045   5.570
 6945SOL     OW21733   4.000   3.387   4.818
 6945SOL    HW121734   3.917   3.337   4.794
 6945SOL    HW221735   4.062   3.388   4.739
 6946SOL     OW21736   5.193   3.373   5.064
 6946SOL    HW121737   5.252   3.450   5.089
 6946SOL    HW221738   5.116   3.368   5.128
 6947SOL     OW21739   4.086   2.285   5.343
 6947SOL    HW121740   4.132   2.358   5.293
 6947SOL    HW221741   4.031   2.231   5.280
 6948SOL     OW21742   5.303   2.295   4.454
 6948SOL    HW121743   5.228   2.294   4.388
 6948SOL    HW221744   5.286   2.366   4.523
 6949SOL     OW21745   3.902   3.567   4.259
 6949SOL    HW121746   3.921   3.643   4.321
 6949SOL    HW221747   3.987   3.539   4.214
 6950SOL     OW21748   4.885   3.240   5.469
 6950SOL    HW121749   4.903   3.205   5.561
 6950SOL    HW221750   4.811   3.187   5.427
 6951SOL     OW21751   3.811   3.314   4.297
 6951SOL    HW121752   3.824   3.413   4.291
 6951SOL    HW221753   3.877   3.276   4.362
 6952SOL     OW21754   3.965   3.005   4.580
 6952SOL    HW121755   4.002   2.934   4.640
 6952SOL    HW221756   3.898   3.060   4.630
 6953SOL     OW21757   4.240   3.551   5.134
 6953SOL    HW121758   4.186   3.558   5.218
 6953SOL    HW221759   4.337   3.563   5.156
 6954SOL     OW21760   5.406   1.950   5.249
 6954SOL    HW121761   5.431   2.033   5.199
 6954SOL    HW221762   5.336   1.972   5.317
 6955SOL     OW21763   5.594   3.591   4.055
 6955SOL    HW121764   5.675   3.581   4.114
 6955SOL    HW221765   5.581   3.688   4.034
 6956SOL     OW21766   3.742   3.454   3.816
 6956SOL    HW121767   3.659   3.399   3.813
 6956SOL    HW221768   3.750   3.498   3.905
 6957SOL     OW21769   5.451   2.788   4.387
 6957SOL    HW121770   5.532   2.731   4.370
 6957SOL    HW221771   5.441   2.854   4.313
 6958SOL     OW21772   5.448   2.989   4.189
 6958SOL    HW121773   5.529   2.960   4.137
 6958SOL    HW221774   5.467   3.075   4.235
 6959SOL     OW21775   3.788   2.596   5.337
 6959SOL    HW121776   3.881   2.608   5.303
 6959SOL    HW221777   3.733   2.675   5.311
 6960SOL     OW21778   4.984   3.046   5.149
 6960SOL    HW121779   5.016   2.986   5.076
 6960SOL    HW221780   5.055   3.055   5.219
 6961SOL     OW21781   4.589   1.848   4.260
 6961SOL    HW121782   4.636   1.925   4.218
 6961SOL    HW221783   4.491   1.869   4.268
 6962SOL     OW21784   3.832   2.887   5.030
 6962SOL    HW121785   3.895   2.809   5.022
 6962SOL    HW221786   3.741   2.860   5.000
 6963SOL     OW21787   5.345   2.873   3.946
 6963SOL    HW121788   5.282   2.799   3.968
 6963SOL    HW221789   5.378   2.915   4.031
 6964SOL     OW21790   4.855   3.671   5.375
 6964SOL    HW121791   4.912   3.727   5.315
 6964SOL    HW221792   4.784   3.626   5.322
 6965SOL     OW21793   4.033   2.096   5.531
 6965SOL    HW121794   4.073   2.166   5.473
 6965SOL    HW221795   3.938   2.120   5.552
 6966SOL     OW21796   5.218   3.297   4.651
 6966SOL    HW121797   5.144   3.336   4.706
 6966SOL    HW221798   5.196   3.203   4.627
 6967SOL     OW21799   5.334   3.697   4.289
 6967SOL    HW121800   5.334   3.637   4.209
 6967SOL    HW221801   5.336   3.641   4.372
 6968SOL     OW21802   5.030   2.254   4.659
 6968SOL    HW121803   4.941   2.210   4.652
 6968SOL    HW221804   5.086   2.206   4.727
 6969SOL     OW21805   5.323   3.533   4.062
 6969SOL    HW121806   5.423   3.536   4.062
 6969SOL    HW221807   5.290   3.527   3.968
 6970SOL     OW21808   4.571   2.293   5.179
 6970SOL    HW121809   4.566   2.294   5.279
 6970SOL    HW221810   4.509   2.362   5.142
 6971SOL     OW21811   5.099   2.301   5.391
 6971SOL    HW121812   5.108   2.351   5.477
 6971SOL    HW221813   5.148   2.214   5.398
 6972SOL     OW21814   4.655   2.710   5.254
 6972SOL    HW121815   4.695   2.630   5.209
 6972SOL    HW221816   4.676   2.792   5.201
 6973SOL     OW21817   4.701   2.192   4.963
 6973SOL    HW121818   4.668   2.221   5.052
 6973SOL    HW221819   4.625   2.190   4.897
 6974SOL     OW21820   4.774   2.548   4.122
 6974SOL    HW121821   4.801   2.558   4.217
 6974SOL    HW221822   4.691   2.493   4.116
 6975SOL     OW21823   3.878   3.772   5.303
 6975SOL    HW121824   3.855   3.748   5.397
 6975SOL    HW221825   3.795   3.771   5.247
 6976SOL     OW21826   4.620   2.172   3.916
 6976SOL    HW121827   4.676   2.227   3.853
 6976SOL    HW221828   4.558   2.114   3.864
 6977SOL     OW21829   5.405   2.447   5.572
 6977SOL    HW121830   5.389   2.526   5.514
 6977SOL    HW221831   5.417   2.366   5.515
 6978SOL     OW21832   5.192   3.008   4.301
 6978SOL    HW121833   5.283   3.006   4.259
 6978SOL    HW221834   5.134   3.073   4.252
 6979SOL     OW21835   4.259   1.974   4.654
 6979SOL    HW121836   4.264   1.982   4.753
 6979SOL    HW221837   4.279   2.062   4.612
 6980SOL     OW21838   4.088   3.658   4.641
 6980SOL    HW121839   4.127   3.568   4.620
 6980SOL    HW221840   4.105   3.680   4.737
 6981SOL     OW21841   5.530   2.891   4.630
 6981SOL    HW121842   5.488   2.865   4.544
 6981SOL    HW221843   5.459   2.910   4.698
 6982SOL     OW21844   4.987   3.376   5.240
 6982SOL    HW121845   4.952   3.328   5.320
 6982SOL    HW221846   4.912   3.425   5.195
 6983SOL     OW21847   5.236   2.615   4.409
 6983SOL    HW121848   5.223   2.573   4.500
 6983SOL    HW221849   5.314   2.677   4.412
 6984SOL     OW21850   4.219   3.165   5.526
 6984SOL    HW121851   4.195   3.169   5.429
 6984SOL    HW221852   4.140   3.132   5.578
 6985SOL     OW21853   4.904   3.687   3.889
 6985SOL    HW121854   4.805   3.701   3.895
 6985SOL    HW221855   4.923   3.613   3.824
 6986SOL     OW21856   3.904   2.106   5.221
 6986SOL    HW121857   3.813   2.141   5.200
 6986SOL    HW221858   3.895   2.024   5.279
 6987SOL     OW21859   5.406   3.287   3.821
 6987SOL    HW121860   5.343   3.366   3.817
 6987SOL    HW221861   5.356   3.204   3.799
 6988SOL     OW21862   4.141   3.515   4.133
 6988SOL    HW121863   4.155   3.613   4.120
 6988SOL    HW221864   4.152   3.468   4.045
 6989SOL     OW21865   5.127   1.958   4.179
 6989SOL    HW121866   5.121   1.931   4.083
 6989SOL    HW221867   5.217   1.935   4.215
 6990SOL     OW21868   4.090   3.633   4.919
 6990SOL    HW121869   4.153   3.613   4.994
 6990SOL    HW221870   4.046   3.548   4.889
 6991SOL     OW21871   5.219   2.046   5.435
 6991SOL    HW121872   5.222   2.063   5.533
 6991SOL    HW221873   5.154   1.972   5.415
 6992SOL     OW21874   4.414   1.944   3.836
 6992SOL    HW121875   4.485   1.878   3.861
 6992SOL    HW221876   4.350   1.902   3.772
 6993SOL     OW21877   4.500   2.108   5.613
 6993SOL    HW121878   4.571   2.055   5.567
 6993SOL    HW221879   4.427   2.046   5.644
 6994SOL     OW21880   5.029   2.424   5.153
 6994SOL    HW121881   5.061   2.389   5.240
 6994SOL    HW221882   5.064   2.518   5.140
 6995SOL     OW21883   4.720   2.339   4.571
 6995SOL    HW121884   4.695   2.323   4.476
 6995SOL    HW221885   4.743   2.253   4.615
 6996SOL     OW21886   4.321   1.897   4.257
 6996SOL    HW121887   4.242   1.901   4.318
 6996SOL    HW221888   4.315   1.971   4.190
 6997SOL     OW21889   5.249   3.066   3.778
 6997SOL    HW121890   5.287   2.991   3.831
 6997SOL    HW221891   5.162   3.095   3.819
 6998SOL     OW21892   4.037   1.876   3.922
 6998SOL    HW121893   4.079   1.946   3.864
 6998SOL    HW221894   4.107   1.830   3.976
 6999SOL     OW21895   4.717   2.062   4.150
 6999SOL    HW121896   4.679   2.095   4.063
 6999SOL    HW221897   4.811   2.095   4.160
 7000SOL     OW21898   4.764   2.493   5.126
 7000SOL    HW121899   4.705   2.416   5.151
 7000SOL    HW221900   4.859   2.466   5.137
 7001SOL     OW21901   4.943   3.432   4.530
 7001SOL    HW121902   4.952   3.504   4.461
 7001SOL    HW221903   4.963   3.470   4.620
 7002SOL     OW21904   4.034   3.230   4.443
 7002SOL    HW121905   4.024   3.139   4.484
 7002SOL    HW221906   4.084   3.222   4.357
 7003SOL     OW21907   4.950   3.617   4.310
 7003SOL    HW121908   4.998   3.695   4.270
 7003SOL    HW221909   4.852   3.630   4.302
 7004SOL     OW21910   4.768   2.345   3.762
 7004SOL    HW121911   4.730   2.432   3.729
 7004SOL    HW221912   4.835   2.364   3.835
 7005SOL     OW21913   4.261   1.967   4.923
 7005SOL    HW121914   4.332   1.990   4.990
 7005SOL    HW221915   4.177   2.018   4.946
 7006SOL     OW21916   4.645   2.272   4.322
 7006SOL    HW121917   4.605   2.329   4.251
 7006SOL    HW221918   4.671   2.184   4.283
 7007SOL     OW21919   4.766   1.871   4.480
 7007SOL    HW121920   4.699   1.876   4.405
 7007SOL    HW221921   4.734   1.805   4.548
 7008SOL     OW21922   5.164   3.035   4.583
 7008SOL    HW121923   5.068   3.062   4.590
 7008SOL    HW221924   5.186   3.014   4.487
 7009SOL     OW21925   5.202   2.473   4.648
 7009SOL    HW121926   5.133   2.402   4.659
 7009SOL    HW221927   5.262   2.474   4.727
 7010SOL     OW21928   5.570   2.651   4.102
 7010SOL    HW121929   5.618   2.608   4.179
 7010SOL    HW221930   5.539   2.580   4.039
 7011SOL     OW21931   4.135   3.329   3.926
 7011SOL    HW121932   4.045   3.306   3.962
 7011SOL    HW221933   4.144   3.293   3.833
 7012SOL     OW21934   5.508   3.214   4.320
 7012SOL    HW121935   5.598   3.220   4.363
 7012SOL    HW221936   5.449   3.286   4.356
 7013SOL     OW21937   5.121   2.422   3.780
 7013SOL    HW121938   5.069   2.393   3.861
 7013SOL    HW221939   5.219   2.413   3.800
 7014SOL     OW21940   4.306   2.081   4.059
 7014SOL    HW121941   4.339   2.036   3.976
 7014SOL    HW221942   4.307   2.180   4.046
 7015SOL     OW21943   5.469   3.083   5.242
 7015SOL    HW121944   5.560   3.046   5.222
 7015SOL    HW221945   5.479   3.174   5.284
 7016SOL     OW21946   4.861   3.252   4.993
 7016SOL    HW121947   4.825   3.337   5.031
 7016SOL    HW221948   4.908   3.201   5.066
 7017SOL     OW21949   5.363   3.499   5.399
 7017SOL    HW121950   5.331   3.534   5.311
 7017SOL    HW221951   5.436   3.432   5.384
 7018SOL     OW21952   4.836   3.056   4.805
 7018SOL    HW121953   4.831   3.127   4.875
 7018SOL    HW221954   4.864   3.097   4.718
 7019SOL     OW21955   5.322   2.949   4.801
 7019SOL    HW121956   5.319   3.019   4.873
 7019SOL    HW221957   5.255   2.972   4.731
 7020SOL     OW21958   4.702   1.873   5.092
 7020SOL    HW121959   4.723   1.866   4.995
 7020SOL    HW221960   4.770   1.931   5.137
 7021SOL     OW21961   4.658   2.912   5.461
 7021SOL    HW121962   4.567   2.933   5.496
 7021SOL    HW221963   4.650   2.857   5.378
 7022SOL     OW21964   4.971   2.200   5.006
 7022SOL    HW121965   4.992   2.286   5.051
 7022SOL    HW221966   4.875   2.200   4.977
 7023SOL     OW21967   3.819   3.396   5.116
 7023SOL    HW121968   3.790   3.462   5.048
 7023SOL    HW221969   3.919   3.384   5.112
 7024SOL     OW21970   3.939   2.992   4.117
 7024SOL    HW121971   3.934   3.089   4.092
 7024SOL    HW221972   4.027   2.954   4.086
 7025SOL     OW21973   4.307   2.242   4.553
 7025SOL    HW121974   4.283   2.255   4.457
 7025SOL    HW221975   4.369   2.315   4.582
 7026SOL     OW21976   5.012   3.175   4.177
 7026SOL    HW121977   5.046   3.266   4.200
 7026SOL    HW221978   4.934   3.153   4.235
 7027SOL     OW21979   5.036   3.398   4.834
 7027SOL    HW121980   5.103   3.402   4.908
 7027SOL    HW221981   4.954   3.351   4.866
 7028SOL     OW21982   5.246   2.476   4.168
 7028SOL    HW121983   5.244   2.512   4.261
 7028SOL    HW221984   5.218   2.548   4.104
 7029SOL     OW21985   4.085   3.336   5.072
 7029SOL    HW121986   4.064   3.336   4.974
 7029SOL    HW221987   4.154   3.405   5.091
 7030SOL     OW21988   5.358   2.665   5.419
 7030SOL    HW121989   5.262   2.694   5.413
 7030SOL    HW221990   5.407   2.698   5.338
 7031SOL     OW21991   4.707   1.967   5.502
 7031SOL    HW121992   4.753   2.048   5.465
 7031SOL    HW221993   4.775   1.902   5.537
 7032SOL     OW21994   4.201   1.886   5.465
 7032SOL    HW121995   4.158   1.827   5.397
 7032SOL    HW221996   4.146   1.969   5.477
 7033SOL     OW21997   5.025   2.669   4.749
 7033SOL    HW121998   4.933   2.640   4.723
 7033SOL    HW221999   5.092   2.608   4.706
 7034SOL     OW22000   4.938   2.374   3.982
 7034SOL    HW122001   4.954   2.298   4.044
 7034SOL    HW222002   4.889   2.447   4.030
 7035SOL     OW22003   3.989   2.031   4.971
 7035SOL    HW122004   3.965   2.064   5.062
 7035SOL    HW222005   3.972   1.932   4.967
 7036SOL     OW22006   3.804   3.161   4.962
 7036SOL    HW122007   3.826   3.072   5.001
 7036SOL    HW222008   3.804   3.231   5.034
 7037SOL     OW22009   4.480   2.432   4.661
 7037SOL    HW122010   4.568   2.405   4.622
 7037SOL    HW222011   4.493   2.506   4.726
 7038SOL     OW22012   5.488   2.838   5.591
 7038SOL    HW122013   5.441   2.770   5.535
 7038SOL    HW222014   5.430   2.863   5.668
 7039SOL     OW22015   4.075   1.899   4.391
 7039SOL    HW122016   4.049   1.994   4.410
 7039SOL    HW222017   4.070   1.846   4.476
 7040SOL     OW22018   5.335   2.251   4.047
 7040SOL    HW122019   5.382   2.192   4.112
 7040SOL    HW222020   5.293   2.328   4.096
 7041SOL     OW22021   4.768   2.589   4.674
 7041SOL    HW122022   4.712   2.594   4.757
 7041SOL    HW222023   4.762   2.497   4.635
 7042SOL     OW22024   5.568   3.333   5.315
 7042SOL    HW122025   5.589   3.358   5.221
 7042SOL    HW222026   5.646   3.356   5.374
 7043SOL     OW22027   4.069   2.702   5.504
 7043SOL    HW122028   4.158   2.671   5.537
 7043SOL    HW222029   4.057   2.673   5.409
 7044SOL     OW22030   5.239   2.101   3.833
 7044SOL    HW122031   5.182   2.029   3.873
 7044SOL    HW222032   5.272   2.160   3.906
 7045SOL     OW22033   5.045   2.683   3.766
 7045SOL    HW122034   5.062   2.585   3.768
 7045SOL    HW222035   5.067   2.719   3.675
 7046SOL     OW22036   4.920   3.162   4.569
 7046SOL    HW122037   4.885   3.115   4.488
 7046SOL    HW222038   4.922   3.261   4.552
 7047SOL     OW22039   4.181   2.240   4.797
 7047SOL    HW122040   4.082   2.226   4.789
 7047SOL    HW222041   4.220   2.250   4.705
 7048SOL     OW22042   4.847   2.194   5.422
 7048SOL    HW122043   4.796   2.251   5.487
 7048SOL    HW222044   4.937   2.235   5.406
 7049SOL     OW22045   4.897   2.027   5.209
 7049SOL    HW122046   4.867   2.088   5.283
 7049SOL    HW222047   4.931   2.082   5.133
 7050SOL     OW22048   3.704   3.138   3.896
 7050SOL    HW122049   3.631   3.198   3.866
 7050SOL    HW222050   3.666   3.065   3.954
 7051SOL     OW22051   3.814   3.628   4.676
 7051SOL    HW122052   3.780   3.543   4.634
 7051SOL    HW222053   3.911   3.639   4.654
 7052SOL     OW22054   4.167   3.401   4.603
 7052SOL    HW122055   4.264   3.375   4.600
 7052SOL    HW222056   4.116   3.344   4.538
 7053SOL     OW22057   4.610   2.564   4.900
 7053SOL    HW122058   4.685   2.545   4.964
 7053SOL    HW222059   4.523   2.561   4.950
 7054SOL     OW22060   3.903   2.417   5.507
 7054SOL    HW122061   3.981   2.383   5.454
 7054SOL    HW222062   3.852   2.483   5.453
 7055SOL     OW22063   5.114   2.775   5.367
 7055SOL    HW122064   5.133   2.873   5.362
 7055SOL    HW222065   5.097   2.739   5.275
 7056SOL     OW22066   4.560   2.383   4.085
 7056SOL    HW122067   4.589   2.310   4.023
 7056SOL    HW222068   4.460   2.391   4.082
 7057SOL     OW22069   5.368   2.466   4.864
 7057SOL    HW122070   5.335   2.401   4.933
 7057SOL    HW222071   5.468   2.460   4.857
 7058SOL     OW22072   3.941   3.368   5.509
 7058SOL    HW122073   3.887   3.401   5.587
 7058SOL    HW222074   3.968   3.273   5.525
 7059SOL     OW22075   4.457   2.226   4.842
 7059SOL    HW122076   4.359   2.212   4.859
 7059SOL    HW222077   4.469   2.303   4.780
 7060SOL     OW22078   4.290   2.358   4.068
 7060SOL    HW122079   4.230   2.424   4.023
 7060SOL    HW222080   4.254   2.337   4.159
 7061SOL     OW22081   3.853   3.018   5.269
 7061SOL    HW122082   3.860   2.963   5.352
 7061SOL    HW222083   3.857   2.958   5.189
 7062SOL     OW22084   5.003   2.873   4.926
 7062SOL    HW122085   5.021   2.800   4.860
 7062SOL    HW222086   4.941   2.940   4.886
 7063SOL     OW22087   5.148   2.695   4.025
 7063SOL    HW122088   5.086   2.725   4.098
 7063SOL    HW222089   5.098   2.692   3.939
 7064SOL     OW22090   5.500   3.558   4.879
 7064SOL    HW122091   5.571   3.591   4.817
 7064SOL    HW222092   5.472   3.466   4.852
 7065SOL     OW22093   5.030   3.694   4.796
 7065SOL    HW122094   5.119   3.667   4.758
 7065SOL    HW222095   4.987   3.615   4.841
 7066SOL     OW22096   3.761   3.143   4.700
 7066SOL    HW122097   3.773   3.157   4.798
 7066SOL    HW222098   3.716   3.055   4.684
 7067SOL     OW22099   4.472   3.560   5.441
 7067SOL    HW122100   4.405   3.634   5.433
 7067SOL    HW222101   4.541   3.569   5.369
 7068SOL     OW22102   5.497   2.076   4.190
 7068SOL    HW122103   5.548   2.053   4.106
 7068SOL    HW222104   5.453   1.994   4.226
 7069SOL     OW22105   5.127   3.421   4.226
 7069SOL    HW122106   5.190   3.460   4.158
 7069SOL    HW222107   5.061   3.490   4.253
 7070SOL     OW22108   3.830   3.680   5.551
 7070SOL    HW122109   3.785   3.596   5.581
 7070SOL    HW222110   3.895   3.709   5.622
 7071SOL     OW22111   5.052   2.776   4.290
 7071SOL    HW122112   5.112   2.707   4.331
 7071SOL    HW222113   5.097   2.865   4.293
 7072SOL     OW22114   5.361   3.582   5.120
 7072SOL    HW122115   5.408   3.581   5.032
 7072SOL    HW222116   5.371   3.672   5.162
 7073SOL     OW22117   5.575   2.003   4.713
 7073SOL    HW122118   5.602   1.912   4.682
 7073SOL    HW222119   5.489   2.029   4.670
 7074SOL     OW22120   4.005   2.153   4.463
 7074SOL    HW122121   3.911   2.147   4.429
 7074SOL    HW222122   4.003   2.160   4.563
 7075SOL     OW22123   4.975   3.497   3.702
 7075SOL    HW122124   4.952   3.401   3.687
 7075SOL    HW222125   4.962   3.547   3.617
 7076SOL     OW22126   4.730   2.933   5.118
 7076SOL    HW122127   4.699   2.969   5.030
 7076SOL    HW222128   4.816   2.977   5.143
 7077SOL     OW22129   4.702   2.697   3.899
 7077SOL    HW122130   4.758   2.780   3.892
 7077SOL    HW222131   4.724   2.649   3.984
 7078SOL     OW22132   5.241   3.521   3.790
 7078SOL    HW122133   5.143   3.509   3.771
 7078SOL    HW222134   5.292   3.524   3.705
 7079SOL     OW22135   4.094   3.163   5.283
 7079SOL    HW122136   4.096   3.226   5.205
 7079SOL    HW222137   4.009   3.112   5.283
 7080SOL     OW22138   5.334   3.144   5.002
 7080SOL    HW122139   5.379   3.116   5.087
 7080SOL    HW222140   5.272   3.220   5.022
 7081SOL     OW22141   4.855   2.986   4.368
 7081SOL    HW122142   4.810   2.943   4.446
 7081SOL    HW222143   4.903   2.915   4.315
 7082SOL     OW22144   4.806   2.090   4.657
 7082SOL    HW122145   4.798   2.021   4.585
 7082SOL    HW222146   4.786   2.049   4.746
 7083SOL     OW22147   4.158   3.251   4.208
 7083SOL    HW122148   4.180   3.218   4.116
 7083SOL    HW222149   4.154   3.351   4.207
 7084SOL     OW22150   5.520   2.196   5.155
 7084SOL    HW122151   5.576   2.279   5.146
 7084SOL    HW222152   5.548   2.129   5.087
 7085SOL     OW22153   3.899   3.254   4.043
 7085SOL    HW122154   3.823   3.228   3.984
 7085SOL    HW222155   3.863   3.282   4.132
 7086SOL     OW22156   3.859   2.879   5.501
 7086SOL    HW122157   3.774   2.848   5.544
 7086SOL    HW222158   3.928   2.806   5.508
 7087SOL     OW22159   4.457   2.006   5.120
 7087SOL    HW122160   4.545   1.962   5.105
 7087SOL    HW222161   4.471   2.103   5.140
 7088SOL     OW22162   3.814   2.121   3.738
 7088SOL    HW122163   3.760   2.093   3.658
 7088SOL    HW222164   3.797   2.217   3.758
 7089SOL     OW22165   5.111   2.688   5.106
 7089SOL    HW122166   5.046   2.744   5.054
 7089SOL    HW222167   5.202   2.696   5.066
 7090SOL     OW22168   3.783   1.961   3.965
 7090SOL    HW122169   3.771   2.020   3.885
 7090SOL    HW222170   3.878   1.930   3.969
 7091SOL     OW22171   5.011   3.128   3.902
 7091SOL    HW122172   4.961   3.042   3.891
 7091SOL    HW222173   5.012   3.153   3.999
 7092SOL     OW22174   4.434   2.526   5.119
 7092SOL    HW122175   4.464   2.603   5.177
 7092SOL    HW222176   4.339   2.503   5.143
 7093SOL     OW22177   5.289   3.662   4.709
 7093SOL    HW122178   5.302   3.758   4.685
 7093SOL    HW222179   5.357   3.635   4.777
 7094SOL     OW22180   4.553   2.326   5.443
 7094SOL    HW122181   4.574   2.414   5.487
 7094SOL    HW222182   4.519   2.262   5.512
 7095SOL     OW22183   5.197   3.035   5.345
 7095SOL    HW122184   5.184   3.067   5.438
 7095SOL    HW222185   5.290   3.059   5.314
 7096SOL     OW22186   4.062   3.559   5.343
 7096SOL    HW122187   3.991   3.626   5.321
 7096SOL    HW222188   4.023   3.485   5.398
 7097SOL     OW22189   5.349   2.727   4.968
 7097SOL    HW122190   5.356   2.641   4.918
 7097SOL    HW222191   5.335   2.802   4.904
 7098SOL     OW22192   4.965   2.178   4.177
 7098SOL    HW122193   5.029   2.102   4.179
 7098SOL    HW222194   4.982   2.238   4.255
 7099SOL     OW22195   5.438   2.218   5.419
 7099SOL    HW122196   5.467   2.217   5.323
 7099SOL    HW222197   5.361   2.156   5.432
 7100SOL     OW22198   5.474   2.786   5.204
 7100SOL    HW122199   5.457   2.883   5.225
 7100SOL    HW222200   5.433   2.763   5.116
 7101SOL     OW22201   4.771   2.863   4.599
 7101SOL    HW122202   4.760   2.768   4.629
 7101SOL    HW222203   4.777   2.923   4.679
 7102SOL     OW22204   4.888   2.894   3.833
 7102SOL    HW122205   4.853   2.930   3.746
 7102SOL    HW222206   4.946   2.815   3.815
 7103SOL     OW22207   5.552   3.427   4.577
 7103SOL    HW122208   5.476   3.432   4.513
 7103SOL    HW222209   5.529   3.366   4.653
 7104SOL     OW22210   3.965   3.106   5.612
 7104SOL    HW122211   3.940   3.022   5.563
 7104SOL    HW222212   3.897   3.125   5.682
 7105SOL     OW22213   3.808   2.969   4.358
 7105SOL    HW122214   3.870   2.974   4.436
 7105SOL    HW222215   3.860   2.975   4.273
 7106SOL     OW22216   4.468   3.296   5.529
 7106SOL    HW122217   4.379   3.255   5.509
 7106SOL    HW222218   4.475   3.384   5.481
 7107SOL     OW22219   5.599   2.003   4.986
 7107SOL    HW122220   5.660   1.926   4.999
 7107SOL    HW222221   5.579   2.013   4.888
 7108SOL     OW22222   4.197   2.238   4.293
 7108SOL    HW122223   4.213   2.158   4.236
 7108SOL    HW222224   4.121   2.219   4.355
 7109SOL     OW22225   5.439   3.307   4.801
 7109SOL    HW122226   5.357   3.306   4.744
 7109SOL    HW222227   5.430   3.240   4.875
 7110SOL     OW22228   5.167   2.105   4.843
 7110SOL    HW122229   5.179   2.006   4.853
 7110SOL    HW222230   5.100   2.137   4.910
 7111SOL     OW22231   4.778   1.845   4.825
 7111SOL    HW122232   4.709   1.797   4.770
 7111SOL    HW222233   4.868   1.806   4.807
 7112SOL     OW22234   5.100   1.878   3.918
 7112SOL    HW122235   5.149   1.809   3.865
 7112SOL    HW222236   5.004   1.852   3.927
 7113SOL     OW22237   5.016   2.339   4.392
 7113SOL    HW122238   4.963   2.424   4.383
 7113SOL    HW222239   5.014   2.308   4.487
 7114SOL     OW22240   5.329   2.070   4.621
 7114SOL    HW122241   5.272   2.098   4.698
 7114SOL    HW222242   5.322   2.137   4.548
 7115SOL     OW22243   3.686   2.900   4.045
 7115SOL    HW122244   3.781   2.918   4.071
 7115SOL    HW222245   3.684   2.851   3.958
 7116SOL     OW22246   3.915   2.531   5.761
 7116SOL    HW122247   3.822   2.506   5.788
 7116SOL    HW222248   3.928   2.512   5.663
 7117SOL     OW22249   3.938   2.132   6.571
 7117SOL    HW122250   3.973   2.105   6.661
 7117SOL    HW222251   3.840   2.111   6.566
 7118SOL     OW22252   3.719   2.262   6.227
 7118SOL    HW122253   3.636   2.286   6.278
 7118SOL    HW222254   3.694   2.202   6.151
 7119SOL     OW22255   4.279   3.067   6.823
 7119SOL    HW122256   4.211   3.097   6.757
 7119SOL    HW222257   4.276   3.125   6.904
 7120SOL     OW22258   5.312   3.367   6.303
 7120SOL    HW122259   5.249   3.332   6.373
 7120SOL    HW222260   5.260   3.393   6.222
 7121SOL     OW22261   4.878   2.581   6.268
 7121SOL    HW122262   4.922   2.665   6.236
 7121SOL    HW222263   4.835   2.598   6.357
 7122SOL     OW22264   5.506   2.466   5.823
 7122SOL    HW122265   5.478   2.474   5.728
 7122SOL    HW222266   5.450   2.396   5.868
 7123SOL     OW22267   4.473   2.985   6.645
 7123SOL    HW122268   4.401   3.005   6.713
 7123SOL    HW222269   4.492   3.068   6.592
 7124SOL     OW22270   4.413   2.831   6.255
 7124SOL    HW122271   4.486   2.844   6.322
 7124SOL    HW222272   4.344   2.902   6.266
 7125SOL     OW22273   4.088   3.208   6.668
 7125SOL    HW122274   3.996   3.178   6.640
 7125SOL    HW222275   4.123   3.273   6.601
 7126SOL     OW22276   5.303   2.319   6.345
 7126SOL    HW122277   5.225   2.321   6.283
 7126SOL    HW222278   5.292   2.390   6.414
 7127SOL     OW22279   3.948   3.620   6.057
 7127SOL    HW122280   3.983   3.684   6.125
 7127SOL    HW222281   4.020   3.599   5.991
 7128SOL     OW22282   3.906   3.365   6.145
 7128SOL    HW122283   3.917   3.461   6.119
 7128SOL    HW222284   3.853   3.359   6.229
 7129SOL     OW22285   4.009   2.966   6.447
 7129SOL    HW122286   4.034   2.877   6.483
 7129SOL    HW222287   3.950   3.014   6.512
 7130SOL     OW22288   4.313   3.749   6.974
 7130SOL    HW122289   4.241   3.695   0.017
 7130SOL    HW222290   4.369   3.792   0.044
 7131SOL     OW22291   4.298   2.836   5.811
 7131SOL    HW122292   4.332   2.872   5.724
 7131SOL    HW222293   4.355   2.869   5.885
 7132SOL     OW22294   3.830   2.518   6.201
 7132SOL    HW122295   3.799   2.424   6.212
 7132SOL    HW222296   3.829   2.564   6.290
 7133SOL     OW22297   5.582   3.613   5.889
 7133SOL    HW122298   5.660   3.599   5.950
 7133SOL    HW222299   5.576   3.709   5.863
 7134SOL     OW22300   3.752   3.449   5.689
 7134SOL    HW122301   3.676   3.384   5.688
 7134SOL    HW222302   3.747   3.506   5.771
 7135SOL     OW22303   5.432   2.809   6.220
 7135SOL    HW122304   5.476   2.745   6.157
 7135SOL    HW222305   5.404   2.891   6.170
 7136SOL     OW22306   5.398   3.007   6.021
 7136SOL    HW122307   5.476   2.966   5.975
 7136SOL    HW222308   5.429   3.082   6.081
 7137SOL     OW22309   4.324   3.244   6.311
 7137SOL    HW122310   4.280   3.156   6.295
 7137SOL    HW222311   4.334   3.293   6.224
 7138SOL     OW22312   4.558   1.898   6.083
 7138SOL    HW122313   4.606   1.980   6.053
 7138SOL    HW222314   4.459   1.917   6.086
 7139SOL     OW22315   3.822   2.801   6.830
 7139SOL    HW122316   3.873   2.759   6.756
 7139SOL    HW222317   3.725   2.777   6.822
 7140SOL     OW22318   5.287   2.895   5.791
 7140SOL    HW122319   5.223   2.822   5.817
 7140SOL    HW222320   5.318   2.942   5.874
 7141SOL     OW22321   5.129   3.280   6.496
 7141SOL    HW122322   5.085   3.293   6.584
 7141SOL    HW222323   5.125   3.183   6.471
 7142SOL     OW22324   5.352   3.723   6.114
 7142SOL    HW122325   5.343   3.656   6.040
 7142SOL    HW222326   5.370   3.676   6.200
 7143SOL     OW22327   4.289   2.579   5.923
 7143SOL    HW122328   4.291   2.669   5.879
 7143SOL    HW222329   4.220   2.579   5.995
 7144SOL     OW22330   5.007   2.286   6.530
 7144SOL    HW122331   4.914   2.249   6.526
 7144SOL    HW222332   5.063   2.230   6.591
 7145SOL     OW22333   5.317   3.544   5.904
 7145SOL    HW122334   5.416   3.554   5.895
 7145SOL    HW222335   5.276   3.533   5.814
 7146SOL     OW22336   4.467   2.402   0.074
 7146SOL    HW122337   4.396   2.460   0.114
 7146SOL    HW222338   4.433   2.363   6.988
 7147SOL     OW22339   4.705   2.221   6.780
 7147SOL    HW122340   4.610   2.237   6.806
 7147SOL    HW222341   4.707   2.178   6.690
 7148SOL     OW22342   4.787   2.546   6.010
 7148SOL    HW122343   4.813   2.547   6.106
 7148SOL    HW222344   4.693   2.514   6.001
 7149SOL     OW22345   3.827   2.653   6.446
 7149SOL    HW122346   3.921   2.672   6.474
 7149SOL    HW222347   3.773   2.737   6.453
 7150SOL     OW22348   3.734   3.731   0.040
 7150SOL    HW122349   3.709   3.641   0.078
 7150SOL    HW222350   3.819   3.723   6.988
 7151SOL     OW22351   4.610   2.262   5.805
 7151SOL    HW122352   4.682   2.306   5.751
 7151SOL    HW222353   4.555   2.204   5.744
 7152SOL     OW22354   5.138   3.042   6.141
 7152SOL    HW122355   5.224   3.038   6.092
 7152SOL    HW222356   5.076   3.106   6.096
 7153SOL     OW22357   4.282   1.951   6.517
 7153SOL    HW122358   4.282   1.997   6.605
 7153SOL    HW222359   4.287   2.018   6.443
 7154SOL     OW22360   4.731   3.345   6.058
 7154SOL    HW122361   4.717   3.412   5.985
 7154SOL    HW222362   4.690   3.378   6.143
 7155SOL     OW22363   4.082   3.639   6.481
 7155SOL    HW122364   4.116   3.546   6.487
 7155SOL    HW222365   4.152   3.703   6.512
 7156SOL     OW22366   5.535   2.891   6.464
 7156SOL    HW122367   5.501   2.869   6.373
 7156SOL    HW222368   5.458   2.899   6.528
 7157SOL     OW22369   4.014   2.792   5.846
 7157SOL    HW122370   4.108   2.809   5.816
 7157SOL    HW222371   3.983   2.703   5.812
 7158SOL     OW22372   5.220   2.640   6.276
 7158SOL    HW122373   5.213   2.599   6.367
 7158SOL    HW222374   5.302   2.697   6.271
 7159SOL     OW22375   4.907   3.602   5.801
 7159SOL    HW122376   4.815   3.587   5.837
 7159SOL    HW222377   4.916   3.554   5.713
 7160SOL     OW22378   5.376   3.279   5.675
 7160SOL    HW122379   5.323   3.363   5.668
 7160SOL    HW222380   5.318   3.201   5.651
 7161SOL     OW22381   4.163   3.578   5.897
 7161SOL    HW122382   4.243   3.624   5.936
 7161SOL    HW222383   4.193   3.501   5.841
 7162SOL     OW22384   5.126   1.964   6.044
 7162SOL    HW122385   5.125   1.938   5.948
 7162SOL    HW222386   5.216   1.945   6.083
 7163SOL     OW22387   3.967   3.692   6.906
 7163SOL    HW122388   4.025   3.663   6.982
 7163SOL    HW222389   3.951   3.614   6.846
 7164SOL     OW22390   4.676   3.561   6.443
 7164SOL    HW122391   4.763   3.511   6.438
 7164SOL    HW222392   4.619   3.535   6.365
 7165SOL     OW22393   4.101   2.529   6.123
 7165SOL    HW122394   4.125   2.431   6.124
 7165SOL    HW222395   4.003   2.539   6.134
 7166SOL     OW22396   4.320   1.926   5.709
 7166SOL    HW122397   4.365   1.839   5.732
 7166SOL    HW222398   4.269   1.915   5.624
 7167SOL     OW22399   4.600   3.374   6.741
 7167SOL    HW122400   4.542   3.356   6.662
 7167SOL    HW222401   4.676   3.309   6.743
 7168SOL     OW22402   4.515   3.219   6.508
 7168SOL    HW122403   4.606   3.222   6.468
 7168SOL    HW222404   4.447   3.232   6.436
 7169SOL     OW22405   4.675   2.373   6.466
 7169SOL    HW122406   4.649   2.368   6.369
 7169SOL    HW222407   4.708   2.284   6.497
 7170SOL     OW22408   4.283   1.931   6.083
 7170SOL    HW122409   4.212   1.922   6.153
 7170SOL    HW222410   4.261   2.008   6.023
 7171SOL     OW22411   5.177   3.086   5.623
 7171SOL    HW122412   5.213   3.010   5.677
 7171SOL    HW222413   5.086   3.110   5.655
 7172SOL     OW22414   4.021   1.931   5.747
 7172SOL    HW122415   4.031   1.993   5.669
 7172SOL    HW222416   4.092   1.951   5.815
 7173SOL     OW22417   4.700   2.123   6.023
 7173SOL    HW122418   4.665   2.172   5.943
 7173SOL    HW222419   4.798   2.140   6.031
 7174SOL     OW22420   4.922   3.443   6.372
 7174SOL    HW122421   4.947   3.513   6.305
 7174SOL    HW222422   5.006   3.401   6.407
 7175SOL     OW22423   4.202   3.007   6.261
 7175SOL    HW122424   4.135   2.994   6.334
 7175SOL    HW222425   4.155   3.002   6.172
 7176SOL     OW22426   4.973   3.659   6.193
 7176SOL    HW122427   5.019   3.719   6.127
 7176SOL    HW222428   4.895   3.706   6.233
 7177SOL     OW22429   4.792   2.372   5.634
 7177SOL    HW122430   4.759   2.456   5.592
 7177SOL    HW222431   4.864   2.393   5.700
 7178SOL     OW22432   4.266   2.051   6.770
 7178SOL    HW122433   4.291   1.970   6.822
 7178SOL    HW222434   4.171   2.075   6.790
 7179SOL     OW22435   4.614   2.319   6.207
 7179SOL    HW122436   4.568   2.381   6.144
 7179SOL    HW222437   4.648   2.239   6.157
 7180SOL     OW22438   4.744   1.927   6.303
 7180SOL    HW122439   4.681   1.933   6.226
 7180SOL    HW222440   4.714   1.855   6.366
 7181SOL     OW22441   5.133   3.009   6.430
 7181SOL    HW122442   5.078   2.930   6.456
 7181SOL    HW222443   5.132   3.019   6.331
 7182SOL     OW22444   5.184   2.516   6.527
 7182SOL    HW122445   5.111   2.447   6.536
 7182SOL    HW222446   5.246   2.510   6.604
 7183SOL     OW22447   5.546   2.655   6.021
 7183SOL    HW122448   5.610   2.608   6.082
 7183SOL    HW222449   5.515   2.592   5.950
 7184SOL     OW22450   4.217   3.338   5.770
 7184SOL    HW122451   4.138   3.301   5.818
 7184SOL    HW222452   4.229   3.291   5.683
 7185SOL     OW22453   5.500   3.181   6.193
 7185SOL    HW122454   5.595   3.181   6.225
 7185SOL    HW222455   5.450   3.255   6.237
 7186SOL     OW22456   5.128   2.428   5.634
 7186SOL    HW122457   5.085   2.405   5.721
 7186SOL    HW222458   5.228   2.425   5.644
 7187SOL     OW22459   4.211   2.113   5.890
 7187SOL    HW122460   4.264   2.067   5.819
 7187SOL    HW222461   4.184   2.204   5.859
 7188SOL     OW22462   5.489   3.018   0.157
 7188SOL    HW122463   5.578   3.008   0.112
 7188SOL    HW222464   5.451   3.107   0.136
 7189SOL     OW22465   4.794   3.180   6.700
 7189SOL    HW122466   4.763   3.090   6.732
 7189SOL    HW222467   4.786   3.185   6.601
 7190SOL     OW22468   5.319   2.938   6.628
 7190SOL    HW122469   5.326   3.013   6.694
 7190SOL    HW222470   5.252   2.961   6.558
 7191SOL     OW22471   4.486   2.914   6.002
 7191SOL    HW122472   4.459   2.876   6.091
 7191SOL    HW222473   4.573   2.874   5.974
 7192SOL     OW22474   4.180   2.707   6.798
 7192SOL    HW122475   4.172   2.786   6.859
 7192SOL    HW222476   4.143   2.626   6.843
 7193SOL     OW22477   4.959   2.231   6.872
 7193SOL    HW122478   4.987   2.317   6.915
 7193SOL    HW222479   4.866   2.240   6.837
 7194SOL     OW22480   3.791   3.423   6.888
 7194SOL    HW122481   3.730   3.478   6.831
 7194SOL    HW222482   3.773   3.443   6.984
 7195SOL     OW22483   4.043   2.999   6.036
 7195SOL    HW122484   4.038   3.084   5.983
 7195SOL    HW222485   4.035   2.921   5.974
 7196SOL     OW22486   4.232   2.435   6.522
 7196SOL    HW122487   4.236   2.496   6.443
 7196SOL    HW222488   4.323   2.428   6.563
 7197SOL     OW22489   4.983   3.236   6.012
 7197SOL    HW122490   5.045   3.311   6.035
 7197SOL    HW222491   4.889   3.263   6.031
 7198SOL     OW22492   5.026   3.313   6.749
 7198SOL    HW122493   5.073   3.275   6.829
 7198SOL    HW222494   4.937   3.269   6.739
 7199SOL     OW22495   5.222   2.508   6.027
 7199SOL    HW122496   5.221   2.545   6.120
 7199SOL    HW222497   5.179   2.572   5.964
 7200SOL     OW22498   4.166   3.338   6.897
 7200SOL    HW122499   4.130   3.302   6.811
 7200SOL    HW222500   4.247   3.394   6.879
 7201SOL     OW22501   4.439   2.709   6.705
 7201SOL    HW122502   4.456   2.805   6.679
 7201SOL    HW222503   4.346   2.701   6.741
 7202SOL     OW22504   5.031   2.764   6.542
 7202SOL    HW122505   4.936   2.731   6.538
 7202SOL    HW222506   5.093   2.686   6.539
 7203SOL     OW22507   4.960   2.395   5.855
 7203SOL    HW122508   4.973   2.313   5.911
 7203SOL    HW222509   4.905   2.461   5.905
 7204SOL     OW22510   4.001   2.073   6.829
 7204SOL    HW122511   3.941   2.122   6.892
 7204SOL    HW222512   3.981   1.976   6.832
 7205SOL     OW22513   3.748   3.149   6.869
 7205SOL    HW122514   3.801   3.096   6.936
 7205SOL    HW222515   3.772   3.246   6.877
 7206SOL     OW22516   4.476   2.442   6.644
 7206SOL    HW122517   4.549   2.423   6.579
 7206SOL    HW222518   4.470   2.541   6.658
 7207SOL     OW22519   4.065   1.895   6.258
 7207SOL    HW122520   4.021   1.984   6.266
 7207SOL    HW222521   4.062   1.848   6.346
 7208SOL     OW22522   5.316   2.279   5.910
 7208SOL    HW122523   5.363   2.220   5.976
 7208SOL    HW222524   5.272   2.354   5.958
 7209SOL     OW22525   4.773   2.624   6.533
 7209SOL    HW122526   4.759   2.638   6.631
 7209SOL    HW222527   4.743   2.531   6.509
 7210SOL     OW22528   5.241   2.112   5.696
 7210SOL    HW122529   5.193   2.035   5.738
 7210SOL    HW222530   5.268   2.178   5.766
 7211SOL     OW22531   5.029   2.681   5.609
 7211SOL    HW122532   5.059   2.586   5.610
 7211SOL    HW222533   5.054   2.722   5.521
 7212SOL     OW22534   4.776   3.213   6.428
 7212SOL    HW122535   4.799   3.130   6.377
 7212SOL    HW222536   4.828   3.290   6.392
 7213SOL     OW22537   4.077   2.720   6.539
 7213SOL    HW122538   4.139   2.686   6.468
 7213SOL    HW222539   4.120   2.710   6.629
 7214SOL     OW22540   4.014   2.375   6.666
 7214SOL    HW122541   3.981   2.289   6.627
 7214SOL    HW222542   4.093   2.407   6.613
 7215SOL     OW22543   4.859   2.121   0.102
 7215SOL    HW122544   4.933   2.093   0.162
 7215SOL    HW222545   4.897   2.156   0.017
 7216SOL     OW22546   3.764   3.138   5.797
 7216SOL    HW122547   3.678   3.179   5.768
 7216SOL    HW222548   3.748   3.044   5.827
 7217SOL     OW22549   3.808   3.616   6.503
 7217SOL    HW122550   3.783   3.535   6.449
 7217SOL    HW222551   3.907   3.630   6.498
 7218SOL     OW22552   4.214   3.398   6.509
 7218SOL    HW122553   4.290   3.453   6.542
 7218SOL    HW222554   4.244   3.341   6.432
 7219SOL     OW22555   4.694   2.650   6.794
 7219SOL    HW122556   4.709   2.583   6.866
 7219SOL    HW222557   4.596   2.662   6.780
 7220SOL     OW22558   3.757   2.477   6.645
 7220SOL    HW122559   3.767   2.538   6.566
 7220SOL    HW222560   3.846   2.437   6.667
 7221SOL     OW22561   4.529   2.456   5.983
 7221SOL    HW122562   4.545   2.387   5.912
 7221SOL    HW222563   4.444   2.504   5.963
 7222SOL     OW22564   5.370   2.481   6.726
 7222SOL    HW122565   5.356   2.406   6.791
 7222SOL    HW222566   5.466   2.483   6.698
 7223SOL     OW22567   4.428   2.260   6.840
 7223SOL    HW122568   4.367   2.188   6.808
 7223SOL    HW222569   4.438   2.329   6.769
 7224SOL     OW22570   4.705   3.469   6.984
 7224SOL    HW122571   4.667   3.446   6.895
 7224SOL    HW222572   4.689   3.565   0.004
 7225SOL     OW22573   4.139   2.366   5.825
 7225SOL    HW122574   4.206   2.434   5.851
 7225SOL    HW222575   4.053   2.411   5.801
 7226SOL     OW22576   3.863   2.955   0.051
 7226SOL    HW122577   3.922   2.903   0.114
 7226SOL    HW222578   3.849   2.902   6.968
 7227SOL     OW22579   5.067   2.826   6.822
 7227SOL    HW122580   5.064   2.826   6.722
 7227SOL    HW222581   5.103   2.914   6.854
 7228SOL     OW22582   5.093   2.713   5.876
 7228SOL    HW122583   5.015   2.738   5.933
 7228SOL    HW222584   5.063   2.700   5.782
 7229SOL     OW22585   5.478   3.583   6.709
 7229SOL    HW122586   5.545   3.606   6.638
 7229SOL    HW222587   5.431   3.498   6.685
 7230SOL     OW22588   5.007   3.595   6.743
 7230SOL    HW122589   5.093   3.632   6.707
 7230SOL    HW222590   5.012   3.495   6.744
 7231SOL     OW22591   3.825   3.087   6.607
 7231SOL    HW122592   3.791   3.105   6.700
 7231SOL    HW222593   3.764   3.021   6.563
 7232SOL     OW22594   5.480   2.101   6.051
 7232SOL    HW122595   5.534   2.079   5.970
 7232SOL    HW222596   5.440   2.017   6.088
 7233SOL     OW22597   5.144   3.451   6.098
 7233SOL    HW122598   5.199   3.480   6.020
 7233SOL    HW222599   5.077   3.522   6.120
 7234SOL     OW22600   5.017   2.802   6.191
 7234SOL    HW122601   5.092   2.742   6.218
 7234SOL    HW222602   5.055   2.890   6.160
 7235SOL     OW22603   4.442   3.526   5.725
 7235SOL    HW122604   4.469   3.533   5.629
 7235SOL    HW222605   4.384   3.446   5.738
 7236SOL     OW22606   5.563   2.036   6.578
 7236SOL    HW122607   5.597   1.945   6.555
 7236SOL    HW222608   5.473   2.049   6.535
 7237SOL     OW22609   3.955   2.140   6.298
 7237SOL    HW122610   3.872   2.185   6.267
 7237SOL    HW222611   3.962   2.146   6.397
 7238SOL     OW22612   4.962   3.493   5.555
 7238SOL    HW122613   4.935   3.402   5.524
 7238SOL    HW222614   4.928   3.561   5.491
 7239SOL     OW22615   4.448   2.876   6.998
 7239SOL    HW122616   4.424   2.949   6.935
 7239SOL    HW222617   4.547   2.876   0.012
 7240SOL     OW22618   4.721   2.801   5.930
 7240SOL    HW122619   4.740   2.808   5.832
 7240SOL    HW222620   4.746   2.710   5.962
 7241SOL     OW22621   5.228   3.517   5.634
 7241SOL    HW122622   5.131   3.502   5.613
 7241SOL    HW222623   5.281   3.520   5.550
 7242SOL     OW22624   5.342   3.133   6.818
 7242SOL    HW122625   5.437   3.137   6.849
 7242SOL    HW222626   5.283   3.106   6.893
 7243SOL     OW22627   4.823   2.972   6.314
 7243SOL    HW122628   4.743   2.923   6.350
 7243SOL    HW222629   4.877   2.910   6.258
 7244SOL     OW22630   4.771   2.113   6.521
 7244SOL    HW122631   4.764   2.082   6.426
 7244SOL    HW222632   4.786   2.035   6.581
 7245SOL     OW22633   4.354   3.365   6.067
 7245SOL    HW122634   4.411   3.300   6.016
 7245SOL    HW222635   4.270   3.383   6.017
 7246SOL     OW22636   5.349   2.264   6.895
 7246SOL    HW122637   5.293   2.246   6.976
 7246SOL    HW222638   5.396   2.180   6.868
 7247SOL     OW22639   3.994   3.246   5.916
 7247SOL    HW122640   3.912   3.218   5.866
 7247SOL    HW222641   3.968   3.289   6.002
 7248SOL     OW22642   4.433   2.045   0.068
 7248SOL    HW122643   4.522   2.002   0.085
 7248SOL    HW222644   4.445   2.124   0.008
 7249SOL     OW22645   3.778   2.187   5.592
 7249SOL    HW122646   3.696   2.181   5.535
 7249SOL    HW222647   3.821   2.277   5.581
 7250SOL     OW22648   3.769   2.008   5.808
 7250SOL    HW122649   3.748   2.077   5.739
 7250SOL    HW222650   3.864   1.978   5.798
 7251SOL     OW22651   4.920   3.155   5.733
 7251SOL    HW122652   4.820   3.145   5.727
 7251SOL    HW222653   4.945   3.179   5.827
 7252SOL     OW22654   5.240   3.714   6.659
 7252SOL    HW122655   5.256   3.772   6.579
 7252SOL    HW222656   5.326   3.668   6.685
 7253SOL     OW22657   5.188   3.190   0.305
 7253SOL    HW122658   5.118   3.214   0.372
 7253SOL    HW222659   5.182   3.093   0.283
 7254SOL     OW22660   4.120   3.606   0.116
 7254SOL    HW122661   4.121   3.637   0.212
 7254SOL    HW222662   4.133   3.507   0.113
 7255SOL     OW22663   5.411   2.741   6.816
 7255SOL    HW122664   5.386   2.648   6.790
 7255SOL    HW222665   5.365   2.807   6.756
 7256SOL     OW22666   4.968   2.189   6.047
 7256SOL    HW122667   5.027   2.109   6.045
 7256SOL    HW222668   4.992   2.247   6.124
 7257SOL     OW22669   4.238   2.633   6.333
 7257SOL    HW122670   4.309   2.696   6.301
 7257SOL    HW222671   4.188   2.597   6.254
 7258SOL     OW22672   5.473   2.715   0.092
 7258SOL    HW122673   5.459   2.805   0.134
 7258SOL    HW222674   5.446   2.719   6.995
 7259SOL     OW22675   4.635   3.169   5.704
 7259SOL    HW122676   4.590   3.181   5.793
 7259SOL    HW222677   4.588   3.225   5.635
 7260SOL     OW22678   4.418   3.569   6.571
 7260SOL    HW122679   4.380   3.661   6.559
 7260SOL    HW222680   4.513   3.568   6.539
 7261SOL     OW22681   4.615   2.846   6.447
 7261SOL    HW122682   4.661   2.764   6.480
 7261SOL    HW222683   4.568   2.891   6.523
 7262SOL     OW22684   4.785   2.790   5.667
 7262SOL    HW122685   4.750   2.852   5.596
 7262SOL    HW222686   4.876   2.759   5.641
 7263SOL     OW22687   5.559   3.400   6.422
 7263SOL    HW122688   5.467   3.398   6.382
 7263SOL    HW222689   5.573   3.319   6.479
 7264SOL     OW22690   3.845   3.044   6.235
 7264SOL    HW122691   3.897   3.013   6.315
 7264SOL    HW222692   3.901   3.033   6.153
 7265SOL     OW22693   5.501   2.038   6.845
 7265SOL    HW122694   5.482   1.941   6.860
 7265SOL    HW222695   5.528   2.052   6.749
 7266SOL     OW22696   4.147   2.261   6.136
 7266SOL    HW122697   4.159   2.212   6.050
 7266SOL    HW222698   4.079   2.213   6.192
 7267SOL     OW22699   5.349   3.353   6.656
 7267SOL    HW122700   5.275   3.341   6.590
 7267SOL    HW222701   5.351   3.276   6.719
 7268SOL     OW22702   4.078   2.477   6.910
 7268SOL    HW122703   4.116   2.407   6.971
 7268SOL    HW222704   4.052   2.434   6.823
 7269SOL     OW22705   4.545   3.512   6.209
 7269SOL    HW122706   4.554   3.600   6.162
 7269SOL    HW222707   4.471   3.460   6.167
 7270SOL     OW22708   5.129   2.108   6.697
 7270SOL    HW122709   5.136   2.010   6.713
 7270SOL    HW222710   5.076   2.150   6.771
 7271SOL     OW22711   4.790   1.869   6.645
 7271SOL    HW122712   4.740   1.803   6.589
 7271SOL    HW222713   4.867   1.822   6.689
 7272SOL     OW22714   4.524   3.183   5.956
 7272SOL    HW122715   4.509   3.086   5.975
 7272SOL    HW222716   4.608   3.212   6.001
 7273SOL     OW22717   4.397   3.491   6.896
 7273SOL    HW122718   4.382   3.589   6.887
 7273SOL    HW222719   4.465   3.461   6.829
 7274SOL     OW22720   5.121   1.881   5.784
 7274SOL    HW122721   5.173   1.812   5.732
 7274SOL    HW222722   5.026   1.852   5.792
 7275SOL     OW22723   5.029   2.346   6.264
 7275SOL    HW122724   4.979   2.431   6.250
 7275SOL    HW222725   5.021   2.317   6.359
 7276SOL     OW22726   5.308   2.079   6.491
 7276SOL    HW122727   5.247   2.103   6.566
 7276SOL    HW222728   5.310   2.153   6.424
 7277SOL     OW22729   3.751   2.875   5.911
 7277SOL    HW122730   3.845   2.860   5.880
 7277SOL    HW222731   3.710   2.788   5.937
 7278SOL     OW22732   4.653   3.559   5.899
 7278SOL    HW122733   4.580   3.543   5.832
 7278SOL    HW222734   4.628   3.637   5.957
 7279SOL     OW22735   3.961   4.380   0.110
 7279SOL    HW122736   3.865   4.355   0.121
 7279SOL    HW222737   3.992   4.355   0.018
 7280SOL     OW22738   3.666   4.176   0.644
 7280SOL    HW122739   3.586   4.187   0.702
 7280SOL    HW222740   3.657   4.092   0.590
 7281SOL     OW22741   4.282   5.047   1.216
 7281SOL    HW122742   4.193   5.038   1.171
 7281SOL    HW222743   4.299   5.143   1.238
 7282SOL     OW22744   5.308   5.221   0.712
 7282SOL    HW122745   5.255   5.181   0.787
 7282SOL    HW222746   5.245   5.263   0.647
 7283SOL     OW22747   4.870   4.440   0.679
 7283SOL    HW122748   4.915   4.528   0.665
 7283SOL    HW222749   4.820   4.441   0.765
 7284SOL     OW22750   5.559   4.304   0.131
 7284SOL    HW122751   5.516   4.391   0.109
 7284SOL    HW222752   5.497   4.250   0.188
 7285SOL     OW22753   4.438   4.835   1.093
 7285SOL    HW122754   4.367   4.874   1.151
 7285SOL    HW222755   4.486   4.909   1.045
 7286SOL     OW22756   4.636   4.560   1.849
 7286SOL    HW122757   4.595   4.472   1.873
 7286SOL    HW222758   4.637   4.571   1.750
 7287SOL     OW22759   4.427   4.677   0.666
 7287SOL    HW122760   4.495   4.683   0.739
 7287SOL    HW222761   4.348   4.734   0.689
 7288SOL     OW22762   4.413   4.928   1.821
 7288SOL    HW122763   4.453   5.012   1.858
 7288SOL    HW222764   4.330   4.951   1.770
 7289SOL     OW22765   4.047   5.114   1.066
 7289SOL    HW122766   3.967   5.069   1.028
 7289SOL    HW222767   4.096   5.163   0.994
 7290SOL     OW22768   5.175   5.209   1.393
 7290SOL    HW122769   5.227   5.293   1.408
 7290SOL    HW222770   5.094   5.208   1.452
 7291SOL     OW22771   4.158   3.982   1.346
 7291SOL    HW122772   4.232   3.931   1.390
 7291SOL    HW222773   4.072   3.965   1.396
 7292SOL     OW22774   5.307   4.179   0.742
 7292SOL    HW122775   5.241   4.179   0.667
 7292SOL    HW222776   5.282   4.248   0.810
 7293SOL     OW22777   3.972   5.400   0.489
 7293SOL    HW122778   3.983   5.481   0.547
 7293SOL    HW222779   4.057   5.383   0.439
 7294SOL     OW22780   4.852   5.049   1.734
 7294SOL    HW122781   4.896   5.018   1.819
 7294SOL    HW222782   4.782   4.984   1.707
 7295SOL     OW22783   3.892   5.125   0.459
 7295SOL    HW122784   3.914   5.215   0.497
 7295SOL    HW222785   3.871   5.062   0.533
 7296SOL     OW22786   3.990   4.807   0.861
 7296SOL    HW122787   4.001   4.715   0.899
 7296SOL    HW222788   3.935   4.863   0.924
 7297SOL     OW22789   4.280   5.556   1.412
 7297SOL    HW122790   4.200   5.529   1.466
 7297SOL    HW222791   4.330   5.627   1.461
 7298SOL     OW22792   4.301   4.675   0.206
 7298SOL    HW122793   4.361   4.695   0.128
 7298SOL    HW222794   4.334   4.723   0.287
 7299SOL     OW22795   5.398   3.828   1.506
 7299SOL    HW122796   5.421   3.912   1.458
 7299SOL    HW222797   5.335   3.848   1.582
 7300SOL     OW22798   3.833   4.383   0.583
 7300SOL    HW122799   3.781   4.301   0.604
 7300SOL    HW222800   3.829   4.447   0.660
 7301SOL     OW22801   5.579   5.464   0.359
 7301SOL    HW122802   5.658   5.432   0.411
 7301SOL    HW222803   5.594   5.558   0.328
 7302SOL     OW22804   3.697   5.307   0.138
 7302SOL    HW122805   3.633   5.230   0.139
 7302SOL    HW222806   3.710   5.341   0.231
 7303SOL     OW22807   5.431   4.655   0.651
 7303SOL    HW122808   5.516   4.603   0.649
 7303SOL    HW222809   5.415   4.699   0.563
 7304SOL     OW22810   5.405   4.799   0.414
 7304SOL    HW122811   5.456   4.817   0.330
 7304SOL    HW222812   5.409   4.880   0.473
 7305SOL     OW22813   3.880   4.466   1.577
 7305SOL    HW122814   3.946   4.517   1.633
 7305SOL    HW222815   3.804   4.527   1.552
 7306SOL     OW22816   4.351   5.073   0.743
 7306SOL    HW122817   4.307   4.983   0.745
 7306SOL    HW222818   4.343   5.113   0.652
 7307SOL     OW22819   4.962   4.924   1.428
 7307SOL    HW122820   4.982   4.854   1.359
 7307SOL    HW222821   5.037   4.926   1.494
 7308SOL     OW22822   4.578   3.751   0.516
 7308SOL    HW122823   4.618   3.837   0.485
 7308SOL    HW222824   4.479   3.761   0.524
 7309SOL     OW22825   3.968   4.648   1.287
 7309SOL    HW122826   4.059   4.607   1.275
 7309SOL    HW222827   3.899   4.577   1.290
 7310SOL     OW22828   5.180   4.787   0.254
 7310SOL    HW122829   5.110   4.720   0.276
 7310SOL    HW222830   5.259   4.774   0.314
 7311SOL     OW22831   5.008   5.617   1.637
 7311SOL    HW122832   4.955   5.668   1.569
 7311SOL    HW222833   4.998   5.519   1.620
 7312SOL     OW22834   4.143   3.925   1.799
 7312SOL    HW122835   4.205   4.001   1.815
 7312SOL    HW222836   4.051   3.960   1.784
 7313SOL     OW22837   5.186   5.102   0.927
 7313SOL    HW122838   5.128   5.140   0.999
 7313SOL    HW222839   5.160   5.006   0.911
 7314SOL     OW22840   5.290   5.636   0.557
 7314SOL    HW122841   5.284   5.577   0.477
 7314SOL    HW222842   5.312   5.581   0.638
 7315SOL     OW22843   4.294   4.414   0.296
 7315SOL    HW122844   4.302   4.507   0.261
 7315SOL    HW222845   4.222   4.411   0.366
 7316SOL     OW22846   5.003   4.122   0.913
 7316SOL    HW122847   4.909   4.087   0.915
 7316SOL    HW222848   5.059   4.071   0.979
 7317SOL     OW22849   5.294   5.462   0.345
 7317SOL    HW122850   5.393   5.449   0.341
 7317SOL    HW222851   5.256   5.460   0.253
 7318SOL     OW22852   4.521   4.276   1.532
 7318SOL    HW122853   4.488   4.266   1.626
 7318SOL    HW222854   4.485   4.202   1.476
 7319SOL     OW22855   5.108   4.165   1.636
 7319SOL    HW122856   5.110   4.218   1.721
 7319SOL    HW222857   5.154   4.077   1.651
 7320SOL     OW22858   4.664   4.622   1.576
 7320SOL    HW122859   4.709   4.543   1.534
 7320SOL    HW222860   4.614   4.673   1.506
 7321SOL     OW22861   4.719   4.094   1.179
 7321SOL    HW122862   4.626   4.111   1.211
 7321SOL    HW222863   4.716   4.050   1.090
 7322SOL     OW22864   4.772   4.449   0.421
 7322SOL    HW122865   4.801   4.444   0.517
 7322SOL    HW222866   4.682   4.407   0.412
 7323SOL     OW22867   3.808   4.567   0.790
 7323SOL    HW122868   3.896   4.546   0.831
 7323SOL    HW222869   3.760   4.636   0.844
 7324SOL     OW22870   3.817   5.638   1.553
 7324SOL    HW122871   3.822   5.628   1.653
 7324SOL    HW222872   3.732   5.597   1.520
 7325SOL     OW22873   4.603   4.087   0.196
 7325SOL    HW122874   4.551   4.147   0.135
 7325SOL    HW222875   4.689   4.060   0.152
 7326SOL     OW22876   5.398   4.314   1.835
 7326SOL    HW122877   5.385   4.398   1.783
 7326SOL    HW222878   5.414   4.238   1.772
 7327SOL     OW22879   5.144   4.915   0.623
 7327SOL    HW122880   5.241   4.936   0.609
 7327SOL    HW222881   5.089   4.982   0.574
 7328SOL     OW22882   4.266   3.923   0.856
 7328SOL    HW122883   4.268   3.922   0.956
 7328SOL    HW222884   4.270   4.018   0.824
 7329SOL     OW22885   4.733   5.175   0.483
 7329SOL    HW122886   4.701   5.254   0.430
 7329SOL    HW222887   4.693   5.178   0.574
 7330SOL     OW22888   4.074   5.505   0.878
 7330SOL    HW122889   4.111   5.412   0.878
 7330SOL    HW222890   4.145   5.569   0.909
 7331SOL     OW22891   5.510   4.759   0.900
 7331SOL    HW122892   5.466   4.747   0.811
 7331SOL    HW222893   5.441   4.772   0.970
 7332SOL     OW22894   4.935   5.218   1.528
 7332SOL    HW122895   4.922   5.157   1.606
 7332SOL    HW222896   4.865   5.200   1.459
 7333SOL     OW22897   4.025   4.640   0.193
 7333SOL    HW122898   4.124   4.654   0.202
 7333SOL    HW222899   4.007   4.544   0.173
 7334SOL     OW22900   5.208   4.500   0.690
 7334SOL    HW122901   5.198   4.455   0.778
 7334SOL    HW222902   5.289   4.558   0.691
 7335SOL     OW22903   4.190   5.032   1.703
 7335SOL    HW122904   4.157   5.043   1.609
 7335SOL    HW222905   4.112   5.027   1.765
 7336SOL     OW22906   4.845   5.503   0.270
 7336SOL    HW122907   4.769   5.465   0.323
 7336SOL    HW222908   4.888   5.430   0.216
 7337SOL     OW22909   3.931   3.941   1.489
 7337SOL    HW122910   3.931   4.025   1.543
 7337SOL    HW222911   3.872   3.873   1.534
 7338SOL     OW22912   5.388   5.100   0.113
 7338SOL    HW122913   5.348   5.103   0.021
 7338SOL    HW222914   5.315   5.093   0.181
 7339SOL     OW22915   4.232   5.411   0.380
 7339SOL    HW122916   4.253   5.500   0.422
 7339SOL    HW222917   4.289   5.398   0.299
 7340SOL     OW22918   3.926   5.531   1.204
 7340SOL    HW122919   3.976   5.452   1.242
 7340SOL    HW222920   3.889   5.507   1.114
 7341SOL     OW22921   4.664   5.402   0.877
 7341SOL    HW122922   4.759   5.370   0.885
 7341SOL    HW222923   4.616   5.348   0.809
 7342SOL     OW22924   4.097   4.382   0.486
 7342SOL    HW122925   4.124   4.287   0.501
 7342SOL    HW222926   4.001   4.394   0.514
 7343SOL     OW22927   5.231   3.919   1.712
 7343SOL    HW122928   5.251   3.921   1.810
 7343SOL    HW222929   5.157   3.853   1.695
 7344SOL     OW22930   4.572   5.238   1.188
 7344SOL    HW122931   4.550   5.180   1.109
 7344SOL    HW222932   4.631   5.187   1.251
 7345SOL     OW22933   5.010   4.308   1.423
 7345SOL    HW122934   5.053   4.268   1.504
 7345SOL    HW222935   5.044   4.401   1.409
 7346SOL     OW22936   4.535   5.062   0.966
 7346SOL    HW122937   4.625   5.075   0.926
 7346SOL    HW222938   4.466   5.064   0.893
 7347SOL     OW22939   4.639   4.226   0.870
 7347SOL    HW122940   4.612   4.216   0.774
 7347SOL    HW222941   4.673   4.138   0.905
 7348SOL     OW22942   4.308   3.782   0.520
 7348SOL    HW122943   4.244   3.766   0.595
 7348SOL    HW222944   4.273   3.854   0.461
 7349SOL     OW22945   5.141   4.895   6.996
 7349SOL    HW122946   5.169   4.838   0.073
 7349SOL    HW222947   5.059   4.946   0.020
 7350SOL     OW22948   4.689   3.987   0.437
 7350SOL    HW122949   4.650   4.022   0.351
 7350SOL    HW222950   4.788   4.004   0.437
 7351SOL     OW22951   4.744   4.401   1.433
 7351SOL    HW122952   4.675   4.342   1.475
 7351SOL    HW222953   4.833   4.354   1.433
 7352SOL     OW22954   4.931   5.340   0.844
 7352SOL    HW122955   4.964   5.398   0.770
 7352SOL    HW222956   4.965   5.375   0.932
 7353SOL     OW22957   4.215   4.841   0.713
 7353SOL    HW122958   4.136   4.828   0.773
 7353SOL    HW222959   4.185   4.847   0.618
 7354SOL     OW22960   4.999   5.546   0.660
 7354SOL    HW122961   5.059   5.625   0.644
 7354SOL    HW222962   4.906   5.578   0.675
 7355SOL     OW22963   4.723   4.338   0.018
 7355SOL    HW122964   4.626   4.317   0.035
 7355SOL    HW222965   4.777   4.312   0.098
 7356SOL     OW22966   3.870   4.376   1.318
 7356SOL    HW122967   3.954   4.324   1.300
 7356SOL    HW222968   3.867   4.402   1.414
 7357SOL     OW22969   4.296   3.918   1.124
 7357SOL    HW122970   4.322   3.822   1.126
 7357SOL    HW222971   4.232   3.937   1.198
 7358SOL     OW22972   4.584   4.175   0.612
 7358SOL    HW122973   4.548   4.241   0.547
 7358SOL    HW222974   4.620   4.096   0.563
 7359SOL     OW22975   4.735   3.752   0.742
 7359SOL    HW122976   4.675   3.747   0.662
 7359SOL    HW222977   4.706   3.685   0.810
 7360SOL     OW22978   5.129   4.832   0.890
 7360SOL    HW122979   5.069   4.754   0.909
 7360SOL    HW222980   5.128   4.852   0.792
 7361SOL     OW22981   5.166   4.356   0.926
 7361SOL    HW122982   5.098   4.284   0.926
 7361SOL    HW222983   5.226   4.347   1.005
 7362SOL     OW22984   5.556   4.519   0.394
 7362SOL    HW122985   5.623   4.454   0.431
 7362SOL    HW222986   5.548   4.506   0.295
 7363SOL     OW22987   4.175   5.213   0.130
 7363SOL    HW122988   4.128   5.142   0.183
 7363SOL    HW222989   4.150   5.204   0.034
 7364SOL     OW22990   5.420   4.994   0.602
 7364SOL    HW122991   5.517   4.979   0.620
 7364SOL    HW222992   5.393   5.083   0.639
 7365SOL     OW22993   5.055   4.268   0.056
 7365SOL    HW122994   4.987   4.269   0.129
 7365SOL    HW222995   5.124   4.198   0.075
 7366SOL     OW22996   4.248   3.963   0.322
 7366SOL    HW122997   4.318   3.918   0.266
 7366SOL    HW222998   4.208   4.039   0.270
 7367SOL     OW22999   5.469   4.946   1.530
 7367SOL    HW123000   5.562   4.908   1.523
 7367SOL    HW223001   5.474   5.038   1.569
 7368SOL     OW23002   4.735   5.069   1.361
 7368SOL    HW123003   4.646   5.040   1.397
 7368SOL    HW223004   4.807   5.011   1.399
 7369SOL     OW23005   5.332   5.353   1.682
 7369SOL    HW123006   5.314   5.398   1.595
 7369SOL    HW223007   5.410   5.291   1.671
 7370SOL     OW23008   4.863   4.992   1.126
 7370SOL    HW123009   4.801   5.018   1.200
 7370SOL    HW223010   4.826   5.021   1.038
 7371SOL     OW23011   5.317   4.803   1.090
 7371SOL    HW123012   5.312   4.872   1.163
 7371SOL    HW223013   5.241   4.816   1.026
 7372SOL     OW23014   4.660   3.767   1.351
 7372SOL    HW123015   4.687   3.759   1.255
 7372SOL    HW223016   4.728   3.821   1.401
 7373SOL     OW23017   4.654   4.875   1.690
 7373SOL    HW123018   4.565   4.883   1.735
 7373SOL    HW223019   4.667   4.780   1.659
 7374SOL     OW23020   4.459   4.786   0.409
 7374SOL    HW123021   4.447   4.746   0.500
 7374SOL    HW223022   4.537   4.742   0.364
 7375SOL     OW23023   4.201   4.495   1.262
 7375SOL    HW123024   4.263   4.503   1.340
 7375SOL    HW223025   4.164   4.402   1.258
 7376SOL     OW23026   4.967   4.083   1.278
 7376SOL    HW123027   4.987   4.166   1.329
 7376SOL    HW223028   4.875   4.088   1.240
 7377SOL     OW23029   3.767   5.282   1.354
 7377SOL    HW123030   3.718   5.342   1.292
 7377SOL    HW223031   3.865   5.292   1.339
 7378SOL     OW23032   4.116   4.854   0.463
 7378SOL    HW123033   4.117   4.921   0.388
 7378SOL    HW223034   4.033   4.799   0.456
 7379SOL     OW23035   4.268   4.198   0.818
 7379SOL    HW123036   4.278   4.275   0.755
 7379SOL    HW223037   4.312   4.220   0.905
 7380SOL     OW23038   5.003   5.111   0.485
 7380SOL    HW123039   5.045   5.198   0.508
 7380SOL    HW223040   4.904   5.121   0.482
 7381SOL     OW23041   5.053   5.186   1.151
 7381SOL    HW123042   5.098   5.190   1.241
 7381SOL    HW223043   4.986   5.112   1.150
 7382SOL     OW23044   5.329   4.374   0.470
 7382SOL    HW123045   5.266   4.413   0.537
 7382SOL    HW223046   5.398   4.442   0.446
 7383SOL     OW23047   4.041   5.287   1.275
 7383SOL    HW123048   4.031   5.221   1.199
 7383SOL    HW223049   4.138   5.306   1.290
 7384SOL     OW23050   4.223   4.389   1.655
 7384SOL    HW123051   4.268   4.437   1.579
 7384SOL    HW223052   4.291   4.338   1.707
 7385SOL     OW23053   5.360   4.540   1.690
 7385SOL    HW123054   5.265   4.568   1.680
 7385SOL    HW223055   5.412   4.569   1.610
 7386SOL     OW23056   4.821   3.820   1.802
 7386SOL    HW123057   4.810   3.915   1.773
 7386SOL    HW223058   4.893   3.776   1.749
 7387SOL     OW23059   4.227   3.713   1.643
 7387SOL    HW123060   4.144   3.666   1.611
 7387SOL    HW223061   4.200   3.788   1.704
 7388SOL     OW23062   4.311   4.582   1.031
 7388SOL    HW123063   4.350   4.673   1.043
 7388SOL    HW223064   4.267   4.553   1.117
 7389SOL     OW23065   5.000   4.587   0.975
 7389SOL    HW123066   4.906   4.553   0.964
 7389SOL    HW223067   5.065   4.513   0.959
 7390SOL     OW23068   4.869   4.260   0.251
 7390SOL    HW123069   4.897   4.181   0.306
 7390SOL    HW223070   4.838   4.333   0.311
 7391SOL     OW23071   3.776   5.023   1.251
 7391SOL    HW123072   3.812   4.958   1.318
 7391SOL    HW223073   3.757   5.110   1.295
 7392SOL     OW23074   4.419   4.321   1.022
 7392SOL    HW123075   4.498   4.305   0.963
 7392SOL    HW223076   4.386   4.414   1.008
 7393SOL     OW23077   5.499   4.690   1.874
 7393SOL    HW123078   5.449   4.630   1.812
 7393SOL    HW223079   5.442   4.713   1.952
 7394SOL     OW23080   5.391   4.165   0.310
 7394SOL    HW123081   5.425   4.091   0.369
 7394SOL    HW223082   5.360   4.241   0.367
 7395SOL     OW23083   4.747   4.464   0.947
 7395SOL    HW123084   4.718   4.478   1.042
 7395SOL    HW223085   4.714   4.375   0.916
 7396SOL     OW23086   4.720   5.283   1.788
 7396SOL    HW123087   4.686   5.338   1.711
 7396SOL    HW223088   4.757   5.197   1.754
 7397SOL     OW23089   5.553   5.202   1.604
 7397SOL    HW123090   5.573   5.229   1.510
 7397SOL    HW223091   5.633   5.220   1.661
 7398SOL     OW23092   4.070   4.605   1.735
 7398SOL    HW123093   4.133   4.682   1.739
 7398SOL    HW223094   4.121   4.521   1.719
 7399SOL     OW23095   5.214   4.054   0.134
 7399SOL    HW123096   5.169   3.975   0.175
 7399SOL    HW223097   5.278   4.094   0.199
 7400SOL     OW23098   5.008   4.538   0.042
 7400SOL    HW123099   5.029   4.441   0.037
 7400SOL    HW223100   5.039   4.584   6.959
 7401SOL     OW23101   4.792   5.090   0.878
 7401SOL    HW123102   4.809   5.008   0.823
 7401SOL    HW223103   4.853   5.163   0.847
 7402SOL     OW23104   4.048   4.526   0.924
 7402SOL    HW123105   4.143   4.549   0.943
 7402SOL    HW223106   4.031   4.431   0.951
 7403SOL     OW23107   4.028   4.243   0.978
 7403SOL    HW123108   3.951   4.180   0.987
 7403SOL    HW223109   4.089   4.212   0.905
 7404SOL     OW23110   4.850   4.072   1.677
 7404SOL    HW123111   4.809   4.127   1.750
 7404SOL    HW223112   4.940   4.110   1.653
 7405SOL     OW23113   4.873   3.901   1.466
 7405SOL    HW123114   4.848   3.961   1.543
 7405SOL    HW223115   4.912   3.957   1.392
 7406SOL     OW23116   3.814   5.466   0.957
 7406SOL    HW123117   3.780   5.379   0.920
 7406SOL    HW223118   3.905   5.484   0.920
 7407SOL     OW23119   4.203   5.259   0.891
 7407SOL    HW123120   4.276   5.319   0.924
 7407SOL    HW223121   4.243   5.188   0.833
 7408SOL     OW23122   4.635   4.481   1.192
 7408SOL    HW123123   4.682   4.462   1.279
 7408SOL    HW223124   4.546   4.436   1.192
 7409SOL     OW23125   3.668   4.296   1.155
 7409SOL    HW123126   3.714   4.268   1.071
 7409SOL    HW223127   3.736   4.331   1.220
 7410SOL     OW23128   3.994   4.220   1.614
 7410SOL    HW123129   4.087   4.255   1.623
 7410SOL    HW223130   3.931   4.296   1.598
 7411SOL     OW23131   5.118   4.649   1.624
 7411SOL    HW123132   5.136   4.747   1.619
 7411SOL    HW223133   5.096   4.614   1.533
 7412SOL     OW23134   4.540   4.312   0.373
 7412SOL    HW123135   4.556   4.236   0.311
 7412SOL    HW223136   4.451   4.354   0.351
 7413SOL     OW23137   5.337   4.317   1.137
 7413SOL    HW123138   5.294   4.256   1.204
 7413SOL    HW223139   5.433   4.291   1.125
 7414SOL     OW23140   3.936   5.287   1.716
 7414SOL    HW123141   3.899   5.326   1.801
 7414SOL    HW223142   3.959   5.191   1.731
 7415SOL     OW23143   4.453   4.134   1.223
 7415SOL    HW123144   4.398   4.053   1.200
 7415SOL    HW223145   4.429   4.208   1.160
 7416SOL     OW23146   4.608   5.418   1.561
 7416SOL    HW123147   4.559   5.344   1.515
 7416SOL    HW223148   4.629   5.490   1.495
 7417SOL     OW23149   4.159   4.193   0.195
 7417SOL    HW123150   4.223   4.259   0.234
 7417SOL    HW223151   4.073   4.239   0.174
 7418SOL     OW23152   3.899   4.865   1.439
 7418SOL    HW123153   3.866   4.834   1.528
 7418SOL    HW223154   3.923   4.786   1.383
 7419SOL     OW23155   4.987   4.755   1.196
 7419SOL    HW123156   4.992   4.693   1.118
 7419SOL    HW223157   4.942   4.840   1.168
 7420SOL     OW23158   4.993   4.600   0.306
 7420SOL    HW123159   4.922   4.550   0.355
 7420SOL    HW223160   4.997   4.568   0.211
 7421SOL     OW23161   5.469   5.408   1.163
 7421SOL    HW123162   5.540   5.440   1.101
 7421SOL    HW223163   5.438   5.317   1.135
 7422SOL     OW23164   5.006   5.446   1.087
 7422SOL    HW123165   5.092   5.498   1.091
 7422SOL    HW223166   5.022   5.353   1.120
 7423SOL     OW23167   3.807   4.985   0.987
 7423SOL    HW123168   3.790   4.998   1.085
 7423SOL    HW223169   3.746   4.914   0.952
 7424SOL     OW23170   4.418   5.462   1.754
 7424SOL    HW123171   4.347   5.528   1.732
 7424SOL    HW223172   4.489   5.466   1.684
 7425SOL     OW23173   4.697   3.729   0.092
 7425SOL    HW123174   4.735   3.817   0.066
 7425SOL    HW223175   4.759   3.683   0.156
 7426SOL     OW23176   5.488   3.955   0.460
 7426SOL    HW123177   5.545   3.913   0.389
 7426SOL    HW223178   5.429   3.885   0.501
 7427SOL     OW23179   5.135   5.343   0.536
 7427SOL    HW123180   5.188   5.378   0.459
 7427SOL    HW223181   5.079   5.417   0.574
 7428SOL     OW23182   3.845   5.597   1.816
 7428SOL    HW123183   3.813   5.507   1.846
 7428SOL    HW223184   3.905   5.635   1.886
 7429SOL     OW23185   5.005   4.676   0.645
 7429SOL    HW123186   5.078   4.609   0.653
 7429SOL    HW223187   5.043   4.763   0.613
 7430SOL     OW23188   4.469   5.018   1.424
 7430SOL    HW123189   4.447   5.078   1.501
 7430SOL    HW223190   4.395   5.022   1.357
 7431SOL     OW23191   4.415   5.343   0.179
 7431SOL    HW123192   4.473   5.354   0.098
 7431SOL    HW223193   4.338   5.284   0.157
 7432SOL     OW23194   5.325   5.444   1.410
 7432SOL    HW123195   5.378   5.433   1.325
 7432SOL    HW223196   5.320   5.541   1.434
 7433SOL     OW23197   5.585   3.884   0.968
 7433SOL    HW123198   5.607   3.789   0.945
 7433SOL    HW223199   5.494   3.906   0.933
 7434SOL     OW23200   4.930   5.310   0.090
 7434SOL    HW123201   4.944   5.212   0.101
 7434SOL    HW223202   4.846   5.326   0.038
 7435SOL     OW23203   4.514   4.746   1.384
 7435SOL    HW123204   4.520   4.742   1.285
 7435SOL    HW223205   4.497   4.840   1.413
 7436SOL     OW23206   4.666   4.668   0.285
 7436SOL    HW123207   4.701   4.671   0.191
 7436SOL    HW223208   4.710   4.594   0.335
 7437SOL     OW23209   5.160   5.472   0.096
 7437SOL    HW123210   5.081   5.411   0.094
 7437SOL    HW223211   5.196   5.481   0.003
 7438SOL     OW23212   4.073   5.074   1.466
 7438SOL    HW123213   4.051   5.148   1.403
 7438SOL    HW223214   4.011   4.997   1.451
 7439SOL     OW23215   5.324   4.997   1.294
 7439SOL    HW123216   5.387   4.970   1.368
 7439SOL    HW223217   5.259   5.065   1.329
 7440SOL     OW23218   4.810   4.845   0.762
 7440SOL    HW123219   4.731   4.795   0.799
 7440SOL    HW223220   4.871   4.781   0.715
 7441SOL     OW23221   4.760   3.966   0.931
 7441SOL    HW123222   4.745   3.923   0.843
 7441SOL    HW223223   4.773   3.896   1.001
 7442SOL     OW23224   4.349   5.190   0.496
 7442SOL    HW123225   4.396   5.138   0.424
 7442SOL    HW223226   4.293   5.261   0.454
 7443SOL     OW23227   5.512   4.070   1.411
 7443SOL    HW123228   5.567   4.153   1.400
 7443SOL    HW223229   5.541   4.002   1.344
 7444SOL     OW23230   4.021   5.020   0.247
 7444SOL    HW123231   3.962   4.956   0.198
 7444SOL    HW223232   3.970   5.061   0.323
 7445SOL     OW23233   3.856   4.789   1.715
 7445SOL    HW123234   3.764   4.756   1.736
 7445SOL    HW223235   3.922   4.715   1.728
 7446SOL     OW23236   4.368   3.801   1.415
 7446SOL    HW123237   4.467   3.794   1.402
 7446SOL    HW223238   4.345   3.777   1.509
 7447SOL     OW23239   3.795   4.131   6.941
 7447SOL    HW123240   3.731   4.061   6.912
 7447SOL    HW223241   3.754   4.186   0.014
 7448SOL     OW23242   5.099   4.566   1.365
 7448SOL    HW123243   5.041   4.628   1.311
 7448SOL    HW223244   5.192   4.566   1.328
 7449SOL     OW23245   3.774   3.846   0.291
 7449SOL    HW123246   3.854   3.907   0.290
 7449SOL    HW223247   3.753   3.818   0.198
 7450SOL     OW23248   4.922   5.028   0.100
 7450SOL    HW123249   4.824   5.042   0.086
 7450SOL    HW223250   4.937   4.985   0.188
 7451SOL     OW23251   4.383   4.508   1.461
 7451SOL    HW123252   4.432   4.593   1.447
 7451SOL    HW223253   4.448   4.436   1.488
 7452SOL     OW23254   5.250   5.576   1.083
 7452SOL    HW123255   5.282   5.630   1.005
 7452SOL    HW223256   5.326   5.522   1.120
 7453SOL     OW23257   5.195   4.910   1.610
 7453SOL    HW123258   5.192   4.931   1.708
 7453SOL    HW223259   5.288   4.927   1.576
 7454SOL     OW23260   4.057   5.495   1.572
 7454SOL    HW123261   3.975   5.546   1.549
 7454SOL    HW223262   4.032   5.409   1.617
 7455SOL     OW23263   5.347   4.576   1.244
 7455SOL    HW123264   5.349   4.490   1.195
 7455SOL    HW223265   5.339   4.652   1.179
 7456SOL     OW23266   4.956   4.052   0.414
 7456SOL    HW123267   5.016   3.976   0.388
 7456SOL    HW223268   4.992   4.097   0.495
 7457SOL     OW23269   4.306   4.423   0.667
 7457SOL    HW123270   4.354   4.511   0.665
 7457SOL    HW223271   4.229   4.425   0.604
 7458SOL     OW23272   5.448   4.095   1.677
 7458SOL    HW123273   5.469   4.090   1.579
 7458SOL    HW223274   5.375   4.031   1.699
 7459SOL     OW23275   5.478   4.653   1.472
 7459SOL    HW123276   5.457   4.750   1.487
 7459SOL    HW223277   5.435   4.623   1.387
 7460SOL     OW23278   4.660   5.099   0.094
 7460SOL    HW123279   4.598   5.078   0.170
 7460SOL    HW223280   4.643   5.192   0.062
 7461SOL     OW23281   4.396   5.439   0.948
 7461SOL    HW123282   4.367   5.534   0.940
 7461SOL    HW223283   4.495   5.433   0.937
 7462SOL     OW23284   4.604   4.698   0.883
 7462SOL    HW123285   4.649   4.613   0.906
 7462SOL    HW223286   4.551   4.731   0.962
 7463SOL     OW23287   4.759   4.667   0.023
 7463SOL    HW123288   4.731   4.621   6.938
 7463SOL    HW223289   4.852   4.638   0.047
 7464SOL     OW23290   5.530   5.276   0.866
 7464SOL    HW123291   5.461   5.266   0.794
 7464SOL    HW223292   5.507   5.216   0.942
 7465SOL     OW23293   3.938   5.028   1.813
 7465SOL    HW123294   3.908   4.942   1.772
 7465SOL    HW223295   3.878   5.050   1.891
 7466SOL     OW23296   3.832   4.902   0.628
 7466SOL    HW123297   3.883   4.870   0.708
 7466SOL    HW223298   3.846   4.838   0.552
 7467SOL     OW23299   4.397   5.202   1.623
 7467SOL    HW123300   4.322   5.143   1.653
 7467SOL    HW223301   4.404   5.281   1.684
 7468SOL     OW23302   5.596   3.878   1.243
 7468SOL    HW123303   5.656   3.800   1.261
 7468SOL    HW223304   5.581   3.886   1.145
 7469SOL     OW23305   4.189   4.135   0.534
 7469SOL    HW123306   4.216   4.066   0.467
 7469SOL    HW223307   4.236   4.118   0.620
 7470SOL     OW23308   5.405   5.155   1.082
 7470SOL    HW123309   5.329   5.137   1.020
 7470SOL    HW223310   5.400   5.094   1.160
 7471SOL     OW23311   4.100   4.241   1.247
 7471SOL    HW123312   4.124   4.152   1.284
 7471SOL    HW223313   4.080   4.232   1.149
 7472SOL     OW23314   4.552   5.255   0.684
 7472SOL    HW123315   4.505   5.286   0.601
 7472SOL    HW223316   4.498   5.183   0.728
 7473SOL     OW23317   5.143   3.977   1.101
 7473SOL    HW123318   5.161   3.880   1.117
 7473SOL    HW223319   5.084   4.013   1.173
 7474SOL     OW23320   4.777   3.740   1.090
 7474SOL    HW123321   4.713   3.682   1.040
 7474SOL    HW223322   4.867   3.697   1.092
 7475SOL     OW23323   4.525   5.043   0.336
 7475SOL    HW123324   4.495   4.950   0.356
 7475SOL    HW223325   4.607   5.065   0.388
 7476SOL     OW23326   4.320   5.318   1.276
 7476SOL    HW123327   4.316   5.405   1.325
 7476SOL    HW223328   4.412   5.305   1.239
 7477SOL     OW23329   5.076   3.826   0.272
 7477SOL    HW123330   5.161   3.774   0.285
 7477SOL    HW223331   4.999   3.763   0.270
 7478SOL     OW23332   5.024   4.195   0.645
 7478SOL    HW123333   4.977   4.283   0.639
 7478SOL    HW223334   5.017   4.160   0.738
 7479SOL     OW23335   5.330   3.947   0.900
 7479SOL    HW123336   5.265   3.970   0.973
 7479SOL    HW223337   5.327   4.018   0.830
 7480SOL     OW23338   3.876   4.723   0.411
 7480SOL    HW123339   3.931   4.695   0.333
 7480SOL    HW223340   3.796   4.663   0.418
 7481SOL     OW23341   4.612   5.399   0.373
 7481SOL    HW123342   4.539   5.376   0.308
 7481SOL    HW223343   4.584   5.478   0.427
 7482SOL     OW23344   3.841   4.047   2.893
 7482SOL    HW123345   3.914   4.024   2.958
 7482SOL    HW223346   3.789   3.965   2.870
 7483SOL     OW23347   3.641   4.096   2.497
 7483SOL    HW123348   3.555   4.121   2.543
 7483SOL    HW223349   3.621   4.032   2.423
 7484SOL     OW23350   4.320   5.068   3.106
 7484SOL    HW123351   4.233   5.064   3.057
 7484SOL    HW223352   4.343   5.164   3.124
 7485SOL     OW23353   5.310   5.272   2.555
 7485SOL    HW123354   5.266   5.223   2.630
 7485SOL    HW223355   5.245   5.282   2.479
 7486SOL     OW23356   4.907   4.417   2.516
 7486SOL    HW123357   4.924   4.515   2.528
 7486SOL    HW223358   4.811   4.397   2.534
 7487SOL     OW23359   5.547   4.250   2.050
 7487SOL    HW123360   5.492   4.289   1.976
 7487SOL    HW223361   5.487   4.204   2.115
 7488SOL     OW23362   4.452   4.884   2.940
 7488SOL    HW123363   4.398   4.917   3.017
 7488SOL    HW223364   4.492   4.961   2.891
 7489SOL     OW23365   4.660   4.431   3.726
 7489SOL    HW123366   4.602   4.467   3.798
 7489SOL    HW223367   4.661   4.493   3.648
 7490SOL     OW23368   4.446   4.734   2.510
 7490SOL    HW123369   4.502   4.738   2.593
 7490SOL    HW223370   4.354   4.770   2.529
 7491SOL     OW23371   4.444   4.932   3.671
 7491SOL    HW123372   4.477   5.019   3.708
 7491SOL    HW223373   4.360   4.948   3.618
 7492SOL     OW23374   4.091   5.125   2.955
 7492SOL    HW123375   4.007   5.081   2.923
 7492SOL    HW223376   4.134   5.175   2.879
 7493SOL     OW23377   5.181   5.219   3.239
 7493SOL    HW123378   5.234   5.303   3.254
 7493SOL    HW223379   5.103   5.217   3.301
 7494SOL     OW23380   5.345   4.187   2.631
 7494SOL    HW123381   5.262   4.185   2.575
 7494SOL    HW223382   5.342   4.265   2.693
 7495SOL     OW23383   3.936   5.490   2.322
 7495SOL    HW123384   3.966   5.556   2.392
 7495SOL    HW223385   4.008   5.480   2.253
 7496SOL     OW23386   4.867   5.056   3.593
 7496SOL    HW123387   4.926   5.041   3.673
 7496SOL    HW223388   4.805   4.978   3.583
 7497SOL     OW23389   4.024   5.235   2.388
 7497SOL    HW123390   3.974   5.322   2.385
 7497SOL    HW223391   3.968   5.166   2.434
 7498SOL     OW23392   3.961   4.849   2.689
 7498SOL    HW123393   3.903   4.767   2.688
 7498SOL    HW223394   3.935   4.907   2.767
 7499SOL     OW23395   4.307   5.581   3.254
 7499SOL    HW123396   4.221   5.564   3.302
 7499SOL    HW223397   4.360   5.650   3.304
 7500SOL     OW23398   4.339   4.781   2.043
 7500SOL    HW123399   4.371   4.828   1.961
 7500SOL    HW223400   4.398   4.804   2.120
 7501SOL     OW23401   5.404   3.840   3.381
 7501SOL    HW123402   5.423   3.922   3.327
 7501SOL    HW223403   5.350   3.865   3.462
 7502SOL     OW23404   5.590   5.478   2.170
 7502SOL    HW123405   5.667   5.463   2.232
 7502SOL    HW223406   5.587   5.575   2.144
 7503SOL     OW23407   3.806   5.361   1.949
 7503SOL    HW123408   3.794   5.265   1.973
 7503SOL    HW223409   3.771   5.418   2.024
 7504SOL     OW23410   5.434   4.700   2.501
 7504SOL    HW123411   5.475   4.631   2.442
 7504SOL    HW223412   5.402   4.777   2.446
 7505SOL     OW23413   5.389   4.884   2.294
 7505SOL    HW123414   5.469   4.839   2.255
 7505SOL    HW223415   5.416   4.972   2.333
 7506SOL     OW23416   4.346   5.081   2.598
 7506SOL    HW123417   4.301   4.992   2.593
 7506SOL    HW223418   4.329   5.133   2.514
 7507SOL     OW23419   4.979   4.940   3.286
 7507SOL    HW123420   5.003   4.876   3.213
 7507SOL    HW223421   5.049   4.939   3.356
 7508SOL     OW23422   5.297   4.751   2.066
 7508SOL    HW123423   5.235   4.677   2.089
 7508SOL    HW223424   5.318   4.804   2.148
 7509SOL     OW23425   5.006   5.600   3.500
 7509SOL    HW123426   4.958   5.654   3.431
 7509SOL    HW223427   4.998   5.502   3.478
 7510SOL     OW23428   4.025   3.926   3.668
 7510SOL    HW123429   3.951   3.987   3.642
 7510SOL    HW223430   4.007   3.889   3.760
 7511SOL     OW23431   5.205   5.130   2.763
 7511SOL    HW123432   5.142   5.159   2.836
 7511SOL    HW223433   5.184   5.035   2.738
 7512SOL     OW23434   5.354   5.570   2.408
 7512SOL    HW123435   5.349   5.511   2.328
 7512SOL    HW223436   5.353   5.513   2.491
 7513SOL     OW23437   4.422   4.523   2.106
 7513SOL    HW123438   4.389   4.609   2.065
 7513SOL    HW223439   4.445   4.459   2.033
 7514SOL     OW23440   5.054   4.172   2.816
 7514SOL    HW123441   4.955   4.158   2.814
 7514SOL    HW223442   5.096   4.105   2.877
 7515SOL     OW23443   5.326   5.410   2.185
 7515SOL    HW123444   5.425   5.422   2.177
 7515SOL    HW223445   5.287   5.392   2.095
 7516SOL     OW23446   4.678   4.213   3.387
 7516SOL    HW123447   4.739   4.152   3.438
 7516SOL    HW223448   4.589   4.215   3.431
 7517SOL     OW23449   5.110   4.179   3.512
 7517SOL    HW123450   5.107   4.234   3.596
 7517SOL    HW223451   5.169   4.099   3.528
 7518SOL     OW23452   4.678   4.594   3.497
 7518SOL    HW123453   4.743   4.539   3.444
 7518SOL    HW223454   4.616   4.641   3.434
 7519SOL     OW23455   4.702   4.201   3.111
 7519SOL    HW123456   4.686   4.195   3.209
 7519SOL    HW223457   4.641   4.269   3.071
 7520SOL     OW23458   4.881   4.462   2.247
 7520SOL    HW123459   4.897   4.441   2.344
 7520SOL    HW223460   4.793   4.425   2.219
 7521SOL     OW23461   3.831   5.660   3.454
 7521SOL    HW123462   3.843   5.617   3.543
 7521SOL    HW223463   3.738   5.643   3.421
 7522SOL     OW23464   5.394   4.320   3.696
 7522SOL    HW123465   5.376   4.403   3.643
 7522SOL    HW223466   5.424   4.248   3.634
 7523SOL     OW23467   5.132   4.901   2.413
 7523SOL    HW123468   5.220   4.898   2.365
 7523SOL    HW223469   5.070   4.963   2.366
 7524SOL     OW23470   4.751   5.223   2.314
 7524SOL    HW123471   4.735   5.309   2.265
 7524SOL    HW223472   4.699   5.222   2.399
 7525SOL     OW23473   4.088   5.511   2.736
 7525SOL    HW123474   4.127   5.418   2.738
 7525SOL    HW223475   4.158   5.576   2.766
 7526SOL     OW23476   5.559   4.777   2.732
 7526SOL    HW123477   5.513   4.755   2.647
 7526SOL    HW223478   5.491   4.796   2.803
 7527SOL     OW23479   4.948   5.234   3.389
 7527SOL    HW123480   4.935   5.168   3.463
 7527SOL    HW223481   4.878   5.219   3.319
 7528SOL     OW23482   4.068   4.727   2.061
 7528SOL    HW123483   4.165   4.750   2.053
 7528SOL    HW223484   4.049   4.641   2.013
 7529SOL     OW23485   5.230   4.516   2.543
 7529SOL    HW123486   5.223   4.473   2.633
 7529SOL    HW223487   5.304   4.582   2.544
 7530SOL     OW23488   4.215   5.052   3.556
 7530SOL    HW123489   4.171   5.043   3.466
 7530SOL    HW223490   4.145   5.068   3.625
 7531SOL     OW23491   4.905   5.488   2.092
 7531SOL    HW123492   4.815   5.486   2.135
 7531SOL    HW223493   4.921   5.402   2.044
 7532SOL     OW23494   3.902   3.963   3.338
 7532SOL    HW123495   3.816   3.986   3.294
 7532SOL    HW223496   3.894   3.873   3.382
 7533SOL     OW23497   5.394   5.136   1.959
 7533SOL    HW123498   5.335   5.216   1.961
 7533SOL    HW223499   5.343   5.057   1.926
 7534SOL     OW23500   4.160   5.478   2.163
 7534SOL    HW123501   4.226   5.523   2.224
 7534SOL    HW223502   4.200   5.394   2.128
 7535SOL     OW23503   5.128   3.828   2.300
 7535SOL    HW123504   5.130   3.798   2.204
 7535SOL    HW223505   5.206   3.787   2.349
 7536SOL     OW23506   3.985   5.536   3.062
 7536SOL    HW123507   4.032   5.457   3.102
 7536SOL    HW223508   3.943   5.511   2.975
 7537SOL     OW23509   4.657   5.399   2.699
 7537SOL    HW123510   4.752   5.368   2.711
 7537SOL    HW223511   4.614   5.344   2.627
 7538SOL     OW23512   5.271   3.954   3.604
 7538SOL    HW123513   5.304   3.959   3.698
 7538SOL    HW223514   5.183   3.907   3.603
 7539SOL     OW23515   4.622   5.282   3.030
 7539SOL    HW123516   4.588   5.229   2.952
 7539SOL    HW223517   4.672   5.221   3.092
 7540SOL     OW23518   5.066   4.312   3.271
 7540SOL    HW123519   5.094   4.274   3.359
 7540SOL    HW223520   5.107   4.402   3.258
 7541SOL     OW23521   4.541   5.108   2.814
 7541SOL    HW123522   4.633   5.109   2.773
 7541SOL    HW223523   4.472   5.106   2.742
 7542SOL     OW23524   4.685   4.338   2.788
 7542SOL    HW123525   4.657   4.344   2.693
 7542SOL    HW223526   4.727   4.249   2.806
 7543SOL     OW23527   4.115   3.823   2.289
 7543SOL    HW123528   4.073   3.830   2.379
 7543SOL    HW223529   4.077   3.892   2.229
 7544SOL     OW23530   5.206   4.939   1.887
 7544SOL    HW123531   5.243   4.863   1.940
 7544SOL    HW223532   5.114   4.961   1.921
 7545SOL     OW23533   4.008   3.820   2.017
 7545SOL    HW123534   4.067   3.861   1.947
 7545SOL    HW223535   4.052   3.739   2.055
 7546SOL     OW23536   4.757   4.149   2.357
 7546SOL    HW123537   4.711   4.199   2.283
 7546SOL    HW223538   4.847   4.120   2.325
 7547SOL     OW23539   4.821   4.434   3.322
 7547SOL    HW123540   4.762   4.357   3.345
 7547SOL    HW223541   4.911   4.399   3.296
 7548SOL     OW23542   4.927   5.344   2.680
 7548SOL    HW123543   4.956   5.395   2.599
 7548SOL    HW223544   4.963   5.388   2.762
 7549SOL     OW23545   4.197   4.855   2.543
 7549SOL    HW123546   4.119   4.845   2.604
 7549SOL    HW223547   4.165   4.862   2.448
 7550SOL     OW23548   4.973   5.521   2.466
 7550SOL    HW123549   5.021   5.587   2.408
 7550SOL    HW223550   4.889   5.562   2.501
 7551SOL     OW23551   4.782   4.221   1.888
 7551SOL    HW123552   4.693   4.263   1.908
 7551SOL    HW223553   4.841   4.231   1.968
 7552SOL     OW23554   4.644   4.342   2.523
 7552SOL    HW123555   4.579   4.398   2.471
 7552SOL    HW223556   4.669   4.262   2.468
 7553SOL     OW23557   4.783   3.968   2.560
 7553SOL    HW123558   4.777   4.039   2.490
 7553SOL    HW223559   4.708   3.903   2.548
 7554SOL     OW23560   5.166   4.865   2.704
 7554SOL    HW123561   5.114   4.786   2.738
 7554SOL    HW223562   5.149   4.875   2.606
 7555SOL     OW23563   5.208   4.399   2.795
 7555SOL    HW123564   5.144   4.323   2.803
 7555SOL    HW223565   5.276   4.393   2.868
 7556SOL     OW23566   5.509   4.522   2.305
 7556SOL    HW123567   5.585   4.464   2.334
 7556SOL    HW223568   5.428   4.465   2.287
 7557SOL     OW23569   4.276   5.241   2.075
 7557SOL    HW123570   4.192   5.188   2.082
 7557SOL    HW223571   4.339   5.194   2.013
 7558SOL     OW23572   5.487   5.098   2.419
 7558SOL    HW123573   5.578   5.089   2.459
 7558SOL    HW223574   5.435   5.167   2.470
 7559SOL     OW23575   5.122   4.294   1.873
 7559SOL    HW123576   5.074   4.266   1.955
 7559SOL    HW223577   5.221   4.295   1.891
 7560SOL     OW23578   5.474   4.946   3.374
 7560SOL    HW123579   5.566   4.911   3.358
 7560SOL    HW223580   5.480   5.036   3.417
 7561SOL     OW23581   4.760   5.093   3.208
 7561SOL    HW123582   4.673   5.063   3.247
 7561SOL    HW223583   4.833   5.035   3.244
 7562SOL     OW23584   5.337   5.362   3.537
 7562SOL    HW123585   5.318   5.407   3.450
 7562SOL    HW223586   5.411   5.295   3.525
 7563SOL     OW23587   4.877   5.004   2.973
 7563SOL    HW123588   4.815   5.032   3.046
 7563SOL    HW223589   4.838   5.030   2.884
 7564SOL     OW23590   5.354   4.829   2.915
 7564SOL    HW123591   5.341   4.893   2.990
 7564SOL    HW223592   5.284   4.844   2.846
 7565SOL     OW23593   4.697   4.838   3.618
 7565SOL    HW123594   4.604   4.869   3.633
 7565SOL    HW223595   4.696   4.749   3.573
 7566SOL     OW23596   4.516   4.830   2.258
 7566SOL    HW123597   4.486   4.799   2.348
 7566SOL    HW223598   4.605   4.789   2.237
 7567SOL     OW23599   4.953   4.091   3.146
 7567SOL    HW123600   5.001   4.166   3.189
 7567SOL    HW223601   4.862   4.121   3.118
 7568SOL     OW23602   3.821   5.312   3.245
 7568SOL    HW123603   3.772   5.374   3.184
 7568SOL    HW223604   3.919   5.323   3.232
 7569SOL     OW23605   4.079   4.889   2.291
 7569SOL    HW123606   4.080   4.971   2.234
 7569SOL    HW223607   4.068   4.808   2.233
 7570SOL     OW23608   4.987   5.089   2.262
 7570SOL    HW123609   5.051   5.162   2.288
 7570SOL    HW223610   4.894   5.119   2.280
 7571SOL     OW23611   5.068   5.197   2.992
 7571SOL    HW123612   5.109   5.202   3.083
 7571SOL    HW223613   5.000   5.123   2.990
 7572SOL     OW23614   5.265   4.387   2.294
 7572SOL    HW123615   5.241   4.418   2.386
 7572SOL    HW223616   5.213   4.440   2.227
 7573SOL     OW23617   4.090   5.297   3.163
 7573SOL    HW123618   4.081   5.233   3.086
 7573SOL    HW223619   4.187   5.318   3.177
 7574SOL     OW23620   5.344   4.538   3.546
 7574SOL    HW123621   5.251   4.571   3.532
 7574SOL    HW223622   5.402   4.568   3.470
 7575SOL     OW23623   5.028   3.845   3.606
 7575SOL    HW123624   4.950   3.908   3.607
 7575SOL    HW223625   5.002   3.761   3.558
 7576SOL     OW23626   4.160   3.686   3.661
 7576SOL    HW123627   4.145   3.631   3.579
 7576SOL    HW223628   4.127   3.779   3.645
 7577SOL     OW23629   4.371   4.616   2.938
 7577SOL    HW123630   4.399   4.712   2.945
 7577SOL    HW223631   4.289   4.609   2.882
 7578SOL     OW23632   5.057   4.636   2.825
 7578SOL    HW123633   4.959   4.617   2.827
 7578SOL    HW223634   5.107   4.551   2.813
 7579SOL     OW23635   4.975   4.246   2.096
 7579SOL    HW123636   4.997   4.175   2.163
 7579SOL    HW223637   4.947   4.329   2.145
 7580SOL     OW23638   4.003   3.932   3.080
 7580SOL    HW123639   3.991   3.953   3.177
 7580SOL    HW223640   4.000   3.832   3.067
 7581SOL     OW23641   3.804   5.055   3.147
 7581SOL    HW123642   3.791   4.988   3.221
 7581SOL    HW223643   3.797   5.147   3.184
 7582SOL     OW23644   4.543   4.414   3.005
 7582SOL    HW123645   4.582   4.382   2.919
 7582SOL    HW223646   4.468   4.478   2.987
 7583SOL     OW23647   5.468   4.704   3.728
 7583SOL    HW123648   5.420   4.638   3.671
 7583SOL    HW223649   5.417   4.719   3.813
 7584SOL     OW23650   3.984   3.793   2.527
 7584SOL    HW123651   3.939   3.879   2.552
 7584SOL    HW223652   4.038   3.760   2.604
 7585SOL     OW23653   5.347   4.134   2.197
 7585SOL    HW123654   5.373   4.070   2.269
 7585SOL    HW223655   5.305   4.215   2.238
 7586SOL     OW23656   4.790   4.581   2.865
 7586SOL    HW123657   4.769   4.597   2.962
 7586SOL    HW223658   4.757   4.490   2.839
 7587SOL     OW23659   4.732   5.291   3.645
 7587SOL    HW123660   4.696   5.347   3.570
 7587SOL    HW223661   4.768   5.205   3.608
 7588SOL     OW23662   5.552   5.202   3.453
 7588SOL    HW123663   5.572   5.224   3.358
 7588SOL    HW223664   5.630   5.225   3.511
 7589SOL     OW23665   4.187   4.737   3.667
 7589SOL    HW123666   4.246   4.729   3.747
 7589SOL    HW223667   4.236   4.706   3.586
 7590SOL     OW23668   5.317   3.954   1.980
 7590SOL    HW123669   5.254   3.882   2.008
 7590SOL    HW223670   5.319   4.026   2.049
 7591SOL     OW23671   5.043   4.557   1.866
 7591SOL    HW123672   5.053   4.457   1.860
 7591SOL    HW223673   5.061   4.598   1.777
 7592SOL     OW23674   4.798   5.101   2.726
 7592SOL    HW123675   4.818   5.020   2.671
 7592SOL    HW223676   4.856   5.177   2.695
 7593SOL     OW23677   4.856   4.066   3.538
 7593SOL    HW123678   4.821   4.100   3.625
 7593SOL    HW223679   4.945   4.108   3.519
 7594SOL     OW23680   4.885   3.876   3.326
 7594SOL    HW123681   4.858   3.933   3.404
 7594SOL    HW223682   4.911   3.935   3.249
 7595SOL     OW23683   3.775   5.103   2.027
 7595SOL    HW123684   3.680   5.123   2.005
 7595SOL    HW223685   3.782   5.011   2.065
 7596SOL     OW23686   3.833   5.476   2.829
 7596SOL    HW123687   3.785   5.399   2.785
 7596SOL    HW223688   3.921   5.490   2.784
 7597SOL     OW23689   4.222   5.268   2.763
 7597SOL    HW123690   4.295   5.328   2.795
 7597SOL    HW223691   4.259   5.199   2.700
 7598SOL     OW23692   4.701   4.593   3.132
 7598SOL    HW123693   4.755   4.547   3.202
 7598SOL    HW223694   4.634   4.529   3.094
 7599SOL     OW23695   3.621   4.161   3.010
 7599SOL    HW123696   3.707   4.139   2.963
 7599SOL    HW223697   3.548   4.171   2.943
 7600SOL     OW23698   3.813   4.081   3.570
 7600SOL    HW123699   3.864   4.055   3.488
 7600SOL    HW223700   3.716   4.094   3.546
 7601SOL     OW23701   5.107   4.654   3.479
 7601SOL    HW123702   5.131   4.751   3.480
 7601SOL    HW223703   5.098   4.623   3.385
 7602SOL     OW23704   4.647   4.340   2.190
 7602SOL    HW123705   4.606   4.326   2.100
 7602SOL    HW223706   4.585   4.396   2.246
 7603SOL     OW23707   5.398   4.357   2.989
 7603SOL    HW123708   5.365   4.283   3.048
 7603SOL    HW223709   5.498   4.352   2.983
 7604SOL     OW23710   4.011   5.330   3.551
 7604SOL    HW123711   3.963   5.396   3.608
 7604SOL    HW223712   3.999   5.238   3.589
 7605SOL     OW23713   4.617   5.431   3.428
 7605SOL    HW123714   4.559   5.360   3.386
 7605SOL    HW223715   4.636   5.502   3.361
 7606SOL     OW23716   3.814   4.868   3.348
 7606SOL    HW123717   3.864   4.864   3.435
 7606SOL    HW223718   3.821   4.780   3.301
 7607SOL     OW23719   5.020   4.784   3.054
 7607SOL    HW123720   5.044   4.729   2.974
 7607SOL    HW223721   4.964   4.862   3.025
 7608SOL     OW23722   5.113   4.554   2.129
 7608SOL    HW123723   5.029   4.536   2.180
 7608SOL    HW223724   5.092   4.556   2.031
 7609SOL     OW23725   5.473   5.421   3.019
 7609SOL    HW123726   5.545   5.456   2.959
 7609SOL    HW223727   5.443   5.331   2.986
 7610SOL     OW23728   5.009   5.453   2.921
 7610SOL    HW123729   5.091   5.509   2.930
 7610SOL    HW223730   5.028   5.360   2.953
 7611SOL     OW23731   3.851   5.010   2.885
 7611SOL    HW123732   3.830   5.025   2.982
 7611SOL    HW223733   3.769   4.977   2.838
 7612SOL     OW23734   4.426   5.471   3.625
 7612SOL    HW123735   4.356   5.539   3.604
 7612SOL    HW223736   4.502   5.480   3.560
 7613SOL     OW23737   5.472   3.933   2.350
 7613SOL    HW123738   5.514   3.909   2.262
 7613SOL    HW223739   5.426   3.852   2.387
 7614SOL     OW23740   5.130   5.311   2.352
 7614SOL    HW123741   5.192   5.350   2.284
 7614SOL    HW223742   5.062   5.380   2.379
 7615SOL     OW23743   3.876   5.528   3.689
 7615SOL    HW123744   3.821   5.457   3.732
 7615SOL    HW223745   3.928   5.577   3.759
 7616SOL     OW23746   5.008   4.673   2.500
 7616SOL    HW123747   5.086   4.612   2.515
 7616SOL    HW223748   5.039   4.756   2.453
 7617SOL     OW23749   4.511   5.025   3.301
 7617SOL    HW123750   4.489   5.087   3.376
 7617SOL    HW223751   4.438   5.028   3.232
 7618SOL     OW23752   4.452   5.450   2.023
 7618SOL    HW123753   4.457   5.449   1.923
 7618SOL    HW223754   4.396   5.373   2.055
 7619SOL     OW23755   5.329   5.455   3.264
 7619SOL    HW123756   5.383   5.447   3.180
 7619SOL    HW223757   5.310   5.551   3.283
 7620SOL     OW23758   5.581   3.865   2.852
 7620SOL    HW123759   5.603   3.772   2.821
 7620SOL    HW223760   5.491   3.892   2.817
 7621SOL     OW23761   3.874   4.023   2.615
 7621SOL    HW123762   3.794   4.059   2.568
 7621SOL    HW223763   3.873   4.054   2.711
 7622SOL     OW23764   4.956   5.265   1.941
 7622SOL    HW123765   4.958   5.168   1.967
 7622SOL    HW223766   4.876   5.282   1.884
 7623SOL     OW23767   4.541   4.745   3.311
 7623SOL    HW123768   4.594   4.712   3.233
 7623SOL    HW223769   4.536   4.845   3.308
 7624SOL     OW23770   4.762   4.722   2.208
 7624SOL    HW123771   4.784   4.730   2.111
 7624SOL    HW223772   4.802   4.638   2.244
 7625SOL     OW23773   5.222   5.360   1.933
 7625SOL    HW123774   5.127   5.327   1.930
 7625SOL    HW223775   5.258   5.365   1.840
 7626SOL     OW23776   4.065   5.060   3.329
 7626SOL    HW123777   4.072   5.147   3.282
 7626SOL    HW223778   3.990   5.007   3.290
 7627SOL     OW23779   5.337   5.011   3.136
 7627SOL    HW123780   5.392   4.975   3.212
 7627SOL    HW223781   5.271   5.077   3.171
 7628SOL     OW23782   4.826   4.859   2.608
 7628SOL    HW123783   4.742   4.819   2.644
 7628SOL    HW223784   4.882   4.788   2.567
 7629SOL     OW23785   4.794   4.089   2.806
 7629SOL    HW123786   4.791   4.038   2.720
 7629SOL    HW223787   4.751   4.035   2.878
 7630SOL     OW23788   4.300   5.224   2.368
 7630SOL    HW123789   4.323   5.208   2.272
 7630SOL    HW223790   4.201   5.235   2.377
 7631SOL     OW23791   5.533   4.077   3.271
 7631SOL    HW123792   5.597   4.153   3.260
 7631SOL    HW223793   5.561   4.001   3.213
 7632SOL     OW23794   4.039   5.123   2.141
 7632SOL    HW123795   3.950   5.115   2.094
 7632SOL    HW223796   4.027   5.171   2.228
 7633SOL     OW23797   3.943   4.824   3.589
 7633SOL    HW123798   3.880   4.764   3.639
 7633SOL    HW223799   4.037   4.798   3.609
 7634SOL     OW23800   3.894   4.031   1.780
 7634SOL    HW123801   3.810   4.051   1.831
 7634SOL    HW223802   3.920   4.110   1.725
 7635SOL     OW23803   5.131   4.583   3.215
 7635SOL    HW123804   5.070   4.645   3.166
 7635SOL    HW223805   5.224   4.590   3.178
 7636SOL     OW23806   3.756   3.899   2.088
 7636SOL    HW123807   3.720   3.965   2.023
 7636SOL    HW223808   3.853   3.881   2.068
 7637SOL     OW23809   4.953   4.981   1.997
 7637SOL    HW123810   4.904   4.894   1.986
 7637SOL    HW223811   4.960   5.003   2.094
 7638SOL     OW23812   4.316   4.652   3.442
 7638SOL    HW123813   4.395   4.693   3.396
 7638SOL    HW223814   4.289   4.569   3.393
 7639SOL     OW23815   5.251   5.588   2.936
 7639SOL    HW123816   5.282   5.641   2.858
 7639SOL    HW223817   5.326   5.534   2.973
 7640SOL     OW23818   5.204   4.910   3.477
 7640SOL    HW123819   5.207   4.930   3.575
 7640SOL    HW223820   5.294   4.926   3.437
 7641SOL     OW23821   4.083   5.544   3.405
 7641SOL    HW123822   3.995   5.590   3.398
 7641SOL    HW223823   4.070   5.454   3.446
 7642SOL     OW23824   5.377   4.614   3.091
 7642SOL    HW123825   5.388   4.526   3.046
 7642SOL    HW223826   5.372   4.686   3.022
 7643SOL     OW23827   5.018   4.078   2.309
 7643SOL    HW123828   5.056   3.986   2.300
 7643SOL    HW223829   5.050   4.120   2.394
 7644SOL     OW23830   4.495   4.504   2.363
 7644SOL    HW123831   4.474   4.584   2.420
 7644SOL    HW223832   4.453   4.515   2.273
 7645SOL     OW23833   5.479   4.115   3.536
 7645SOL    HW123834   5.498   4.107   3.438
 7645SOL    HW223835   5.406   4.052   3.561
 7646SOL     OW23836   5.482   4.654   3.340
 7646SOL    HW123837   5.468   4.750   3.364
 7646SOL    HW223838   5.448   4.638   3.247
 7647SOL     OW23839   4.505   5.160   1.929
 7647SOL    HW123840   4.531   5.135   2.023
 7647SOL    HW223841   4.579   5.210   1.886
 7648SOL     OW23842   4.415   5.446   2.822
 7648SOL    HW123843   4.384   5.540   2.809
 7648SOL    HW223844   4.508   5.436   2.789
 7649SOL     OW23845   4.606   4.750   2.741
 7649SOL    HW123846   4.671   4.685   2.781
 7649SOL    HW223847   4.550   4.790   2.814
 7650SOL     OW23848   4.839   4.725   1.946
 7650SOL    HW123849   4.753   4.685   1.913
 7650SOL    HW223850   4.916   4.668   1.918
 7651SOL     OW23851   5.533   5.298   2.712
 7651SOL    HW123852   5.459   5.299   2.645
 7651SOL    HW223853   5.510   5.237   2.787
 7652SOL     OW23854   3.944   5.087   3.660
 7652SOL    HW123855   3.948   4.995   3.622
 7652SOL    HW223856   3.886   5.087   3.742
 7653SOL     OW23857   3.892   5.004   2.468
 7653SOL    HW123858   3.911   4.956   2.554
 7653SOL    HW223859   3.937   4.957   2.392
 7654SOL     OW23860   4.423   5.215   3.486
 7654SOL    HW123861   4.345   5.156   3.509
 7654SOL    HW223862   4.425   5.293   3.548
 7655SOL     OW23863   5.613   3.868   3.123
 7655SOL    HW123864   5.673   3.790   3.140
 7655SOL    HW223865   5.591   3.873   3.026
 7656SOL     OW23866   5.416   5.172   2.928
 7656SOL    HW123867   5.340   5.156   2.865
 7656SOL    HW223868   5.409   5.109   3.005
 7657SOL     OW23869   4.552   5.246   2.501
 7657SOL    HW123870   4.483   5.283   2.439
 7657SOL    HW223871   4.518   5.161   2.542
 7658SOL     OW23872   5.145   3.975   2.984
 7658SOL    HW123873   5.157   3.876   2.995
 7658SOL    HW223874   5.077   4.008   3.050
 7659SOL     OW23875   4.547   5.091   2.185
 7659SOL    HW123876   4.531   4.996   2.213
 7659SOL    HW223877   4.626   5.127   2.233
 7660SOL     OW23878   4.370   5.337   3.148
 7660SOL    HW123879   4.355   5.429   3.184
 7660SOL    HW223880   4.454   5.335   3.095
 7661SOL     OW23881   5.147   3.748   2.035
 7661SOL    HW123882   5.191   3.668   1.994
 7661SOL    HW223883   5.048   3.736   2.034
 7662SOL     OW23884   5.082   4.207   2.543
 7662SOL    HW123885   5.024   4.287   2.524
 7662SOL    HW223886   5.068   4.178   2.638
 7663SOL     OW23887   5.333   3.945   2.781
 7663SOL    HW123888   5.265   3.968   2.851
 7663SOL    HW223889   5.338   4.021   2.715
 7664SOL     OW23890   3.812   4.852   2.103
 7664SOL    HW123891   3.894   4.799   2.084
 7664SOL    HW223892   3.737   4.819   2.046
 7665SOL     OW23893   4.658   5.459   2.204
 7665SOL    HW123894   4.588   5.452   2.132
 7665SOL    HW223895   4.628   5.525   2.273
 7666SOL     OW23896   3.906   4.034   4.742
 7666SOL    HW123897   3.963   3.991   4.814
 7666SOL    HW223898   3.827   3.976   4.724
 7667SOL     OW23899   3.681   4.111   4.391
 7667SOL    HW123900   3.594   4.149   4.421
 7667SOL    HW223901   3.665   4.027   4.340
 7668SOL     OW23902   4.323   5.073   4.958
 7668SOL    HW123903   4.237   5.054   4.910
 7668SOL    HW223904   4.330   5.171   4.974
 7669SOL     OW23905   5.315   5.232   4.433
 7669SOL    HW123906   5.256   5.196   4.505
 7669SOL    HW223907   5.259   5.259   4.355
 7670SOL     OW23908   4.917   4.423   4.352
 7670SOL    HW123909   4.940   4.517   4.376
 7670SOL    HW223910   4.845   4.390   4.413
 7671SOL     OW23911   5.552   4.291   3.912
 7671SOL    HW123912   5.494   4.314   3.834
 7671SOL    HW223913   5.501   4.236   3.978
 7672SOL     OW23914   4.516   4.930   4.813
 7672SOL    HW123915   4.456   4.954   4.890
 7672SOL    HW223916   4.521   5.007   4.750
 7673SOL     OW23917   4.583   4.432   5.555
 7673SOL    HW123918   4.512   4.476   5.611
 7673SOL    HW223919   4.607   4.492   5.479
 7674SOL     OW23920   4.456   4.743   4.374
 7674SOL    HW123921   4.509   4.738   4.459
 7674SOL    HW223922   4.369   4.789   4.391
 7675SOL     OW23923   4.395   4.879   5.575
 7675SOL    HW123924   4.431   4.964   5.612
 7675SOL    HW223925   4.332   4.899   5.499
 7676SOL     OW23926   4.080   5.129   4.807
 7676SOL    HW123927   4.007   5.068   4.776
 7676SOL    HW223928   4.125   5.171   4.728
 7677SOL     OW23929   5.150   5.225   5.103
 7677SOL    HW123930   5.208   5.306   5.115
 7677SOL    HW223931   5.076   5.227   5.170
 7678SOL     OW23932   4.191   4.133   5.405
 7678SOL    HW123933   4.286   4.162   5.399
 7678SOL    HW223934   4.163   4.090   5.319
 7679SOL     OW23935   5.328   4.175   4.515
 7679SOL    HW123936   5.249   4.173   4.455
 7679SOL    HW223937   5.319   4.252   4.579
 7680SOL     OW23938   3.954   5.478   4.192
 7680SOL    HW123939   3.976   5.545   4.263
 7680SOL    HW223940   4.031   5.473   4.128
 7681SOL     OW23941   4.846   5.041   5.456
 7681SOL    HW123942   4.925   5.009   5.509
 7681SOL    HW223943   4.777   4.969   5.451
 7682SOL     OW23944   3.941   5.204   4.222
 7682SOL    HW123945   3.939   5.304   4.224
 7682SOL    HW223946   3.892   5.169   4.301
 7683SOL     OW23947   4.079   4.848   4.643
 7683SOL    HW123948   4.144   4.811   4.710
 7683SOL    HW223949   3.995   4.874   4.690
 7684SOL     OW23950   4.272   5.561   5.159
 7684SOL    HW123951   4.198   5.525   5.216
 7684SOL    HW223952   4.321   5.632   5.209
 7685SOL     OW23953   4.388   4.754   3.874
 7685SOL    HW123954   4.416   4.816   3.801
 7685SOL    HW223955   4.426   4.785   3.961
 7686SOL     OW23956   5.403   3.831   5.221
 7686SOL    HW123957   5.417   3.888   5.140
 7686SOL    HW223958   5.334   3.874   5.280
 7687SOL     OW23959   5.599   5.491   4.031
 7687SOL    HW123960   5.677   5.475   4.091
 7687SOL    HW223961   5.597   5.588   4.005
 7688SOL     OW23962   3.764   5.335   3.836
 7688SOL    HW123963   3.762   5.237   3.857
 7688SOL    HW223964   3.743   5.387   3.918
 7689SOL     OW23965   5.453   4.666   4.374
 7689SOL    HW123966   5.528   4.607   4.344
 7689SOL    HW223967   5.431   4.732   4.302
 7690SOL     OW23968   5.417   4.856   4.170
 7690SOL    HW123969   5.496   4.821   4.119
 7690SOL    HW223970   5.444   4.938   4.221
 7691SOL     OW23971   3.902   4.434   5.311
 7691SOL    HW123972   3.992   4.479   5.312
 7691SOL    HW223973   3.834   4.497   5.348
 7692SOL     OW23974   4.359   5.125   4.423
 7692SOL    HW123975   4.319   5.034   4.430
 7692SOL    HW223976   4.351   5.158   4.329
 7693SOL     OW23977   4.968   4.966   5.122
 7693SOL    HW123978   4.981   4.893   5.054
 7693SOL    HW223979   5.035   4.955   5.195
 7694SOL     OW23980   5.293   4.753   3.941
 7694SOL    HW123981   5.227   4.681   3.964
 7694SOL    HW223982   5.330   4.792   4.025
 7695SOL     OW23983   4.991   5.588   5.362
 7695SOL    HW123984   4.950   5.644   5.290
 7695SOL    HW223985   4.984   5.492   5.337
 7696SOL     OW23986   4.074   3.939   5.557
 7696SOL    HW123987   4.125   4.013   5.514
 7696SOL    HW223988   3.978   3.965   5.565
 7697SOL     OW23989   5.149   5.141   4.640
 7697SOL    HW123990   5.092   5.157   4.721
 7697SOL    HW223991   5.147   5.044   4.617
 7698SOL     OW23992   5.368   5.594   4.261
 7698SOL    HW123993   5.362   5.528   4.186
 7698SOL    HW223994   5.379   5.545   4.348
 7699SOL     OW23995   4.504   4.511   3.948
 7699SOL    HW123996   4.453   4.588   3.909
 7699SOL    HW223997   4.503   4.517   4.048
 7700SOL     OW23998   5.031   4.184   4.685
 7700SOL    HW123999   4.931   4.187   4.693
 7700SOL    HW224000   5.066   4.104   4.734
 7701SOL     OW24001   5.337   5.421   4.047
 7701SOL    HW124002   5.435   5.434   4.038
 7701SOL    HW224003   5.297   5.405   3.957
 7702SOL     OW24004   4.549   4.301   5.196
 7702SOL    HW124005   4.528   4.246   5.277
 7702SOL    HW224006   4.472   4.363   5.178
 7703SOL     OW24007   5.112   4.225   5.378
 7703SOL    HW124008   5.116   4.266   5.469
 7703SOL    HW224009   5.164   4.139   5.378
 7704SOL     OW24010   4.648   4.606   5.352
 7704SOL    HW124011   4.708   4.553   5.292
 7704SOL    HW224012   4.574   4.645   5.298
 7705SOL     OW24013   4.707   4.206   4.972
 7705SOL    HW124014   4.637   4.208   5.043
 7705SOL    HW224015   4.729   4.300   4.944
 7706SOL     OW24016   4.862   4.454   4.091
 7706SOL    HW124017   4.880   4.441   4.189
 7706SOL    HW224018   4.780   4.404   4.066
 7707SOL     OW24019   3.824   5.611   5.314
 7707SOL    HW124020   3.823   5.589   5.412
 7707SOL    HW224021   3.739   5.580   5.272
 7708SOL     OW24022   5.405   4.322   5.555
 7708SOL    HW124023   5.380   4.407   5.509
 7708SOL    HW224024   5.419   4.250   5.488
 7709SOL     OW24025   5.155   4.902   4.292
 7709SOL    HW124026   5.242   4.891   4.245
 7709SOL    HW224027   5.098   4.967   4.242
 7710SOL     OW24028   4.767   5.227   4.187
 7710SOL    HW124029   4.740   5.304   4.129
 7710SOL    HW224030   4.726   5.238   4.278
 7711SOL     OW24031   4.076   5.507   4.606
 7711SOL    HW124032   4.117   5.416   4.602
 7711SOL    HW224033   4.142   5.572   4.643
 7712SOL     OW24034   5.534   4.758   4.621
 7712SOL    HW124035   5.491   4.733   4.534
 7712SOL    HW224036   5.462   4.777   4.689
 7713SOL     OW24037   4.927   5.248   5.271
 7713SOL    HW124038   4.916   5.178   5.342
 7713SOL    HW224039   4.858   5.234   5.200
 7714SOL     OW24040   5.238   4.503   4.421
 7714SOL    HW124041   5.237   4.461   4.511
 7714SOL    HW224042   5.320   4.560   4.411
 7715SOL     OW24043   4.202   4.987   5.403
 7715SOL    HW124044   4.163   5.003   5.312
 7715SOL    HW224045   4.128   4.975   5.469
 7716SOL     OW24046   4.883   5.503   3.945
 7716SOL    HW124047   4.792   5.490   3.985
 7716SOL    HW224048   4.909   5.421   3.895
 7717SOL     OW24049   4.029   3.992   5.215
 7717SOL    HW124050   3.963   4.065   5.198
 7717SOL    HW224051   3.981   3.913   5.254
 7718SOL     OW24052   5.400   5.148   3.824
 7718SOL    HW124053   5.339   5.227   3.822
 7718SOL    HW224054   5.351   5.067   3.791
 7719SOL     OW24055   4.190   5.509   4.047
 7719SOL    HW124056   4.235   5.557   4.123
 7719SOL    HW224057   4.259   5.463   3.992
 7720SOL     OW24058   5.105   3.812   4.185
 7720SOL    HW124059   5.121   3.800   4.087
 7720SOL    HW224060   5.187   3.786   4.236
 7721SOL     OW24061   3.969   5.530   4.913
 7721SOL    HW124062   4.014   5.452   4.956
 7721SOL    HW224063   3.929   5.502   4.826
 7722SOL     OW24064   4.692   5.407   4.598
 7722SOL    HW124065   4.781   5.365   4.616
 7722SOL    HW224066   4.646   5.359   4.524
 7723SOL     OW24067   5.226   3.966   5.393
 7723SOL    HW124068   5.221   3.963   5.492
 7723SOL    HW224069   5.141   3.929   5.354
 7724SOL     OW24070   4.483   3.976   5.600
 7724SOL    HW124071   4.562   3.933   5.556
 7724SOL    HW224072   4.423   3.905   5.637
 7725SOL     OW24073   4.600   5.296   4.900
 7725SOL    HW124074   4.577   5.249   4.814
 7725SOL    HW224075   4.656   5.236   4.956
 7726SOL     OW24076   5.031   4.325   5.139
 7726SOL    HW124077   5.070   4.298   5.228
 7726SOL    HW224078   5.060   4.419   5.118
 7727SOL     OW24079   4.536   5.142   4.653
 7727SOL    HW124080   4.627   5.126   4.614
 7727SOL    HW224081   4.468   5.142   4.579
 7728SOL     OW24082   4.729   4.289   4.504
 7728SOL    HW124083   4.719   4.241   4.417
 7728SOL    HW224084   4.727   4.222   4.579
 7729SOL     OW24085   4.102   3.792   4.147
 7729SOL    HW124086   4.086   3.768   4.243
 7729SOL    HW224087   4.072   3.887   4.131
 7730SOL     OW24088   5.221   4.946   3.755
 7730SOL    HW124089   5.253   4.868   3.809
 7730SOL    HW224090   5.137   4.982   3.795
 7731SOL     OW24091   4.016   3.749   3.885
 7731SOL    HW124092   4.085   3.707   3.825
 7731SOL    HW224093   4.053   3.755   3.978
 7732SOL     OW24094   4.781   4.442   5.181
 7732SOL    HW124095   4.702   4.381   5.190
 7732SOL    HW224096   4.864   4.387   5.170
 7733SOL     OW24097   4.946   5.292   4.504
 7733SOL    HW124098   4.968   5.368   4.444
 7733SOL    HW224099   5.030   5.258   4.547
 7734SOL     OW24100   4.223   4.886   4.418
 7734SOL    HW124101   4.174   4.868   4.504
 7734SOL    HW224102   4.159   4.883   4.342
 7735SOL     OW24103   4.988   5.517   4.337
 7735SOL    HW124104   5.031   5.586   4.277
 7735SOL    HW224105   4.906   5.556   4.378
 7736SOL     OW24106   4.785   4.193   3.767
 7736SOL    HW124107   4.744   4.282   3.748
 7736SOL    HW224108   4.856   4.203   3.837
 7737SOL     OW24109   3.844   4.196   5.161
 7737SOL    HW124110   3.826   4.212   5.064
 7737SOL    HW224111   3.867   4.282   5.205
 7738SOL     OW24112   4.735   4.177   4.255
 7738SOL    HW124113   4.693   4.211   4.171
 7738SOL    HW224114   4.817   4.125   4.233
 7739SOL     OW24115   5.159   4.874   4.580
 7739SOL    HW124116   5.111   4.790   4.608
 7739SOL    HW224117   5.158   4.881   4.480
 7740SOL     OW24118   5.227   4.387   4.681
 7740SOL    HW124119   5.149   4.324   4.691
 7740SOL    HW224120   5.288   4.377   4.759
 7741SOL     OW24121   5.558   4.506   4.099
 7741SOL    HW124122   5.604   4.463   4.177
 7741SOL    HW224123   5.535   4.437   4.031
 7742SOL     OW24124   4.254   5.192   3.917
 7742SOL    HW124125   4.170   5.143   3.938
 7742SOL    HW224126   4.309   5.137   3.854
 7743SOL     OW24127   5.504   5.063   4.314
 7743SOL    HW124128   5.596   5.067   4.354
 7743SOL    HW224129   5.444   5.127   4.362
 7744SOL     OW24130   5.120   4.307   3.752
 7744SOL    HW124131   5.078   4.271   3.835
 7744SOL    HW224132   5.219   4.307   3.761
 7745SOL     OW24133   5.470   4.951   5.234
 7745SOL    HW124134   5.560   4.916   5.206
 7745SOL    HW224135   5.482   5.039   5.281
 7746SOL     OW24136   4.740   5.129   5.093
 7746SOL    HW124137   4.656   5.081   5.118
 7746SOL    HW224138   4.818   5.066   5.097
 7747SOL     OW24139   5.329   5.352   5.406
 7747SOL    HW124140   5.307   5.396   5.319
 7747SOL    HW224141   5.407   5.290   5.394
 7748SOL     OW24142   4.806   4.973   4.822
 7748SOL    HW124143   4.714   4.946   4.850
 7748SOL    HW224144   4.803   5.008   4.728
 7749SOL     OW24145   5.330   4.825   4.799
 7749SOL    HW124146   5.320   4.891   4.874
 7749SOL    HW224147   5.264   4.845   4.728
 7750SOL     OW24148   4.665   4.831   5.501
 7750SOL    HW124149   4.570   4.849   5.527
 7750SOL    HW224150   4.669   4.751   5.441
 7751SOL     OW24151   4.523   4.824   4.112
 7751SOL    HW124152   4.496   4.799   4.205
 7751SOL    HW224153   4.611   4.780   4.090
 7752SOL     OW24154   4.954   4.083   5.033
 7752SOL    HW124155   4.996   4.167   5.069
 7752SOL    HW224156   4.858   4.101   5.010
 7753SOL     OW24157   3.805   5.276   5.085
 7753SOL    HW124158   3.752   5.338   5.028
 7753SOL    HW224159   3.902   5.292   5.071
 7754SOL     OW24160   4.045   4.867   4.204
 7754SOL    HW124161   4.047   4.936   4.131
 7754SOL    HW224162   4.078   4.779   4.168
 7755SOL     OW24163   5.011   5.101   4.147
 7755SOL    HW124164   5.074   5.174   4.173
 7755SOL    HW224165   4.917   5.130   4.165
 7756SOL     OW24166   5.006   5.177   4.868
 7756SOL    HW124167   5.051   5.183   4.957
 7756SOL    HW224168   4.933   5.109   4.873
 7757SOL     OW24169   5.239   4.377   4.164
 7757SOL    HW124170   5.234   4.413   4.257
 7757SOL    HW224171   5.199   4.442   4.101
 7758SOL     OW24172   4.076   5.296   5.016
 7758SOL    HW124173   4.069   5.232   4.939
 7758SOL    HW224174   4.171   5.323   5.029
 7759SOL     OW24175   5.339   4.545   5.419
 7759SOL    HW124176   5.245   4.575   5.404
 7759SOL    HW224177   5.396   4.572   5.341
 7760SOL     OW24178   4.707   3.878   5.489
 7760SOL    HW124179   4.764   3.955   5.462
 7760SOL    HW224180   4.750   3.792   5.459
 7761SOL     OW24181   4.233   3.733   5.460
 7761SOL    HW124182   4.177   3.661   5.419
 7761SOL    HW224183   4.178   3.814   5.474
 7762SOL     OW24184   4.275   4.770   4.818
 7762SOL    HW124185   4.362   4.815   4.799
 7762SOL    HW224186   4.287   4.700   4.889
 7763SOL     OW24187   5.070   4.630   4.693
 7763SOL    HW124188   4.981   4.593   4.669
 7763SOL    HW224189   5.138   4.557   4.695
 7764SOL     OW24190   4.975   4.228   3.970
 7764SOL    HW124191   4.986   4.158   4.040
 7764SOL    HW224192   4.946   4.314   4.013
 7765SOL     OW24193   4.017   3.898   4.948
 7765SOL    HW124194   4.037   3.930   5.040
 7765SOL    HW224195   4.042   3.801   4.940
 7766SOL     OW24196   3.823   5.000   5.037
 7766SOL    HW124197   3.787   4.945   5.112
 7766SOL    HW224198   3.800   5.096   5.053
 7767SOL     OW24199   4.503   4.526   4.793
 7767SOL    HW124200   4.455   4.452   4.747
 7767SOL    HW224201   4.450   4.557   4.871
 7768SOL     OW24202   5.482   4.707   5.589
 7768SOL    HW124203   5.431   4.644   5.531
 7768SOL    HW224204   5.432   4.720   5.675
 7769SOL     OW24205   4.013   3.773   4.408
 7769SOL    HW124206   3.980   3.866   4.426
 7769SOL    HW224207   4.049   3.734   4.493
 7770SOL     OW24208   5.373   4.156   4.070
 7770SOL    HW124209   5.392   4.089   4.141
 7770SOL    HW224210   5.319   4.231   4.108
 7771SOL     OW24211   4.838   4.495   4.653
 7771SOL    HW124212   4.810   4.490   4.749
 7771SOL    HW224213   4.789   4.427   4.600
 7772SOL     OW24214   4.698   5.257   5.534
 7772SOL    HW124215   4.669   5.319   5.461
 7772SOL    HW224216   4.741   5.177   5.494
 7773SOL     OW24217   5.552   5.202   5.322
 7773SOL    HW124218   5.571   5.227   5.227
 7773SOL    HW224219   5.631   5.223   5.378
 7774SOL     OW24220   4.146   4.561   5.328
 7774SOL    HW124221   4.190   4.646   5.359
 7774SOL    HW224222   4.211   4.509   5.273
 7775SOL     OW24223   5.347   3.969   3.867
 7775SOL    HW124224   5.276   3.903   3.892
 7775SOL    HW224225   5.349   4.043   3.934
 7776SOL     OW24226   5.033   4.567   3.726
 7776SOL    HW124227   5.050   4.468   3.728
 7776SOL    HW224228   5.050   4.601   3.634
 7777SOL     OW24229   4.784   5.080   4.567
 7777SOL    HW124230   4.803   4.991   4.527
 7777SOL    HW224231   4.846   5.149   4.530
 7778SOL     OW24232   4.869   4.095   5.421
 7778SOL    HW124233   4.822   4.143   5.495
 7778SOL    HW224234   4.948   4.148   5.391
 7779SOL     OW24235   4.989   3.908   5.260
 7779SOL    HW124236   4.930   3.962   5.320
 7779SOL    HW224237   4.981   3.943   5.166
 7780SOL     OW24238   3.773   5.057   3.874
 7780SOL    HW124239   3.689   5.069   3.821
 7780SOL    HW224240   3.754   4.998   3.953
 7781SOL     OW24241   3.814   5.461   4.683
 7781SOL    HW124242   3.766   5.384   4.639
 7781SOL    HW224243   3.903   5.473   4.640
 7782SOL     OW24244   4.217   5.271   4.611
 7782SOL    HW124245   4.291   5.328   4.646
 7782SOL    HW224246   4.251   5.213   4.537
 7783SOL     OW24247   4.745   4.472   4.907
 7783SOL    HW124248   4.756   4.494   5.004
 7783SOL    HW224249   4.654   4.502   4.877
 7784SOL     OW24250   3.755   4.207   4.891
 7784SOL    HW124251   3.811   4.143   4.840
 7784SOL    HW224252   3.759   4.297   4.847
 7785SOL     OW24253   3.974   4.262   5.509
 7785SOL    HW124254   4.060   4.220   5.483
 7785SOL    HW224255   3.940   4.319   5.435
 7786SOL     OW24256   5.099   4.660   5.352
 7786SOL    HW124257   5.128   4.756   5.348
 7786SOL    HW224258   5.080   4.627   5.260
 7787SOL     OW24259   4.656   4.289   4.013
 7787SOL    HW124260   4.669   4.227   3.936
 7787SOL    HW224261   4.589   4.358   3.990
 7788SOL     OW24262   5.410   4.358   4.889
 7788SOL    HW124263   5.400   4.288   4.960
 7788SOL    HW224264   5.507   4.374   4.872
 7789SOL     OW24265   3.954   5.240   5.478
 7789SOL    HW124266   3.908   5.267   5.562
 7789SOL    HW224267   3.984   5.145   5.486
 7790SOL     OW24268   4.607   5.413   5.305
 7790SOL    HW124269   4.585   5.335   5.246
 7790SOL    HW224270   4.628   5.492   5.248
 7791SOL     OW24271   3.791   4.833   5.265
 7791SOL    HW124272   3.793   4.812   5.363
 7791SOL    HW224273   3.868   4.789   5.220
 7792SOL     OW24274   4.986   4.782   4.910
 7792SOL    HW124275   5.020   4.727   4.833
 7792SOL    HW224276   4.917   4.846   4.877
 7793SOL     OW24277   5.101   4.559   3.993
 7793SOL    HW124278   5.017   4.535   4.042
 7793SOL    HW224279   5.082   4.564   3.895
 7794SOL     OW24280   5.466   5.417   4.889
 7794SOL    HW124281   5.537   5.448   4.826
 7794SOL    HW224282   5.429   5.330   4.858
 7795SOL     OW24283   4.980   5.455   4.833
 7795SOL    HW124284   5.071   5.495   4.823
 7795SOL    HW224285   4.987   5.356   4.844
 7796SOL     OW24286   3.855   4.965   4.762
 7796SOL    HW124287   3.843   4.966   4.861
 7796SOL    HW224288   3.766   4.966   4.717
 7797SOL     OW24289   4.410   5.432   5.493
 7797SOL    HW124290   4.343   5.504   5.476
 7797SOL    HW224291   4.483   5.438   5.425
 7798SOL     OW24292   5.465   3.937   4.222
 7798SOL    HW124293   5.515   3.909   4.140
 7798SOL    HW224294   5.418   3.858   4.261
 7799SOL     OW24295   5.157   5.320   4.229
 7799SOL    HW124296   5.216   5.357   4.157
 7799SOL    HW224297   5.090   5.389   4.256
 7800SOL     OW24298   3.833   5.531   5.570
 7800SOL    HW124299   3.800   5.442   5.601
 7800SOL    HW224300   3.896   5.568   5.639
 7801SOL     OW24301   5.026   4.673   4.377
 7801SOL    HW124302   5.102   4.610   4.394
 7801SOL    HW224303   5.060   4.756   4.333
 7802SOL     OW24304   4.497   5.015   5.157
 7802SOL    HW124305   4.472   5.064   5.240
 7802SOL    HW224306   4.427   5.029   5.088
 7803SOL     OW24307   4.406   5.421   3.891
 7803SOL    HW124308   4.425   5.434   3.794
 7803SOL    HW224309   4.362   5.332   3.904
 7804SOL     OW24310   5.316   5.447   5.132
 7804SOL    HW124311   5.374   5.438   5.051
 7804SOL    HW224312   5.304   5.544   5.153
 7805SOL     OW24313   5.572   3.873   4.731
 7805SOL    HW124314   5.600   3.784   4.695
 7805SOL    HW224315   5.480   3.894   4.698
 7806SOL     OW24316   3.926   4.029   4.463
 7806SOL    HW124317   3.836   4.066   4.442
 7806SOL    HW224318   3.945   4.041   4.561
 7807SOL     OW24319   4.965   5.289   3.796
 7807SOL    HW124320   4.971   5.195   3.830
 7807SOL    HW224321   4.884   5.298   3.738
 7808SOL     OW24322   4.464   4.728   5.200
 7808SOL    HW124323   4.420   4.675   5.129
 7808SOL    HW224324   4.471   4.824   5.171
 7809SOL     OW24325   4.762   4.716   4.047
 7809SOL    HW124326   4.807   4.743   3.962
 7809SOL    HW224327   4.791   4.623   4.072
 7810SOL     OW24328   5.229   5.375   3.791
 7810SOL    HW124329   5.134   5.344   3.787
 7810SOL    HW224330   5.267   5.379   3.699
 7811SOL     OW24331   4.066   5.056   5.175
 7811SOL    HW124332   4.086   5.147   5.141
 7811SOL    HW224333   3.992   5.015   5.122
 7812SOL     OW24334   5.312   5.015   5.010
 7812SOL    HW124335   5.370   4.985   5.085
 7812SOL    HW224336   5.244   5.080   5.045
 7813SOL     OW24337   4.822   4.823   4.497
 7813SOL    HW124338   4.746   4.772   4.538
 7813SOL    HW224339   4.886   4.758   4.456
 7814SOL     OW24340   4.760   4.117   4.718
 7814SOL    HW124341   4.743   4.019   4.708
 7814SOL    HW224342   4.732   4.146   4.809
 7815SOL     OW24343   4.370   5.212   4.168
 7815SOL    HW124344   4.451   5.168   4.130
 7815SOL    HW224345   4.300   5.219   4.097
 7816SOL     OW24346   5.495   4.160   5.101
 7816SOL    HW124347   5.582   4.208   5.114
 7816SOL    HW224348   5.512   4.072   5.056
 7817SOL     OW24349   4.024   5.066   4.009
 7817SOL    HW124350   3.945   5.058   3.948
 7817SOL    HW224351   4.000   5.123   4.087
 7818SOL     OW24352   3.805   4.754   5.531
 7818SOL    HW124353   3.708   4.734   5.538
 7818SOL    HW224354   3.857   4.694   5.592
 7819SOL     OW24355   3.752   4.061   3.835
 7819SOL    HW124356   3.684   4.131   3.856
 7819SOL    HW224357   3.783   4.071   3.740
 7820SOL     OW24358   5.098   4.591   5.086
 7820SOL    HW124359   5.038   4.650   5.031
 7820SOL    HW224360   5.192   4.598   5.052
 7821SOL     OW24361   3.777   3.879   4.033
 7821SOL    HW124362   3.765   3.936   3.951
 7821SOL    HW224363   3.850   3.917   4.089
 7822SOL     OW24364   4.987   5.026   3.878
 7822SOL    HW124365   4.944   4.937   3.866
 7822SOL    HW224366   4.997   5.045   3.976
 7823SOL     OW24367   5.235   5.567   4.802
 7823SOL    HW124368   5.265   5.616   4.720
 7823SOL    HW224369   5.313   5.520   4.843
 7824SOL     OW24370   4.465   4.196   5.437
 7824SOL    HW124371   4.504   4.275   5.485
 7824SOL    HW224372   4.471   4.116   5.496
 7825SOL     OW24373   5.202   4.914   5.341
 7825SOL    HW124374   5.207   4.932   5.439
 7825SOL    HW224375   5.292   4.929   5.300
 7826SOL     OW24376   4.064   5.466   5.333
 7826SOL    HW124377   3.979   5.516   5.311
 7826SOL    HW224378   4.041   5.380   5.378
 7827SOL     OW24379   5.351   4.613   4.978
 7827SOL    HW124380   5.371   4.524   4.937
 7827SOL    HW224381   5.348   4.683   4.907
 7828SOL     OW24382   4.984   4.062   4.193
 7828SOL    HW124383   5.020   3.969   4.189
 7828SOL    HW224384   5.024   4.110   4.272
 7829SOL     OW24385   4.508   4.516   4.221
 7829SOL    HW124386   4.488   4.596   4.277
 7829SOL    HW224387   4.521   4.436   4.281
 7830SOL     OW24388   5.452   4.120   5.375
 7830SOL    HW124389   5.464   4.142   5.279
 7830SOL    HW224390   5.375   4.057   5.386
 7831SOL     OW24391   5.481   4.655   5.215
 7831SOL    HW124392   5.472   4.752   5.237
 7831SOL    HW224393   5.439   4.636   5.127
 7832SOL     OW24394   4.528   5.157   3.791
 7832SOL    HW124395   4.555   5.135   3.885
 7832SOL    HW224396   4.598   5.215   3.749
 7833SOL     OW24397   4.414   5.446   4.667
 7833SOL    HW124398   4.383   5.541   4.669
 7833SOL    HW224399   4.514   5.444   4.662
 7834SOL     OW24400   4.583   4.733   4.625
 7834SOL    HW124401   4.565   4.647   4.672
 7834SOL    HW224402   4.566   4.809   4.688
 7835SOL     OW24403   4.884   4.783   3.809
 7835SOL    HW124404   4.811   4.801   3.743
 7835SOL    HW224405   4.935   4.702   3.782
 7836SOL     OW24406   5.529   5.281   4.596
 7836SOL    HW124407   5.462   5.275   4.521
 7836SOL    HW224408   5.499   5.225   4.673
 7837SOL     OW24409   3.990   4.971   5.571
 7837SOL    HW124410   3.917   4.904   5.554
 7837SOL    HW224411   3.995   4.990   5.669
 7838SOL     OW24412   3.826   4.961   4.356
 7838SOL    HW124413   3.831   4.935   4.453
 7838SOL    HW224414   3.909   4.930   4.309
 7839SOL     OW24415   4.406   5.170   5.365
 7839SOL    HW124416   4.330   5.108   5.385
 7839SOL    HW224417   4.399   5.252   5.422
 7840SOL     OW24418   5.562   3.916   5.000
 7840SOL    HW124419   5.624   3.848   5.040
 7840SOL    HW224420   5.560   3.905   4.901
 7841SOL     OW24421   3.951   4.025   4.185
 7841SOL    HW124422   3.926   4.116   4.151
 7841SOL    HW224423   3.952   4.026   4.285
 7842SOL     OW24424   5.375   5.178   4.800
 7842SOL    HW124425   5.295   5.168   4.740
 7842SOL    HW224426   5.367   5.115   4.876
 7843SOL     OW24427   4.573   5.308   4.377
 7843SOL    HW124428   4.537   5.378   4.316
 7843SOL    HW224429   4.502   5.239   4.394
 7844SOL     OW24430   5.093   3.958   4.829
 7844SOL    HW124431   5.062   3.863   4.818
 7844SOL    HW224432   5.048   3.998   4.909
 7845SOL     OW24433   4.580   5.082   4.048
 7845SOL    HW124434   4.562   4.987   4.070
 7845SOL    HW224435   4.660   5.115   4.099
 7846SOL     OW24436   4.348   5.342   5.013
 7846SOL    HW124437   4.336   5.427   5.065
 7846SOL    HW224438   4.438   5.343   4.968
 7847SOL     OW24439   5.161   3.772   3.914
 7847SOL    HW124440   5.208   3.697   3.869
 7847SOL    HW224441   5.062   3.762   3.902
 7848SOL     OW24442   5.072   4.203   4.412
 7848SOL    HW124443   5.028   4.286   4.380
 7848SOL    HW224444   5.050   4.189   4.509
 7849SOL     OW24445   5.316   3.937   4.666
 7849SOL    HW124446   5.237   3.948   4.728
 7849SOL    HW224447   5.321   4.015   4.604
 7850SOL     OW24448   3.737   4.893   4.088
 7850SOL    HW124449   3.747   4.931   4.179
 7850SOL    HW224450   3.766   4.797   4.088
 7851SOL     OW24451   4.637   5.440   4.056
 7851SOL    HW124452   4.559   5.425   3.995
 7851SOL    HW224453   4.613   5.508   4.125
 7852SOL     OW24454   3.937   4.396   5.744
 7852SOL    HW124455   3.844   4.369   5.771
 7852SOL    HW224456   3.959   4.354   5.655
 7853SOL     OW24457   3.927   4.012   6.583
 7853SOL    HW124458   3.966   3.991   6.672
 7853SOL    HW224459   3.840   3.963   6.573
 7854SOL     OW24460   3.739   4.148   6.225
 7854SOL    HW124461   3.657   4.167   6.280
 7854SOL    HW224462   3.716   4.086   6.151
 7855SOL     OW24463   4.242   4.933   6.783
 7855SOL    HW124464   4.174   4.978   6.726
 7855SOL    HW224465   4.232   4.964   6.878
 7856SOL     OW24466   5.327   5.215   6.318
 7856SOL    HW124467   5.261   5.180   6.385
 7856SOL    HW224468   5.278   5.249   6.238
 7857SOL     OW24469   4.878   4.420   6.237
 7857SOL    HW124470   4.913   4.514   6.241
 7857SOL    HW224471   4.810   4.407   6.310
 7858SOL     OW24472   5.516   4.313   5.801
 7858SOL    HW124473   5.480   4.338   5.711
 7858SOL    HW224474   5.452   4.251   5.847
 7859SOL     OW24475   4.456   4.840   6.643
 7859SOL    HW124476   4.375   4.860   6.698
 7859SOL    HW224477   4.484   4.923   6.594
 7860SOL     OW24478   4.423   4.698   6.236
 7860SOL    HW124479   4.491   4.699   6.310
 7860SOL    HW224480   4.352   4.765   6.254
 7861SOL     OW24481   4.052   5.075   6.634
 7861SOL    HW124482   3.955   5.065   6.610
 7861SOL    HW224483   4.096   5.139   6.571
 7862SOL     OW24484   5.305   4.179   6.344
 7862SOL    HW124485   5.226   4.178   6.282
 7862SOL    HW224486   5.292   4.250   6.413
 7863SOL     OW24487   3.958   5.456   6.057
 7863SOL    HW124488   3.973   5.526   6.127
 7863SOL    HW224489   4.036   5.455   5.994
 7864SOL     OW24490   3.989   5.179   6.080
 7864SOL    HW124491   3.969   5.276   6.089
 7864SOL    HW224492   3.951   5.129   6.158
 7865SOL     OW24493   4.029   4.827   6.460
 7865SOL    HW124494   4.031   4.729   6.477
 7865SOL    HW224495   4.031   4.876   6.547
 7866SOL     OW24496   4.306   5.582   6.937
 7866SOL    HW124497   4.224   5.542   6.978
 7866SOL    HW224498   4.356   5.634   0.006
 7867SOL     OW24499   4.294   4.719   5.789
 7867SOL    HW124500   4.321   4.763   5.704
 7867SOL    HW224501   4.354   4.748   5.863
 7868SOL     OW24502   3.835   4.404   6.162
 7868SOL    HW124503   3.809   4.310   6.186
 7868SOL    HW224504   3.824   4.463   6.242
 7869SOL     OW24505   5.590   5.492   5.887
 7869SOL    HW124506   5.666   5.478   5.951
 7869SOL    HW224507   5.589   5.587   5.857
 7870SOL     OW24508   3.791   5.285   5.697
 7870SOL    HW124509   3.760   5.191   5.715
 7870SOL    HW224510   3.769   5.343   5.775
 7871SOL     OW24511   5.431   4.654   6.216
 7871SOL    HW124512   5.474   4.590   6.153
 7871SOL    HW224513   5.407   4.738   6.166
 7872SOL     OW24514   5.401   4.860   6.027
 7872SOL    HW124515   5.478   4.819   5.979
 7872SOL    HW224516   5.432   4.937   6.082
 7873SOL     OW24517   4.333   5.109   6.288
 7873SOL    HW124518   4.291   5.019   6.285
 7873SOL    HW224519   4.330   5.151   6.197
 7874SOL     OW24520   4.567   3.761   6.078
 7874SOL    HW124521   4.609   3.846   6.048
 7874SOL    HW224522   4.467   3.770   6.074
 7875SOL     OW24523   3.788   4.607   6.828
 7875SOL    HW124524   3.807   4.512   6.801
 7875SOL    HW224525   3.690   4.623   6.825
 7876SOL     OW24526   5.288   4.744   5.799
 7876SOL    HW124527   5.219   4.676   5.822
 7876SOL    HW224528   5.320   4.790   5.882
 7877SOL     OW24529   5.133   5.128   6.500
 7877SOL    HW124530   5.090   5.140   6.589
 7877SOL    HW224531   5.130   5.032   6.473
 7878SOL     OW24532   5.374   5.602   6.117
 7878SOL    HW124533   5.363   5.531   6.047
 7878SOL    HW224534   5.402   5.560   6.203
 7879SOL     OW24535   4.306   4.457   5.893
 7879SOL    HW124536   4.300   4.548   5.852
 7879SOL    HW224537   4.231   4.446   5.958
 7880SOL     OW24538   5.010   4.140   6.523
 7880SOL    HW124539   4.921   4.097   6.512
 7880SOL    HW224540   5.063   4.090   6.592
 7881SOL     OW24541   5.331   5.412   5.916
 7881SOL    HW124542   5.428   5.428   5.901
 7881SOL    HW224543   5.286   5.396   5.828
 7882SOL     OW24544   4.461   4.264   0.050
 7882SOL    HW124545   4.386   4.325   0.073
 7882SOL    HW224546   4.445   4.224   6.960
 7883SOL     OW24547   4.709   4.113   6.747
 7883SOL    HW124548   4.614   4.124   6.778
 7883SOL    HW224549   4.710   4.057   6.663
 7884SOL     OW24550   4.806   4.446   5.976
 7884SOL    HW124551   4.832   4.431   6.071
 7884SOL    HW224552   4.713   4.413   5.961
 7885SOL     OW24553   3.800   4.587   6.368
 7885SOL    HW124554   3.890   4.571   6.406
 7885SOL    HW224555   3.753   4.658   6.420
 7886SOL     OW24556   3.818   5.550   0.070
 7886SOL    HW124557   3.763   5.467   0.082
 7886SOL    HW224558   3.844   5.560   6.974
 7887SOL     OW24559   4.601   4.123   5.794
 7887SOL    HW124560   4.672   4.162   5.735
 7887SOL    HW224561   4.540   4.067   5.739
 7888SOL     OW24562   5.142   4.890   6.147
 7888SOL    HW124563   5.230   4.884   6.100
 7888SOL    HW224564   5.086   4.962   6.105
 7889SOL     OW24565   4.290   3.815   6.538
 7889SOL    HW124566   4.283   3.862   6.626
 7889SOL    HW224567   4.299   3.882   6.465
 7890SOL     OW24568   4.750   5.201   6.068
 7890SOL    HW124569   4.723   5.277   6.010
 7890SOL    HW224570   4.708   5.211   6.158
 7891SOL     OW24571   4.072   5.508   6.474
 7891SOL    HW124572   4.105   5.413   6.469
 7891SOL    HW224573   4.149   5.568   6.496
 7892SOL     OW24574   5.533   4.746   6.459
 7892SOL    HW124575   5.496   4.718   6.370
 7892SOL    HW224576   5.459   4.754   6.525
 7893SOL     OW24577   4.015   4.656   5.821
 7893SOL    HW124578   4.111   4.676   5.799
 7893SOL    HW224579   3.996   4.560   5.800
 7894SOL     OW24580   5.214   4.494   6.274
 7894SOL    HW124581   5.209   4.452   6.365
 7894SOL    HW224582   5.297   4.548   6.267
 7895SOL     OW24583   4.881   5.475   5.840
 7895SOL    HW124584   4.789   5.463   5.877
 7895SOL    HW224585   4.902   5.398   5.779
 7896SOL     OW24586   5.395   5.143   5.687
 7896SOL    HW124587   5.335   5.222   5.687
 7896SOL    HW224588   5.345   5.063   5.653
 7897SOL     OW24589   4.191   5.500   5.914
 7897SOL    HW124590   4.234   5.552   5.988
 7897SOL    HW224591   4.262   5.454   5.860
 7898SOL     OW24592   5.114   3.825   6.021
 7898SOL    HW124593   5.116   3.802   5.923
 7898SOL    HW224594   5.203   3.803   6.062
 7899SOL     OW24595   3.940   5.542   6.820
 7899SOL    HW124596   4.007   5.478   6.855
 7899SOL    HW224597   3.901   5.506   6.735
 7900SOL     OW24598   4.689   5.394   6.459
 7900SOL    HW124599   4.780   5.354   6.452
 7900SOL    HW224600   4.630   5.354   6.389
 7901SOL     OW24601   4.103   4.399   6.072
 7901SOL    HW124602   4.124   4.302   6.080
 7901SOL    HW224603   4.005   4.412   6.088
 7902SOL     OW24604   4.328   3.778   5.709
 7902SOL    HW124605   4.377   3.695   5.737
 7902SOL    HW224606   4.287   3.764   5.619
 7903SOL     OW24607   4.587   5.234   6.740
 7903SOL    HW124608   4.535   5.208   6.659
 7903SOL    HW224609   4.665   5.173   6.751
 7904SOL     OW24610   4.509   5.075   6.507
 7904SOL    HW124611   4.603   5.078   6.471
 7904SOL    HW224612   4.444   5.085   6.432
 7905SOL     OW24613   4.698   4.263   6.436
 7905SOL    HW124614   4.664   4.248   6.343
 7905SOL    HW224615   4.726   4.175   6.475
 7906SOL     OW24616   4.295   3.779   6.064
 7906SOL    HW124617   4.222   3.771   6.132
 7906SOL    HW224618   4.275   3.854   6.002
 7907SOL     OW24619   5.214   4.942   5.618
 7907SOL    HW124620   5.247   4.861   5.667
 7907SOL    HW224621   5.133   4.977   5.664
 7908SOL     OW24622   4.009   3.753   5.750
 7908SOL    HW124623   4.059   3.817   5.692
 7908SOL    HW224624   4.073   3.693   5.797
 7909SOL     OW24625   4.695   3.995   6.017
 7909SOL    HW124626   4.658   4.036   5.933
 7909SOL    HW224627   4.794   4.009   6.020
 7910SOL     OW24628   4.934   5.290   6.380
 7910SOL    HW124629   4.960   5.362   6.315
 7910SOL    HW224630   5.017   5.246   6.415
 7911SOL     OW24631   4.210   4.868   6.260
 7911SOL    HW124632   4.147   4.851   6.336
 7911SOL    HW224633   4.160   4.859   6.174
 7912SOL     OW24634   4.986   5.506   6.205
 7912SOL    HW124635   5.032   5.573   6.146
 7912SOL    HW224636   4.900   5.546   6.239
 7913SOL     OW24637   4.774   4.246   5.624
 7913SOL    HW124638   4.717   4.326   5.603
 7913SOL    HW224639   4.843   4.271   5.691
 7914SOL     OW24640   4.262   3.935   6.782
 7914SOL    HW124641   4.292   3.865   6.847
 7914SOL    HW224642   4.165   3.955   6.799
 7915SOL     OW24643   4.622   4.209   6.183
 7915SOL    HW124644   4.583   4.271   6.114
 7915SOL    HW224645   4.645   4.122   6.140
 7916SOL     OW24646   4.746   3.788   6.294
 7916SOL    HW124647   4.684   3.788   6.216
 7916SOL    HW224648   4.717   3.717   6.359
 7917SOL     OW24649   5.135   4.861   6.433
 7917SOL    HW124650   5.083   4.780   6.460
 7917SOL    HW224651   5.136   4.868   6.333
 7918SOL     OW24652   5.184   4.372   6.526
 7918SOL    HW124653   5.112   4.302   6.535
 7918SOL    HW224654   5.244   4.367   6.606
 7919SOL     OW24655   5.545   4.503   6.012
 7919SOL    HW124656   5.610   4.458   6.073
 7919SOL    HW224657   5.517   4.439   5.940
 7920SOL     OW24658   4.238   5.183   5.789
 7920SOL    HW124659   4.150   5.135   5.791
 7920SOL    HW224660   4.302   5.132   5.732
 7921SOL     OW24661   5.506   5.044   6.186
 7921SOL    HW124662   5.600   5.040   6.219
 7921SOL    HW224663   5.455   5.112   6.238
 7922SOL     OW24664   5.126   4.321   5.634
 7922SOL    HW124665   5.075   4.286   5.712
 7922SOL    HW224666   5.223   4.303   5.647
 7923SOL     OW24667   4.234   3.977   5.886
 7923SOL    HW124668   4.264   3.914   5.814
 7923SOL    HW224669   4.211   4.066   5.846
 7924SOL     OW24670   5.511   4.853   0.166
 7924SOL    HW124671   5.593   4.843   0.111
 7924SOL    HW224672   5.470   4.943   0.150
 7925SOL     OW24673   4.788   5.042   6.710
 7925SOL    HW124674   4.755   4.953   6.741
 7925SOL    HW224675   4.781   5.046   6.610
 7926SOL     OW24676   5.323   4.803   6.629
 7926SOL    HW124677   5.325   4.880   6.693
 7926SOL    HW224678   5.255   4.821   6.558
 7927SOL     OW24679   4.482   4.787   5.982
 7927SOL    HW124680   4.460   4.749   6.072
 7927SOL    HW224681   4.571   4.751   5.952
 7928SOL     OW24682   4.242   4.513   6.884
 7928SOL    HW124683   4.201   4.583   6.943
 7928SOL    HW224684   4.183   4.432   6.882
 7929SOL     OW24685   4.947   4.091   6.873
 7929SOL    HW124686   4.978   4.174   6.920
 7929SOL    HW224687   4.860   4.110   6.827
 7930SOL     OW24688   3.829   5.207   6.918
 7930SOL    HW124689   3.792   5.250   7.000
 7930SOL    HW224690   3.928   5.222   6.914
 7931SOL     OW24691   4.042   4.847   6.037
 7931SOL    HW124692   4.037   4.922   5.971
 7931SOL    HW224693   4.033   4.759   5.989
 7932SOL     OW24694   4.236   4.296   6.472
 7932SOL    HW124695   4.240   4.355   6.392
 7932SOL    HW224696   4.326   4.294   6.517
 7933SOL     OW24697   5.004   5.098   6.025
 7933SOL    HW124698   5.067   5.171   6.052
 7933SOL    HW224699   4.910   5.127   6.042
 7934SOL     OW24700   5.030   5.157   6.752
 7934SOL    HW124701   5.077   5.115   6.830
 7934SOL    HW224702   4.938   5.120   6.745
 7935SOL     OW24703   5.219   4.371   6.018
 7935SOL    HW124704   5.215   4.403   6.113
 7935SOL    HW224705   5.175   4.438   5.958
 7936SOL     OW24706   4.101   5.216   6.865
 7936SOL    HW124707   4.079   5.166   6.782
 7936SOL    HW224708   4.192   5.256   6.856
 7937SOL     OW24709   4.447   4.565   6.715
 7937SOL    HW124710   4.445   4.661   6.689
 7937SOL    HW224711   4.372   4.546   6.778
 7938SOL     OW24712   5.033   4.622   6.545
 7938SOL    HW124713   4.938   4.592   6.541
 7938SOL    HW224714   5.093   4.542   6.541
 7939SOL     OW24715   4.953   4.259   5.838
 7939SOL    HW124716   4.963   4.177   5.895
 7939SOL    HW224717   4.906   4.330   5.890
 7940SOL     OW24718   3.998   3.965   6.845
 7940SOL    HW124719   3.929   4.022   6.888
 7940SOL    HW224720   3.983   3.869   6.869
 7941SOL     OW24721   3.730   4.966   6.860
 7941SOL    HW124722   3.783   4.898   6.911
 7941SOL    HW224723   3.764   5.058   6.880
 7942SOL     OW24724   4.475   4.317   6.597
 7942SOL    HW124725   4.556   4.307   6.539
 7942SOL    HW224726   4.471   4.411   6.632
 7943SOL     OW24727   4.078   3.778   6.241
 7943SOL    HW124728   4.038   3.867   6.260
 7943SOL    HW224729   4.076   3.722   6.324
 7944SOL     OW24730   5.315   4.148   5.890
 7944SOL    HW124731   5.354   4.082   5.954
 7944SOL    HW224732   5.268   4.221   5.941
 7945SOL     OW24733   4.777   4.504   6.546
 7945SOL    HW124734   4.762   4.508   6.645
 7945SOL    HW224735   4.756   4.412   6.513
 7946SOL     OW24736   5.232   3.992   5.666
 7946SOL    HW124737   5.186   3.911   5.701
 7946SOL    HW224738   5.257   4.052   5.743
 7947SOL     OW24739   5.022   4.570   5.599
 7947SOL    HW124740   5.053   4.475   5.604
 7947SOL    HW224741   5.041   4.606   5.508
 7948SOL     OW24742   4.773   5.071   6.436
 7948SOL    HW124743   4.794   4.987   6.386
 7948SOL    HW224744   4.832   5.145   6.402
 7949SOL     OW24745   4.046   4.551   6.479
 7949SOL    HW124746   4.119   4.534   6.412
 7949SOL    HW224747   4.042   4.475   6.543
 7950SOL     OW24748   4.011   4.269   6.609
 7950SOL    HW124749   3.970   4.179   6.591
 7950SOL    HW224750   4.096   4.278   6.557
 7951SOL     OW24751   4.837   3.970   0.094
 7951SOL    HW124752   4.912   3.948   0.156
 7951SOL    HW224753   4.873   4.007   0.009
 7952SOL     OW24754   3.728   5.011   5.768
 7952SOL    HW124755   3.637   5.041   5.738
 7952SOL    HW224756   3.725   4.914   5.792
 7953SOL     OW24757   3.818   5.475   6.576
 7953SOL    HW124758   3.775   5.394   6.536
 7953SOL    HW224759   3.907   5.489   6.532
 7954SOL     OW24760   4.198   5.258   6.482
 7954SOL    HW124761   4.275   5.310   6.521
 7954SOL    HW224762   4.231   5.203   6.405
 7955SOL     OW24763   4.700   4.509   6.806
 7955SOL    HW124764   4.713   4.437   6.874
 7955SOL    HW224765   4.602   4.520   6.787
 7956SOL     OW24766   3.784   4.337   6.752
 7956SOL    HW124767   3.858   4.324   6.686
 7956SOL    HW224768   3.788   4.266   6.822
 7957SOL     OW24769   4.552   4.345   5.948
 7957SOL    HW124770   4.559   4.263   5.891
 7957SOL    HW224771   4.464   4.389   5.932
 7958SOL     OW24772   5.367   4.344   6.732
 7958SOL    HW124773   5.355   4.267   6.796
 7958SOL    HW224774   5.464   4.354   6.710
 7959SOL     OW24775   4.437   4.147   6.806
 7959SOL    HW124776   4.373   4.071   6.791
 7959SOL    HW224777   4.437   4.207   6.726
 7960SOL     OW24778   4.655   5.359   6.987
 7960SOL    HW124779   4.634   5.334   6.892
 7960SOL    HW224780   4.658   5.459   6.995
 7961SOL     OW24781   4.172   4.228   5.797
 7961SOL    HW124782   4.238   4.300   5.819
 7961SOL    HW224783   4.081   4.269   5.787
 7962SOL     OW24784   3.860   4.780   0.024
 7962SOL    HW124785   3.924   4.737   0.088
 7962SOL    HW224786   3.839   4.716   6.950
 7963SOL     OW24787   5.082   4.673   6.821
 7963SOL    HW124788   5.066   4.676   6.722
 7963SOL    HW224789   5.099   4.765   6.855
 7964SOL     OW24790   5.079   4.568   5.871
 7964SOL    HW124791   4.995   4.557   5.924
 7964SOL    HW224792   5.056   4.568   5.773
 7965SOL     OW24793   5.488   5.433   6.715
 7965SOL    HW124794   5.553   5.453   6.641
 7965SOL    HW224795   5.436   5.351   6.692
 7966SOL     OW24796   5.021   5.440   6.751
 7966SOL    HW124797   5.106   5.482   6.719
 7966SOL    HW224798   5.031   5.340   6.751
 7967SOL     OW24799   3.782   5.012   6.589
 7967SOL    HW124800   3.761   4.997   6.685
 7967SOL    HW224801   3.746   4.936   6.535
 7968SOL     OW24802   5.463   3.963   6.036
 7968SOL    HW124803   5.519   3.939   5.957
 7968SOL    HW224804   5.422   3.881   6.075
 7969SOL     OW24805   5.165   5.310   6.112
 7969SOL    HW124806   5.222   5.344   6.037
 7969SOL    HW224807   5.098   5.380   6.138
 7970SOL     OW24808   5.008   4.661   6.214
 7970SOL    HW124809   5.081   4.597   6.235
 7970SOL    HW224810   5.046   4.744   6.173
 7971SOL     OW24811   4.406   5.401   5.763
 7971SOL    HW124812   4.423   5.410   5.665
 7971SOL    HW224813   4.356   5.316   5.781
 7972SOL     OW24814   5.554   3.886   6.561
 7972SOL    HW124815   5.586   3.796   6.530
 7972SOL    HW224816   5.463   3.903   6.525
 7973SOL     OW24817   3.972   4.021   6.307
 7973SOL    HW124818   3.891   4.069   6.272
 7973SOL    HW224819   3.969   4.020   6.407
 7974SOL     OW24820   4.948   5.273   5.666
 7974SOL    HW124821   4.962   5.179   5.698
 7974SOL    HW224822   4.862   5.279   5.615
 7975SOL     OW24823   4.481   4.746   0.010
 7975SOL    HW124824   4.476   4.816   6.938
 7975SOL    HW224825   4.577   4.726   0.030
 7976SOL     OW24826   4.725   4.701   5.905
 7976SOL    HW124827   4.777   4.734   5.826
 7976SOL    HW224828   4.756   4.609   5.930
 7977SOL     OW24829   5.215   5.364   5.659
 7977SOL    HW124830   5.121   5.333   5.655
 7977SOL    HW224831   5.253   5.369   5.567
 7978SOL     OW24832   5.333   4.997   6.829
 7978SOL    HW124833   5.430   4.980   6.847
 7978SOL    HW224834   5.278   4.946   6.896
 7979SOL     OW24835   4.813   4.831   6.322
 7979SOL    HW124836   4.733   4.781   6.356
 7979SOL    HW224837   4.876   4.767   6.278
 7980SOL     OW24838   4.777   3.984   6.500
 7980SOL    HW124839   4.764   3.949   6.408
 7980SOL    HW224840   4.793   3.907   6.563
 7981SOL     OW24841   4.358   5.210   6.039
 7981SOL    HW124842   4.432   5.155   6.002
 7981SOL    HW224843   4.284   5.216   5.972
 7982SOL     OW24844   5.358   4.127   6.902
 7982SOL    HW124845   5.298   4.102   6.979
 7982SOL    HW224846   5.405   4.045   6.869
 7983SOL     OW24847   3.987   5.052   5.844
 7983SOL    HW124848   3.891   5.041   5.819
 7983SOL    HW224849   3.994   5.107   5.927
 7984SOL     OW24850   4.463   3.853   0.177
 7984SOL    HW124851   4.534   3.786   0.157
 7984SOL    HW224852   4.505   3.944   0.188
 7985SOL     OW24853   3.813   4.050   5.586
 7985SOL    HW124854   3.727   4.050   5.535
 7985SOL    HW224855   3.864   4.134   5.565
 7986SOL     OW24856   3.788   3.894   5.814
 7986SOL    HW124857   3.778   3.956   5.737
 7986SOL    HW224858   3.875   3.845   5.807
 7987SOL     OW24859   4.988   5.016   5.757
 7987SOL    HW124860   4.937   4.931   5.743
 7987SOL    HW224861   4.994   5.036   5.855
 7988SOL     OW24862   5.252   5.574   6.675
 7988SOL    HW124863   5.269   5.630   6.593
 7988SOL    HW224864   5.336   5.528   6.702
 7989SOL     OW24865   5.184   5.057   0.284
 7989SOL    HW124866   5.119   5.084   0.356
 7989SOL    HW224867   5.181   4.957   0.274
 7990SOL     OW24868   4.093   5.473   0.065
 7990SOL    HW124869   4.002   5.501   0.096
 7990SOL    HW224870   4.118   5.386   0.109
 7991SOL     OW24871   5.391   4.602   6.836
 7991SOL    HW124872   5.368   4.508   6.808
 7991SOL    HW224873   5.344   4.666   6.776
 7992SOL     OW24874   4.966   4.055   6.029
 7992SOL    HW124875   5.018   3.970   6.022
 7992SOL    HW224876   4.994   4.106   6.111
 7993SOL     OW24877   4.236   4.499   6.286
 7993SOL    HW124878   4.311   4.560   6.261
 7993SOL    HW224879   4.191   4.465   6.204
 7994SOL     OW24880   5.478   4.570   0.104
 7994SOL    HW124881   5.478   4.661   0.144
 7994SOL    HW224882   5.439   4.573   0.012
 7995SOL     OW24883   4.491   5.111   5.676
 7995SOL    HW124884   4.524   5.093   5.769
 7995SOL    HW224885   4.559   5.167   5.628
 7996SOL     OW24886   4.411   5.419   6.545
 7996SOL    HW124887   4.377   5.512   6.534
 7996SOL    HW224888   4.510   5.418   6.538
 7997SOL     OW24889   4.604   4.701   6.448
 7997SOL    HW124890   4.661   4.627   6.485
 7997SOL    HW224891   4.551   4.742   6.522
 7998SOL     OW24892   4.865   4.782   5.682
 7998SOL    HW124893   4.789   4.798   5.618
 7998SOL    HW224894   4.919   4.704   5.649
 7999SOL     OW24895   5.581   5.233   6.439
 7999SOL    HW124896   5.487   5.233   6.403
 7999SOL    HW224897   5.601   5.143   6.479
 8000SOL     OW24898   3.898   4.966   6.250
 8000SOL    HW124899   3.928   4.922   6.334
 8000SOL    HW224900   3.936   4.918   6.171
 8001SOL     OW24901   5.523   3.914   6.832
 8001SOL    HW124902   5.506   3.821   6.866
 8001SOL    HW224903   5.537   3.911   6.733
 8002SOL     OW24904   4.145   4.135   6.113
 8002SOL    HW124905   4.172   4.072   6.041
 8002SOL    HW224906   4.091   4.086   6.182
 8003SOL     OW24907   5.342   5.215   6.665
 8003SOL    HW124908   5.273   5.198   6.595
 8003SOL    HW224909   5.344   5.138   6.729
 8004SOL     OW24910   4.084   4.288   6.877
 8004SOL    HW124911   4.107   4.197   6.910
 8004SOL    HW224912   4.058   4.283   6.780
 8005SOL     OW24913   4.548   5.292   6.253
 8005SOL    HW124914   4.520   5.338   6.168
 8005SOL    HW224915   4.477   5.227   6.280
 8006SOL     OW24916   5.127   3.974   6.705
 8006SOL    HW124917   5.141   3.876   6.722
 8006SOL    HW224918   5.067   4.012   6.776
 8007SOL     OW24919   4.800   3.743   6.632
 8007SOL    HW124920   4.745   3.676   6.583
 8007SOL    HW224921   4.872   3.697   6.683
 8008SOL     OW24922   4.553   5.050   5.935
 8008SOL    HW124923   4.531   4.954   5.954
 8008SOL    HW224924   4.638   5.074   5.982
 8009SOL     OW24925   4.348   5.320   6.856
 8009SOL    HW124926   4.347   5.419   6.871
 8009SOL    HW224927   4.432   5.293   6.810
 8010SOL     OW24928   5.124   3.755   5.755
 8010SOL    HW124929   5.180   3.691   5.702
 8010SOL    HW224930   5.034   3.715   5.772
 8011SOL     OW24931   5.039   4.196   6.255
 8011SOL    HW124932   4.986   4.279   6.237
 8011SOL    HW224933   5.027   4.169   6.351
 8012SOL     OW24934   5.299   3.941   6.492
 8012SOL    HW124935   5.238   3.966   6.567
 8012SOL    HW224936   5.302   4.015   6.426
 8013SOL     OW24937   3.753   4.741   5.868
 8013SOL    HW124938   3.850   4.726   5.849
 8013SOL    HW224939   3.711   4.656   5.899
 8014SOL     OW24940   4.627   5.419   5.943
 8014SOL    HW124941   4.554   5.405   5.876
 8014SOL    HW224942   4.605   5.499   5.999
 8015SOL     OW24943   3.919   6.126   0.095
 8015SOL    HW124944   3.832   6.144   0.141
 8015SOL    HW224945   3.936   6.197   0.027
 8016SOL     OW24946   3.941   5.856   0.975
 8016SOL    HW124947   3.987   5.828   1.060
 8016SOL    HW224948   3.851   5.813   0.970
 8017SOL     OW24949   3.718   6.011   0.645
 8017SOL    HW124950   3.642   6.028   0.707
 8017SOL    HW224951   3.689   5.947   0.573
 8018SOL     OW24952   4.276   6.943   1.245
 8018SOL    HW124953   4.223   6.945   1.161
 8018SOL    HW224954   4.214   6.938   1.324
 8019SOL     OW24955   5.377   0.075   0.676
 8019SOL    HW124956   5.377   0.136   0.755
 8019SOL    HW224957   5.285   0.037   0.662
 8020SOL     OW24958   4.860   6.280   0.672
 8020SOL    HW124959   4.889   6.375   0.687
 8020SOL    HW224960   4.793   6.255   0.742
 8021SOL     OW24961   5.559   6.127   0.139
 8021SOL    HW124962   5.517   6.210   0.104
 8021SOL    HW224963   5.495   6.080   0.200
 8022SOL     OW24964   4.367   6.698   0.992
 8022SOL    HW124965   4.339   6.774   1.050
 8022SOL    HW224966   4.330   6.712   0.900
 8023SOL     OW24967   4.619   6.317   1.861
 8023SOL    HW124968   4.626   6.376   1.941
 8023SOL    HW224969   4.628   6.373   1.778
 8024SOL     OW24970   4.439   6.545   0.653
 8024SOL    HW124971   4.517   6.556   0.715
 8024SOL    HW224972   4.364   6.603   0.683
 8025SOL     OW24973   4.356   6.723   1.785
 8025SOL    HW124974   4.371   6.810   1.738
 8025SOL    HW224975   4.273   6.680   1.749
 8026SOL     OW24976   4.141   6.964   1.012
 8026SOL    HW124977   4.044   6.944   0.997
 8026SOL    HW224978   4.164   0.051   0.970
 8027SOL     OW24979   4.222   5.937   1.441
 8027SOL    HW124980   4.299   5.879   1.466
 8027SOL    HW224981   4.137   5.896   1.474
 8028SOL     OW24982   5.304   6.027   0.749
 8028SOL    HW124983   5.230   6.026   0.682
 8028SOL    HW224984   5.286   6.099   0.817
 8029SOL     OW24985   4.015   6.667   0.879
 8029SOL    HW124986   4.005   6.573   0.911
 8029SOL    HW224987   3.973   6.729   0.946
 8030SOL     OW24988   4.315   6.505   0.214
 8030SOL    HW124989   4.334   6.530   0.119
 8030SOL    HW224990   4.374   6.559   0.275
 8031SOL     OW24991   5.330   5.707   1.478
 8031SOL    HW124992   5.383   5.785   1.445
 8031SOL    HW224993   5.278   5.733   1.559
 8032SOL     OW24994   3.830   6.265   0.593
 8032SOL    HW124995   3.793   6.174   0.611
 8032SOL    HW224996   3.811   6.324   0.672
 8033SOL     OW24997   5.408   6.459   0.664
 8033SOL    HW124998   5.498   6.451   0.707
 8033SOL    HW224999   5.409   6.537   0.601
 8034SOL     OW25000   5.400   6.695   0.524
 8034SOL    HW125001   5.431   6.734   0.437
 8034SOL    HW225002   5.446   6.742   0.599
 8035SOL     OW25003   3.863   6.340   1.553
 8035SOL    HW125004   3.951   6.387   1.555
 8035SOL    HW225005   3.791   6.406   1.530
 8036SOL     OW25006   4.980   6.795   1.421
 8036SOL    HW125007   4.986   6.712   1.366
 8036SOL    HW225008   5.026   6.780   1.509
 8037SOL     OW25009   4.552   5.627   0.515
 8037SOL    HW125010   4.597   5.713   0.493
 8037SOL    HW225011   4.453   5.641   0.516
 8038SOL     OW25012   3.934   6.528   1.287
 8038SOL    HW125013   4.021   6.478   1.283
 8038SOL    HW225014   3.871   6.491   1.218
 8039SOL     OW25015   5.186   6.648   0.292
 8039SOL    HW125016   5.112   6.581   0.299
 8039SOL    HW225017   5.263   6.619   0.349
 8040SOL     OW25018   4.076   5.875   1.855
 8040SOL    HW125019   4.114   5.953   1.905
 8040SOL    HW225020   3.976   5.883   1.852
 8041SOL     OW25021   5.201   6.953   0.916
 8041SOL    HW125022   5.145   0.001   0.849
 8041SOL    HW225023   5.178   6.856   0.917
 8042SOL     OW25024   4.297   6.250   0.307
 8042SOL    HW125025   4.313   6.340   0.267
 8042SOL    HW225026   4.228   6.257   0.378
 8043SOL     OW25027   5.004   5.950   0.917
 8043SOL    HW125028   4.918   5.899   0.915
 8043SOL    HW225029   5.064   5.912   0.988
 8044SOL     OW25030   4.527   6.146   1.442
 8044SOL    HW125031   4.504   6.118   1.535
 8044SOL    HW225032   4.506   6.072   1.379
 8045SOL     OW25033   5.102   6.051   1.650
 8045SOL    HW125034   5.107   6.099   1.738
 8045SOL    HW225035   5.147   5.962   1.659
 8046SOL     OW25036   4.657   6.468   1.627
 8046SOL    HW125037   4.714   6.401   1.579
 8046SOL    HW225038   4.603   6.520   1.561
 8047SOL     OW25039   4.726   5.990   1.095
 8047SOL    HW125040   4.642   5.983   1.148
 8047SOL    HW225041   4.741   5.905   1.044
 8048SOL     OW25042   4.782   6.309   0.410
 8048SOL    HW125043   4.818   6.303   0.503
 8048SOL    HW225044   4.692   6.267   0.405
 8049SOL     OW25045   3.779   6.436   0.807
 8049SOL    HW125046   3.867   6.413   0.849
 8049SOL    HW225047   3.742   6.518   0.851
 8050SOL     OW25048   4.631   5.955   0.227
 8050SOL    HW125049   4.556   5.969   0.163
 8050SOL    HW225050   4.713   5.924   0.178
 8051SOL     OW25051   5.384   6.158   1.840
 8051SOL    HW125052   5.378   6.242   1.787
 8051SOL    HW225053   5.407   6.082   1.779
 8052SOL     OW25054   5.147   6.747   0.626
 8052SOL    HW125055   5.235   6.722   0.586
 8052SOL    HW225056   5.116   6.835   0.588
 8053SOL     OW25057   4.279   5.690   0.935
 8053SOL    HW125058   4.294   5.716   1.030
 8053SOL    HW225059   4.282   5.772   0.877
 8054SOL     OW25060   5.545   6.669   0.929
 8054SOL    HW125061   5.519   6.726   0.851
 8054SOL    HW225062   5.470   6.667   0.995
 8055SOL     OW25063   4.095   6.530   0.370
 8055SOL    HW125064   4.169   6.521   0.303
 8055SOL    HW225065   4.080   6.443   0.416
 8056SOL     OW25066   5.175   6.336   0.698
 8056SOL    HW125067   5.169   6.286   0.785
 8056SOL    HW225068   5.264   6.383   0.693
 8057SOL     OW25069   3.956   5.859   1.474
 8057SOL    HW125070   3.894   5.937   1.467
 8057SOL    HW225071   3.906   5.779   1.507
 8058SOL     OW25072   5.451   0.007   0.094
 8058SOL    HW125073   5.495   0.077   0.149
 8058SOL    HW225074   5.354   0.028   0.084
 8059SOL     OW25075   4.086   6.267   0.492
 8059SOL    HW125076   4.104   6.169   0.491
 8059SOL    HW225077   3.993   6.284   0.526
 8060SOL     OW25078   5.202   5.798   1.710
 8060SOL    HW125079   5.209   5.817   1.808
 8060SOL    HW225080   5.131   5.729   1.694
 8061SOL     OW25081   4.502   5.835   1.777
 8061SOL    HW125082   4.592   5.791   1.780
 8061SOL    HW225083   4.440   5.789   1.841
 8062SOL     OW25084   5.013   6.172   1.423
 8062SOL    HW125085   5.052   6.131   1.506
 8062SOL    HW225086   5.057   6.260   1.405
 8063SOL     OW25087   4.679   6.172   0.889
 8063SOL    HW125088   4.651   6.125   0.805
 8063SOL    HW225089   4.706   6.104   0.957
 8064SOL     OW25090   4.277   5.658   0.494
 8064SOL    HW125091   4.196   5.649   0.552
 8064SOL    HW225092   4.260   5.727   0.424
 8065SOL     OW25093   5.181   6.756   0.036
 8065SOL    HW125094   5.179   6.712   0.125
 8065SOL    HW225095   5.130   6.700   6.970
 8066SOL     OW25096   4.698   5.854   0.469
 8066SOL    HW125097   4.659   5.887   0.383
 8066SOL    HW225098   4.797   5.868   0.467
 8067SOL     OW25099   4.762   6.285   1.450
 8067SOL    HW125100   4.687   6.219   1.455
 8067SOL    HW225101   4.849   6.236   1.443
 8068SOL     OW25102   5.061   0.084   0.716
 8068SOL    HW125103   4.963   0.062   0.721
 8068SOL    HW225104   5.072   0.179   0.687
 8069SOL     OW25105   4.244   6.709   0.745
 8069SOL    HW125106   4.160   6.693   0.797
 8069SOL    HW225107   4.220   6.746   0.655
 8070SOL     OW25108   4.689   6.183   0.028
 8070SOL    HW125109   4.608   6.129   0.049
 8070SOL    HW225110   4.760   6.162   0.096
 8071SOL     OW25111   3.840   6.114   1.399
 8071SOL    HW125112   3.931   6.111   1.359
 8071SOL    HW225113   3.832   6.194   1.459
 8072SOL     OW25114   4.309   5.758   1.197
 8072SOL    HW125115   4.335   5.683   1.259
 8072SOL    HW225116   4.212   5.779   1.210
 8073SOL     OW25117   4.618   6.055   0.650
 8073SOL    HW125118   4.576   6.114   0.581
 8073SOL    HW225119   4.648   5.970   0.608
 8074SOL     OW25120   4.738   5.614   0.722
 8074SOL    HW125121   4.674   5.624   0.646
 8074SOL    HW225122   4.708   5.540   0.782
 8075SOL     OW25123   5.162   6.677   0.900
 8075SOL    HW125124   5.108   6.596   0.924
 8075SOL    HW225125   5.158   6.691   0.801
 8076SOL     OW25126   5.156   6.195   0.937
 8076SOL    HW125127   5.094   6.117   0.941
 8076SOL    HW225128   5.222   6.189   1.012
 8077SOL     OW25129   5.517   6.414   0.351
 8077SOL    HW125130   5.579   6.359   0.407
 8077SOL    HW225131   5.512   6.376   0.259
 8078SOL     OW25132   5.525   6.842   0.715
 8078SOL    HW125133   5.622   6.849   0.692
 8078SOL    HW225134   5.481   6.931   0.704
 8079SOL     OW25135   5.048   6.156   0.019
 8079SOL    HW125136   4.987   6.150   0.098
 8079SOL    HW225137   5.125   6.093   0.031
 8080SOL     OW25138   4.240   5.838   0.291
 8080SOL    HW125139   4.306   5.785   0.237
 8080SOL    HW225140   4.209   5.917   0.238
 8081SOL     OW25141   5.429   6.748   1.623
 8081SOL    HW125142   5.454   6.705   1.710
 8081SOL    HW225143   5.486   6.829   1.609
 8082SOL     OW25144   4.738   6.900   1.292
 8082SOL    HW125145   4.655   6.882   1.345
 8082SOL    HW225146   4.818   6.875   1.346
 8083SOL     OW25147   4.898   6.807   1.081
 8083SOL    HW125148   4.829   6.853   1.137
 8083SOL    HW225149   4.868   6.807   0.986
 8084SOL     OW25150   5.334   6.676   1.115
 8084SOL    HW125151   5.309   6.738   1.189
 8084SOL    HW225152   5.266   6.681   1.042
 8085SOL     OW25153   4.658   5.632   1.386
 8085SOL    HW125154   4.678   5.603   1.293
 8085SOL    HW225155   4.734   5.687   1.421
 8086SOL     OW25156   4.644   6.673   1.807
 8086SOL    HW125157   4.547   6.697   1.816
 8086SOL    HW225158   4.654   6.600   1.740
 8087SOL     OW25159   4.472   6.641   0.394
 8087SOL    HW125160   4.463   6.607   0.488
 8087SOL    HW225161   4.548   6.594   0.349
 8088SOL     OW25162   4.161   6.375   1.280
 8088SOL    HW125163   4.234   6.383   1.347
 8088SOL    HW225164   4.127   6.281   1.278
 8089SOL     OW25165   4.947   5.960   1.264
 8089SOL    HW125166   4.970   6.042   1.317
 8089SOL    HW225167   4.870   5.981   1.204
 8090SOL     OW25168   4.151   6.769   0.493
 8090SOL    HW125169   4.213   6.825   0.438
 8090SOL    HW225170   4.132   6.684   0.444
 8091SOL     OW25171   4.245   6.131   0.887
 8091SOL    HW125172   4.259   6.187   0.805
 8091SOL    HW225173   4.322   6.144   0.950
 8092SOL     OW25174   5.304   6.243   0.458
 8092SOL    HW125175   5.242   6.268   0.532
 8092SOL    HW225176   5.367   6.319   0.441
 8093SOL     OW25177   4.175   6.327   1.649
 8093SOL    HW125178   4.241   6.348   1.577
 8093SOL    HW225179   4.204   6.245   1.698
 8094SOL     OW25180   5.358   6.393   1.707
 8094SOL    HW125181   5.262   6.417   1.696
 8094SOL    HW225182   5.409   6.421   1.625
 8095SOL     OW25183   4.744   5.719   1.788
 8095SOL    HW125184   4.796   5.798   1.753
 8095SOL    HW225185   4.807   5.643   1.804
 8096SOL     OW25186   4.203   5.653   1.747
 8096SOL    HW125187   4.146   5.593   1.690
 8096SOL    HW225188   4.154   5.737   1.766
 8097SOL     OW25189   4.289   6.436   1.043
 8097SOL    HW125190   4.318   6.531   1.030
 8097SOL    HW225191   4.242   6.428   1.131
 8098SOL     OW25192   5.032   6.443   0.994
 8098SOL    HW125193   4.933   6.436   0.984
 8098SOL    HW225194   5.074   6.355   0.972
 8099SOL     OW25195   4.886   6.127   0.234
 8099SOL    HW125196   4.913   6.047   0.287
 8099SOL    HW225197   4.853   6.199   0.296
 8100SOL     OW25198   4.038   5.778   1.222
 8100SOL    HW125199   4.010   5.816   1.310
 8100SOL    HW225200   4.006   5.684   1.214
 8101SOL     OW25201   3.831   6.937   1.275
 8101SOL    HW125202   3.849   6.869   1.346
 8101SOL    HW225203   3.752   6.993   1.302
 8102SOL     OW25204   4.450   6.214   1.055
 8102SOL    HW125205   4.525   6.214   0.989
 8102SOL    HW225206   4.397   6.298   1.045
 8103SOL     OW25207   5.478   6.597   1.851
 8103SOL    HW125208   5.439   6.513   1.814
 8103SOL    HW225209   5.433   6.619   1.938
 8104SOL     OW25210   4.041   5.630   0.636
 8104SOL    HW125211   4.004   5.721   0.652
 8104SOL    HW225212   4.050   5.581   0.723
 8105SOL     OW25213   5.366   6.025   0.312
 8105SOL    HW125214   5.402   5.955   0.373
 8105SOL    HW225215   5.337   6.104   0.365
 8106SOL     OW25216   4.756   6.411   0.993
 8106SOL    HW125217   4.720   6.415   1.086
 8106SOL    HW225218   4.731   6.324   0.951
 8107SOL     OW25219   5.606   0.005   1.610
 8107SOL    HW125220   5.666   0.069   1.562
 8107SOL    HW225221   5.654   6.967   1.690
 8108SOL     OW25222   4.110   6.549   1.793
 8108SOL    HW125223   4.150   6.540   1.884
 8108SOL    HW225224   4.131   6.467   1.740
 8109SOL     OW25225   5.188   5.926   0.130
 8109SOL    HW125226   5.139   5.846   0.167
 8109SOL    HW225227   5.250   5.962   0.199
 8110SOL     OW25228   4.989   6.428   0.022
 8110SOL    HW125229   5.016   6.333   0.005
 8110SOL    HW225230   5.024   6.485   6.948
 8111SOL     OW25231   4.022   6.392   0.944
 8111SOL    HW125232   4.121   6.407   0.953
 8111SOL    HW225233   4.001   6.297   0.966
 8112SOL     OW25234   4.003   6.117   1.000
 8112SOL    HW125235   3.967   6.025   0.987
 8112SOL    HW225236   4.092   6.126   0.954
 8113SOL     OW25237   4.850   5.953   1.687
 8113SOL    HW125238   4.805   6.001   1.762
 8113SOL    HW225239   4.939   5.994   1.670
 8114SOL     OW25240   4.867   5.789   1.468
 8114SOL    HW125241   4.849   5.851   1.544
 8114SOL    HW225242   4.900   5.842   1.390
 8115SOL     OW25243   4.628   6.390   1.234
 8115SOL    HW125244   4.684   6.360   1.311
 8115SOL    HW225245   4.560   6.321   1.213
 8116SOL     OW25246   3.760   6.172   1.137
 8116SOL    HW125247   3.841   6.160   1.080
 8116SOL    HW225248   3.784   6.154   1.233
 8117SOL     OW25249   3.916   6.139   1.731
 8117SOL    HW125250   3.990   6.089   1.686
 8117SOL    HW225251   3.889   6.217   1.675
 8118SOL     OW25252   5.110   6.489   1.640
 8118SOL    HW125253   5.117   6.589   1.642
 8118SOL    HW225254   5.107   6.458   1.545
 8119SOL     OW25255   4.550   6.166   0.394
 8119SOL    HW125256   4.578   6.089   0.337
 8119SOL    HW225257   4.458   6.196   0.368
 8120SOL     OW25258   5.349   6.172   1.132
 8120SOL    HW125259   5.321   6.103   1.199
 8120SOL    HW225260   5.448   6.171   1.123
 8121SOL     OW25261   4.481   5.983   1.218
 8121SOL    HW125262   4.417   5.906   1.215
 8121SOL    HW225263   4.446   6.058   1.162
 8122SOL     OW25264   4.186   6.065   0.138
 8122SOL    HW125265   4.226   6.134   0.199
 8122SOL    HW225266   4.088   6.080   0.131
 8123SOL     OW25267   3.906   6.740   1.454
 8123SOL    HW125268   3.887   6.707   1.546
 8123SOL    HW225269   3.916   6.663   1.391
 8124SOL     OW25270   5.010   6.603   1.214
 8124SOL    HW125271   5.027   6.535   1.143
 8124SOL    HW225272   4.972   6.686   1.173
 8125SOL     OW25273   4.996   6.459   0.295
 8125SOL    HW125274   4.925   6.407   0.343
 8125SOL    HW225275   4.988   6.442   0.197
 8126SOL     OW25276   3.868   6.860   1.017
 8126SOL    HW125277   3.857   6.888   1.112
 8126SOL    HW225278   3.798   6.792   0.994
 8127SOL     OW25279   4.681   5.624   0.084
 8127SOL    HW125280   4.731   5.706   0.056
 8127SOL    HW225281   4.732   5.577   0.157
 8128SOL     OW25282   5.471   5.822   0.461
 8128SOL    HW125283   5.522   5.775   0.389
 8128SOL    HW225284   5.405   5.759   0.501
 8129SOL     OW25285   4.985   6.531   0.681
 8129SOL    HW125286   5.052   6.457   0.685
 8129SOL    HW225287   5.027   6.612   0.641
 8130SOL     OW25288   4.483   6.858   1.409
 8130SOL    HW125289   4.452   6.887   1.499
 8130SOL    HW225290   4.415   6.885   1.340
 8131SOL     OW25291   5.566   5.724   1.006
 8131SOL    HW125292   5.593   5.633   0.973
 8131SOL    HW225293   5.480   5.750   0.962
 8132SOL     OW25294   3.960   5.885   0.698
 8132SOL    HW125295   3.876   5.934   0.675
 8132SOL    HW225296   3.969   5.878   0.798
 8133SOL     OW25297   4.528   6.586   1.417
 8133SOL    HW125298   4.568   6.551   1.333
 8133SOL    HW225299   4.512   6.684   1.409
 8134SOL     OW25300   4.658   6.514   0.255
 8134SOL    HW125301   4.689   6.527   0.161
 8134SOL    HW225302   4.716   6.446   0.300
 8135SOL     OW25303   4.108   6.930   1.461
 8135SOL    HW125304   4.106   6.975   1.550
 8135SOL    HW225305   4.037   6.859   1.458
 8136SOL     OW25306   5.247   6.853   1.332
 8136SOL    HW125307   5.289   6.907   1.405
 8136SOL    HW225308   5.149   6.842   1.351
 8137SOL     OW25309   4.819   6.767   0.812
 8137SOL    HW125310   4.732   6.719   0.826
 8137SOL    HW225311   4.885   6.704   0.771
 8138SOL     OW25312   4.787   5.766   0.950
 8138SOL    HW125313   4.768   5.727   0.860
 8138SOL    HW225314   4.777   5.696   1.020
 8139SOL     OW25315   5.513   5.918   1.421
 8139SOL    HW125316   5.572   5.998   1.412
 8139SOL    HW225317   5.550   5.843   1.366
 8140SOL     OW25318   3.866   6.649   1.710
 8140SOL    HW125319   3.785   6.619   1.761
 8140SOL    HW225320   3.947   6.606   1.749
 8141SOL     OW25321   4.435   5.761   1.513
 8141SOL    HW125322   4.516   5.725   1.468
 8141SOL    HW225323   4.458   5.790   1.605
 8142SOL     OW25324   3.825   5.951   6.894
 8142SOL    HW125325   3.746   5.890   6.900
 8142SOL    HW225326   3.838   5.998   6.981
 8143SOL     OW25327   5.127   6.419   1.378
 8143SOL    HW125328   5.072   6.484   1.326
 8143SOL    HW225329   5.220   6.417   1.341
 8144SOL     OW25330   3.794   5.706   0.293
 8144SOL    HW125331   3.877   5.761   0.305
 8144SOL    HW225332   3.797   5.660   0.204
 8145SOL     OW25333   4.365   6.370   1.458
 8145SOL    HW125334   4.420   6.453   1.451
 8145SOL    HW225335   4.424   6.290   1.455
 8146SOL     OW25336   4.478   6.104   1.707
 8146SOL    HW125337   4.519   6.166   1.773
 8146SOL    HW225338   4.486   6.010   1.739
 8147SOL     OW25339   5.148   6.759   1.651
 8147SOL    HW125340   5.133   6.785   1.746
 8147SOL    HW225341   5.246   6.767   1.630
 8148SOL     OW25342   5.368   6.437   1.248
 8148SOL    HW125343   5.369   6.355   1.190
 8148SOL    HW225344   5.361   6.518   1.190
 8149SOL     OW25345   4.962   5.923   0.416
 8149SOL    HW125346   5.028   5.855   0.384
 8149SOL    HW225347   4.997   5.967   0.499
 8150SOL     OW25348   4.290   6.307   0.684
 8150SOL    HW125349   4.349   6.386   0.667
 8150SOL    HW225350   4.218   6.304   0.615
 8151SOL     OW25351   5.444   5.939   1.686
 8151SOL    HW125352   5.469   5.933   1.589
 8151SOL    HW225353   5.366   5.879   1.704
 8152SOL     OW25354   5.479   6.503   1.490
 8152SOL    HW125355   5.463   6.599   1.513
 8152SOL    HW225356   5.442   6.484   1.398
 8153SOL     OW25357   4.604   6.606   0.869
 8153SOL    HW125358   4.659   6.538   0.918
 8153SOL    HW225359   4.528   6.636   0.927
 8154SOL     OW25360   4.740   6.543   6.989
 8154SOL    HW125361   4.695   6.480   6.926
 8154SOL    HW225362   4.834   6.512   0.005
 8155SOL     OW25363   3.875   6.908   1.792
 8155SOL    HW125364   3.878   6.813   1.760
 8155SOL    HW225365   3.826   6.912   1.879
 8156SOL     OW25366   3.937   6.819   0.660
 8156SOL    HW125367   3.958   6.764   0.741
 8156SOL    HW225368   4.002   6.797   0.587
 8157SOL     OW25369   4.366   6.971   1.646
 8157SOL    HW125370   4.272   6.980   1.679
 8157SOL    HW225371   4.397   0.058   1.608
 8158SOL     OW25372   5.604   5.710   1.277
 8158SOL    HW125373   5.673   5.638   1.283
 8158SOL    HW225374   5.579   5.724   1.181
 8159SOL     OW25375   4.119   6.000   0.494
 8159SOL    HW125376   4.166   5.933   0.437
 8159SOL    HW225377   4.073   5.954   0.569
 8160SOL     OW25378   5.297   0.047   1.150
 8160SOL    HW125379   5.269   0.015   1.060
 8160SOL    HW225380   5.280   6.976   1.218
 8161SOL     OW25381   4.084   6.113   1.281
 8161SOL    HW125382   4.145   6.051   1.331
 8161SOL    HW225383   4.080   6.085   1.185
 8162SOL     OW25384   5.152   5.844   1.123
 8162SOL    HW125385   5.172   5.750   1.149
 8162SOL    HW225386   5.084   5.882   1.185
 8163SOL     OW25387   4.753   5.552   1.128
 8163SOL    HW125388   4.690   5.483   1.092
 8163SOL    HW225389   4.846   5.517   1.125
 8164SOL     OW25390   4.561   6.888   0.308
 8164SOL    HW125391   4.531   6.798   0.339
 8164SOL    HW225392   4.575   6.948   0.387
 8165SOL     OW25393   5.040   5.698   0.215
 8165SOL    HW125394   5.101   5.633   0.170
 8165SOL    HW225395   4.963   5.648   0.256
 8166SOL     OW25396   5.029   6.045   0.655
 8166SOL    HW125397   4.983   6.133   0.649
 8166SOL    HW225398   5.016   6.006   0.747
 8167SOL     OW25399   5.322   5.796   0.910
 8167SOL    HW125400   5.264   5.827   0.985
 8167SOL    HW225401   5.322   5.865   0.838
 8168SOL     OW25402   3.849   6.608   0.265
 8168SOL    HW125403   3.942   6.598   0.301
 8168SOL    HW225404   3.795   6.528   0.290
 8169SOL     OW25405   3.913   6.188   2.003
 8169SOL    HW125406   3.820   6.179   2.040
 8169SOL    HW225407   3.910   6.185   1.903
 8170SOL     OW25408   3.946   5.879   2.852
 8170SOL    HW125409   3.985   5.851   2.939
 8170SOL    HW225410   3.860   5.831   2.836
 8171SOL     OW25411   3.738   6.018   2.499
 8171SOL    HW125412   3.661   6.032   2.561
 8171SOL    HW225413   3.712   5.951   2.429
 8172SOL     OW25414   4.286   6.950   3.127
 8172SOL    HW125415   4.235   6.935   3.043
 8172SOL    HW225416   4.223   6.953   3.204
 8173SOL     OW25417   5.361   0.088   2.503
 8173SOL    HW125418   5.348   0.133   2.591
 8173SOL    HW225419   5.276   0.093   2.450
 8174SOL     OW25420   4.853   6.294   2.521
 8174SOL    HW125421   4.880   6.390   2.530
 8174SOL    HW225422   4.785   6.272   2.592
 8175SOL     OW25423   5.513   6.155   2.074
 8175SOL    HW125424   5.474   6.164   1.983
 8175SOL    HW225425   5.459   6.091   2.128
 8176SOL     OW25426   4.355   6.674   2.808
 8176SOL    HW125427   4.313   6.740   2.871
 8176SOL    HW225428   4.321   6.690   2.716
 8177SOL     OW25429   4.622   6.310   3.723
 8177SOL    HW125430   4.629   6.369   3.803
 8177SOL    HW225431   4.629   6.365   3.640
 8178SOL     OW25432   4.432   6.551   2.474
 8178SOL    HW125433   4.507   6.559   2.540
 8178SOL    HW225434   4.361   6.618   2.496
 8179SOL     OW25435   4.441   6.779   3.735
 8179SOL    HW125436   4.462   6.825   3.821
 8179SOL    HW225437   4.417   6.847   3.666
 8180SOL     OW25438   4.125   6.944   2.909
 8180SOL    HW125439   4.037   6.908   2.878
 8180SOL    HW225440   4.152   0.020   2.850
 8181SOL     OW25441   4.232   5.950   3.307
 8181SOL    HW125442   4.311   5.893   3.331
 8181SOL    HW225443   4.149   5.911   3.349
 8182SOL     OW25444   5.294   6.033   2.602
 8182SOL    HW125445   5.217   6.027   2.540
 8182SOL    HW225446   5.275   6.102   2.672
 8183SOL     OW25447   4.026   6.667   2.716
 8183SOL    HW125448   4.018   6.568   2.727
 8183SOL    HW225449   3.978   6.714   2.791
 8184SOL     OW25450   4.293   6.580   2.022
 8184SOL    HW125451   4.320   6.631   1.940
 8184SOL    HW225452   4.357   6.599   2.096
 8185SOL     OW25453   5.300   5.720   3.319
 8185SOL    HW125454   5.358   5.797   3.294
 8185SOL    HW225455   5.252   5.742   3.404
 8186SOL     OW25456   3.830   6.274   2.422
 8186SOL    HW125457   3.803   6.180   2.443
 8186SOL    HW225458   3.804   6.334   2.499
 8187SOL     OW25459   5.402   6.476   2.522
 8187SOL    HW125460   5.489   6.467   2.570
 8187SOL    HW225461   5.410   6.549   2.454
 8188SOL     OW25462   5.426   6.705   2.359
 8188SOL    HW125463   5.500   6.685   2.295
 8188SOL    HW225464   5.461   6.762   2.433
 8189SOL     OW25465   3.866   6.332   3.425
 8189SOL    HW125466   3.957   6.372   3.435
 8189SOL    HW225467   3.800   6.403   3.402
 8190SOL     OW25468   4.964   6.779   3.275
 8190SOL    HW125469   4.966   6.696   3.219
 8190SOL    HW225470   4.992   6.757   3.368
 8191SOL     OW25471   4.559   5.651   2.374
 8191SOL    HW125472   4.596   5.740   2.346
 8191SOL    HW225473   4.460   5.653   2.367
 8192SOL     OW25474   3.946   6.529   3.169
 8192SOL    HW125475   4.031   6.480   3.149
 8192SOL    HW225476   3.874   6.497   3.107
 8193SOL     OW25477   5.309   6.647   2.079
 8193SOL    HW125478   5.256   6.562   2.090
 8193SOL    HW225479   5.345   6.675   2.168
 8194SOL     OW25480   4.072   5.865   3.736
 8194SOL    HW125481   4.109   5.945   3.783
 8194SOL    HW225482   3.973   5.874   3.728
 8195SOL     OW25483   5.214   6.946   2.789
 8195SOL    HW125484   5.155   0.001   2.731
 8195SOL    HW225485   5.188   6.849   2.781
 8196SOL     OW25486   4.294   6.306   2.131
 8196SOL    HW125487   4.302   6.395   2.086
 8196SOL    HW225488   4.220   6.309   2.199
 8197SOL     OW25489   4.999   5.953   2.783
 8197SOL    HW125490   4.917   5.895   2.780
 8197SOL    HW225491   5.061   5.918   2.853
 8198SOL     OW25492   4.512   6.152   3.299
 8198SOL    HW125493   4.496   6.120   3.393
 8198SOL    HW225494   4.492   6.079   3.235
 8199SOL     OW25495   5.101   6.051   3.515
 8199SOL    HW125496   5.110   6.096   3.604
 8199SOL    HW225497   5.142   5.960   3.520
 8200SOL     OW25498   4.654   6.458   3.487
 8200SOL    HW125499   4.706   6.392   3.433
 8200SOL    HW225500   4.600   6.516   3.426
 8201SOL     OW25501   4.729   5.982   2.957
 8201SOL    HW125502   4.644   5.979   3.009
 8201SOL    HW225503   4.742   5.894   2.911
 8202SOL     OW25504   4.771   6.274   2.257
 8202SOL    HW125505   4.803   6.280   2.351
 8202SOL    HW225506   4.678   6.236   2.255
 8203SOL     OW25507   3.757   6.443   2.631
 8203SOL    HW125508   3.848   6.422   2.665
 8203SOL    HW225509   3.720   6.523   2.680
 8204SOL     OW25510   4.576   5.956   2.069
 8204SOL    HW125511   4.640   5.995   2.003
 8204SOL    HW225512   4.518   5.889   2.024
 8205SOL     OW25513   5.393   6.147   3.693
 8205SOL    HW125514   5.393   6.228   3.635
 8205SOL    HW225515   5.411   6.066   3.637
 8206SOL     OW25516   5.175   6.751   2.485
 8206SOL    HW125517   5.256   6.729   2.432
 8206SOL    HW225518   5.160   6.850   2.484
 8207SOL     OW25519   4.291   5.694   2.790
 8207SOL    HW125520   4.296   5.726   2.885
 8207SOL    HW225521   4.301   5.772   2.729
 8208SOL     OW25522   5.537   6.690   2.790
 8208SOL    HW125523   5.513   6.748   2.712
 8208SOL    HW225524   5.459   6.683   2.852
 8209SOL     OW25525   4.057   6.576   2.171
 8209SOL    HW125526   4.139   6.582   2.114
 8209SOL    HW225527   4.049   6.484   2.209
 8210SOL     OW25528   5.171   6.346   2.555
 8210SOL    HW125529   5.167   6.293   2.639
 8210SOL    HW225530   5.259   6.395   2.551
 8211SOL     OW25531   3.965   5.882   3.367
 8211SOL    HW125532   3.900   5.953   3.340
 8211SOL    HW225533   3.915   5.804   3.406
 8212SOL     OW25534   5.322   6.972   1.986
 8212SOL    HW125535   5.295   0.068   1.979
 8212SOL    HW225536   5.244   6.914   1.962
 8213SOL     OW25537   5.126   5.690   2.308
 8213SOL    HW125538   5.130   5.666   2.211
 8213SOL    HW225539   5.211   5.663   2.353
 8214SOL     OW25540   4.087   6.288   2.318
 8214SOL    HW125541   4.116   6.193   2.330
 8214SOL    HW225542   3.990   6.297   2.343
 8215SOL     OW25543   5.191   5.792   3.569
 8215SOL    HW125544   5.200   5.812   3.667
 8215SOL    HW225545   5.125   5.718   3.557
 8216SOL     OW25546   4.354   5.702   1.970
 8216SOL    HW125547   4.396   5.619   2.006
 8216SOL    HW225548   4.293   5.678   1.894
 8217SOL     OW25549   4.514   5.830   3.639
 8217SOL    HW125550   4.603   5.784   3.641
 8217SOL    HW225551   4.453   5.788   3.706
 8218SOL     OW25552   4.998   6.175   3.292
 8218SOL    HW125553   5.039   6.134   3.374
 8218SOL    HW225554   5.045   6.261   3.271
 8219SOL     OW25555   4.690   6.161   2.740
 8219SOL    HW125556   4.659   6.118   2.655
 8219SOL    HW225557   4.718   6.091   2.805
 8220SOL     OW25558   4.285   5.661   2.340
 8220SOL    HW125559   4.209   5.653   2.405
 8220SOL    HW225560   4.270   5.740   2.281
 8221SOL     OW25561   5.112   6.784   1.944
 8221SOL    HW125562   5.183   6.730   1.989
 8221SOL    HW225563   5.027   6.731   1.942
 8222SOL     OW25564   4.011   5.665   2.030
 8222SOL    HW125565   4.070   5.733   1.985
 8222SOL    HW225566   4.069   5.594   2.072
 8223SOL     OW25567   4.690   5.881   2.307
 8223SOL    HW125568   4.652   5.908   2.219
 8223SOL    HW225569   4.790   5.885   2.303
 8224SOL     OW25570   4.745   6.290   3.284
 8224SOL    HW125571   4.667   6.227   3.291
 8224SOL    HW225572   4.830   6.239   3.287
 8225SOL     OW25573   5.052   0.102   2.630
 8225SOL    HW125574   4.959   0.071   2.612
 8225SOL    HW225575   5.052   0.200   2.651
 8226SOL     OW25576   4.236   6.719   2.554
 8226SOL    HW125577   4.157   6.699   2.612
 8226SOL    HW225578   4.206   6.768   2.472
 8227SOL     OW25579   4.756   6.086   1.907
 8227SOL    HW125580   4.713   6.175   1.890
 8227SOL    HW225581   4.829   6.096   1.975
 8228SOL     OW25582   3.844   6.115   3.262
 8228SOL    HW125583   3.935   6.114   3.219
 8228SOL    HW225584   3.837   6.194   3.322
 8229SOL     OW25585   4.297   5.773   3.051
 8229SOL    HW125586   4.321   5.696   3.110
 8229SOL    HW225587   4.202   5.799   3.068
 8230SOL     OW25588   4.609   6.070   2.495
 8230SOL    HW125589   4.552   6.124   2.433
 8230SOL    HW225590   4.644   5.990   2.447
 8231SOL     OW25591   4.739   5.626   2.578
 8231SOL    HW125592   4.677   5.645   2.503
 8231SOL    HW225593   4.706   5.546   2.629
 8232SOL     OW25594   5.172   6.670   2.758
 8232SOL    HW125595   5.112   6.593   2.779
 8232SOL    HW225596   5.176   6.684   2.659
 8233SOL     OW25597   5.155   6.196   2.793
 8233SOL    HW125598   5.090   6.120   2.798
 8233SOL    HW225599   5.220   6.190   2.868
 8234SOL     OW25600   5.529   6.377   2.234
 8234SOL    HW125601   5.583   6.345   2.312
 8234SOL    HW225602   5.523   6.304   2.165
 8235SOL     OW25603   5.517   6.863   2.566
 8235SOL    HW125604   5.615   6.878   2.552
 8235SOL    HW225605   5.468   6.947   2.546
 8236SOL     OW25606   5.109   6.157   1.901
 8236SOL    HW125607   5.064   6.123   1.984
 8236SOL    HW225608   5.208   6.145   1.910
 8237SOL     OW25609   4.246   5.865   2.162
 8237SOL    HW125610   4.289   5.806   2.095
 8237SOL    HW225611   4.212   5.948   2.117
 8238SOL     OW25612   5.437   6.849   3.516
 8238SOL    HW125613   5.510   6.784   3.541
 8238SOL    HW225614   5.402   6.893   3.598
 8239SOL     OW25615   4.729   6.890   3.148
 8239SOL    HW125616   4.649   6.881   3.207
 8239SOL    HW225617   4.811   6.864   3.198
 8240SOL     OW25618   4.894   6.802   2.933
 8240SOL    HW125619   4.821   6.844   2.987
 8240SOL    HW225620   4.866   6.796   2.837
 8241SOL     OW25621   5.328   6.669   2.983
 8241SOL    HW125622   5.293   6.727   3.056
 8241SOL    HW225623   5.264   6.671   2.906
 8242SOL     OW25624   4.668   5.637   3.248
 8242SOL    HW125625   4.687   5.605   3.155
 8242SOL    HW225626   4.746   5.689   3.282
 8243SOL     OW25627   4.684   6.670   3.659
 8243SOL    HW125628   4.594   6.704   3.685
 8243SOL    HW225629   4.674   6.594   3.595
 8244SOL     OW25630   4.483   6.623   2.210
 8244SOL    HW125631   4.469   6.593   2.304
 8244SOL    HW225632   4.558   6.571   2.169
 8245SOL     OW25633   4.170   6.376   3.125
 8245SOL    HW125634   4.235   6.387   3.200
 8245SOL    HW225635   4.133   6.283   3.126
 8246SOL     OW25636   4.950   5.962   3.128
 8246SOL    HW125637   4.966   6.044   3.184
 8246SOL    HW225638   4.872   5.977   3.067
 8247SOL     OW25639   4.093   6.804   2.325
 8247SOL    HW125640   4.087   6.887   2.270
 8247SOL    HW225641   4.080   6.724   2.266
 8248SOL     OW25642   4.232   6.156   2.728
 8248SOL    HW125643   4.242   6.218   2.651
 8248SOL    HW225644   4.317   6.155   2.781
 8249SOL     OW25645   5.266   6.249   2.307
 8249SOL    HW125646   5.218   6.275   2.391
 8249SOL    HW225647   5.347   6.307   2.295
 8250SOL     OW25648   4.156   6.336   3.497
 8250SOL    HW125649   4.227   6.363   3.431
 8250SOL    HW225650   4.179   6.247   3.537
 8251SOL     OW25651   5.390   6.376   3.545
 8251SOL    HW125652   5.296   6.406   3.530
 8251SOL    HW225653   5.446   6.400   3.465
 8252SOL     OW25654   4.754   5.708   3.644
 8252SOL    HW125655   4.801   5.791   3.614
 8252SOL    HW225656   4.819   5.633   3.651
 8253SOL     OW25657   4.218   5.667   3.614
 8253SOL    HW125658   4.171   5.620   3.539
 8253SOL    HW225659   4.164   5.745   3.645
 8254SOL     OW25660   4.384   6.436   2.960
 8254SOL    HW125661   4.373   6.518   2.903
 8254SOL    HW225662   4.300   6.420   3.012
 8255SOL     OW25663   5.030   6.442   2.842
 8255SOL    HW125664   4.931   6.436   2.826
 8255SOL    HW225665   5.071   6.353   2.822
 8256SOL     OW25666   4.939   6.110   2.114
 8256SOL    HW125667   4.956   6.031   2.173
 8256SOL    HW225668   4.886   6.178   2.164
 8257SOL     OW25669   4.029   5.800   3.101
 8257SOL    HW125670   4.006   5.829   3.194
 8257SOL    HW225671   4.009   5.702   3.091
 8258SOL     OW25672   3.795   6.883   3.131
 8258SOL    HW125673   3.833   6.844   3.215
 8258SOL    HW225674   3.748   6.968   3.151
 8259SOL     OW25675   4.453   6.183   2.886
 8259SOL    HW125676   4.537   6.183   2.831
 8259SOL    HW225677   4.430   6.276   2.912
 8260SOL     OW25678   5.449   6.588   3.723
 8260SOL    HW125679   5.424   6.500   3.683
 8260SOL    HW225680   5.402   6.599   3.810
 8261SOL     OW25681   4.061   5.655   2.503
 8261SOL    HW125682   4.029   5.748   2.525
 8261SOL    HW225683   4.066   5.601   2.587
 8262SOL     OW25684   5.322   5.998   2.197
 8262SOL    HW125685   5.363   5.935   2.263
 8262SOL    HW225686   5.288   6.079   2.245
 8263SOL     OW25687   4.756   6.411   2.827
 8263SOL    HW125688   4.725   6.429   2.920
 8263SOL    HW225689   4.731   6.318   2.801
 8264SOL     OW25690   5.666   0.097   3.551
 8264SOL    HW125691   5.670   0.195   3.572
 8264SOL    HW225692   5.710   0.046   3.625
 8265SOL     OW25693   4.080   6.518   3.688
 8265SOL    HW125694   4.153   6.530   3.755
 8265SOL    HW225695   4.109   6.452   3.619
 8266SOL     OW25696   5.230   5.860   1.972
 8266SOL    HW125697   5.191   5.774   2.006
 8266SOL    HW225698   5.262   5.915   2.049
 8267SOL     OW25699   4.996   6.401   1.870
 8267SOL    HW125700   5.022   6.305   1.880
 8267SOL    HW225701   5.030   6.436   1.783
 8268SOL     OW25702   4.012   6.392   2.721
 8268SOL    HW125703   4.092   6.382   2.661
 8268SOL    HW225704   4.003   6.312   2.779
 8269SOL     OW25705   4.002   6.142   2.859
 8269SOL    HW125706   3.966   6.049   2.853
 8269SOL    HW225707   4.089   6.148   2.811
 8270SOL     OW25708   4.851   5.948   3.554
 8270SOL    HW125709   4.802   5.993   3.629
 8270SOL    HW225710   4.938   5.994   3.538
 8271SOL     OW25711   4.880   5.786   3.333
 8271SOL    HW125712   4.860   5.847   3.410
 8271SOL    HW225713   4.912   5.840   3.256
 8272SOL     OW25714   3.724   6.887   2.020
 8272SOL    HW125715   3.626   6.906   2.010
 8272SOL    HW225716   3.736   6.799   2.066
 8273SOL     OW25717   4.645   6.443   3.073
 8273SOL    HW125718   4.677   6.384   3.147
 8273SOL    HW225719   4.549   6.422   3.053
 8274SOL     OW25720   3.767   6.196   3.005
 8274SOL    HW125721   3.847   6.189   2.945
 8274SOL    HW225722   3.791   6.169   3.098
 8275SOL     OW25723   3.916   6.120   3.593
 8275SOL    HW125724   3.973   6.060   3.537
 8275SOL    HW225725   3.891   6.201   3.541
 8276SOL     OW25726   5.143   6.481   3.496
 8276SOL    HW125727   5.146   6.581   3.502
 8276SOL    HW225728   5.124   6.454   3.402
 8277SOL     OW25729   4.516   6.172   2.238
 8277SOL    HW125730   4.528   6.090   2.181
 8277SOL    HW225731   4.438   6.224   2.205
 8278SOL     OW25732   5.343   6.166   2.990
 8278SOL    HW125733   5.314   6.087   3.043
 8278SOL    HW225734   5.442   6.166   2.980
 8279SOL     OW25735   4.480   5.983   3.075
 8279SOL    HW125736   4.414   5.908   3.072
 8279SOL    HW225737   4.454   6.053   3.008
 8280SOL     OW25738   4.162   6.085   2.021
 8280SOL    HW125739   4.226   6.156   2.048
 8280SOL    HW225740   4.068   6.121   2.026
 8281SOL     OW25741   3.924   6.742   3.337
 8281SOL    HW125742   3.901   6.707   3.428
 8281SOL    HW225743   3.935   6.665   3.274
 8282SOL     OW25744   5.006   6.597   3.064
 8282SOL    HW125745   5.021   6.529   2.992
 8282SOL    HW225746   4.967   6.680   3.024
 8283SOL     OW25747   5.157   6.429   2.107
 8283SOL    HW125748   5.170   6.348   2.165
 8283SOL    HW225749   5.090   6.408   2.036
 8284SOL     OW25750   3.869   6.819   2.880
 8284SOL    HW125751   3.847   6.844   2.974
 8284SOL    HW225752   3.795   6.765   2.841
 8285SOL     OW25753   5.477   5.811   2.337
 8285SOL    HW125754   5.530   5.791   2.254
 8285SOL    HW225755   5.437   5.726   2.372
 8286SOL     OW25756   4.989   6.550   2.533
 8286SOL    HW125757   5.049   6.470   2.540
 8286SOL    HW225758   5.040   6.627   2.495
 8287SOL     OW25759   4.488   6.863   3.292
 8287SOL    HW125760   4.457   6.889   3.383
 8287SOL    HW225761   4.422   6.893   3.224
 8288SOL     OW25762   5.569   5.736   2.864
 8288SOL    HW125763   5.598   5.647   2.829
 8288SOL    HW225764   5.483   5.763   2.820
 8289SOL     OW25765   3.982   5.908   2.574
 8289SOL    HW125766   3.897   5.951   2.544
 8289SOL    HW225767   3.984   5.904   2.674
 8290SOL     OW25768   4.972   0.175   1.926
 8290SOL    HW125769   4.965   0.107   1.999
 8290SOL    HW225770   4.889   0.171   1.869
 8291SOL     OW25771   4.532   6.594   3.284
 8291SOL    HW125772   4.584   6.571   3.201
 8291SOL    HW225773   4.514   6.692   3.286
 8292SOL     OW25774   4.687   6.478   2.090
 8292SOL    HW125775   4.760   6.539   2.059
 8292SOL    HW225776   4.727   6.408   2.150
 8293SOL     OW25777   4.093   6.960   3.321
 8293SOL    HW125778   4.102   6.997   3.413
 8293SOL    HW225779   4.034   6.880   3.323
 8294SOL     OW25780   5.228   6.843   3.208
 8294SOL    HW125781   5.260   6.883   3.294
 8294SOL    HW225782   5.130   6.824   3.214
 8295SOL     OW25783   4.820   6.753   2.662
 8295SOL    HW125784   4.731   6.709   2.667
 8295SOL    HW225785   4.886   6.690   2.620
 8296SOL     OW25786   4.787   5.754   2.819
 8296SOL    HW125787   4.772   5.719   2.727
 8296SOL    HW225788   4.773   5.681   2.885
 8297SOL     OW25789   5.501   5.919   3.282
 8297SOL    HW125790   5.558   6.000   3.269
 8297SOL    HW225791   5.538   5.844   3.227
 8298SOL     OW25792   3.863   6.648   3.592
 8298SOL    HW125793   3.777   6.621   3.637
 8298SOL    HW225794   3.939   6.597   3.632
 8299SOL     OW25795   4.451   5.778   3.372
 8299SOL    HW125796   4.533   5.743   3.327
 8299SOL    HW225797   4.473   5.802   3.467
 8300SOL     OW25798   3.796   5.923   1.849
 8300SOL    HW125799   3.713   5.897   1.799
 8300SOL    HW225800   3.829   6.011   1.816
 8301SOL     OW25801   5.122   6.416   3.234
 8301SOL    HW125802   5.067   6.479   3.179
 8301SOL    HW225803   5.214   6.411   3.196
 8302SOL     OW25804   3.776   5.780   2.092
 8302SOL    HW125805   3.760   5.840   2.013
 8302SOL    HW225806   3.867   5.738   2.085
 8303SOL     OW25807   4.359   6.382   3.318
 8303SOL    HW125808   4.418   6.463   3.313
 8303SOL    HW225809   4.416   6.300   3.314
 8304SOL     OW25810   4.488   6.098   3.565
 8304SOL    HW125811   4.525   6.163   3.632
 8304SOL    HW225812   4.498   6.005   3.599
 8305SOL     OW25813   5.163   6.752   3.522
 8305SOL    HW125814   5.132   6.769   3.615
 8305SOL    HW225815   5.258   6.782   3.512
 8306SOL     OW25816   5.369   6.426   3.112
 8306SOL    HW125817   5.365   6.343   3.056
 8306SOL    HW225818   5.360   6.506   3.052
 8307SOL     OW25819   4.964   5.912   2.304
 8307SOL    HW125820   5.022   5.830   2.302
 8307SOL    HW225821   4.986   5.966   2.385
 8308SOL     OW25822   4.230   6.363   2.543
 8308SOL    HW125823   4.307   6.422   2.520
 8308SOL    HW225824   4.181   6.338   2.460
 8309SOL     OW25825   5.441   5.916   3.549
 8309SOL    HW125826   5.464   5.917   3.452
 8309SOL    HW225827   5.359   5.861   3.563
 8310SOL     OW25828   5.533   6.494   3.319
 8310SOL    HW125829   5.505   6.585   3.348
 8310SOL    HW225830   5.475   6.464   3.244
 8311SOL     OW25831   4.598   6.596   2.694
 8311SOL    HW125832   4.653   6.529   2.744
 8311SOL    HW225833   4.519   6.623   2.749
 8312SOL     OW25834   4.879   6.637   1.944
 8312SOL    HW125835   4.796   6.659   1.894
 8312SOL    HW225836   4.913   6.548   1.915
 8313SOL     OW25837   3.876   6.910   3.659
 8313SOL    HW125838   3.879   6.814   3.630
 8313SOL    HW225839   3.834   6.917   3.749
 8314SOL     OW25840   3.927   6.850   2.533
 8314SOL    HW125841   3.957   6.786   2.603
 8314SOL    HW225842   3.979   6.834   2.449
 8315SOL     OW25843   4.375   6.970   3.529
 8315SOL    HW125844   4.280   6.967   3.559
 8315SOL    HW225845   4.394   0.058   3.487
 8316SOL     OW25846   5.601   5.718   3.136
 8316SOL    HW125847   5.669   5.645   3.141
 8316SOL    HW225848   5.577   5.734   3.040
 8317SOL     OW25849   4.145   6.030   2.374
 8317SOL    HW125850   4.183   5.961   2.312
 8317SOL    HW225851   4.096   5.985   2.448
 8318SOL     OW25852   5.291   0.037   3.030
 8318SOL    HW125853   5.271   0.006   2.937
 8318SOL    HW225854   5.261   6.967   3.095
 8319SOL     OW25855   4.088   6.116   3.144
 8319SOL    HW125856   4.151   6.058   3.195
 8319SOL    HW225857   4.087   6.088   3.048
 8320SOL     OW25858   5.160   5.857   2.986
 8320SOL    HW125859   5.180   5.762   3.008
 8320SOL    HW225860   5.090   5.892   3.049
 8321SOL     OW25861   4.754   5.533   2.997
 8321SOL    HW125862   4.696   5.452   2.999
 8321SOL    HW225863   4.847   5.507   2.975
 8322SOL     OW25864   4.508   6.906   2.166
 8322SOL    HW125865   4.497   6.808   2.182
 8322SOL    HW225866   4.540   6.949   2.250
 8323SOL     OW25867   5.133   5.616   2.042
 8323SOL    HW125868   5.185   5.547   1.992
 8323SOL    HW225869   5.041   5.582   2.059
 8324SOL     OW25870   5.017   6.060   2.526
 8324SOL    HW125871   4.968   6.147   2.518
 8324SOL    HW225872   5.001   6.021   2.616
 8325SOL     OW25873   5.326   5.808   2.769
 8325SOL    HW125874   5.268   5.839   2.844
 8325SOL    HW225875   5.319   5.873   2.693
 8326SOL     OW25876   3.783   6.643   2.149
 8326SOL    HW125877   3.883   6.641   2.151
 8326SOL    HW225878   3.747   6.550   2.156
 8327SOL     OW25879   3.912   6.170   3.867
 8327SOL    HW125880   3.819   6.170   3.902
 8327SOL    HW225881   3.911   6.171   3.767
 8328SOL     OW25882   3.934   5.878   4.715
 8328SOL    HW125883   3.974   5.847   4.801
 8328SOL    HW225884   3.850   5.826   4.697
 8329SOL     OW25885   3.727   6.021   4.359
 8329SOL    HW125886   3.650   6.032   4.421
 8329SOL    HW225887   3.704   5.952   4.289
 8330SOL     OW25888   4.286   6.946   4.972
 8330SOL    HW125889   4.232   6.943   4.888
 8330SOL    HW225890   4.224   6.944   5.051
 8331SOL     OW25891   5.286   0.048   4.424
 8331SOL    HW125892   5.318   0.101   4.502
 8331SOL    HW225893   5.190   0.071   4.405
 8332SOL     OW25894   4.849   6.291   4.387
 8332SOL    HW125895   4.876   6.387   4.396
 8332SOL    HW225896   4.782   6.268   4.457
 8333SOL     OW25897   5.509   6.152   3.935
 8333SOL    HW125898   5.475   6.159   3.841
 8333SOL    HW225899   5.451   6.090   3.987
 8334SOL     OW25900   4.353   6.683   4.676
 8334SOL    HW125901   4.321   6.754   4.739
 8334SOL    HW225902   4.314   6.700   4.585
 8335SOL     OW25903   4.624   6.312   5.586
 8335SOL    HW125904   4.630   6.372   5.665
 8335SOL    HW225905   4.631   6.366   5.502
 8336SOL     OW25906   4.425   6.552   4.346
 8336SOL    HW125907   4.500   6.560   4.412
 8336SOL    HW225908   4.354   6.619   4.368
 8337SOL     OW25909   4.430   6.768   5.567
 8337SOL    HW125910   4.445   6.815   5.655
 8337SOL    HW225911   4.422   6.836   5.494
 8338SOL     OW25912   4.121   6.972   4.756
 8338SOL    HW125913   4.033   6.938   4.721
 8338SOL    HW225914   4.152   0.048   4.700
 8339SOL     OW25915   4.206   5.936   5.194
 8339SOL    HW125916   4.286   5.881   5.216
 8339SOL    HW225917   4.123   5.886   5.221
 8340SOL     OW25918   5.293   6.027   4.475
 8340SOL    HW125919   5.214   6.024   4.413
 8340SOL    HW225920   5.277   6.095   4.546
 8341SOL     OW25921   4.014   6.683   4.592
 8341SOL    HW125922   4.013   6.584   4.608
 8341SOL    HW225923   3.966   6.728   4.668
 8342SOL     OW25924   4.293   6.572   3.875
 8342SOL    HW125925   4.325   6.632   3.802
 8342SOL    HW225926   4.352   6.582   3.955
 8343SOL     OW25927   5.306   5.713   5.190
 8343SOL    HW125928   5.363   5.790   5.163
 8343SOL    HW225929   5.256   5.737   5.274
 8344SOL     OW25930   3.827   6.279   4.290
 8344SOL    HW125931   3.798   6.185   4.309
 8344SOL    HW225932   3.807   6.337   4.368
 8345SOL     OW25933   5.405   6.466   4.389
 8345SOL    HW125934   5.491   6.458   4.438
 8345SOL    HW225935   5.415   6.534   4.315
 8346SOL     OW25936   5.429   6.689   4.213
 8346SOL    HW125937   5.508   6.667   4.154
 8346SOL    HW225938   5.459   6.747   4.288
 8347SOL     OW25939   3.856   6.323   5.284
 8347SOL    HW125940   3.945   6.366   5.296
 8347SOL    HW225941   3.787   6.393   5.265
 8348SOL     OW25942   4.993   6.799   5.137
 8348SOL    HW125943   4.999   6.715   5.082
 8348SOL    HW225944   5.030   6.781   5.228
 8349SOL     OW25945   4.561   5.626   4.245
 8349SOL    HW125946   4.606   5.711   4.219
 8349SOL    HW225947   4.463   5.641   4.253
 8350SOL     OW25948   3.941   6.527   5.041
 8350SOL    HW125949   4.024   6.475   5.019
 8350SOL    HW225950   3.862   6.485   4.996
 8351SOL     OW25951   5.306   6.647   3.959
 8351SOL    HW125952   5.254   6.562   3.966
 8351SOL    HW225953   5.345   6.670   4.048
 8352SOL     OW25954   4.068   5.845   5.600
 8352SOL    HW125955   4.108   5.926   5.642
 8352SOL    HW225956   3.970   5.858   5.589
 8353SOL     OW25957   5.159   6.898   4.709
 8353SOL    HW125958   5.064   6.896   4.740
 8353SOL    HW225959   5.184   6.810   4.668
 8354SOL     OW25960   4.296   6.297   3.998
 8354SOL    HW125961   4.302   6.382   3.944
 8354SOL    HW225962   4.222   6.306   4.065
 8355SOL     OW25963   4.993   5.952   4.651
 8355SOL    HW125964   4.908   5.899   4.648
 8355SOL    HW225965   5.056   5.911   4.717
 8356SOL     OW25966   4.517   6.147   5.167
 8356SOL    HW125967   4.505   6.114   5.261
 8356SOL    HW225968   4.497   6.073   5.103
 8357SOL     OW25969   5.102   6.045   5.376
 8357SOL    HW125970   5.108   6.091   5.464
 8357SOL    HW225971   5.139   5.952   5.383
 8358SOL     OW25972   4.656   6.458   5.348
 8358SOL    HW125973   4.711   6.391   5.298
 8358SOL    HW225974   4.598   6.509   5.284
 8359SOL     OW25975   4.720   5.984   4.824
 8359SOL    HW125976   4.636   5.980   4.879
 8359SOL    HW225977   4.735   5.896   4.779
 8360SOL     OW25978   4.768   6.266   4.122
 8360SOL    HW125979   4.800   6.274   4.216
 8360SOL    HW225980   4.676   6.226   4.122
 8361SOL     OW25981   3.767   6.451   4.502
 8361SOL    HW125982   3.858   6.429   4.538
 8361SOL    HW225983   3.731   6.531   4.549
 8362SOL     OW25984   4.572   5.938   3.942
 8362SOL    HW125985   4.634   5.977   3.874
 8362SOL    HW225986   4.513   5.869   3.899
 8363SOL     OW25987   5.382   6.154   5.555
 8363SOL    HW125988   5.380   6.237   5.499
 8363SOL    HW225989   5.402   6.075   5.497
 8364SOL     OW25990   5.188   6.743   4.362
 8364SOL    HW125991   5.261   6.716   4.299
 8364SOL    HW225992   5.198   6.839   4.386
 8365SOL     OW25993   4.278   5.691   4.675
 8365SOL    HW125994   4.288   5.715   4.772
 8365SOL    HW225995   4.284   5.774   4.620
 8366SOL     OW25996   5.544   6.682   4.647
 8366SOL    HW125997   5.503   6.731   4.570
 8366SOL    HW225998   5.475   6.669   4.719
 8367SOL     OW25999   4.068   6.566   4.051
 8367SOL    HW126000   4.136   6.569   3.978
 8367SOL    HW226001   4.061   6.474   4.087
 8368SOL     OW26002   5.170   6.345   4.427
 8368SOL    HW126003   5.164   6.291   4.511
 8368SOL    HW226004   5.259   6.391   4.422
 8369SOL     OW26005   3.942   5.843   5.224
 8369SOL    HW126006   3.868   5.909   5.211
 8369SOL    HW226007   3.904   5.758   5.260
 8370SOL     OW26008   5.333   6.948   3.747
 8370SOL    HW126009   5.333   0.042   3.782
 8370SOL    HW226010   5.248   6.903   3.773
 8371SOL     OW26011   5.126   5.691   4.172
 8371SOL    HW126012   5.126   5.665   4.075
 8371SOL    HW226013   5.216   5.672   4.211
 8372SOL     OW26014   4.084   6.293   4.184
 8372SOL    HW126015   4.112   6.198   4.196
 8372SOL    HW226016   3.988   6.303   4.210
 8373SOL     OW26017   5.183   5.783   5.432
 8373SOL    HW126018   5.190   5.803   5.529
 8373SOL    HW226019   5.117   5.709   5.418
 8374SOL     OW26020   4.368   5.703   3.843
 8374SOL    HW126021   4.400   5.616   3.879
 8374SOL    HW226022   4.306   5.688   3.766
 8375SOL     OW26023   4.514   5.820   5.517
 8375SOL    HW126024   4.603   5.777   5.511
 8375SOL    HW226025   4.457   5.771   5.583
 8376SOL     OW26026   5.012   6.169   5.148
 8376SOL    HW126027   5.053   6.129   5.230
 8376SOL    HW226028   5.055   6.258   5.131
 8377SOL     OW26029   4.679   6.158   4.603
 8377SOL    HW126030   4.651   6.112   4.519
 8377SOL    HW226031   4.707   6.089   4.670
 8378SOL     OW26032   4.291   5.678   4.239
 8378SOL    HW126033   4.211   5.670   4.298
 8378SOL    HW226034   4.278   5.755   4.176
 8379SOL     OW26035   5.117   6.772   3.807
 8379SOL    HW126036   5.188   6.728   3.862
 8379SOL    HW226037   5.033   6.716   3.810
 8380SOL     OW26038   4.012   5.648   3.895
 8380SOL    HW126039   4.057   5.725   3.851
 8380SOL    HW226040   4.079   5.597   3.950
 8381SOL     OW26041   4.689   5.856   4.178
 8381SOL    HW126042   4.649   5.886   4.091
 8381SOL    HW226043   4.788   5.868   4.175
 8382SOL     OW26044   4.759   6.277   5.168
 8382SOL    HW126045   4.683   6.213   5.175
 8382SOL    HW226046   4.846   6.227   5.165
 8383SOL     OW26047   5.031   0.143   4.380
 8383SOL    HW126048   5.017   0.242   4.381
 8383SOL    HW226049   4.945   0.097   4.399
 8384SOL     OW26050   4.227   6.721   4.428
 8384SOL    HW126051   4.148   6.707   4.487
 8384SOL    HW226052   4.199   6.767   4.344
 8385SOL     OW26053   4.749   6.073   3.776
 8385SOL    HW126054   4.708   6.163   3.758
 8385SOL    HW226055   4.822   6.083   3.844
 8386SOL     OW26056   3.833   6.108   5.118
 8386SOL    HW126057   3.926   6.100   5.082
 8386SOL    HW226058   3.828   6.186   5.180
 8387SOL     OW26059   4.292   5.759   4.940
 8387SOL    HW126060   4.315   5.686   5.005
 8387SOL    HW226061   4.195   5.783   4.949
 8388SOL     OW26062   4.607   6.056   4.359
 8388SOL    HW126063   4.554   6.108   4.293
 8388SOL    HW226064   4.642   5.972   4.316
 8389SOL     OW26065   4.754   5.620   4.448
 8389SOL    HW126066   4.686   5.628   4.375
 8389SOL    HW226067   4.731   5.544   4.508
 8390SOL     OW26068   5.189   6.639   4.625
 8390SOL    HW126069   5.123   6.567   4.645
 8390SOL    HW226070   5.191   6.656   4.527
 8391SOL     OW26071   5.151   6.194   4.665
 8391SOL    HW126072   5.088   6.116   4.670
 8391SOL    HW226073   5.218   6.187   4.739
 8392SOL     OW26074   5.523   6.365   4.104
 8392SOL    HW126075   5.580   6.334   4.180
 8392SOL    HW226076   5.519   6.293   4.034
 8393SOL     OW26077   5.492   6.846   4.425
 8393SOL    HW126078   5.588   6.872   4.417
 8393SOL    HW226079   5.436   6.928   4.431
 8394SOL     OW26080   5.114   6.146   3.771
 8394SOL    HW126081   5.063   6.114   3.851
 8394SOL    HW226082   5.211   6.126   3.783
 8395SOL     OW26083   4.248   5.861   4.039
 8395SOL    HW126084   4.295   5.802   3.973
 8395SOL    HW226085   4.214   5.942   3.992
 8396SOL     OW26086   5.426   6.793   5.317
 8396SOL    HW126087   5.448   6.740   5.399
 8396SOL    HW226088   5.487   6.872   5.312
 8397SOL     OW26089   4.750   6.888   5.003
 8397SOL    HW126090   4.668   6.869   5.057
 8397SOL    HW226091   4.831   6.871   5.060
 8398SOL     OW26092   4.905   6.822   4.782
 8398SOL    HW126093   4.836   6.851   4.848
 8398SOL    HW226094   4.862   6.804   4.694
 8399SOL     OW26095   5.352   6.654   4.845
 8399SOL    HW126096   5.325   6.716   4.918
 8399SOL    HW226097   5.282   6.652   4.774
 8400SOL     OW26098   4.651   5.635   5.137
 8400SOL    HW126099   4.666   5.605   5.042
 8400SOL    HW226100   4.729   5.688   5.168
 8401SOL     OW26101   4.684   6.670   5.519
 8401SOL    HW126102   4.591   6.701   5.538
 8401SOL    HW226103   4.681   6.594   5.454
 8402SOL     OW26104   4.474   6.604   4.074
 8402SOL    HW126105   4.462   6.580   4.171
 8402SOL    HW226106   4.553   6.554   4.037
 8403SOL     OW26107   4.158   6.365   4.990
 8403SOL    HW126108   4.227   6.375   5.062
 8403SOL    HW226109   4.123   6.271   4.990
 8404SOL     OW26110   4.946   5.955   4.991
 8404SOL    HW126111   4.970   6.037   5.044
 8404SOL    HW226112   4.867   5.975   4.932
 8405SOL     OW26113   4.094   6.799   4.191
 8405SOL    HW126114   4.100   6.874   4.126
 8405SOL    HW226115   4.088   6.712   4.141
 8406SOL     OW26116   4.226   6.148   4.595
 8406SOL    HW126117   4.236   6.212   4.520
 8406SOL    HW226118   4.309   6.148   4.651
 8407SOL     OW26119   5.261   6.248   4.176
 8407SOL    HW126120   5.215   6.273   4.261
 8407SOL    HW226121   5.345   6.302   4.167
 8408SOL     OW26122   4.137   6.349   5.359
 8408SOL    HW126123   4.211   6.364   5.294
 8408SOL    HW226124   4.154   6.264   5.409
 8409SOL     OW26125   5.367   6.390   5.417
 8409SOL    HW126126   5.271   6.415   5.406
 8409SOL    HW226127   5.419   6.421   5.338
 8410SOL     OW26128   4.759   5.709   5.499
 8410SOL    HW126129   4.798   5.797   5.473
 8410SOL    HW226130   4.826   5.636   5.485
 8411SOL     OW26131   4.210   5.633   5.494
 8411SOL    HW126132   4.153   5.571   5.441
 8411SOL    HW226133   4.158   5.716   5.515
 8412SOL     OW26134   4.347   6.427   4.794
 8412SOL    HW126135   4.344   6.517   4.751
 8412SOL    HW226136   4.269   6.416   4.855
 8413SOL     OW26137   5.017   6.436   4.713
 8413SOL    HW126138   4.918   6.429   4.701
 8413SOL    HW226139   5.060   6.347   4.697
 8414SOL     OW26140   4.935   6.101   3.979
 8414SOL    HW126141   4.952   6.023   4.040
 8414SOL    HW226142   4.883   6.171   4.028
 8415SOL     OW26143   4.021   5.789   4.960
 8415SOL    HW126144   3.991   5.814   5.053
 8415SOL    HW226145   4.000   5.693   4.944
 8416SOL     OW26146   3.790   6.895   5.018
 8416SOL    HW126147   3.837   6.837   5.085
 8416SOL    HW226148   3.792   6.990   5.048
 8417SOL     OW26149   4.445   6.179   4.758
 8417SOL    HW126150   4.527   6.180   4.700
 8417SOL    HW226151   4.412   6.273   4.770
 8418SOL     OW26152   5.465   6.620   5.540
 8418SOL    HW126153   5.432   6.530   5.510
 8418SOL    HW226154   5.430   6.640   5.631
 8419SOL     OW26155   4.054   5.658   4.377
 8419SOL    HW126156   4.019   5.749   4.396
 8419SOL    HW226157   4.056   5.604   4.461
 8420SOL     OW26158   5.310   6.003   4.053
 8420SOL    HW126159   5.360   5.942   4.115
 8420SOL    HW226160   5.278   6.082   4.104
 8421SOL     OW26161   4.742   6.403   4.703
 8421SOL    HW126162   4.709   6.411   4.797
 8421SOL    HW226163   4.720   6.313   4.667
 8422SOL     OW26164   5.620   0.011   5.320
 8422SOL    HW126165   5.683   0.079   5.282
 8422SOL    HW226166   5.661   6.968   5.400
 8423SOL     OW26167   4.069   6.550   5.534
 8423SOL    HW126168   4.137   6.554   5.607
 8423SOL    HW226169   4.095   6.479   5.468
 8424SOL     OW26170   5.225   5.856   3.831
 8424SOL    HW126171   5.186   5.771   3.866
 8424SOL    HW226172   5.257   5.912   3.908
 8425SOL     OW26173   5.020   6.394   3.725
 8425SOL    HW126174   5.042   6.298   3.738
 8425SOL    HW226175   5.060   6.426   3.639
 8426SOL     OW26176   4.020   6.405   4.602
 8426SOL    HW126177   4.098   6.391   4.541
 8426SOL    HW226178   4.007   6.323   4.658
 8427SOL     OW26179   3.990   6.142   4.718
 8427SOL    HW126180   3.954   6.049   4.715
 8427SOL    HW226181   4.079   6.146   4.672
 8428SOL     OW26182   4.846   5.954   5.413
 8428SOL    HW126183   4.801   5.999   5.490
 8428SOL    HW226184   4.936   5.995   5.397
 8429SOL     OW26185   4.873   5.783   5.198
 8429SOL    HW126186   4.855   5.847   5.273
 8429SOL    HW226187   4.905   5.833   5.118
 8430SOL     OW26188   3.755   6.909   3.905
 8430SOL    HW126189   3.658   6.924   3.888
 8430SOL    HW226190   3.768   6.820   3.948
 8431SOL     OW26191   4.634   6.394   4.954
 8431SOL    HW126192   4.689   6.356   5.029
 8431SOL    HW226193   4.550   6.340   4.944
 8432SOL     OW26194   3.755   6.192   4.864
 8432SOL    HW126195   3.836   6.187   4.804
 8432SOL    HW226196   3.780   6.162   4.956
 8433SOL     OW26197   3.916   6.113   5.451
 8433SOL    HW126198   3.976   6.056   5.394
 8433SOL    HW226199   3.885   6.192   5.398
 8434SOL     OW26200   5.118   6.489   5.361
 8434SOL    HW126201   5.123   6.589   5.365
 8434SOL    HW226202   5.108   6.460   5.266
 8435SOL     OW26203   4.515   6.158   4.106
 8435SOL    HW126204   4.526   6.076   4.050
 8435SOL    HW226205   4.438   6.211   4.072
 8436SOL     OW26206   5.347   6.163   4.855
 8436SOL    HW126207   5.322   6.087   4.915
 8436SOL    HW226208   5.447   6.167   4.846
 8437SOL     OW26209   4.472   5.978   4.949
 8437SOL    HW126210   4.409   5.900   4.949
 8437SOL    HW226211   4.443   6.045   4.881
 8438SOL     OW26212   4.162   6.076   3.895
 8438SOL    HW126213   4.225   6.149   3.919
 8438SOL    HW226214   4.068   6.111   3.895
 8439SOL     OW26215   3.926   6.743   5.205
 8439SOL    HW126216   3.893   6.715   5.295
 8439SOL    HW226217   3.937   6.663   5.147
 8440SOL     OW26218   5.011   6.610   4.924
 8440SOL    HW126219   5.018   6.539   4.855
 8440SOL    HW226220   4.979   6.695   4.883
 8441SOL     OW26221   5.165   6.423   3.972
 8441SOL    HW126222   5.177   6.345   4.034
 8441SOL    HW226223   5.103   6.398   3.898
 8442SOL     OW26224   3.850   6.854   4.750
 8442SOL    HW126225   3.832   6.868   4.847
 8442SOL    HW226226   3.784   6.790   4.713
 8443SOL     OW26227   5.484   5.832   4.184
 8443SOL    HW126228   5.542   5.811   4.106
 8443SOL    HW226229   5.445   5.747   4.220
 8444SOL     OW26230   4.988   6.551   4.400
 8444SOL    HW126231   5.047   6.470   4.408
 8444SOL    HW226232   5.042   6.628   4.366
 8445SOL     OW26233   4.498   6.848   5.123
 8445SOL    HW126234   4.475   6.879   5.215
 8445SOL    HW226235   4.428   6.880   5.059
 8446SOL     OW26236   5.563   5.727   4.728
 8446SOL    HW126237   5.594   5.637   4.697
 8446SOL    HW226238   5.475   5.748   4.685
 8447SOL     OW26239   3.971   5.912   4.438
 8447SOL    HW126240   3.886   5.955   4.407
 8447SOL    HW226241   3.971   5.907   4.538
 8448SOL     OW26242   4.970   0.116   3.686
 8448SOL    HW126243   4.969   0.078   3.778
 8448SOL    HW226244   4.876   0.119   3.650
 8449SOL     OW26245   4.523   6.575   5.139
 8449SOL    HW126246   4.568   6.538   5.058
 8449SOL    HW226247   4.514   6.674   5.130
 8450SOL     OW26248   4.688   6.470   3.955
 8450SOL    HW126249   4.763   6.529   3.923
 8450SOL    HW226250   4.725   6.400   4.016
 8451SOL     OW26251   4.100   6.960   5.174
 8451SOL    HW126252   4.120   0.001   5.263
 8451SOL    HW226253   4.040   6.881   5.186
 8452SOL     OW26254   5.279   6.813   5.067
 8452SOL    HW126255   5.332   6.817   5.152
 8452SOL    HW226256   5.182   6.831   5.088
 8453SOL     OW26257   4.813   6.754   4.524
 8453SOL    HW126258   4.724   6.708   4.533
 8453SOL    HW226259   4.879   6.692   4.482
 8454SOL     OW26260   4.779   5.756   4.690
 8454SOL    HW126261   4.773   5.717   4.598
 8454SOL    HW226262   4.761   5.684   4.758
 8455SOL     OW26263   5.505   5.916   5.148
 8455SOL    HW126264   5.564   5.996   5.139
 8455SOL    HW226265   5.541   5.841   5.094
 8456SOL     OW26266   3.833   6.666   5.470
 8456SOL    HW126267   3.759   6.627   5.526
 8456SOL    HW226268   3.919   6.623   5.495
 8457SOL     OW26269   4.427   5.765   5.256
 8457SOL    HW126270   4.507   5.728   5.209
 8457SOL    HW226271   4.453   5.792   5.349
 8458SOL     OW26272   3.791   5.908   3.716
 8458SOL    HW126273   3.705   5.891   3.668
 8458SOL    HW226274   3.828   5.996   3.687
 8459SOL     OW26275   5.120   6.421   5.097
 8459SOL    HW126276   5.069   6.487   5.041
 8459SOL    HW226277   5.214   6.415   5.063
 8460SOL     OW26278   3.770   5.754   3.955
 8460SOL    HW126279   3.754   5.817   3.879
 8460SOL    HW226280   3.861   5.714   3.946
 8461SOL     OW26281   4.349   6.368   5.183
 8461SOL    HW126282   4.406   6.450   5.176
 8461SOL    HW226283   4.407   6.286   5.183
 8462SOL     OW26284   4.499   6.088   5.431
 8462SOL    HW126285   4.533   6.154   5.498
 8462SOL    HW226286   4.505   5.996   5.470
 8463SOL     OW26287   5.149   6.761   5.377
 8463SOL    HW126288   5.131   6.782   5.473
 8463SOL    HW226289   5.244   6.785   5.355
 8464SOL     OW26290   5.369   6.418   4.981
 8464SOL    HW126291   5.368   6.335   4.926
 8464SOL    HW226292   5.370   6.498   4.921
 8465SOL     OW26293   4.960   5.908   4.174
 8465SOL    HW126294   5.019   5.828   4.171
 8465SOL    HW226295   4.983   5.963   4.254
 8466SOL     OW26296   4.227   6.361   4.415
 8466SOL    HW126297   4.304   6.420   4.393
 8466SOL    HW226298   4.177   6.337   4.332
 8467SOL     OW26299   5.436   5.923   5.414
 8467SOL    HW126300   5.459   5.920   5.317
 8467SOL    HW226301   5.359   5.862   5.432
 8468SOL     OW26302   5.495   6.507   5.207
 8468SOL    HW126303   5.492   6.607   5.210
 8468SOL    HW226304   5.452   6.475   5.122
 8469SOL     OW26305   4.593   6.594   4.566
 8469SOL    HW126306   4.644   6.525   4.618
 8469SOL    HW226307   4.513   6.623   4.619
 8470SOL     OW26308   4.894   6.616   3.817
 8470SOL    HW126309   4.818   6.643   3.758
 8470SOL    HW226310   4.933   6.530   3.785
 8471SOL     OW26311   3.914   6.926   5.495
 8471SOL    HW126312   3.882   6.831   5.493
 8471SOL    HW226313   3.932   6.953   5.590
 8472SOL     OW26314   3.916   6.849   4.392
 8472SOL    HW126315   3.943   6.788   4.467
 8472SOL    HW226316   3.971   6.829   4.311
 8473SOL     OW26317   4.405   6.972   5.362
 8473SOL    HW126318   4.310   6.985   5.390
 8473SOL    HW226319   4.439   0.056   5.320
 8474SOL     OW26320   5.599   5.712   5.001
 8474SOL    HW126321   5.669   5.641   5.006
 8474SOL    HW226322   5.573   5.727   4.905
 8475SOL     OW26323   4.138   6.034   4.241
 8475SOL    HW126324   4.178   5.964   4.182
 8475SOL    HW226325   4.087   5.990   4.315
 8476SOL     OW26326   5.301   0.034   4.895
 8476SOL    HW126327   5.256   6.990   4.817
 8476SOL    HW226328   5.302   6.970   4.973
 8477SOL     OW26329   4.085   6.101   5.014
 8477SOL    HW126330   4.140   6.046   5.076
 8477SOL    HW226331   4.088   6.061   4.922
 8478SOL     OW26332   5.148   5.837   4.846
 8478SOL    HW126333   5.163   5.740   4.866
 8478SOL    HW226334   5.081   5.874   4.910
 8479SOL     OW26335   4.729   5.547   4.882
 8479SOL    HW126336   4.671   5.466   4.876
 8479SOL    HW226337   4.824   5.521   4.869
 8480SOL     OW26338   4.494   6.877   4.003
 8480SOL    HW126339   4.484   6.782   4.032
 8480SOL    HW226340   4.532   6.931   4.078
 8481SOL     OW26341   5.123   5.616   3.907
 8481SOL    HW126342   5.172   5.544   3.858
 8481SOL    HW226343   5.028   5.588   3.920
 8482SOL     OW26344   5.018   6.058   4.394
 8482SOL    HW126345   4.968   6.145   4.386
 8482SOL    HW226346   5.000   6.019   4.484
 8483SOL     OW26347   5.317   5.791   4.632
 8483SOL    HW126348   5.258   5.818   4.708
 8483SOL    HW226349   5.313   5.861   4.560
 8484SOL     OW26350   3.797   6.650   4.023
 8484SOL    HW126351   3.897   6.643   4.028
 8484SOL    HW226352   3.757   6.558   4.022
 8485SOL     OW26353   3.915   6.164   5.724
 8485SOL    HW126354   3.822   6.158   5.761
 8485SOL    HW226355   3.911   6.163   5.624
 8486SOL     OW26356   3.942   5.878   6.542
 8486SOL    HW126357   3.990   5.846   6.623
 8486SOL    HW226358   3.850   5.838   6.540
 8487SOL     OW26359   3.702   6.029   6.202
 8487SOL    HW126360   3.619   6.046   6.255
 8487SOL    HW226361   3.684   5.959   6.133
 8488SOL     OW26362   4.270   6.869   6.734
 8488SOL    HW126363   4.197   6.928   6.698
 8488SOL    HW226364   4.250   6.846   6.829
 8489SOL     OW26365   5.345   0.085   6.199
 8489SOL    HW126366   5.330   0.129   6.288
 8489SOL    HW226367   5.261   0.090   6.145
 8490SOL     OW26368   4.859   6.295   6.237
 8490SOL    HW126369   4.889   6.390   6.245
 8490SOL    HW226370   4.796   6.273   6.312
 8491SOL     OW26371   5.501   6.152   5.794
 8491SOL    HW126372   5.465   6.161   5.701
 8491SOL    HW226373   5.441   6.091   5.847
 8492SOL     OW26374   4.393   6.710   6.548
 8492SOL    HW126375   4.359   6.772   6.619
 8492SOL    HW226376   4.343   6.728   6.463
 8493SOL     OW26377   4.438   6.565   6.207
 8493SOL    HW126378   4.515   6.565   6.270
 8493SOL    HW226379   4.364   6.621   6.244
 8494SOL     OW26380   4.064   0.029   6.640
 8494SOL    HW126381   3.981   6.987   6.603
 8494SOL    HW226382   4.100   0.095   6.574
 8495SOL     OW26383   5.308   6.036   6.337
 8495SOL    HW126384   5.228   6.041   6.277
 8495SOL    HW226385   5.297   6.101   6.412
 8496SOL     OW26386   4.020   6.682   6.487
 8496SOL    HW126387   4.018   6.583   6.499
 8496SOL    HW226388   3.975   6.726   6.565
 8497SOL     OW26389   4.283   6.573   5.728
 8497SOL    HW126390   4.319   6.626   5.652
 8497SOL    HW226391   4.344   6.582   5.807
 8498SOL     OW26392   3.827   6.281   6.149
 8498SOL    HW126393   3.790   6.190   6.169
 8498SOL    HW226394   3.821   6.338   6.230
 8499SOL     OW26395   5.415   6.483   6.244
 8499SOL    HW126396   5.503   6.477   6.290
 8499SOL    HW226397   5.421   6.551   6.171
 8500SOL     OW26398   5.430   6.700   6.060
 8500SOL    HW126399   5.508   6.675   6.002
 8500SOL    HW226400   5.460   6.764   6.130
 8501SOL     OW26401   4.555   5.634   6.100
 8501SOL    HW126402   4.599   5.721   6.078
 8501SOL    HW226403   4.457   5.648   6.110
 8502SOL     OW26404   3.879   6.567   6.820
 8502SOL    HW126405   3.967   6.520   6.809
 8502SOL    HW226406   3.805   6.505   6.796
 8503SOL     OW26407   5.325   6.651   5.789
 8503SOL    HW126408   5.277   6.564   5.798
 8503SOL    HW226409   5.358   6.681   5.878
 8504SOL     OW26410   5.221   6.939   6.479
 8504SOL    HW126411   5.155   6.989   6.423
 8504SOL    HW226412   5.198   6.842   6.478
 8505SOL     OW26413   4.289   6.293   5.848
 8505SOL    HW126414   4.293   6.377   5.793
 8505SOL    HW226415   4.216   6.301   5.915
 8506SOL     OW26416   4.997   5.975   6.497
 8506SOL    HW126417   4.911   5.925   6.485
 8506SOL    HW226418   5.054   5.928   6.565
 8507SOL     OW26419   4.443   6.006   0.042
 8507SOL    HW126420   4.350   6.033   0.068
 8507SOL    HW226421   4.453   6.010   6.943
 8508SOL     OW26422   4.719   6.010   6.660
 8508SOL    HW126423   4.634   6.002   6.711
 8508SOL    HW226424   4.736   5.925   6.609
 8509SOL     OW26425   4.767   6.269   5.978
 8509SOL    HW126426   4.801   6.277   6.072
 8509SOL    HW226427   4.675   6.231   5.979
 8510SOL     OW26428   3.809   6.454   6.365
 8510SOL    HW126429   3.894   6.429   6.410
 8510SOL    HW226430   3.775   6.540   6.403
 8511SOL     OW26431   4.577   5.944   5.805
 8511SOL    HW126432   4.641   5.984   5.739
 8511SOL    HW226433   4.521   5.876   5.759
 8512SOL     OW26434   5.175   6.743   6.186
 8512SOL    HW126435   5.257   6.719   6.133
 8512SOL    HW226436   5.171   6.842   6.198
 8513SOL     OW26437   4.295   5.670   6.511
 8513SOL    HW126438   4.298   5.719   6.598
 8513SOL    HW226439   4.316   5.734   6.436
 8514SOL     OW26440   5.566   6.710   6.479
 8514SOL    HW126441   5.524   6.761   6.404
 8514SOL    HW226442   5.495   6.670   6.537
 8515SOL     OW26443   4.070   6.572   5.921
 8515SOL    HW126444   4.132   6.574   5.843
 8515SOL    HW226445   4.072   6.481   5.963
 8516SOL     OW26446   5.184   6.353   6.284
 8516SOL    HW126447   5.178   6.303   6.370
 8516SOL    HW226448   5.272   6.401   6.279
 8517SOL     OW26449   5.332   6.968   5.698
 8517SOL    HW126450   5.305   0.064   5.703
 8517SOL    HW226451   5.252   6.912   5.679
 8518SOL     OW26452   5.121   5.683   6.042
 8518SOL    HW126453   5.118   5.657   5.945
 8518SOL    HW226454   5.214   5.671   6.077
 8519SOL     OW26455   4.086   6.296   6.043
 8519SOL    HW126456   4.112   6.199   6.052
 8519SOL    HW226457   3.991   6.308   6.072
 8520SOL     OW26458   4.370   5.683   5.710
 8520SOL    HW126459   4.405   5.597   5.747
 8520SOL    HW226460   4.306   5.664   5.636
 8521SOL     OW26461   4.686   6.190   6.449
 8521SOL    HW126462   4.652   6.145   6.367
 8521SOL    HW226463   4.710   6.121   6.518
 8522SOL     OW26464   4.283   5.677   6.105
 8522SOL    HW126465   4.199   5.667   6.159
 8522SOL    HW226466   4.271   5.751   6.038
 8523SOL     OW26467   5.118   6.779   5.665
 8523SOL    HW126468   5.194   6.730   5.708
 8523SOL    HW226469   5.036   6.722   5.670
 8524SOL     OW26470   4.005   5.631   5.763
 8524SOL    HW126471   4.048   5.705   5.712
 8524SOL    HW226472   4.074   5.582   5.815
 8525SOL     OW26473   4.686   5.868   6.046
 8525SOL    HW126474   4.649   5.896   5.958
 8525SOL    HW226475   4.786   5.875   6.044
 8526SOL     OW26476   5.047   0.087   6.325
 8526SOL    HW126477   5.055   0.186   6.339
 8526SOL    HW226478   4.951   0.061   6.323
 8527SOL     OW26479   4.235   6.715   6.322
 8527SOL    HW126480   4.159   6.702   6.385
 8527SOL    HW226481   4.201   6.750   6.235
 8528SOL     OW26482   4.753   6.077   5.639
 8528SOL    HW126483   4.713   6.167   5.622
 8528SOL    HW226484   4.827   6.085   5.706
 8529SOL     OW26485   4.292   5.792   6.757
 8529SOL    HW126486   4.317   5.714   6.814
 8529SOL    HW226487   4.194   5.810   6.766
 8530SOL     OW26488   4.601   6.073   6.219
 8530SOL    HW126489   4.545   6.123   6.153
 8530SOL    HW226490   4.636   5.989   6.177
 8531SOL     OW26491   4.746   5.611   6.298
 8531SOL    HW126492   4.678   5.619   6.226
 8531SOL    HW226493   4.718   5.539   6.362
 8532SOL     OW26494   5.179   6.667   6.465
 8532SOL    HW126495   5.118   6.595   6.500
 8532SOL    HW226496   5.176   6.667   6.365
 8533SOL     OW26497   5.153   6.210   6.523
 8533SOL    HW126498   5.089   6.134   6.520
 8533SOL    HW226499   5.224   6.192   6.591
 8534SOL     OW26500   5.526   6.375   5.949
 8534SOL    HW126501   5.584   6.347   6.026
 8534SOL    HW226502   5.519   6.301   5.883
 8535SOL     OW26503   5.512   6.869   6.255
 8535SOL    HW126504   5.608   6.893   6.267
 8535SOL    HW226505   5.458   6.952   6.243
 8536SOL     OW26506   5.108   6.148   5.628
 8536SOL    HW126507   5.064   6.114   5.711
 8536SOL    HW226508   5.207   6.137   5.637
 8537SOL     OW26509   4.249   5.852   5.896
 8537SOL    HW126510   4.295   5.789   5.834
 8537SOL    HW226511   4.215   5.931   5.845
 8538SOL     OW26512   5.485   6.825   0.298
 8538SOL    HW126513   5.562   6.764   0.284
 8538SOL    HW226514   5.474   6.884   0.218
 8539SOL     OW26515   4.664   6.792   6.886
 8539SOL    HW126516   4.584   6.823   6.938
 8539SOL    HW226517   4.702   6.710   6.927
 8540SOL     OW26518   4.873   6.767   6.703
 8540SOL    HW126519   4.790   6.784   6.754
 8540SOL    HW226520   4.854   6.775   6.605
 8541SOL     OW26521   5.377   6.605   6.647
 8541SOL    HW126522   5.372   6.670   6.723
 8541SOL    HW226523   5.301   6.620   6.584
 8542SOL     OW26524   4.466   6.607   5.927
 8542SOL    HW126525   4.459   6.591   6.026
 8542SOL    HW226526   4.546   6.559   5.892
 8543SOL     OW26527   4.146   6.467   6.832
 8543SOL    HW126528   4.212   6.508   6.894
 8543SOL    HW226529   4.132   6.371   6.856
 8544SOL     OW26530   4.933   5.974   6.843
 8544SOL    HW126531   4.969   6.054   6.889
 8544SOL    HW226532   4.862   6.002   6.778
 8545SOL     OW26533   4.121   6.793   6.086
 8545SOL    HW126534   4.175   6.867   6.045
 8545SOL    HW226535   4.104   6.722   6.018
 8546SOL     OW26536   4.256   6.158   6.455
 8546SOL    HW126537   4.262   6.211   6.370
 8546SOL    HW226538   4.338   6.174   6.510
 8547SOL     OW26539   5.268   6.257   6.029
 8547SOL    HW126540   5.225   6.282   6.116
 8547SOL    HW226541   5.351   6.311   6.016
 8548SOL     OW26542   4.304   6.459   6.609
 8548SOL    HW126543   4.338   6.550   6.585
 8548SOL    HW226544   4.241   6.466   6.686
 8549SOL     OW26545   5.041   6.458   6.583
 8549SOL    HW126546   4.942   6.451   6.582
 8549SOL    HW226547   5.081   6.368   6.564
 8550SOL     OW26548   4.938   6.099   5.843
 8550SOL    HW126549   4.954   6.022   5.904
 8550SOL    HW226550   4.885   6.169   5.891
 8551SOL     OW26551   4.024   5.801   6.791
 8551SOL    HW126552   3.956   5.862   6.832
 8551SOL    HW226553   3.998   5.706   6.805
 8552SOL     OW26554   3.742   6.897   6.852
 8552SOL    HW126555   3.794   6.850   6.923
 8552SOL    HW226556   3.715   6.988   6.884
 8553SOL     OW26557   4.465   6.242   6.618
 8553SOL    HW126558   4.535   6.242   6.547
 8553SOL    HW226559   4.409   6.324   6.610
 8554SOL     OW26560   4.041   5.651   6.236
 8554SOL    HW126561   4.002   5.742   6.246
 8554SOL    HW226562   4.041   5.605   6.324
 8555SOL     OW26563   5.297   6.004   5.911
 8555SOL    HW126564   5.352   5.946   5.970
 8555SOL    HW226565   5.270   6.086   5.961
 8556SOL     OW26566   4.763   6.415   6.586
 8556SOL    HW126567   4.730   6.404   6.680
 8556SOL    HW226568   4.744   6.332   6.534
 8557SOL     OW26569   5.208   5.846   5.694
 8557SOL    HW126570   5.168   5.763   5.733
 8557SOL    HW226571   5.239   5.906   5.769
 8558SOL     OW26572   5.010   6.396   5.593
 8558SOL    HW126573   5.032   6.299   5.602
 8558SOL    HW226574   5.043   6.430   5.505
 8559SOL     OW26575   4.041   6.403   6.505
 8559SOL    HW126576   4.140   6.414   6.504
 8559SOL    HW226577   4.018   6.312   6.540
 8560SOL     OW26578   4.030   6.131   6.593
 8560SOL    HW126579   3.990   6.042   6.572
 8560SOL    HW226580   4.115   6.142   6.541
 8561SOL     OW26581   4.841   5.848   0.071
 8561SOL    HW126582   4.919   5.808   0.119
 8561SOL    HW226583   4.871   5.891   6.986
 8562SOL     OW26584   3.742   6.894   5.801
 8562SOL    HW126585   3.649   6.907   5.765
 8562SOL    HW226586   3.754   6.799   5.829
 8563SOL     OW26587   4.629   6.351   6.824
 8563SOL    HW126588   4.657   6.288   6.897
 8563SOL    HW226589   4.562   6.306   6.765
 8564SOL     OW26590   3.766   6.126   6.688
 8564SOL    HW126591   3.853   6.152   6.645
 8564SOL    HW226592   3.783   6.063   6.763
 8565SOL     OW26593   4.512   6.165   5.962
 8565SOL    HW126594   4.526   6.082   5.908
 8565SOL    HW226595   4.433   6.216   5.926
 8566SOL     OW26596   5.352   6.138   6.689
 8566SOL    HW126597   5.328   6.079   6.766
 8566SOL    HW226598   5.449   6.159   6.692
 8567SOL     OW26599   4.463   6.009   6.772
 8567SOL    HW126600   4.400   5.934   6.751
 8567SOL    HW226601   4.444   6.087   6.713
 8568SOL     OW26602   4.163   6.064   5.748
 8568SOL    HW126603   4.227   6.137   5.772
 8568SOL    HW226604   4.070   6.100   5.750
 8569SOL     OW26605   3.888   6.743   0.027
 8569SOL    HW126606   3.874   6.692   0.112
 8569SOL    HW226607   3.888   6.679   6.950
 8570SOL     OW26608   5.057   6.605   6.824
 8570SOL    HW126609   5.083   6.547   6.747
 8570SOL    HW226610   4.994   6.675   6.793
 8571SOL     OW26611   5.181   6.429   5.819
 8571SOL    HW126612   5.190   6.354   5.885
 8571SOL    HW226613   5.112   6.404   5.751
 8572SOL     OW26614   3.822   6.896   6.591
 8572SOL    HW126615   3.794   6.893   6.687
 8572SOL    HW226616   3.780   6.820   6.542
 8573SOL     OW26617   5.485   5.841   6.033
 8573SOL    HW126618   5.541   5.820   5.954
 8573SOL    HW226619   5.446   5.757   6.071
 8574SOL     OW26620   4.992   6.545   6.253
 8574SOL    HW126621   5.057   6.470   6.265
 8574SOL    HW226622   5.037   6.621   6.206
 8575SOL     OW26623   4.442   6.844   0.055
 8575SOL    HW126624   4.484   6.845   0.145
 8575SOL    HW226625   4.399   6.933   0.037
 8576SOL     OW26626   5.562   5.729   6.581
 8576SOL    HW126627   5.591   5.640   6.545
 8576SOL    HW226628   5.474   5.754   6.541
 8577SOL     OW26629   3.949   5.910   6.269
 8577SOL    HW126630   3.864   5.955   6.242
 8577SOL    HW226631   3.956   5.908   6.369
 8578SOL     OW26632   4.973   0.176   5.639
 8578SOL    HW126633   4.965   0.104   5.708
 8578SOL    HW226634   4.886   0.186   5.590
 8579SOL     OW26635   4.373   6.591   6.960
 8579SOL    HW126636   4.450   6.557   6.906
 8579SOL    HW226637   4.391   6.684   6.990
 8580SOL     OW26638   4.686   6.477   5.816
 8580SOL    HW126639   4.760   6.535   5.784
 8580SOL    HW226640   4.722   6.405   5.875
 8581SOL     OW26641   3.990   6.997   0.057
 8581SOL    HW126642   3.992   0.021   0.154
 8581SOL    HW226643   3.960   6.902   0.047
 8582SOL     OW26644   5.378   6.785   6.848
 8582SOL    HW126645   5.467   6.817   6.879
 8582SOL    HW226646   5.316   6.777   6.926
 8583SOL     OW26647   4.827   6.752   6.404
 8583SOL    HW126648   4.741   6.700   6.407
 8583SOL    HW226649   4.899   6.695   6.364
 8584SOL     OW26650   4.784   5.792   6.509
 8584SOL    HW126651   4.771   5.750   6.419
 8584SOL    HW226652   4.792   5.720   6.578
 8585SOL     OW26653   5.325   5.969   6.900
 8585SOL    HW126654   5.273   5.948   6.983
 8585SOL    HW226655   5.383   5.890   6.877
 8586SOL     OW26656   4.433   5.737   0.118
 8586SOL    HW126657   4.522   5.691   0.116
 8586SOL    HW226658   4.443   5.829   0.082
 8587SOL     OW26659   3.793   5.899   5.575
 8587SOL    HW126660   3.707   5.879   5.527
 8587SOL    HW226661   3.829   5.986   5.544
 8588SOL     OW26662   3.766   5.747   5.817
 8588SOL    HW126663   3.752   5.805   5.738
 8588SOL    HW226664   3.857   5.706   5.813
 8589SOL     OW26665   5.231   6.914   0.382
 8589SOL    HW126666   5.177   6.838   0.344
 8589SOL    HW226667   5.328   6.900   0.362
 8590SOL     OW26668   5.535   6.435   6.812
 8590SOL    HW126669   5.555   6.344   6.776
 8590SOL    HW226670   5.477   6.484   6.748
 8591SOL     OW26671   4.960   5.906   6.041
 8591SOL    HW126672   5.016   5.823   6.039
 8591SOL    HW226673   4.991   5.966   6.114
 8592SOL     OW26674   4.283   6.333   6.247
 8592SOL    HW126675   4.344   6.409   6.225
 8592SOL    HW226676   4.213   6.325   6.175
 8593SOL     OW26677   5.455   6.368   0.071
 8593SOL    HW126678   5.360   6.398   0.083
 8593SOL    HW226679   5.490   6.399   6.983
 8594SOL     OW26680   4.610   6.589   6.432
 8594SOL    HW126681   4.663   6.529   6.491
 8594SOL    HW226682   4.537   6.632   6.485
 8595SOL     OW26683   4.893   6.624   5.682
 8595SOL    HW126684   4.818   6.649   5.621
 8595SOL    HW226685   4.932   6.537   5.653
 8596SOL     OW26686   3.934   6.860   6.277
 8596SOL    HW126687   3.948   6.798   6.354
 8596SOL    HW226688   3.990   6.830   6.199
 8597SOL     OW26689   5.506   5.769   6.849
 8597SOL    HW126690   5.526   5.689   6.905
 8597SOL    HW226691   5.524   5.749   6.753
 8598SOL     OW26692   4.129   6.031   6.086
 8598SOL    HW126693   4.174   5.961   6.031
 8598SOL    HW226694   4.070   5.987   6.154
 8599SOL     OW26695   5.310   0.017   6.719
 8599SOL    HW126696   5.281   6.992   6.627
 8599SOL    HW226697   5.328   6.935   6.773
 8600SOL     OW26698   4.094   6.199   6.861
 8600SOL    HW126699   4.123   6.119   6.913
 8600SOL    HW226700   4.069   6.171   6.768
 8601SOL     OW26701   5.121   5.831   6.692
 8601SOL    HW126702   5.142   5.738   6.722
 8601SOL    HW226703   5.062   5.876   6.760
 8602SOL     OW26704   4.792   5.565   6.663
 8602SOL    HW126705   4.746   5.497   6.607
 8602SOL    HW226706   4.874   5.525   6.704
 8603SOL     OW26707   4.458   6.870   5.824
 8603SOL    HW126708   4.459   6.778   5.862
 8603SOL    HW226709   4.495   6.934   5.891
 8604SOL     OW26710   5.109   5.605   5.779
 8604SOL    HW126711   5.159   5.536   5.726
 8604SOL    HW226712   5.017   5.571   5.800
 8605SOL     OW26713   5.038   6.071   6.243
 8605SOL    HW126714   4.988   6.157   6.232
 8605SOL    HW226715   5.019   6.034   6.334
 8606SOL     OW26716   5.314   5.800   6.496
 8606SOL    HW126717   5.248   5.826   6.567
 8606SOL    HW226718   5.317   5.871   6.426
 8607SOL     OW26719   3.790   6.625   5.897
 8607SOL    HW126720   3.889   6.616   5.901
 8607SOL    HW226721   3.748   6.535   5.890
 8608SOL     OW26722   5.819   0.683   0.142
 8608SOL    HW126723   5.727   0.643   0.138
 8608SOL    HW226724   5.860   0.680   0.051
 8609SOL     OW26725   5.805   0.301   1.028
 8609SOL    HW126726   5.859   0.259   1.100
 8609SOL    HW226727   5.721   0.247   1.013
 8610SOL     OW26728   5.607   0.418   0.645
 8610SOL    HW126729   5.533   0.456   0.701
 8610SOL    HW226730   5.568   0.354   0.579
 8611SOL     OW26731   6.141   1.318   1.230
 8611SOL    HW126732   6.054   1.311   1.181
 8611SOL    HW226733   6.158   1.414   1.252
 8612SOL     OW26734   0.030   1.580   0.763
 8612SOL    HW126735   0.075   1.491   0.769
 8612SOL    HW226736   0.010   1.600   0.667
 8613SOL     OW26737   6.715   0.811   0.660
 8613SOL    HW126738   6.786   0.882   0.661
 8613SOL    HW226739   6.683   0.795   0.754
 8614SOL     OW26740   6.300   1.144   1.073
 8614SOL    HW126741   6.241   1.181   1.145
 8614SOL    HW226742   6.342   1.220   1.022
 8615SOL     OW26743   6.464   0.755   1.847
 8615SOL    HW126744   6.470   0.817   1.925
 8615SOL    HW226745   6.480   0.807   1.763
 8616SOL     OW26746   6.298   0.942   0.687
 8616SOL    HW126747   6.368   0.962   0.755
 8616SOL    HW226748   6.223   1.009   0.696
 8617SOL     OW26749   6.242   1.117   1.830
 8617SOL    HW126750   6.263   1.197   1.886
 8617SOL    HW226751   6.175   1.142   1.760
 8618SOL     OW26752   5.906   1.374   1.082
 8618SOL    HW126753   5.835   1.316   1.041
 8618SOL    HW226754   5.953   1.425   1.010
 8619SOL     OW26755   6.064   0.341   1.447
 8619SOL    HW126756   6.147   0.298   1.482
 8619SOL    HW226757   5.984   0.288   1.478
 8620SOL     OW26758   5.797   1.682   0.480
 8620SOL    HW126759   5.809   1.757   0.545
 8620SOL    HW226760   5.884   1.665   0.433
 8621SOL     OW26761   6.685   1.342   1.703
 8621SOL    HW126762   6.769   1.307   1.662
 8621SOL    HW226763   6.621   1.267   1.719
 8622SOL     OW26764   5.722   1.410   0.452
 8622SOL    HW126765   5.745   1.503   0.481
 8622SOL    HW226766   5.729   1.348   0.531
 8623SOL     OW26767   5.874   1.084   0.847
 8623SOL    HW126768   5.891   0.990   0.876
 8623SOL    HW226769   5.817   1.130   0.915
 8624SOL     OW26770   6.142   1.835   1.403
 8624SOL    HW126771   6.061   1.824   1.461
 8624SOL    HW226772   6.201   1.906   1.441
 8625SOL     OW26773   6.164   0.945   0.230
 8625SOL    HW126774   6.213   0.971   0.147
 8625SOL    HW226775   6.207   0.988   0.309
 8626SOL     OW26776   5.709   0.666   0.546
 8626SOL    HW126777   5.686   0.572   0.572
 8626SOL    HW226778   5.708   0.724   0.627
 8627SOL     OW26779   5.576   1.587   0.135
 8627SOL    HW126780   5.495   1.530   0.125
 8627SOL    HW226781   5.576   1.628   0.226
 8628SOL     OW26782   5.797   0.759   1.582
 8628SOL    HW126783   5.896   0.761   1.599
 8628SOL    HW226784   5.756   0.844   1.615
 8629SOL     OW26785   6.202   1.371   0.741
 8629SOL    HW126786   6.172   1.275   0.744
 8629SOL    HW226787   6.188   1.407   0.648
 8630SOL     OW26788   6.742   1.138   1.430
 8630SOL    HW126789   6.784   1.095   1.350
 8630SOL    HW226790   6.812   1.156   1.499
 8631SOL     OW26791   6.444   0.049   0.546
 8631SOL    HW126792   6.499   0.127   0.517
 8631SOL    HW226793   6.347   0.072   0.537
 8632SOL     OW26794   5.788   0.946   1.255
 8632SOL    HW126795   5.878   0.904   1.268
 8632SOL    HW226796   5.750   0.916   1.167
 8633SOL     OW26797   6.842   1.856   1.593
 8633SOL    HW126798   6.802   1.923   1.531
 8633SOL    HW226799   6.831   1.764   1.555
 8634SOL     OW26800   5.889   0.296   1.824
 8634SOL    HW126801   5.948   0.352   1.881
 8634SOL    HW226802   5.797   0.295   1.862
 8635SOL     OW26803   6.198   0.683   0.304
 8635SOL    HW126804   6.197   0.778   0.272
 8635SOL    HW226805   6.130   0.671   0.376
 8636SOL     OW26806   6.856   0.362   0.885
 8636SOL    HW126807   6.757   0.357   0.893
 8636SOL    HW226808   6.899   0.296   0.948
 8637SOL     OW26809   6.365   0.591   1.481
 8637SOL    HW126810   6.325   0.554   1.565
 8637SOL    HW226811   6.353   0.525   1.406
 8638SOL     OW26812   6.997   0.558   1.750
 8638SOL    HW126813   6.954   0.643   1.782
 8638SOL    HW226814   0.096   0.572   1.744
 8639SOL     OW26815   6.540   0.886   1.610
 8639SOL    HW126816   6.591   0.809   1.572
 8639SOL    HW226817   6.495   0.937   1.537
 8640SOL     OW26818   6.648   0.390   1.202
 8640SOL    HW126819   6.560   0.417   1.240
 8640SOL    HW226820   6.637   0.364   1.106
 8641SOL     OW26821   6.669   0.738   0.402
 8641SOL    HW126822   6.688   0.764   0.497
 8641SOL    HW226823   6.588   0.680   0.399
 8642SOL     OW26824   5.696   0.818   0.776
 8642SOL    HW126825   5.786   0.813   0.819
 8642SOL    HW226826   5.636   0.877   0.829
 8643SOL     OW26827   5.681   1.919   1.604
 8643SOL    HW126828   5.686   1.871   1.691
 8643SOL    HW226829   5.586   1.922   1.573
 8644SOL     OW26830   6.461   0.344   0.231
 8644SOL    HW126831   6.442   0.414   0.163
 8644SOL    HW226832   6.442   0.254   0.192
 8645SOL     OW26833   0.013   1.209   0.535
 8645SOL    HW126834   0.044   1.156   0.456
 8645SOL    HW226835   6.943   1.275   0.506
 8646SOL     OW26836   6.109   0.231   0.936
 8646SOL    HW126837   6.160   0.229   1.022
 8646SOL    HW226838   6.114   0.322   0.896
 8647SOL     OW26839   6.563   1.442   0.474
 8647SOL    HW126840   6.519   1.523   0.436
 8647SOL    HW226841   6.541   1.434   0.571
 8648SOL     OW26842   5.942   1.782   0.884
 8648SOL    HW126843   5.979   1.689   0.890
 8648SOL    HW226844   6.014   1.848   0.905
 8649SOL     OW26845   6.819   1.607   1.489
 8649SOL    HW126846   6.757   1.540   1.532
 8649SOL    HW226847   6.819   1.592   1.390
 8650SOL     OW26848   5.896   0.916   0.269
 8650SOL    HW126849   5.994   0.926   0.251
 8650SOL    HW226850   5.864   0.828   0.235
 8651SOL     OW26851   6.050   1.266   1.688
 8651SOL    HW126852   6.012   1.275   1.596
 8651SOL    HW226853   5.978   1.282   1.756
 8652SOL     OW26854   6.653   1.756   0.273
 8652SOL    HW126855   6.569   1.715   0.309
 8652SOL    HW226856   6.682   1.706   0.192
 8653SOL     OW26857   5.841   0.204   1.563
 8653SOL    HW126858   5.765   0.256   1.524
 8653SOL    HW226859   5.860   0.236   1.655
 8654SOL     OW26860   0.345   1.307   0.012
 8654SOL    HW126861   0.337   1.368   6.933
 8654SOL    HW226862   0.292   1.224   6.996
 8655SOL     OW26863   6.062   1.679   0.384
 8655SOL    HW126864   6.076   1.770   0.422
 8655SOL    HW226865   6.105   1.674   0.294
 8656SOL     OW26866   5.790   1.801   1.217
 8656SOL    HW126867   5.841   1.722   1.251
 8656SOL    HW226868   5.761   1.784   1.122
 8657SOL     OW26869   6.523   1.715   0.874
 8657SOL    HW126870   6.617   1.683   0.864
 8657SOL    HW226871   6.464   1.667   0.809
 8658SOL     OW26872   5.992   0.651   0.484
 8658SOL    HW126873   5.993   0.552   0.496
 8658SOL    HW226874   5.897   0.684   0.491
 8659SOL     OW26875   6.156   0.120   0.032
 8659SOL    HW126876   6.252   0.114   0.058
 8659SOL    HW226877   6.147   0.169   6.945
 8660SOL     OW26878   6.387   0.248   1.817
 8660SOL    HW126879   6.470   0.197   1.793
 8660SOL    HW226880   6.323   0.187   1.863
 8661SOL     OW26881   6.429   1.517   1.194
 8661SOL    HW126882   6.404   1.484   1.103
 8661SOL    HW226883   6.491   1.451   1.237
 8662SOL     OW26884   6.387   1.377   0.952
 8662SOL    HW126885   6.480   1.388   0.917
 8662SOL    HW226886   6.322   1.380   0.875
 8663SOL     OW26887   6.518   0.571   0.882
 8663SOL    HW126888   6.506   0.551   0.785
 8663SOL    HW226889   6.545   0.487   0.930
 8664SOL     OW26890   6.181   0.106   0.487
 8664SOL    HW126891   6.099   0.083   0.540
 8664SOL    HW226892   6.154   0.153   0.403
 8665SOL     OW26893   5.846   0.093   0.340
 8665SOL    HW126894   5.922   0.145   0.300
 8665SOL    HW226895   5.867   0.073   0.436
 8666SOL     OW26896   6.599   0.259   0.452
 8666SOL    HW126897   6.547   0.288   0.371
 8666SOL    HW226898   6.694   0.290   0.443
 8667SOL     OW26899   6.626   0.659   1.483
 8667SOL    HW126900   6.531   0.629   1.483
 8667SOL    HW226901   6.681   0.594   1.536
 8668SOL     OW26902   6.759   1.626   0.763
 8668SOL    HW126903   6.749   1.680   0.680
 8668SOL    HW226904   6.856   1.611   0.783
 8669SOL     OW26905   6.093   1.124   0.692
 8669SOL    HW126906   6.013   1.110   0.750
 8669SOL    HW226907   6.065   1.133   0.597
 8670SOL     OW26908   6.742   1.797   0.537
 8670SOL    HW126909   6.709   1.792   0.443
 8670SOL    HW226910   6.690   1.866   0.587
 8671SOL     OW26911   6.666   0.598   0.017
 8671SOL    HW126912   6.568   0.583   0.035
 8671SOL    HW226913   6.718   0.583   0.101
 8672SOL     OW26914   5.733   0.578   1.385
 8672SOL    HW126915   5.824   0.562   1.348
 8672SOL    HW226916   5.738   0.649   1.457
 8673SOL     OW26917   6.215   0.231   1.195
 8673SOL    HW126918   6.275   0.166   1.243
 8673SOL    HW226919   6.121   0.219   1.226
 8674SOL     OW26920   6.508   0.455   0.633
 8674SOL    HW126921   6.470   0.518   0.566
 8674SOL    HW226922   6.544   0.374   0.586
 8675SOL     OW26923   6.571   6.984   0.796
 8675SOL    HW126924   6.518   0.004   0.713
 8675SOL    HW226925   6.602   6.889   0.794
 8676SOL     OW26926   6.011   1.508   0.114
 8676SOL    HW126927   5.964   1.436   0.164
 8676SOL    HW226928   5.981   1.507   0.019
 8677SOL     OW26929   6.065   0.240   0.263
 8677SOL    HW126930   6.097   0.190   0.182
 8677SOL    HW226931   6.051   0.336   0.238
 8678SOL     OW26932   6.573   1.314   1.317
 8678SOL    HW126933   6.483   1.303   1.357
 8678SOL    HW226934   6.639   1.254   1.363
 8679SOL     OW26935   6.755   1.315   1.106
 8679SOL    HW126936   6.685   1.313   1.178
 8679SOL    HW226937   6.713   1.345   1.020
 8680SOL     OW26938   6.478   0.166   1.350
 8680SOL    HW126939   6.505   0.139   1.257
 8680SOL    HW226940   6.558   0.199   1.400
 8681SOL     OW26941   6.526   1.113   1.760
 8681SOL    HW126942   6.429   1.121   1.786
 8681SOL    HW226943   6.537   1.037   1.696
 8682SOL     OW26944   6.329   1.036   0.428
 8682SOL    HW126945   6.326   0.996   0.520
 8682SOL    HW226946   6.400   0.990   0.375
 8683SOL     OW26947   6.031   0.816   1.281
 8683SOL    HW126948   6.100   0.833   1.351
 8683SOL    HW226949   6.008   0.719   1.278
 8684SOL     OW26950   6.894   0.323   1.306
 8684SOL    HW126951   6.949   0.402   1.333
 8684SOL    HW226952   6.808   0.355   1.266
 8685SOL     OW26953   5.630   1.531   1.331
 8685SOL    HW126954   5.580   1.605   1.285
 8685SOL    HW226955   5.728   1.548   1.323
 8686SOL     OW26956   5.994   1.140   0.437
 8686SOL    HW126957   5.969   1.218   0.378
 8686SOL    HW226958   5.966   1.055   0.393
 8687SOL     OW26959   6.137   0.515   0.895
 8687SOL    HW126960   6.146   0.567   0.810
 8687SOL    HW226961   6.203   0.547   0.962
 8688SOL     OW26962   6.836   1.396   0.439
 8688SOL    HW126963   6.880   1.484   0.459
 8688SOL    HW226964   6.737   1.405   0.448
 8689SOL     OW26965   6.866   1.549   1.220
 8689SOL    HW126966   6.954   1.533   1.265
 8689SOL    HW226967   6.835   1.466   1.175
 8690SOL     OW26968   5.902   1.550   1.285
 8690SOL    HW126969   5.897   1.487   1.208
 8690SOL    HW226970   5.998   1.573   1.304
 8691SOL     OW26971   6.068   0.746   1.664
 8691SOL    HW126972   6.124   0.787   1.593
 8691SOL    HW226973   6.118   0.669   1.705
 8692SOL     OW26974   6.611   0.105   1.725
 8692SOL    HW126975   6.644   0.155   1.645
 8692SOL    HW226976   6.606   0.007   1.703
 8693SOL     OW26977   5.991   0.034   1.797
 8693SOL    HW126978   5.912   6.973   1.807
 8693SOL    HW226979   5.961   0.129   1.803
 8694SOL     OW26980   6.175   0.889   1.055
 8694SOL    HW126981   6.216   0.980   1.055
 8694SOL    HW226982   6.123   0.875   1.139
 8695SOL     OW26983   6.915   0.853   1.003
 8695SOL    HW126984   6.819   0.826   0.991
 8695SOL    HW226985   6.962   0.786   1.060
 8696SOL     OW26986   6.816   0.565   0.243
 8696SOL    HW126987   6.831   0.484   0.298
 8696SOL    HW226988   6.775   0.637   0.299
 8697SOL     OW26989   5.943   0.152   1.218
 8697SOL    HW126990   5.929   0.098   1.301
 8697SOL    HW226991   5.959   0.091   1.141
 8698SOL     OW26992   5.569   1.274   1.258
 8698SOL    HW126993   5.615   1.213   1.321
 8698SOL    HW226994   5.587   1.369   1.283
 8699SOL     OW26995   6.320   0.651   1.058
 8699SOL    HW126996   6.388   0.641   0.985
 8699SOL    HW226997   6.273   0.739   1.047
 8700SOL     OW26998   5.924   0.060   0.602
 8700SOL    HW126999   5.894   0.137   0.658
 8700SOL    HW227000   5.880   6.976   0.634
 8701SOL     OW27001   0.215   0.434   0.387
 8701SOL    HW127002   0.299   0.404   0.431
 8701SOL    HW227003   0.176   0.511   0.437
 8702SOL     OW27004   6.643   0.793   0.975
 8702SOL    HW127005   6.622   0.795   1.073
 8702SOL    HW227006   6.604   0.709   0.935
 8703SOL     OW27007   6.547   1.598   1.661
 8703SOL    HW127008   6.533   1.630   1.567
 8703SOL    HW227009   6.571   1.501   1.659
 8704SOL     OW27010   5.937   0.937   1.816
 8704SOL    HW127011   5.988   0.963   1.898
 8704SOL    HW227012   5.988   0.868   1.765
 8705SOL     OW27013   6.819   0.843   0.020
 8705SOL    HW127014   6.797   0.748   6.999
 8705SOL    HW227015   6.853   0.888   6.938
 8706SOL     OW27016   6.644   1.398   0.868
 8706SOL    HW127017   6.666   1.313   0.819
 8706SOL    HW227018   6.687   1.475   0.820
 8707SOL     OW27019   5.925   0.824   0.938
 8707SOL    HW127020   6.020   0.846   0.959
 8707SOL    HW227021   5.906   0.730   0.965
 8708SOL     OW27022   5.891   0.554   1.003
 8708SOL    HW127023   5.846   0.465   1.009
 8708SOL    HW227024   5.978   0.543   0.955
 8709SOL     OW27025   6.747   0.480   1.660
 8709SOL    HW127026   6.699   0.498   1.746
 8709SOL    HW227027   6.845   0.499   1.672
 8710SOL     OW27028   6.696   0.256   1.508
 8710SOL    HW127029   6.706   0.338   1.564
 8710SOL    HW227030   6.768   0.254   1.439
 8711SOL     OW27031   5.683   1.763   0.962
 8711SOL    HW127032   5.633   1.699   0.904
 8711SOL    HW227033   5.776   1.774   0.928
 8712SOL     OW27034   6.063   1.533   0.918
 8712SOL    HW127035   6.135   1.591   0.954
 8712SOL    HW227036   6.102   1.471   0.849
 8713SOL     OW27037   6.553   0.769   1.231
 8713SOL    HW127038   6.597   0.737   1.315
 8713SOL    HW227039   6.465   0.724   1.221
 8714SOL     OW27040   5.624   0.626   1.135
 8714SOL    HW127041   5.699   0.611   1.071
 8714SOL    HW227042   5.657   0.612   1.229
 8715SOL     OW27043   5.787   0.574   1.784
 8715SOL    HW127044   5.829   0.489   1.751
 8715SOL    HW227045   5.780   0.639   1.708
 8716SOL     OW27046   6.443   0.579   0.390
 8716SOL    HW127047   6.448   0.492   0.341
 8716SOL    HW227048   6.356   0.624   0.369
 8717SOL     OW27049   5.831   1.568   1.698
 8717SOL    HW127050   5.796   1.640   1.758
 8717SOL    HW227051   5.847   1.485   1.751
 8718SOL     OW27052   6.370   0.455   1.242
 8718SOL    HW127053   6.315   0.373   1.225
 8718SOL    HW227054   6.345   0.525   1.175
 8719SOL     OW27055   6.495   1.686   1.410
 8719SOL    HW127056   6.472   1.634   1.328
 8719SOL    HW227057   6.504   1.783   1.386
 8720SOL     OW27058   6.032   0.501   0.178
 8720SOL    HW127059   6.104   0.556   0.220
 8720SOL    HW227060   5.945   0.549   0.183
 8721SOL     OW27061   5.703   1.115   1.446
 8721SOL    HW127062   5.715   1.073   1.536
 8721SOL    HW227063   5.739   1.053   1.375
 8722SOL     OW27064   6.845   1.058   1.190
 8722SOL    HW127065   6.877   0.995   1.119
 8722SOL    HW227066   6.827   1.147   1.150
 8723SOL     OW27067   6.868   0.913   0.281
 8723SOL    HW127068   6.805   0.859   0.337
 8723SOL    HW227069   6.856   0.890   0.185
 8724SOL     OW27070   6.882   1.794   1.089
 8724SOL    HW127071   6.968   1.782   1.039
 8724SOL    HW227072   6.863   1.712   1.143
 8725SOL     OW27073   5.694   1.197   1.019
 8725SOL    HW127074   5.653   1.222   1.107
 8725SOL    HW227075   5.633   1.135   0.970
 8726SOL     OW27076   6.306   1.680   1.755
 8726SOL    HW127077   6.266   1.748   1.694
 8726SOL    HW227078   6.399   1.659   1.725
 8727SOL     OW27079   6.416   0.090   0.125
 8727SOL    HW127080   6.467   0.054   0.048
 8727SOL    HW227081   6.409   0.021   0.197
 8728SOL     OW27082   6.963   1.636   0.505
 8728SOL    HW127083   0.049   1.679   0.477
 8728SOL    HW227084   6.891   1.705   0.509
 8729SOL     OW27085   5.717   1.775   1.836
 8729SOL    HW127086   5.667   1.703   1.884
 8729SOL    HW227087   5.767   1.830   1.903
 8730SOL     OW27088   6.908   1.003   0.681
 8730SOL    HW127089   6.981   0.943   0.712
 8730SOL    HW227090   6.947   1.078   0.627
 8731SOL     OW27091   6.330   1.271   1.428
 8731SOL    HW127092   6.316   1.322   1.513
 8731SOL    HW227093   6.251   1.284   1.368
 8732SOL     OW27094   6.263   1.597   0.185
 8732SOL    HW127095   6.336   1.577   0.120
 8732SOL    HW227096   6.178   1.555   0.154
 8733SOL     OW27097   5.834   0.283   0.736
 8733SOL    HW127098   5.753   0.335   0.708
 8733SOL    HW227099   5.845   0.290   0.836
 8734SOL     OW27100   6.741   1.612   0.051
 8734SOL    HW127101   6.827   1.585   0.095
 8734SOL    HW227102   6.753   1.615   6.952
 8735SOL     OW27103   6.421   1.015   1.403
 8735SOL    HW127104   6.484   1.010   1.326
 8735SOL    HW227105   6.388   1.109   1.414
 8736SOL     OW27106   6.506   0.918   0.264
 8736SOL    HW127107   6.540   0.951   0.176
 8736SOL    HW227108   6.575   0.858   0.306
 8737SOL     OW27109   5.911   1.310   1.461
 8737SOL    HW127110   5.899   1.394   1.408
 8737SOL    HW227111   5.835   1.248   1.443
 8738SOL     OW27112   6.690   1.154   0.767
 8738SOL    HW127113   6.613   1.097   0.797
 8738SOL    HW227114   6.764   1.096   0.735
 8739SOL     OW27115   6.584   0.305   0.941
 8739SOL    HW127116   6.540   0.298   0.852
 8739SOL    HW227117   6.571   0.219   0.991
 8740SOL     OW27118   6.185   1.462   0.494
 8740SOL    HW127119   6.228   1.405   0.424
 8740SOL    HW227120   6.132   1.535   0.450
 8741SOL     OW27121   5.868   1.313   0.245
 8741SOL    HW127122   5.817   1.244   0.194
 8741SOL    HW227123   5.810   1.353   0.315
 8742SOL     OW27124   5.699   0.997   1.694
 8742SOL    HW127125   5.619   0.995   1.753
 8742SOL    HW227126   5.782   0.987   1.749
 8743SOL     OW27127   6.290   0.211   1.545
 8743SOL    HW127128   6.359   0.198   1.475
 8743SOL    HW227129   6.333   0.242   1.630
 8744SOL     OW27130   5.628   0.325   0.018
 8744SOL    HW127131   5.567   0.291   6.946
 8744SOL    HW227132   5.603   0.419   0.041
 8745SOL     OW27133   5.606   0.174   0.247
 8745SOL    HW127134   5.622   0.235   0.169
 8745SOL    HW227135   5.693   0.137   0.279
 8746SOL     OW27136   6.233   0.829   1.462
 8746SOL    HW127137   6.295   0.905   1.443
 8746SOL    HW227138   6.285   0.743   1.466
 8747SOL     OW27139   6.291   0.547   1.747
 8747SOL    HW127140   6.347   0.618   1.791
 8747SOL    HW227141   6.313   0.458   1.787
 8748SOL     OW27142   6.932   1.215   1.618
 8748SOL    HW127143   6.964   1.197   1.711
 8748SOL    HW227144   0.009   1.203   1.554
 8749SOL     OW27145   5.932   1.799   1.576
 8749SOL    HW127146   5.845   1.848   1.568
 8749SOL    HW227147   5.914   1.706   1.607
 8750SOL     OW27148   6.855   0.353   0.417
 8750SOL    HW127149   6.922   0.300   0.365
 8750SOL    HW227150   6.896   0.381   0.504
 8751SOL     OW27151   6.171   0.694   0.693
 8751SOL    HW127152   6.220   0.780   0.688
 8751SOL    HW227153   6.107   0.687   0.617
 8752SOL     OW27154   6.304   1.293   0.071
 8752SOL    HW127155   6.304   1.290   0.171
 8752SOL    HW227156   6.364   1.366   0.040
 8753SOL     OW27157   6.256   1.715   0.976
 8753SOL    HW127158   6.224   1.808   0.957
 8753SOL    HW227159   6.355   1.711   0.963
 8754SOL     OW27160   6.482   1.004   0.889
 8754SOL    HW127161   6.540   0.932   0.926
 8754SOL    HW227162   6.426   1.043   0.962
 8755SOL     OW27163   6.595   0.997   0.007
 8755SOL    HW127164   6.627   1.091   6.992
 8755SOL    HW227165   6.674   0.936   0.017
 8756SOL     OW27166   5.838   1.331   1.848
 8756SOL    HW127167   5.748   1.289   1.834
 8756SOL    HW227168   5.854   1.342   1.946
 8757SOL     OW27169   5.712   1.195   0.640
 8757SOL    HW127170   5.775   1.161   0.710
 8757SOL    HW227171   5.707   1.128   0.565
 8758SOL     OW27172   6.282   1.408   1.664
 8758SOL    HW127173   6.195   1.361   1.679
 8758SOL    HW227174   6.273   1.504   1.690
 8759SOL     OW27175   5.981   0.386   0.517
 8759SOL    HW127176   6.011   0.315   0.454
 8759SOL    HW227177   5.940   0.344   0.598
 8760SOL     OW27178   5.981   0.546   1.282
 8760SOL    HW127179   6.021   0.471   1.335
 8760SOL    HW227180   5.974   0.518   1.186
 8761SOL     OW27181   6.392   1.583   0.679
 8761SOL    HW127182   6.381   1.614   0.585
 8761SOL    HW227183   6.320   1.516   0.700
 8762SOL     OW27184   6.955   0.164   1.052
 8762SOL    HW127185   6.994   0.072   1.054
 8762SOL    HW227186   6.926   0.190   1.145
 8763SOL     OW27187   6.554   0.062   1.067
 8763SOL    HW127188   6.547   0.027   0.974
 8763SOL    HW227189   6.571   6.986   1.130
 8764SOL     OW27190   6.348   1.294   0.344
 8764SOL    HW127191   6.335   1.201   0.379
 8764SOL    HW227192   6.435   1.330   0.378
 8765SOL     OW27193   6.178   1.587   1.292
 8765SOL    HW127194   6.172   1.679   1.332
 8765SOL    HW227195   6.268   1.574   1.252
 8766SOL     OW27196   5.690   1.002   0.447
 8766SOL    HW127197   5.771   0.976   0.394
 8766SOL    HW227198   5.614   0.941   0.426
 8767SOL     OW27199   6.421   1.669   0.397
 8767SOL    HW127200   6.356   1.642   0.326
 8767SOL    HW227201   6.398   1.760   0.431
 8768SOL     OW27202   5.789   0.657   2.041
 8768SOL    HW127203   5.701   0.622   2.072
 8768SOL    HW227204   5.796   0.646   1.942
 8769SOL     OW27205   5.806   0.284   2.858
 8769SOL    HW127206   5.859   0.260   2.939
 8769SOL    HW227207   5.725   0.226   2.852
 8770SOL     OW27208   5.608   0.438   2.500
 8770SOL    HW127209   5.528   0.463   2.554
 8770SOL    HW227210   5.582   0.372   2.429
 8771SOL     OW27211   6.150   1.322   3.098
 8771SOL    HW127212   6.063   1.315   3.049
 8771SOL    HW227213   6.168   1.418   3.120
 8772SOL     OW27214   0.051   1.540   2.641
 8772SOL    HW127215   0.103   1.454   2.637
 8772SOL    HW227216   0.045   1.580   2.550
 8773SOL     OW27217   6.667   0.810   2.537
 8773SOL    HW127218   6.749   0.865   2.522
 8773SOL    HW227219   6.651   0.801   2.635
 8774SOL     OW27220   6.296   1.150   2.926
 8774SOL    HW127221   6.243   1.187   3.003
 8774SOL    HW227222   6.337   1.226   2.875
 8775SOL     OW27223   6.491   0.767   3.722
 8775SOL    HW127224   6.490   0.825   3.803
 8775SOL    HW227225   6.494   0.823   3.640
 8776SOL     OW27226   6.304   0.972   2.492
 8776SOL    HW127227   6.366   0.979   2.570
 8776SOL    HW227228   6.225   1.031   2.507
 8777SOL     OW27229   6.151   1.089   3.700
 8777SOL    HW127230   6.241   1.128   3.721
 8777SOL    HW227231   6.093   1.159   3.659
 8778SOL     OW27232   5.920   1.382   2.944
 8778SOL    HW127233   5.845   1.326   2.908
 8778SOL    HW227234   5.967   1.429   2.870
 8779SOL     OW27235   6.096   0.421   3.339
 8779SOL    HW127236   6.174   0.362   3.360
 8779SOL    HW227237   6.011   0.369   3.346
 8780SOL     OW27238   5.817   1.745   2.331
 8780SOL    HW127239   5.839   1.810   2.403
 8780SOL    HW227240   5.888   1.747   2.260
 8781SOL     OW27241   6.732   1.378   3.544
 8781SOL    HW127242   6.818   1.338   3.512
 8781SOL    HW227243   6.669   1.306   3.570
 8782SOL     OW27244   5.842   1.470   2.356
 8782SOL    HW127245   5.824   1.568   2.366
 8782SOL    HW227246   5.808   1.421   2.437
 8783SOL     OW27247   5.896   1.096   2.724
 8783SOL    HW127248   5.906   0.999   2.749
 8783SOL    HW227249   5.833   1.140   2.788
 8784SOL     OW27250   6.152   1.833   3.279
 8784SOL    HW127251   6.070   1.816   3.332
 8784SOL    HW227252   6.204   1.908   3.320
 8785SOL     OW27253   6.140   0.968   2.040
 8785SOL    HW127254   6.177   1.007   1.956
 8785SOL    HW227255   6.197   0.996   2.118
 8786SOL     OW27256   5.707   0.693   2.434
 8786SOL    HW127257   5.684   0.599   2.460
 8786SOL    HW227258   5.702   0.751   2.515
 8787SOL     OW27259   5.618   1.567   1.977
 8787SOL    HW127260   5.587   1.472   1.989
 8787SOL    HW227261   5.602   1.617   2.062
 8788SOL     OW27262   5.660   0.773   3.360
 8788SOL    HW127263   5.720   0.825   3.300
 8788SOL    HW227264   5.572   0.820   3.369
 8789SOL     OW27265   6.207   1.369   2.577
 8789SOL    HW127266   6.165   1.279   2.567
 8789SOL    HW227267   6.213   1.413   2.487
 8790SOL     OW27268   6.767   1.173   3.277
 8790SOL    HW127269   6.808   1.126   3.199
 8790SOL    HW227270   6.834   1.180   3.351
 8791SOL     OW27271   6.501   0.087   2.391
 8791SOL    HW127272   6.528   0.175   2.352
 8791SOL    HW227273   6.404   0.069   2.371
 8792SOL     OW27274   5.794   0.931   3.176
 8792SOL    HW127275   5.889   0.902   3.166
 8792SOL    HW227276   5.753   0.944   3.086
 8793SOL     OW27277   6.835   1.867   3.466
 8793SOL    HW127278   6.798   1.930   3.397
 8793SOL    HW227279   6.825   1.773   3.434
 8794SOL     OW27280   5.940   0.289   3.652
 8794SOL    HW127281   5.991   0.348   3.714
 8794SOL    HW227282   5.844   0.319   3.649
 8795SOL     OW27283   6.145   0.695   2.121
 8795SOL    HW127284   6.147   0.787   2.082
 8795SOL    HW227285   6.081   0.693   2.198
 8796SOL     OW27286   6.860   0.298   2.764
 8796SOL    HW127287   6.764   0.321   2.782
 8796SOL    HW227288   6.905   0.270   2.848
 8797SOL     OW27289   6.387   0.595   3.342
 8797SOL    HW127290   6.380   0.539   3.424
 8797SOL    HW227291   6.375   0.537   3.261
 8798SOL     OW27292   0.007   0.540   3.617
 8798SOL    HW127293   6.973   0.627   3.653
 8798SOL    HW227294   0.101   0.551   3.586
 8799SOL     OW27295   6.539   0.916   3.490
 8799SOL    HW127296   6.593   0.842   3.451
 8799SOL    HW227297   6.485   0.960   3.418
 8800SOL     OW27298   6.657   0.417   3.078
 8800SOL    HW127299   6.566   0.434   3.115
 8800SOL    HW227300   6.652   0.407   2.978
 8801SOL     OW27301   6.588   0.743   2.284
 8801SOL    HW127302   6.605   0.762   2.380
 8801SOL    HW227303   6.506   0.686   2.275
 8802SOL     OW27304   5.679   0.860   2.652
 8802SOL    HW127305   5.766   0.848   2.699
 8802SOL    HW227306   5.622   0.923   2.704
 8803SOL     OW27307   5.689   1.921   3.441
 8803SOL    HW127308   5.692   1.881   3.533
 8803SOL    HW227309   5.595   1.927   3.410
 8804SOL     OW27310   6.480   0.397   2.038
 8804SOL    HW127311   6.549   0.454   1.992
 8804SOL    HW227312   6.438   0.335   1.971
 8805SOL     OW27313   7.000   1.195   2.398
 8805SOL    HW127314   0.033   1.155   2.312
 8805SOL    HW227315   6.938   1.271   2.378
 8806SOL     OW27316   6.088   0.039   2.785
 8806SOL    HW127317   6.155   0.111   2.807
 8806SOL    HW227318   6.061   0.047   2.690
 8807SOL     OW27319   6.590   1.503   2.342
 8807SOL    HW127320   6.558   1.573   2.278
 8807SOL    HW227321   6.546   1.516   2.431
 8808SOL     OW27322   5.946   1.774   2.747
 8808SOL    HW127323   5.982   1.680   2.747
 8808SOL    HW227324   6.017   1.837   2.779
 8809SOL     OW27325   6.821   1.609   3.376
 8809SOL    HW127326   6.781   1.532   3.427
 8809SOL    HW227327   6.802   1.598   3.279
 8810SOL     OW27328   5.875   0.915   2.134
 8810SOL    HW127329   5.969   0.932   2.103
 8810SOL    HW227330   5.848   0.822   2.107
 8811SOL     OW27331   6.013   1.312   3.601
 8811SOL    HW127332   5.998   1.317   3.502
 8811SOL    HW227333   5.925   1.311   3.648
 8812SOL     OW27334   6.720   1.743   2.104
 8812SOL    HW127335   6.624   1.742   2.132
 8812SOL    HW227336   6.734   1.676   2.031
 8813SOL     OW27337   5.856   0.292   3.353
 8813SOL    HW127338   5.788   0.364   3.343
 8813SOL    HW227339   5.864   0.266   3.450
 8814SOL     OW27340   6.039   1.795   2.173
 8814SOL    HW127341   6.087   1.844   2.246
 8814SOL    HW227342   6.107   1.748   2.116
 8815SOL     OW27343   5.801   1.802   3.078
 8815SOL    HW127344   5.848   1.723   3.115
 8815SOL    HW227345   5.765   1.781   2.987
 8816SOL     OW27346   6.548   1.721   2.720
 8816SOL    HW127347   6.638   1.679   2.712
 8816SOL    HW227348   6.485   1.678   2.655
 8817SOL     OW27349   5.976   0.670   2.338
 8817SOL    HW127350   5.983   0.571   2.345
 8817SOL    HW227351   5.883   0.700   2.360
 8818SOL     OW27352   6.211   0.084   1.956
 8818SOL    HW127353   6.235   0.007   2.015
 8818SOL    HW227354   6.134   0.057   1.897
 8819SOL     OW27355   6.420   0.226   3.722
 8819SOL    HW127356   6.488   0.168   3.677
 8819SOL    HW227357   6.344   0.169   3.753
 8820SOL     OW27358   6.431   1.521   3.042
 8820SOL    HW127359   6.404   1.487   2.952
 8820SOL    HW227360   6.485   1.451   3.089
 8821SOL     OW27361   6.386   1.376   2.794
 8821SOL    HW127362   6.481   1.379   2.762
 8821SOL    HW227363   6.325   1.365   2.715
 8822SOL     OW27364   6.505   0.564   2.731
 8822SOL    HW127365   6.487   0.551   2.634
 8822SOL    HW227366   6.531   0.476   2.771
 8823SOL     OW27367   6.218   0.061   2.332
 8823SOL    HW127368   6.156   0.043   2.408
 8823SOL    HW227369   6.181   0.135   2.275
 8824SOL     OW27370   0.007   1.134   1.881
 8824SOL    HW127371   0.045   1.114   1.972
 8824SOL    HW227372   6.910   1.109   1.880
 8825SOL     OW27373   5.896   0.036   2.197
 8825SOL    HW127374   5.963   0.109   2.182
 8825SOL    HW227375   5.805   0.070   2.176
 8826SOL     OW27376   6.590   0.321   2.282
 8826SOL    HW127377   6.548   0.343   2.194
 8826SOL    HW227378   6.688   0.343   2.279
 8827SOL     OW27379   6.639   0.691   3.361
 8827SOL    HW127380   6.545   0.656   3.354
 8827SOL    HW227381   6.695   0.626   3.413
 8828SOL     OW27382   6.780   1.607   2.617
 8828SOL    HW127383   6.781   1.659   2.531
 8828SOL    HW227384   6.874   1.582   2.642
 8829SOL     OW27385   6.080   1.132   2.526
 8829SOL    HW127386   6.020   1.116   2.604
 8829SOL    HW227387   6.027   1.131   2.442
 8830SOL     OW27388   6.787   1.775   2.381
 8830SOL    HW127389   6.764   1.772   2.284
 8830SOL    HW227390   6.732   1.846   2.426
 8831SOL     OW27391   6.651   0.564   1.906
 8831SOL    HW127392   6.587   0.638   1.885
 8831SOL    HW227393   6.712   0.592   1.980
 8832SOL     OW27394   5.713   0.526   3.250
 8832SOL    HW127395   5.805   0.540   3.214
 8832SOL    HW227396   5.685   0.608   3.300
 8833SOL     OW27397   6.211   0.251   3.064
 8833SOL    HW127398   6.255   0.173   3.109
 8833SOL    HW227399   6.112   0.242   3.073
 8834SOL     OW27400   6.468   0.488   2.471
 8834SOL    HW127401   6.402   0.535   2.412
 8834SOL    HW227402   6.519   0.421   2.418
 8835SOL     OW27403   6.551   0.082   2.666
 8835SOL    HW127404   6.520   0.076   2.571
 8835SOL    HW227405   6.645   0.046   2.672
 8836SOL     OW27406   6.094   1.471   2.085
 8836SOL    HW127407   6.004   1.429   2.094
 8836SOL    HW227408   6.155   1.410   2.034
 8837SOL     OW27409   6.086   0.237   2.148
 8837SOL    HW127410   6.137   0.189   2.077
 8837SOL    HW227411   6.054   0.325   2.111
 8838SOL     OW27412   6.565   1.320   3.175
 8838SOL    HW127413   6.481   1.311   3.229
 8838SOL    HW227414   6.639   1.269   3.219
 8839SOL     OW27415   6.755   1.337   2.967
 8839SOL    HW127416   6.683   1.328   3.036
 8839SOL    HW227417   6.714   1.354   2.877
 8840SOL     OW27418   6.486   0.183   3.225
 8840SOL    HW127419   6.507   0.153   3.132
 8840SOL    HW227420   6.571   0.210   3.271
 8841SOL     OW27421   6.588   1.153   3.623
 8841SOL    HW127422   6.508   1.182   3.676
 8841SOL    HW227423   6.564   1.073   3.569
 8842SOL     OW27424   6.345   1.037   2.223
 8842SOL    HW127425   6.339   1.003   2.317
 8842SOL    HW227426   6.416   0.987   2.173
 8843SOL     OW27427   6.043   0.825   3.142
 8843SOL    HW127428   6.111   0.833   3.215
 8843SOL    HW227429   6.009   0.731   3.138
 8844SOL     OW27430   6.900   0.352   3.191
 8844SOL    HW127431   6.959   0.431   3.205
 8844SOL    HW227432   6.812   0.382   3.153
 8845SOL     OW27433   5.634   1.543   3.206
 8845SOL    HW127434   5.585   1.611   3.153
 8845SOL    HW227435   5.732   1.561   3.201
 8846SOL     OW27436   5.905   1.132   2.309
 8846SOL    HW127437   5.898   1.205   2.241
 8846SOL    HW227438   5.890   1.044   2.264
 8847SOL     OW27439   6.108   0.582   2.751
 8847SOL    HW127440   6.129   0.627   2.665
 8847SOL    HW227441   6.186   0.588   2.813
 8848SOL     OW27442   6.856   1.420   2.327
 8848SOL    HW127443   6.911   1.499   2.353
 8848SOL    HW227444   6.759   1.445   2.332
 8849SOL     OW27445   6.859   1.570   3.092
 8849SOL    HW127446   6.945   1.551   3.140
 8849SOL    HW227447   6.828   1.487   3.045
 8850SOL     OW27448   5.910   1.554   3.153
 8850SOL    HW127449   5.903   1.490   3.077
 8850SOL    HW227450   6.006   1.576   3.169
 8851SOL     OW27451   6.046   0.668   3.470
 8851SOL    HW127452   6.109   0.734   3.429
 8851SOL    HW227453   6.067   0.577   3.434
 8852SOL     OW27454   6.618   0.087   3.579
 8852SOL    HW127455   6.651   0.150   3.509
 8852SOL    HW227456   6.609   6.996   3.539
 8853SOL     OW27457   6.015   0.024   3.620
 8853SOL    HW127458   5.939   6.978   3.666
 8853SOL    HW227459   6.001   0.123   3.622
 8854SOL     OW27460   6.174   0.895   2.910
 8854SOL    HW127461   6.213   0.987   2.911
 8854SOL    HW227462   6.126   0.878   2.997
 8855SOL     OW27463   6.895   0.861   2.846
 8855SOL    HW127464   6.800   0.832   2.842
 8855SOL    HW227465   6.947   0.798   2.903
 8856SOL     OW27466   6.785   0.624   2.143
 8856SOL    HW127467   6.820   0.541   2.188
 8856SOL    HW227468   6.711   0.663   2.197
 8857SOL     OW27469   5.935   0.215   3.096
 8857SOL    HW127470   5.905   0.230   3.190
 8857SOL    HW227471   5.926   0.118   3.073
 8858SOL     OW27472   5.643   1.280   3.129
 8858SOL    HW127473   5.668   1.227   3.209
 8858SOL    HW227474   5.630   1.376   3.155
 8859SOL     OW27475   6.322   0.658   2.915
 8859SOL    HW127476   6.384   0.641   2.839
 8859SOL    HW227477   6.278   0.747   2.903
 8860SOL     OW27478   5.987   0.073   2.531
 8860SOL    HW127479   5.939   0.160   2.541
 8860SOL    HW227480   5.921   6.999   2.523
 8861SOL     OW27481   0.155   0.518   2.173
 8861SOL    HW127482   0.117   0.426   2.161
 8861SOL    HW227483   0.134   0.551   2.265
 8862SOL     OW27484   6.621   0.790   2.825
 8862SOL    HW127485   6.607   0.794   2.924
 8862SOL    HW227486   6.585   0.704   2.789
 8863SOL     OW27487   6.540   1.620   3.519
 8863SOL    HW127488   6.532   1.649   3.424
 8863SOL    HW227489   6.573   1.525   3.522
 8864SOL     OW27490   5.956   0.902   3.619
 8864SOL    HW127491   6.032   0.959   3.649
 8864SOL    HW227492   5.991   0.818   3.579
 8865SOL     OW27493   6.952   0.818   1.841
 8865SOL    HW127494   0.007   0.793   1.921
 8865SOL    HW227495   0.007   0.871   1.777
 8866SOL     OW27496   6.647   1.383   2.715
 8866SOL    HW127497   6.663   1.298   2.665
 8866SOL    HW227498   6.696   1.458   2.669
 8867SOL     OW27499   5.915   0.830   2.803
 8867SOL    HW127500   6.012   0.844   2.821
 8867SOL    HW227501   5.890   0.735   2.825
 8868SOL     OW27502   5.869   0.549   2.863
 8868SOL    HW127503   5.836   0.455   2.854
 8868SOL    HW227504   5.956   0.558   2.814
 8869SOL     OW27505   6.749   0.494   3.532
 8869SOL    HW127506   6.702   0.509   3.618
 8869SOL    HW227507   6.848   0.500   3.546
 8870SOL     OW27508   6.705   0.266   3.383
 8870SOL    HW127509   6.707   0.348   3.440
 8870SOL    HW227510   6.781   0.269   3.318
 8871SOL     OW27511   5.596   1.266   2.031
 8871SOL    HW127512   5.506   1.297   2.002
 8871SOL    HW227513   5.591   1.171   2.061
 8872SOL     OW27514   5.687   1.747   2.828
 8872SOL    HW127515   5.640   1.674   2.777
 8872SOL    HW227516   5.780   1.758   2.791
 8873SOL     OW27517   6.071   1.526   2.762
 8873SOL    HW127518   6.147   1.583   2.795
 8873SOL    HW227519   6.105   1.464   2.691
 8874SOL     OW27520   6.562   0.773   3.092
 8874SOL    HW127521   6.611   0.756   3.177
 8874SOL    HW227522   6.475   0.724   3.092
 8875SOL     OW27523   5.618   0.589   2.993
 8875SOL    HW127524   5.697   0.588   2.932
 8875SOL    HW227525   5.647   0.568   3.086
 8876SOL     OW27526   5.789   0.628   3.561
 8876SOL    HW127527   5.885   0.638   3.536
 8876SOL    HW227528   5.733   0.689   3.505
 8877SOL     OW27529   6.375   0.584   2.219
 8877SOL    HW127530   6.404   0.512   2.155
 8877SOL    HW227531   6.290   0.625   2.185
 8878SOL     OW27532   5.796   1.558   3.559
 8878SOL    HW127533   5.766   1.637   3.613
 8878SOL    HW227534   5.790   1.475   3.615
 8879SOL     OW27535   6.375   0.467   3.102
 8879SOL    HW127536   6.320   0.385   3.090
 8879SOL    HW227537   6.351   0.535   3.032
 8880SOL     OW27538   6.510   1.691   3.258
 8880SOL    HW127539   6.486   1.638   3.177
 8880SOL    HW227540   6.511   1.788   3.236
 8881SOL     OW27541   6.004   0.471   2.022
 8881SOL    HW127542   6.080   0.534   2.038
 8881SOL    HW227543   5.917   0.518   2.039
 8882SOL     OW27544   5.721   1.132   3.347
 8882SOL    HW127545   5.726   1.105   3.443
 8882SOL    HW227546   5.752   1.057   3.289
 8883SOL     OW27547   6.859   1.077   3.035
 8883SOL    HW127548   6.875   1.011   2.961
 8883SOL    HW227549   6.835   1.166   2.997
 8884SOL     OW27550   6.894   0.878   2.211
 8884SOL    HW127551   6.870   0.885   2.308
 8884SOL    HW227552   6.867   0.787   2.177
 8885SOL     OW27553   6.891   1.814   2.962
 8885SOL    HW127554   6.971   1.797   2.906
 8885SOL    HW227555   6.871   1.734   3.018
 8886SOL     OW27556   5.705   1.209   2.877
 8886SOL    HW127557   5.677   1.236   2.969
 8886SOL    HW227558   5.630   1.163   2.831
 8887SOL     OW27559   6.297   1.691   3.626
 8887SOL    HW127560   6.251   1.769   3.585
 8887SOL    HW227561   6.388   1.680   3.586
 8888SOL     OW27562   0.018   1.636   2.391
 8888SOL    HW127563   0.105   1.679   2.367
 8888SOL    HW227564   6.943   1.702   2.379
 8889SOL     OW27565   5.711   1.794   3.681
 8889SOL    HW127566   5.651   1.727   3.725
 8889SOL    HW227567   5.765   1.841   3.751
 8890SOL     OW27568   6.888   0.965   2.495
 8890SOL    HW127569   6.957   0.910   2.540
 8890SOL    HW227570   6.928   1.052   2.466
 8891SOL     OW27571   6.329   1.287   3.315
 8891SOL    HW127572   6.309   1.335   3.400
 8891SOL    HW227573   6.251   1.296   3.252
 8892SOL     OW27574   6.249   1.688   2.022
 8892SOL    HW127575   6.272   1.686   1.925
 8892SOL    HW227576   6.196   1.606   2.046
 8893SOL     OW27577   5.839   0.303   2.581
 8893SOL    HW127578   5.758   0.353   2.551
 8893SOL    HW227579   5.839   0.297   2.681
 8894SOL     OW27580   6.730   1.566   1.877
 8894SOL    HW127581   6.725   1.473   1.841
 8894SOL    HW227582   6.678   1.627   1.817
 8895SOL     OW27583   6.405   1.026   3.280
 8895SOL    HW127584   6.462   1.023   3.198
 8895SOL    HW227585   6.375   1.120   3.296
 8896SOL     OW27586   6.547   0.912   2.072
 8896SOL    HW127587   6.628   0.960   2.039
 8896SOL    HW227588   6.573   0.852   2.148
 8897SOL     OW27589   5.932   1.326   3.345
 8897SOL    HW127590   5.914   1.407   3.288
 8897SOL    HW227591   5.856   1.262   3.337
 8898SOL     OW27592   6.674   1.140   2.601
 8898SOL    HW127593   6.596   1.088   2.636
 8898SOL    HW227594   6.742   1.076   2.563
 8899SOL     OW27595   6.587   0.313   2.821
 8899SOL    HW127596   6.566   0.266   2.736
 8899SOL    HW227597   6.564   0.254   2.898
 8900SOL     OW27598   6.239   1.483   2.327
 8900SOL    HW127599   6.305   1.421   2.285
 8900SOL    HW227600   6.162   1.498   2.265
 8901SOL     OW27601   5.844   1.340   2.125
 8901SOL    HW127602   5.751   1.316   2.098
 8901SOL    HW227603   5.842   1.395   2.208
 8902SOL     OW27604   5.724   1.052   3.606
 8902SOL    HW127605   5.644   1.019   3.656
 8902SOL    HW227606   5.801   0.990   3.621
 8903SOL     OW27607   6.304   0.252   3.411
 8903SOL    HW127608   6.370   0.230   3.340
 8903SOL    HW227609   6.343   0.320   3.473
 8904SOL     OW27610   5.632   0.320   1.921
 8904SOL    HW127611   5.576   0.323   1.839
 8904SOL    HW227612   5.617   0.403   1.975
 8905SOL     OW27613   5.646   0.127   2.121
 8905SOL    HW127614   5.641   0.192   2.045
 8905SOL    HW227615   5.619   0.037   2.089
 8906SOL     OW27616   6.234   0.819   3.335
 8906SOL    HW127617   6.289   0.902   3.322
 8906SOL    HW227618   6.294   0.739   3.340
 8907SOL     OW27619   6.391   0.461   3.583
 8907SOL    HW127620   6.399   0.545   3.636
 8907SOL    HW227621   6.404   0.382   3.642
 8908SOL     OW27622   6.958   1.221   3.484
 8908SOL    HW127623   6.978   1.194   3.579
 8908SOL    HW227624   0.036   1.198   3.426
 8909SOL     OW27625   5.930   1.778   3.436
 8909SOL    HW127626   5.849   1.834   3.422
 8909SOL    HW227627   5.903   1.687   3.468
 8910SOL     OW27628   6.859   0.388   2.274
 8910SOL    HW127629   6.919   0.340   2.210
 8910SOL    HW227630   6.898   0.382   2.366
 8911SOL     OW27631   6.172   0.725   2.529
 8911SOL    HW127632   6.224   0.808   2.509
 8911SOL    HW227633   6.104   0.711   2.457
 8912SOL     OW27634   6.305   1.344   1.964
 8912SOL    HW127635   6.357   1.334   2.049
 8912SOL    HW227636   6.362   1.386   1.894
 8913SOL     OW27637   6.272   1.704   2.812
 8913SOL    HW127638   6.234   1.796   2.807
 8913SOL    HW227639   6.371   1.709   2.815
 8914SOL     OW27640   6.461   1.005   2.729
 8914SOL    HW127641   6.515   0.930   2.767
 8914SOL    HW227642   6.405   1.046   2.801
 8915SOL     OW27643   6.754   1.028   1.897
 8915SOL    HW127644   6.673   1.056   1.845
 8915SOL    HW227645   6.786   0.939   1.863
 8916SOL     OW27646   5.759   1.311   3.691
 8916SOL    HW127647   5.742   1.220   3.653
 8916SOL    HW227648   5.708   1.321   3.777
 8917SOL     OW27649   5.764   1.253   2.521
 8917SOL    HW127650   5.796   1.207   2.603
 8917SOL    HW227651   5.803   1.208   2.440
 8918SOL     OW27652   6.265   1.418   3.560
 8918SOL    HW127653   6.170   1.388   3.571
 8918SOL    HW227654   6.271   1.516   3.578
 8919SOL     OW27655   5.980   0.402   2.362
 8919SOL    HW127656   6.021   0.328   2.308
 8919SOL    HW227657   5.938   0.364   2.445
 8920SOL     OW27658   5.959   0.565   3.138
 8920SOL    HW127659   6.026   0.508   3.186
 8920SOL    HW227660   5.953   0.536   3.043
 8921SOL     OW27661   6.397   1.590   2.536
 8921SOL    HW127662   6.348   1.590   2.448
 8921SOL    HW227663   6.343   1.539   2.603
 8922SOL     OW27664   6.975   0.185   2.983
 8922SOL    HW127665   0.004   0.094   3.013
 8922SOL    HW227666   6.947   0.238   3.063
 8923SOL     OW27667   6.535   0.082   2.963
 8923SOL    HW127668   6.519   0.061   2.867
 8923SOL    HW227669   6.563   6.999   3.011
 8924SOL     OW27670   6.415   1.307   2.211
 8924SOL    HW127671   6.396   1.210   2.223
 8924SOL    HW227672   6.499   1.331   2.258
 8925SOL     OW27673   6.186   1.591   3.156
 8925SOL    HW127674   6.183   1.680   3.202
 8925SOL    HW227675   6.275   1.580   3.112
 8926SOL     OW27676   5.610   1.007   2.154
 8926SOL    HW127677   5.707   0.990   2.139
 8926SOL    HW227678   5.564   0.920   2.174
 8927SOL     OW27679   6.466   1.722   2.202
 8927SOL    HW127680   6.389   1.704   2.142
 8927SOL    HW227681   6.449   1.805   2.254
 8928SOL     OW27682   5.800   0.655   3.842
 8928SOL    HW127683   5.712   0.621   3.875
 8928SOL    HW227684   5.797   0.664   3.742
 8929SOL     OW27685   5.808   0.307   4.759
 8929SOL    HW127686   5.861   0.266   4.833
 8929SOL    HW227687   5.725   0.252   4.743
 8930SOL     OW27688   5.616   0.442   4.376
 8930SOL    HW127689   5.530   0.451   4.426
 8930SOL    HW227690   5.598   0.405   4.285
 8931SOL     OW27691   6.142   1.314   4.955
 8931SOL    HW127692   6.058   1.313   4.901
 8931SOL    HW227693   6.160   1.408   4.986
 8932SOL     OW27694   0.056   1.552   4.494
 8932SOL    HW127695   0.099   1.462   4.502
 8932SOL    HW227696   0.041   1.574   4.398
 8933SOL     OW27697   6.670   0.800   4.410
 8933SOL    HW127698   6.749   0.861   4.396
 8933SOL    HW227699   6.656   0.787   4.508
 8934SOL     OW27700   6.294   1.137   4.793
 8934SOL    HW127701   6.235   1.175   4.865
 8934SOL    HW227702   6.337   1.212   4.742
 8935SOL     OW27703   6.458   0.758   5.584
 8935SOL    HW127704   6.465   0.815   5.666
 8935SOL    HW227705   6.468   0.817   5.503
 8936SOL     OW27706   6.307   0.951   4.360
 8936SOL    HW127707   6.370   0.959   4.437
 8936SOL    HW227708   6.229   1.011   4.374
 8937SOL     OW27709   6.181   1.105   5.578
 8937SOL    HW127710   6.265   1.155   5.597
 8937SOL    HW227711   6.121   1.162   5.522
 8938SOL     OW27712   5.919   1.390   4.800
 8938SOL    HW127713   5.843   1.335   4.764
 8938SOL    HW227714   5.965   1.437   4.724
 8939SOL     OW27715   6.057   0.350   5.185
 8939SOL    HW127716   6.136   0.307   5.228
 8939SOL    HW227717   5.973   0.303   5.214
 8940SOL     OW27718   5.820   1.734   4.181
 8940SOL    HW127719   5.837   1.801   4.253
 8940SOL    HW227720   5.892   1.741   4.111
 8941SOL     OW27721   6.747   1.371   5.391
 8941SOL    HW127722   6.831   1.326   5.361
 8941SOL    HW227723   6.681   1.303   5.421
 8942SOL     OW27724   5.910   1.477   4.230
 8942SOL    HW127725   5.865   1.566   4.227
 8942SOL    HW227726   5.864   1.418   4.297
 8943SOL     OW27727   5.901   1.101   4.589
 8943SOL    HW127728   5.910   1.005   4.614
 8943SOL    HW227729   5.835   1.146   4.650
 8944SOL     OW27730   6.169   1.776   5.232
 8944SOL    HW127731   6.073   1.781   5.259
 8944SOL    HW227732   6.204   1.869   5.218
 8945SOL     OW27733   6.140   0.946   3.936
 8945SOL    HW127734   6.142   0.994   3.849
 8945SOL    HW227735   6.208   0.986   3.998
 8946SOL     OW27736   5.713   0.697   4.313
 8946SOL    HW127737   5.691   0.605   4.344
 8946SOL    HW227738   5.707   0.760   4.391
 8947SOL     OW27739   5.587   1.589   3.804
 8947SOL    HW127740   5.518   1.517   3.804
 8947SOL    HW227741   5.590   1.632   3.894
 8948SOL     OW27742   5.666   0.796   5.291
 8948SOL    HW127743   5.705   0.867   5.350
 8948SOL    HW227744   5.586   0.833   5.243
 8949SOL     OW27745   6.211   1.361   4.441
 8949SOL    HW127746   6.175   1.268   4.435
 8949SOL    HW227747   6.202   1.406   4.352
 8950SOL     OW27748   6.772   1.162   5.127
 8950SOL    HW127749   6.817   1.116   5.050
 8950SOL    HW227750   6.835   1.170   5.203
 8951SOL     OW27751   6.441   0.041   4.194
 8951SOL    HW127752   6.493   0.125   4.181
 8951SOL    HW227753   6.345   0.064   4.211
 8952SOL     OW27754   5.795   0.952   5.013
 8952SOL    HW127755   5.885   0.908   5.012
 8952SOL    HW227756   5.742   0.922   4.935
 8953SOL     OW27757   6.850   1.858   5.311
 8953SOL    HW127758   6.805   1.927   5.254
 8953SOL    HW227759   6.822   1.767   5.282
 8954SOL     OW27760   5.893   0.284   5.548
 8954SOL    HW127761   5.951   0.354   5.591
 8954SOL    HW227762   5.800   0.292   5.583
 8955SOL     OW27763   6.151   0.677   4.008
 8955SOL    HW127764   6.154   0.770   3.972
 8955SOL    HW227765   6.086   0.672   4.083
 8956SOL     OW27766   6.857   0.367   4.629
 8956SOL    HW127767   6.758   0.359   4.625
 8956SOL    HW227768   6.895   0.291   4.681
 8957SOL     OW27769   6.367   0.587   5.206
 8957SOL    HW127770   6.335   0.545   5.291
 8957SOL    HW227771   6.357   0.522   5.131
 8958SOL     OW27772   6.993   0.556   5.477
 8958SOL    HW127773   6.953   0.643   5.506
 8958SOL    HW227774   0.092   0.560   5.485
 8959SOL     OW27775   6.523   0.910   5.358
 8959SOL    HW127776   6.578   0.836   5.320
 8959SOL    HW227777   6.469   0.953   5.285
 8960SOL     OW27778   6.647   0.384   4.926
 8960SOL    HW127779   6.558   0.415   4.958
 8960SOL    HW227780   6.640   0.353   4.831
 8961SOL     OW27781   6.591   0.744   4.155
 8961SOL    HW127782   6.609   0.762   4.252
 8961SOL    HW227783   6.511   0.686   4.146
 8962SOL     OW27784   5.682   0.868   4.524
 8962SOL    HW127785   5.770   0.855   4.570
 8962SOL    HW227786   5.625   0.931   4.578
 8963SOL     OW27787   5.676   1.918   5.329
 8963SOL    HW127788   5.678   1.877   5.421
 8963SOL    HW227789   5.582   1.922   5.296
 8964SOL     OW27790   6.501   0.388   3.925
 8964SOL    HW127791   6.564   0.450   3.878
 8964SOL    HW227792   6.464   0.322   3.859
 8965SOL     OW27793   6.996   1.200   4.267
 8965SOL    HW127794   0.030   1.158   4.183
 8965SOL    HW227795   6.929   1.271   4.244
 8966SOL     OW27796   6.110   0.235   4.674
 8966SOL    HW127797   6.157   0.240   4.762
 8966SOL    HW227798   6.114   0.324   4.629
 8967SOL     OW27799   6.567   1.476   4.185
 8967SOL    HW127800   6.536   1.548   4.123
 8967SOL    HW227801   6.526   1.489   4.275
 8968SOL     OW27802   5.945   1.780   4.609
 8968SOL    HW127803   5.983   1.687   4.606
 8968SOL    HW227804   6.014   1.842   4.647
 8969SOL     OW27805   6.785   1.600   5.226
 8969SOL    HW127806   6.764   1.524   5.286
 8969SOL    HW227807   6.706   1.620   5.168
 8970SOL     OW27808   5.872   0.899   3.979
 8970SOL    HW127809   5.969   0.918   3.960
 8970SOL    HW227810   5.846   0.814   3.935
 8971SOL     OW27811   6.021   1.302   5.459
 8971SOL    HW127812   6.001   1.312   5.362
 8971SOL    HW227813   5.935   1.291   5.510
 8972SOL     OW27814   6.715   1.739   3.974
 8972SOL    HW127815   6.618   1.728   3.998
 8972SOL    HW227816   6.737   1.680   3.896
 8973SOL     OW27817   5.826   0.221   5.281
 8973SOL    HW127818   5.748   0.276   5.251
 8973SOL    HW227819   5.850   0.247   5.375
 8974SOL     OW27820   6.042   1.775   4.020
 8974SOL    HW127821   6.087   1.822   4.096
 8974SOL    HW227822   6.109   1.717   3.972
 8975SOL     OW27823   5.796   1.798   4.940
 8975SOL    HW127824   5.845   1.718   4.975
 8975SOL    HW227825   5.761   1.779   4.848
 8976SOL     OW27826   6.536   1.703   4.586
 8976SOL    HW127827   6.627   1.662   4.582
 8976SOL    HW227828   6.476   1.659   4.519
 8977SOL     OW27829   5.975   0.655   4.216
 8977SOL    HW127830   5.969   0.555   4.217
 8977SOL    HW227831   5.885   0.693   4.240
 8978SOL     OW27832   6.209   0.077   3.827
 8978SOL    HW127833   6.246   0.004   3.885
 8978SOL    HW227834   6.146   0.038   3.760
 8979SOL     OW27835   6.379   0.251   5.555
 8979SOL    HW127836   6.462   0.201   5.531
 8979SOL    HW227837   6.316   0.191   5.605
 8980SOL     OW27838   6.427   1.511   4.909
 8980SOL    HW127839   6.396   1.481   4.819
 8980SOL    HW227840   6.481   1.438   4.951
 8981SOL     OW27841   6.380   1.366   4.664
 8981SOL    HW127842   6.473   1.373   4.628
 8981SOL    HW227843   6.315   1.360   4.588
 8982SOL     OW27844   6.505   0.535   4.595
 8982SOL    HW127845   6.494   0.525   4.496
 8982SOL    HW227846   6.525   0.446   4.636
 8983SOL     OW27847   6.175   0.100   4.213
 8983SOL    HW127848   6.100   0.082   4.276
 8983SOL    HW227849   6.143   0.156   4.137
 8984SOL     OW27850   0.024   1.123   3.750
 8984SOL    HW127851   0.062   1.108   3.841
 8984SOL    HW227852   6.928   1.095   3.750
 8985SOL     OW27853   5.884   0.016   4.019
 8985SOL    HW127854   5.945   0.095   4.025
 8985SOL    HW227855   5.796   0.038   4.061
 8986SOL     OW27856   6.605   0.266   4.148
 8986SOL    HW127857   6.560   0.304   4.067
 8986SOL    HW227858   6.697   0.304   4.156
 8987SOL     OW27859   6.618   0.684   5.225
 8987SOL    HW127860   6.525   0.649   5.219
 8987SOL    HW227861   6.676   0.619   5.274
 8988SOL     OW27862   6.777   1.600   4.484
 8988SOL    HW127863   6.776   1.658   4.402
 8988SOL    HW227864   6.871   1.581   4.510
 8989SOL     OW27865   6.090   1.119   4.393
 8989SOL    HW127866   6.027   1.110   4.470
 8989SOL    HW227867   6.039   1.111   4.307
 8990SOL     OW27868   6.776   1.778   4.255
 8990SOL    HW127869   6.747   1.772   4.159
 8990SOL    HW227870   6.718   1.843   4.303
 8991SOL     OW27871   6.658   0.563   3.784
 8991SOL    HW127872   6.598   0.641   3.762
 8991SOL    HW227873   6.721   0.590   3.857
 8992SOL     OW27874   5.708   0.591   5.110
 8992SOL    HW127875   5.806   0.580   5.089
 8992SOL    HW227876   5.696   0.665   5.176
 8993SOL     OW27877   6.210   0.234   4.938
 8993SOL    HW127878   6.267   0.188   5.007
 8993SOL    HW227879   6.113   0.225   4.963
 8994SOL     OW27880   6.489   0.453   4.333
 8994SOL    HW127881   6.434   0.505   4.268
 8994SOL    HW227882   6.531   0.376   4.285
 8995SOL     OW27883   6.565   6.992   4.448
 8995SOL    HW127884   6.513   7.000   4.363
 8995SOL    HW227885   6.584   6.895   4.467
 8996SOL     OW27886   6.084   1.414   3.857
 8996SOL    HW127887   6.012   1.378   3.916
 8996SOL    HW227888   6.069   1.381   3.763
 8997SOL     OW27889   6.059   0.235   3.998
 8997SOL    HW127890   6.120   0.186   3.934
 8997SOL    HW227891   6.036   0.325   3.960
 8998SOL     OW27892   6.562   1.302   5.028
 8998SOL    HW127893   6.478   1.288   5.082
 8998SOL    HW227894   6.638   1.255   5.072
 8999SOL     OW27895   6.734   1.292   4.808
 8999SOL    HW127896   6.665   1.295   4.881
 8999SOL    HW227897   6.693   1.322   4.722
 9000SOL     OW27898   6.464   0.183   5.105
 9000SOL    HW127899   6.484   0.155   5.011
 9000SOL    HW227900   6.548   0.214   5.150
 9001SOL     OW27901   6.588   1.156   5.477
 9001SOL    HW127902   6.516   1.192   5.535
 9001SOL    HW227903   6.555   1.074   5.430
 9002SOL     OW27904   6.349   1.042   4.094
 9002SOL    HW127905   6.343   1.003   4.186
 9002SOL    HW227906   6.425   0.999   4.044
 9003SOL     OW27907   6.034   0.812   5.008
 9003SOL    HW127908   6.095   0.827   5.085
 9003SOL    HW227909   6.004   0.717   5.006
 9004SOL     OW27910   6.892   0.325   5.035
 9004SOL    HW127911   6.946   0.405   5.060
 9004SOL    HW227912   6.805   0.355   4.996
 9005SOL     OW27913   5.634   1.546   5.069
 9005SOL    HW127914   5.584   1.615   5.016
 9005SOL    HW227915   5.732   1.564   5.062
 9006SOL     OW27916   5.918   1.106   4.174
 9006SOL    HW127917   5.915   1.180   4.106
 9006SOL    HW227918   5.901   1.019   4.129
 9007SOL     OW27919   6.129   0.516   4.605
 9007SOL    HW127920   6.142   0.568   4.520
 9007SOL    HW227921   6.195   0.547   4.673
 9008SOL     OW27922   6.839   1.412   4.184
 9008SOL    HW127923   6.886   1.496   4.210
 9008SOL    HW227924   6.740   1.427   4.185
 9009SOL     OW27925   6.861   1.532   4.885
 9009SOL    HW127926   6.923   1.521   4.963
 9009SOL    HW227927   6.825   1.443   4.859
 9010SOL     OW27928   5.910   1.554   5.015
 9010SOL    HW127929   5.904   1.493   4.936
 9010SOL    HW227930   6.006   1.572   5.036
 9011SOL     OW27931   6.073   0.692   5.413
 9011SOL    HW127932   6.112   0.745   5.338
 9011SOL    HW227933   6.141   0.625   5.446
 9012SOL     OW27934   6.604   0.111   5.459
 9012SOL    HW127935   6.639   0.163   5.381
 9012SOL    HW227936   6.596   0.015   5.434
 9013SOL     OW27937   5.993   0.027   5.527
 9013SOL    HW127938   5.912   6.968   5.533
 9013SOL    HW227939   5.964   0.123   5.531
 9014SOL     OW27940   6.175   0.881   4.780
 9014SOL    HW127941   6.214   0.974   4.782
 9014SOL    HW227942   6.125   0.865   4.865
 9015SOL     OW27943   6.894   0.833   4.723
 9015SOL    HW127944   6.800   0.797   4.718
 9015SOL    HW227945   6.948   0.775   4.784
 9016SOL     OW27946   6.792   0.623   4.021
 9016SOL    HW127947   6.818   0.536   4.064
 9016SOL    HW227948   6.716   0.664   4.072
 9017SOL     OW27949   5.937   0.165   4.960
 9017SOL    HW127950   5.903   0.128   5.047
 9017SOL    HW227951   5.949   0.090   4.895
 9018SOL     OW27952   5.641   1.285   4.985
 9018SOL    HW127953   5.668   1.228   5.062
 9018SOL    HW227954   5.630   1.380   5.015
 9019SOL     OW27955   6.314   0.639   4.770
 9019SOL    HW127956   6.379   0.625   4.695
 9019SOL    HW227957   6.272   0.730   4.760
 9020SOL     OW27958   5.933   0.079   4.349
 9020SOL    HW127959   5.903   0.160   4.400
 9020SOL    HW227960   5.874   0.002   4.371
 9021SOL     OW27961   0.159   0.545   4.036
 9021SOL    HW127962   0.120   0.453   4.030
 9021SOL    HW227963   0.136   0.585   4.125
 9022SOL     OW27964   6.618   0.765   4.691
 9022SOL    HW127965   6.598   0.770   4.789
 9022SOL    HW227966   6.585   0.677   4.656
 9023SOL     OW27967   6.501   1.598   5.354
 9023SOL    HW127968   6.517   1.633   5.261
 9023SOL    HW227969   6.478   1.501   5.349
 9024SOL     OW27970   5.950   0.907   5.542
 9024SOL    HW127971   6.022   0.956   5.591
 9024SOL    HW227972   5.989   0.825   5.500
 9025SOL     OW27973   6.960   0.801   3.699
 9025SOL    HW127974   0.020   0.790   3.779
 9025SOL    HW227975   0.008   0.853   3.629
 9026SOL     OW27976   6.632   1.378   4.567
 9026SOL    HW127977   6.649   1.293   4.517
 9026SOL    HW227978   6.687   1.452   4.527
 9027SOL     OW27979   5.922   0.833   4.664
 9027SOL    HW127980   6.018   0.850   4.689
 9027SOL    HW227981   5.899   0.738   4.686
 9028SOL     OW27982   5.888   0.560   4.724
 9028SOL    HW127983   5.845   0.470   4.735
 9028SOL    HW227984   5.973   0.550   4.673
 9029SOL     OW27985   6.741   0.492   5.388
 9029SOL    HW127986   6.693   0.507   5.474
 9029SOL    HW227987   6.839   0.507   5.402
 9030SOL     OW27988   6.693   0.263   5.243
 9030SOL    HW127989   6.703   0.348   5.296
 9030SOL    HW227990   6.766   0.258   5.175
 9031SOL     OW27991   5.614   1.278   3.925
 9031SOL    HW127992   5.524   1.318   3.907
 9031SOL    HW227993   5.603   1.183   3.953
 9032SOL     OW27994   5.686   1.749   4.689
 9032SOL    HW127995   5.640   1.675   4.640
 9032SOL    HW227996   5.778   1.762   4.651
 9033SOL     OW27997   6.070   1.531   4.615
 9033SOL    HW127998   6.145   1.587   4.650
 9033SOL    HW227999   6.106   1.466   4.548
 9034SOL     OW28000   6.546   0.760   4.956
 9034SOL    HW128001   6.593   0.746   5.043
 9034SOL    HW228002   6.460   0.709   4.956
 9035SOL     OW28003   5.637   0.632   4.848
 9035SOL    HW128004   5.719   0.617   4.793
 9035SOL    HW228005   5.657   0.619   4.945
 9036SOL     OW28006   5.807   0.628   5.469
 9036SOL    HW128007   5.903   0.639   5.442
 9036SOL    HW228008   5.748   0.674   5.403
 9037SOL     OW28009   6.387   0.571   4.101
 9037SOL    HW128010   6.418   0.502   4.035
 9037SOL    HW228011   6.300   0.610   4.070
 9038SOL     OW28012   5.785   1.543   5.446
 9038SOL    HW128013   5.754   1.611   5.513
 9038SOL    HW228014   5.787   1.453   5.489
 9039SOL     OW28015   6.372   0.457   4.961
 9039SOL    HW128016   6.314   0.375   4.952
 9039SOL    HW228017   6.346   0.523   4.891
 9040SOL     OW28018   6.549   1.677   5.097
 9040SOL    HW128019   6.509   1.627   5.021
 9040SOL    HW228020   6.538   1.775   5.082
 9041SOL     OW28021   6.013   0.477   3.867
 9041SOL    HW128022   6.086   0.534   3.906
 9041SOL    HW228023   5.929   0.530   3.860
 9042SOL     OW28024   5.717   1.130   5.202
 9042SOL    HW128025   5.725   1.092   5.294
 9042SOL    HW228026   5.747   1.061   5.135
 9043SOL     OW28027   6.870   1.064   4.886
 9043SOL    HW128028   6.875   0.987   4.822
 9043SOL    HW228029   6.817   1.138   4.846
 9044SOL     OW28030   6.904   0.875   4.085
 9044SOL    HW128031   6.873   0.887   4.180
 9044SOL    HW228032   6.876   0.785   4.052
 9045SOL     OW28033   6.878   1.794   4.819
 9045SOL    HW128034   6.956   1.793   4.756
 9045SOL    HW228035   6.861   1.702   4.853
 9046SOL     OW28036   5.704   1.220   4.732
 9046SOL    HW128037   5.679   1.244   4.825
 9046SOL    HW228038   5.630   1.170   4.688
 9047SOL     OW28039   6.278   1.688   5.475
 9047SOL    HW128040   6.225   1.732   5.403
 9047SOL    HW228041   6.371   1.672   5.442
 9048SOL     OW28042   0.004   1.631   4.242
 9048SOL    HW128043   0.089   1.676   4.213
 9048SOL    HW228044   6.930   1.698   4.238
 9049SOL     OW28045   5.701   1.792   5.570
 9049SOL    HW128046   5.646   1.722   5.616
 9049SOL    HW228047   5.759   1.839   5.637
 9050SOL     OW28048   6.880   0.971   4.363
 9050SOL    HW128049   6.948   0.917   4.411
 9050SOL    HW228050   6.920   1.058   4.334
 9051SOL     OW28051   6.324   1.271   5.163
 9051SOL    HW128052   6.303   1.321   5.247
 9051SOL    HW228053   6.248   1.281   5.099
 9052SOL     OW28054   6.239   1.635   3.886
 9052SOL    HW128055   6.263   1.658   3.792
 9052SOL    HW228056   6.188   1.549   3.888
 9053SOL     OW28057   5.837   0.304   4.472
 9053SOL    HW128058   5.757   0.357   4.446
 9053SOL    HW228059   5.847   0.306   4.572
 9054SOL     OW28060   6.743   1.590   3.730
 9054SOL    HW128061   6.747   1.502   3.683
 9054SOL    HW228062   6.681   1.652   3.682
 9055SOL     OW28063   6.395   1.009   5.138
 9055SOL    HW128064   6.450   0.999   5.055
 9055SOL    HW228065   6.368   1.105   5.149
 9056SOL     OW28066   6.558   0.923   3.950
 9056SOL    HW128067   6.643   0.964   3.916
 9056SOL    HW228068   6.580   0.860   4.024
 9057SOL     OW28069   5.928   1.327   5.208
 9057SOL    HW128070   5.911   1.405   5.148
 9057SOL    HW228071   5.854   1.260   5.196
 9058SOL     OW28072   6.663   1.133   4.461
 9058SOL    HW128073   6.588   1.078   4.500
 9058SOL    HW228074   6.731   1.072   4.422
 9059SOL     OW28075   6.582   0.275   4.669
 9059SOL    HW128076   6.575   0.236   4.577
 9059SOL    HW228077   6.549   0.208   4.736
 9060SOL     OW28078   6.190   1.482   4.198
 9060SOL    HW128079   6.227   1.430   4.121
 9060SOL    HW228080   6.090   1.484   4.192
 9061SOL     OW28081   5.875   1.323   4.009
 9061SOL    HW128082   5.780   1.314   3.980
 9061SOL    HW228083   5.881   1.387   4.086
 9062SOL     OW28084   5.721   1.021   5.456
 9062SOL    HW128085   5.641   1.003   5.514
 9062SOL    HW228086   5.802   0.979   5.498
 9063SOL     OW28087   6.274   0.214   5.295
 9063SOL    HW128088   6.347   0.206   5.227
 9063SOL    HW228089   6.312   0.245   5.382
 9064SOL     OW28090   5.684   0.376   3.598
 9064SOL    HW128091   5.586   0.379   3.581
 9064SOL    HW228092   5.722   0.469   3.592
 9065SOL     OW28093   5.601   0.060   4.040
 9065SOL    HW128094   5.598   0.137   3.977
 9065SOL    HW228095   5.590   6.975   3.989
 9066SOL     OW28096   6.217   0.814   5.208
 9066SOL    HW128097   6.274   0.894   5.190
 9066SOL    HW228098   6.273   0.731   5.206
 9067SOL     OW28099   6.306   0.534   5.475
 9067SOL    HW128100   6.354   0.607   5.524
 9067SOL    HW228101   6.325   0.447   5.519
 9068SOL     OW28102   6.961   1.205   5.335
 9068SOL    HW128103   6.979   1.185   5.431
 9068SOL    HW228104   0.040   1.178   5.279
 9069SOL     OW28105   5.913   1.772   5.330
 9069SOL    HW128106   5.832   1.828   5.312
 9069SOL    HW228107   5.885   1.682   5.363
 9070SOL     OW28108   6.854   0.385   4.155
 9070SOL    HW128109   6.925   0.340   4.101
 9070SOL    HW228110   6.889   0.405   4.246
 9071SOL     OW28111   6.176   0.698   4.403
 9071SOL    HW128112   6.229   0.780   4.383
 9071SOL    HW228113   6.105   0.687   4.333
 9072SOL     OW28114   6.370   1.250   3.758
 9072SOL    HW128115   6.364   1.283   3.853
 9072SOL    HW228116   6.339   1.322   3.696
 9073SOL     OW28117   6.265   1.707   4.683
 9073SOL    HW128118   6.231   1.801   4.687
 9073SOL    HW228119   6.364   1.708   4.673
 9074SOL     OW28120   6.463   0.988   4.597
 9074SOL    HW128121   6.514   0.911   4.634
 9074SOL    HW228122   6.406   1.028   4.669
 9075SOL     OW28123   6.775   1.017   3.772
 9075SOL    HW128124   6.705   1.061   3.715
 9075SOL    HW228125   6.795   0.926   3.735
 9076SOL     OW28126   5.766   1.282   5.550
 9076SOL    HW128127   5.747   1.194   5.504
 9076SOL    HW228128   5.711   1.288   5.633
 9077SOL     OW28129   5.793   1.264   4.372
 9077SOL    HW128130   5.816   1.223   4.460
 9077SOL    HW228131   5.822   1.203   4.298
 9078SOL     OW28132   6.265   1.415   5.401
 9078SOL    HW128133   6.177   1.372   5.420
 9078SOL    HW228134   6.258   1.513   5.420
 9079SOL     OW28135   5.950   0.388   4.227
 9079SOL    HW128136   5.990   0.316   4.171
 9079SOL    HW228137   5.925   0.351   4.316
 9080SOL     OW28138   5.964   0.549   5.019
 9080SOL    HW128139   6.006   0.478   5.077
 9080SOL    HW228140   5.960   0.516   4.924
 9081SOL     OW28141   6.394   1.573   4.391
 9081SOL    HW128142   6.338   1.605   4.314
 9081SOL    HW228143   6.348   1.496   4.435
 9082SOL     OW28144   6.951   0.166   4.808
 9082SOL    HW128145   6.983   0.075   4.837
 9082SOL    HW228146   6.922   0.218   4.889
 9083SOL     OW28147   6.493   0.083   4.844
 9083SOL    HW128148   6.405   0.054   4.806
 9083SOL    HW228149   6.543   0.003   4.877
 9084SOL     OW28150   6.369   1.314   4.038
 9084SOL    HW128151   6.356   1.217   4.062
 9084SOL    HW228152   6.447   1.351   4.087
 9085SOL     OW28153   6.187   1.573   5.044
 9085SOL    HW128154   6.191   1.645   5.114
 9085SOL    HW228155   6.273   1.570   4.995
 9086SOL     OW28156   5.619   1.009   4.028
 9086SOL    HW128157   5.714   0.992   4.001
 9086SOL    HW228158   5.574   0.922   4.050
 9087SOL     OW28159   6.458   1.689   4.048
 9087SOL    HW128160   6.378   1.662   3.995
 9087SOL    HW228161   6.433   1.764   4.110
 9088SOL     OW28162   5.787   0.654   5.740
 9088SOL    HW128163   5.698   0.617   5.766
 9088SOL    HW228164   5.796   0.655   5.641
 9089SOL     OW28165   5.754   0.374   6.609
 9089SOL    HW128166   5.791   0.341   6.696
 9089SOL    HW228167   5.686   0.308   6.575
 9090SOL     OW28168   5.582   0.443   6.221
 9090SOL    HW128169   5.499   0.464   6.273
 9090SOL    HW228170   5.562   0.374   6.152
 9091SOL     OW28171   6.184   1.275   6.807
 9091SOL    HW128172   6.092   1.295   6.775
 9091SOL    HW228173   6.185   1.277   6.907
 9092SOL     OW28174   0.047   1.565   6.350
 9092SOL    HW128175   0.093   1.476   6.350
 9092SOL    HW228176   0.037   1.596   6.255
 9093SOL     OW28177   6.688   0.777   6.262
 9093SOL    HW128178   6.766   0.839   6.250
 9093SOL    HW228179   6.668   0.767   6.359
 9094SOL     OW28180   6.335   1.128   6.620
 9094SOL    HW128181   6.282   1.154   6.701
 9094SOL    HW228182   6.359   1.209   6.568
 9095SOL     OW28183   6.300   0.937   6.227
 9095SOL    HW128184   6.370   0.948   6.297
 9095SOL    HW228185   6.226   1.002   6.244
 9096SOL     OW28186   5.945   1.362   6.673
 9096SOL    HW128187   5.864   1.313   6.640
 9096SOL    HW228188   5.985   1.414   6.598
 9097SOL     OW28189   5.831   1.744   6.057
 9097SOL    HW128190   5.851   1.811   6.128
 9097SOL    HW228191   5.902   1.747   5.987
 9098SOL     OW28192   5.886   1.473   6.088
 9098SOL    HW128193   5.855   1.568   6.093
 9098SOL    HW228194   5.845   1.420   6.162
 9099SOL     OW28195   5.899   1.090   6.456
 9099SOL    HW128196   5.922   0.998   6.488
 9099SOL    HW228197   5.837   1.134   6.521
 9100SOL     OW28198   6.192   1.899   6.989
 9100SOL    HW128199   6.112   1.856   0.030
 9100SOL    HW228200   6.242   1.950   0.058
 9101SOL     OW28201   6.136   0.956   5.798
 9101SOL    HW128202   6.155   1.009   5.715
 9101SOL    HW228203   6.199   0.984   5.870
 9102SOL     OW28204   5.682   0.699   6.182
 9102SOL    HW128205   5.656   0.603   6.193
 9102SOL    HW228206   5.698   0.739   6.271
 9103SOL     OW28207   5.597   1.579   5.699
 9103SOL    HW128208   5.531   1.504   5.700
 9103SOL    HW228209   5.597   1.625   5.788
 9104SOL     OW28210   6.195   1.368   6.289
 9104SOL    HW128211   6.161   1.274   6.288
 9104SOL    HW228212   6.183   1.408   6.198
 9105SOL     OW28213   6.760   1.222   6.976
 9105SOL    HW128214   6.829   1.218   6.903
 9105SOL    HW228215   6.803   1.250   0.061
 9106SOL     OW28216   6.427   0.048   6.039
 9106SOL    HW128217   6.480   0.131   6.023
 9106SOL    HW228218   6.335   0.072   6.072
 9107SOL     OW28219   5.672   0.998   6.879
 9107SOL    HW128220   5.747   0.961   6.824
 9107SOL    HW228221   5.587   0.951   6.855
 9108SOL     OW28222   6.141   0.686   5.871
 9108SOL    HW128223   6.144   0.778   5.831
 9108SOL    HW228224   6.072   0.684   5.944
 9109SOL     OW28225   6.804   0.385   6.442
 9109SOL    HW128226   6.718   0.435   6.453
 9109SOL    HW228227   6.841   0.363   6.533
 9110SOL     OW28228   6.399   0.556   0.069
 9110SOL    HW128229   6.337   0.618   0.117
 9110SOL    HW228230   6.355   0.525   6.985
 9111SOL     OW28231   6.516   0.309   6.786
 9111SOL    HW128232   6.435   0.361   6.813
 9111SOL    HW228233   6.504   0.273   6.694
 9112SOL     OW28234   6.586   0.738   6.013
 9112SOL    HW128235   6.613   0.750   6.108
 9112SOL    HW228236   6.504   0.681   6.009
 9113SOL     OW28237   5.707   0.805   6.433
 9113SOL    HW128238   5.800   0.820   6.465
 9113SOL    HW228239   5.651   0.885   6.456
 9114SOL     OW28240   5.704   1.816   0.062
 9114SOL    HW128241   5.655   1.731   0.077
 9114SOL    HW228242   5.731   1.823   6.966
 9115SOL     OW28243   6.474   0.399   5.771
 9115SOL    HW128244   6.542   0.456   5.725
 9115SOL    HW228245   6.430   0.339   5.704
 9116SOL     OW28246   0.005   1.186   6.128
 9116SOL    HW128247   0.041   1.152   6.041
 9116SOL    HW228248   6.939   1.259   6.111
 9117SOL     OW28249   6.063   0.227   6.517
 9117SOL    HW128250   6.087   0.321   6.492
 9117SOL    HW228251   6.044   0.174   6.434
 9118SOL     OW28252   6.572   1.469   6.050
 9118SOL    HW128253   6.548   1.540   5.984
 9118SOL    HW228254   6.526   1.486   6.137
 9119SOL     OW28255   5.944   1.782   6.480
 9119SOL    HW128256   5.980   1.689   6.480
 9119SOL    HW228257   6.012   1.845   6.518
 9120SOL     OW28258   5.868   0.904   5.859
 9120SOL    HW128259   5.961   0.925   5.831
 9120SOL    HW228260   5.841   0.815   5.821
 9121SOL     OW28261   6.719   1.724   5.788
 9121SOL    HW128262   6.630   1.712   5.834
 9121SOL    HW228263   6.715   1.685   5.696
 9122SOL     OW28264   6.050   1.777   5.890
 9122SOL    HW128265   6.098   1.829   5.961
 9122SOL    HW228266   6.117   1.721   5.839
 9123SOL     OW28267   5.808   1.821   6.810
 9123SOL    HW128268   5.865   1.740   6.825
 9123SOL    HW228269   5.766   1.815   6.719
 9124SOL     OW28270   6.532   1.695   6.426
 9124SOL    HW128271   6.624   1.656   6.413
 9124SOL    HW228272   6.469   1.652   6.362
 9125SOL     OW28273   5.956   0.669   6.075
 9125SOL    HW128274   5.950   0.569   6.074
 9125SOL    HW228275   5.866   0.707   6.096
 9126SOL     OW28276   6.208   0.085   5.697
 9126SOL    HW128277   6.247   0.008   5.748
 9126SOL    HW228278   6.130   0.053   5.643
 9127SOL     OW28279   6.372   1.468   6.750
 9127SOL    HW128280   6.394   1.457   6.653
 9127SOL    HW228281   6.303   1.400   6.777
 9128SOL     OW28282   6.387   1.360   6.489
 9128SOL    HW128283   6.478   1.370   6.450
 9128SOL    HW228284   6.319   1.360   6.416
 9129SOL     OW28285   6.540   0.487   6.464
 9129SOL    HW128286   6.516   0.487   6.366
 9129SOL    HW228287   6.522   0.397   6.503
 9130SOL     OW28288   6.175   0.122   6.112
 9130SOL    HW128289   6.102   0.106   6.180
 9130SOL    HW228290   6.136   0.170   6.033
 9131SOL     OW28291   0.015   1.125   5.604
 9131SOL    HW128292   0.055   1.107   5.695
 9131SOL    HW228293   6.918   1.101   5.605
 9132SOL     OW28294   5.888   0.028   5.940
 9132SOL    HW128295   5.955   0.100   5.918
 9132SOL    HW228296   5.797   0.058   5.913
 9133SOL     OW28297   6.577   0.282   5.999
 9133SOL    HW128298   6.534   0.320   5.917
 9133SOL    HW228299   6.674   0.305   6.000
 9134SOL     OW28300   6.773   1.605   6.324
 9134SOL    HW128301   6.771   1.666   6.245
 9134SOL    HW228302   6.867   1.592   6.354
 9135SOL     OW28303   6.087   1.116   6.258
 9135SOL    HW128304   6.025   1.105   6.336
 9135SOL    HW228305   6.035   1.112   6.173
 9136SOL     OW28306   6.770   1.791   6.106
 9136SOL    HW128307   6.743   1.800   6.010
 9136SOL    HW228308   6.718   1.855   6.161
 9137SOL     OW28309   6.644   0.566   5.635
 9137SOL    HW128310   6.581   0.641   5.617
 9137SOL    HW228311   6.706   0.592   5.710
 9138SOL     OW28312   6.106   0.266   6.793
 9138SOL    HW128313   6.110   0.239   6.697
 9138SOL    HW228314   6.010   0.273   6.822
 9139SOL     OW28315   6.475   0.448   6.202
 9139SOL    HW128316   6.414   0.506   6.149
 9139SOL    HW228317   6.515   0.378   6.143
 9140SOL     OW28318   6.620   6.984   6.229
 9140SOL    HW128319   6.542   6.992   6.168
 9140SOL    HW228320   6.627   6.890   6.263
 9141SOL     OW28321   6.081   1.418   5.717
 9141SOL    HW128322   6.007   1.383   5.774
 9141SOL    HW228323   6.070   1.384   5.623
 9142SOL     OW28324   6.063   0.238   5.879
 9142SOL    HW128325   6.123   0.188   5.817
 9142SOL    HW228326   6.036   0.325   5.837
 9143SOL     OW28327   0.261   1.598   0.175
 9143SOL    HW128328   0.303   1.675   0.128
 9143SOL    HW228329   0.331   1.530   0.196
 9144SOL     OW28330   6.710   1.369   6.671
 9144SOL    HW128331   6.653   1.306   6.725
 9144SOL    HW228332   6.680   1.368   6.576
 9145SOL     OW28333   6.344   1.029   5.964
 9145SOL    HW128334   6.338   0.988   6.055
 9145SOL    HW228335   6.416   0.985   5.911
 9146SOL     OW28336   6.110   0.884   6.861
 9146SOL    HW128337   6.171   0.928   6.927
 9146SOL    HW228338   6.064   0.806   6.905
 9147SOL     OW28339   6.756   0.363   6.896
 9147SOL    HW128340   6.740   0.453   6.935
 9147SOL    HW228341   6.670   0.327   6.859
 9148SOL     OW28342   5.697   1.455   6.931
 9148SOL    HW128343   5.658   1.502   0.010
 9148SOL    HW228344   5.780   1.503   6.902
 9149SOL     OW28345   5.911   1.115   6.042
 9149SOL    HW128346   5.908   1.188   5.973
 9149SOL    HW228347   5.894   1.027   5.997
 9150SOL     OW28348   6.129   0.493   6.459
 9150SOL    HW128349   6.131   0.545   6.373
 9150SOL    HW228350   6.202   0.525   6.519
 9151SOL     OW28351   6.847   1.406   6.060
 9151SOL    HW128352   6.893   1.492   6.080
 9151SOL    HW228353   6.748   1.421   6.059
 9152SOL     OW28354   6.836   1.576   6.790
 9152SOL    HW128355   6.927   1.542   6.814
 9152SOL    HW228356   6.784   1.504   6.744
 9153SOL     OW28357   5.935   1.568   6.847
 9153SOL    HW128358   5.933   1.492   6.782
 9153SOL    HW228359   6.026   1.609   6.847
 9154SOL     OW28360   6.223   0.875   6.620
 9154SOL    HW128361   6.266   0.964   6.605
 9154SOL    HW228362   6.179   0.873   6.710
 9155SOL     OW28363   6.905   0.784   6.576
 9155SOL    HW128364   6.808   0.761   6.571
 9155SOL    HW228365   6.948   0.731   6.649
 9156SOL     OW28366   6.782   0.619   5.871
 9156SOL    HW128367   6.808   0.532   5.911
 9156SOL    HW228368   6.708   0.661   5.924
 9157SOL     OW28369   5.838   0.259   6.845
 9157SOL    HW128370   5.772   0.278   6.919
 9157SOL    HW228371   5.837   0.161   6.824
 9158SOL     OW28372   5.554   1.246   6.845
 9158SOL    HW128373   5.600   1.160   6.869
 9158SOL    HW228374   5.606   1.323   6.881
 9159SOL     OW28375   6.317   0.612   6.614
 9159SOL    HW128376   6.399   0.598   6.559
 9159SOL    HW228377   6.291   0.709   6.611
 9160SOL     OW28378   5.956   0.104   6.293
 9160SOL    HW128379   5.897   0.184   6.297
 9160SOL    HW228380   5.899   0.021   6.293
 9161SOL     OW28381   0.149   0.509   5.902
 9161SOL    HW128382   0.107   0.420   5.888
 9161SOL    HW228383   0.125   0.545   5.992
 9162SOL     OW28384   6.625   0.738   6.537
 9162SOL    HW128385   6.609   0.752   6.635
 9162SOL    HW228386   6.598   0.645   6.512
 9163SOL     OW28387   6.961   0.815   5.562
 9163SOL    HW128388   0.011   0.793   5.646
 9163SOL    HW228389   0.023   0.861   5.498
 9164SOL     OW28390   6.641   1.374   6.401
 9164SOL    HW128391   6.671   1.286   6.365
 9164SOL    HW228392   6.695   1.447   6.360
 9165SOL     OW28393   5.958   0.833   6.544
 9165SOL    HW128394   6.056   0.854   6.552
 9165SOL    HW228395   5.940   0.744   6.586
 9166SOL     OW28396   5.940   0.574   6.642
 9166SOL    HW128397   5.864   0.510   6.634
 9166SOL    HW228398   6.012   0.548   6.577
 9167SOL     OW28399   6.995   0.292   0.017
 9167SOL    HW128400   6.994   0.271   0.115
 9167SOL    HW228401   6.901   0.299   6.984
 9168SOL     OW28402   5.611   1.262   5.775
 9168SOL    HW128403   5.521   1.301   5.756
 9168SOL    HW228404   5.600   1.168   5.809
 9169SOL     OW28405   5.683   1.785   6.563
 9169SOL    HW128406   5.626   1.717   6.516
 9169SOL    HW228407   5.775   1.784   6.524
 9170SOL     OW28408   6.071   1.528   6.486
 9170SOL    HW128409   6.145   1.590   6.514
 9170SOL    HW228410   6.103   1.469   6.412
 9171SOL     OW28411   6.593   0.771   6.803
 9171SOL    HW128412   6.580   0.860   6.847
 9171SOL    HW228413   6.614   0.703   6.873
 9172SOL     OW28414   5.584   0.597   6.573
 9172SOL    HW128415   5.645   0.519   6.583
 9172SOL    HW228416   5.629   0.668   6.518
 9173SOL     OW28417   6.373   0.573   5.965
 9173SOL    HW128418   6.401   0.506   5.897
 9173SOL    HW228419   6.287   0.615   5.937
 9174SOL     OW28420   6.290   0.461   6.840
 9174SOL    HW128421   6.219   0.392   6.825
 9174SOL    HW228422   6.294   0.522   6.760
 9175SOL     OW28423   6.464   1.516   0.008
 9175SOL    HW128424   6.447   1.509   6.910
 9175SOL    HW228425   6.560   1.540   0.024
 9176SOL     OW28426   6.004   0.475   5.745
 9176SOL    HW128427   6.078   0.535   5.777
 9176SOL    HW228428   5.918   0.525   5.745
 9177SOL     OW28429   5.736   1.094   0.130
 9177SOL    HW128430   5.797   1.031   0.178
 9177SOL    HW228431   5.720   1.061   0.037
 9178SOL     OW28432   6.883   0.971   6.789
 9178SOL    HW128433   6.899   0.923   6.703
 9178SOL    HW228434   6.934   1.057   6.790
 9179SOL     OW28435   6.905   0.866   5.941
 9179SOL    HW128436   6.885   0.875   6.038
 9179SOL    HW228437   6.872   0.778   5.907
 9180SOL     OW28438   6.903   1.812   6.672
 9180SOL    HW128439   6.986   1.792   6.619
 9180SOL    HW228440   6.875   1.730   6.722
 9181SOL     OW28441   5.704   1.208   6.606
 9181SOL    HW128442   5.653   1.240   6.686
 9181SOL    HW228443   5.645   1.148   6.551
 9182SOL     OW28444   6.999   1.639   6.095
 9182SOL    HW128445   0.087   1.679   6.069
 9182SOL    HW228446   6.928   1.710   6.089
 9183SOL     OW28447   6.899   0.951   6.220
 9183SOL    HW128448   6.968   0.896   6.269
 9183SOL    HW228449   6.940   1.037   6.191
 9184SOL     OW28450   6.241   1.639   5.741
 9184SOL    HW128451   6.256   1.665   5.646
 9184SOL    HW228452   6.188   1.555   5.745
 9185SOL     OW28453   5.811   0.333   6.325
 9185SOL    HW128454   5.727   0.372   6.288
 9185SOL    HW228455   5.815   0.351   6.424
 9186SOL     OW28456   6.698   1.605   5.548
 9186SOL    HW128457   6.744   1.521   5.519
 9186SOL    HW228458   6.623   1.625   5.485
 9187SOL     OW28459   6.309   1.024   0.011
 9187SOL    HW128460   6.405   0.999   0.001
 9187SOL    HW228461   6.301   1.122   0.025
 9188SOL     OW28462   6.546   0.912   5.806
 9188SOL    HW128463   6.628   0.956   5.768
 9188SOL    HW228464   6.572   0.852   5.881
 9189SOL     OW28465   6.702   1.119   6.334
 9189SOL    HW128466   6.622   1.067   6.364
 9189SOL    HW228467   6.767   1.057   6.289
 9190SOL     OW28468   6.502   0.215   6.525
 9190SOL    HW128469   6.451   0.197   6.441
 9190SOL    HW228470   6.532   0.128   6.565
 9191SOL     OW28471   6.179   1.472   6.040
 9191SOL    HW128472   6.225   1.417   5.970
 9191SOL    HW228473   6.080   1.474   6.021
 9192SOL     OW28474   5.867   1.324   5.865
 9192SOL    HW128475   5.774   1.311   5.832
 9192SOL    HW228476   5.866   1.387   5.943
 9193SOL     OW28477   5.637   0.319   5.645
 9193SOL    HW128478   5.579   0.325   5.563
 9193SOL    HW228479   5.621   0.399   5.702
 9194SOL     OW28480   5.646   0.122   5.843
 9194SOL    HW128481   5.645   0.187   5.767
 9194SOL    HW228482   5.622   0.031   5.808
 9195SOL     OW28483   5.978   1.783   0.106
 9195SOL    HW128484   5.882   1.809   0.107
 9195SOL    HW228485   5.986   1.684   0.116
 9196SOL     OW28486   6.841   0.375   5.991
 9196SOL    HW128487   6.904   0.329   5.928
 9196SOL    HW228488   6.883   0.380   6.082
 9197SOL     OW28489   6.165   0.683   6.257
 9197SOL    HW128490   6.219   0.766   6.246
 9197SOL    HW228491   6.091   0.682   6.190
 9198SOL     OW28492   6.393   1.274   5.632
 9198SOL    HW128493   6.388   1.291   5.731
 9198SOL    HW228494   6.362   1.355   5.583
 9199SOL     OW28495   6.263   1.719   6.526
 9199SOL    HW128496   6.231   1.812   6.543
 9199SOL    HW228497   6.362   1.720   6.514
 9200SOL     OW28498   6.487   0.975   6.440
 9200SOL    HW128499   6.528   0.892   6.479
 9200SOL    HW228500   6.439   1.025   6.511
 9201SOL     OW28501   6.763   1.014   5.636
 9201SOL    HW128502   6.701   1.058   5.572
 9201SOL    HW228503   6.800   0.930   5.595
 9202SOL     OW28504   5.780   1.258   6.246
 9202SOL    HW128505   5.808   1.214   6.331
 9202SOL    HW228506   5.813   1.205   6.168
 9203SOL     OW28507   5.936   0.403   6.085
 9203SOL    HW128508   5.974   0.327   6.032
 9203SOL    HW228509   5.901   0.368   6.172
 9204SOL     OW28510   5.974   0.640   6.915
 9204SOL    HW128511   6.015   0.561   6.961
 9204SOL    HW228512   5.962   0.619   6.818
 9205SOL     OW28513   6.381   1.574   6.234
 9205SOL    HW128514   6.337   1.611   6.152
 9205SOL    HW228515   6.322   1.505   6.275
 9206SOL     OW28516   6.904   0.277   6.677
 9206SOL    HW128517   6.882   0.180   6.666
 9206SOL    HW228518   6.860   0.311   6.760
 9207SOL     OW28519   6.547   6.970   6.651
 9207SOL    HW128520   6.479   6.907   6.615
 9207SOL    HW228521   6.543   6.973   6.751
 9208SOL     OW28522   6.375   1.302   5.910
 9208SOL    HW128523   6.361   1.206   5.935
 9208SOL    HW228524   6.452   1.339   5.962
 9209SOL     OW28525   6.182   1.662   6.841
 9209SOL    HW128526   6.209   1.747   6.887
 9209SOL    HW228527   6.262   1.620   6.800
 9210SOL     OW28528   5.611   1.006   5.894
 9210SOL    HW128529   5.707   0.987   5.875
 9210SOL    HW228530   5.562   0.919   5.907
 9211SOL     OW28531   6.470   1.683   5.903
 9211SOL    HW128532   6.390   1.659   5.847
 9211SOL    HW228533   6.449   1.763   5.958
 9212SOL     OW28534   5.813   2.538   0.105
 9212SOL    HW128535   5.720   2.502   0.110
 9212SOL    HW228536   5.850   2.524   0.014
 9213SOL     OW28537   5.795   2.147   0.992
 9213SOL    HW128538   5.844   2.115   1.073
 9213SOL    HW228539   5.703   2.107   0.991
 9214SOL     OW28540   5.558   2.272   0.632
 9214SOL    HW128541   5.476   2.302   0.681
 9214SOL    HW228542   5.533   2.203   0.565
 9215SOL     OW28543   6.138   3.176   1.233
 9215SOL    HW128544   6.054   3.173   1.178
 9215SOL    HW228545   6.154   3.270   1.264
 9216SOL     OW28546   0.047   3.419   0.771
 9216SOL    HW128547   0.083   3.326   0.771
 9216SOL    HW228548   0.027   3.447   0.677
 9217SOL     OW28549   6.708   2.678   0.659
 9217SOL    HW128550   6.778   2.749   0.659
 9217SOL    HW228551   6.683   2.655   0.753
 9218SOL     OW28552   6.319   2.996   1.098
 9218SOL    HW128553   6.247   3.033   1.158
 9218SOL    HW228554   6.360   3.071   1.046
 9219SOL     OW28555   6.545   2.654   1.842
 9219SOL    HW128556   6.476   2.695   1.902
 9219SOL    HW228557   6.532   2.688   1.749
 9220SOL     OW28558   6.298   2.815   0.671
 9220SOL    HW128559   6.370   2.828   0.740
 9220SOL    HW228560   6.226   2.884   0.685
 9221SOL     OW28561   6.267   3.005   1.833
 9221SOL    HW128562   6.314   3.077   1.883
 9221SOL    HW228563   6.187   3.043   1.787
 9222SOL     OW28564   5.914   3.237   1.079
 9222SOL    HW128565   5.843   3.175   1.045
 9222SOL    HW228566   5.957   3.284   1.002
 9223SOL     OW28567   6.091   2.214   1.433
 9223SOL    HW128568   6.170   2.157   1.454
 9223SOL    HW228569   6.009   2.174   1.474
 9224SOL     OW28570   5.791   3.556   0.500
 9224SOL    HW128571   5.800   3.634   0.562
 9224SOL    HW228572   5.880   3.536   0.459
 9225SOL     OW28573   6.709   3.236   1.682
 9225SOL    HW128574   6.795   3.192   1.657
 9225SOL    HW228575   6.638   3.166   1.692
 9226SOL     OW28576   5.741   3.277   0.442
 9226SOL    HW128577   5.748   3.369   0.480
 9226SOL    HW228578   5.722   3.212   0.515
 9227SOL     OW28579   5.864   2.940   0.828
 9227SOL    HW128580   5.875   2.843   0.849
 9227SOL    HW228581   5.812   2.984   0.901
 9228SOL     OW28582   6.164   3.634   1.524
 9228SOL    HW128583   6.070   3.636   1.558
 9228SOL    HW228584   6.191   3.726   1.496
 9229SOL     OW28585   6.133   2.830   0.219
 9229SOL    HW128586   6.183   2.866   0.141
 9229SOL    HW228587   6.164   2.876   0.302
 9230SOL     OW28588   5.686   2.514   0.555
 9230SOL    HW128589   5.646   2.425   0.577
 9230SOL    HW228590   5.670   2.577   0.631
 9231SOL     OW28591   5.574   3.454   0.129
 9231SOL    HW128592   5.507   3.380   0.128
 9231SOL    HW228593   5.573   3.498   0.219
 9232SOL     OW28594   5.700   2.623   1.556
 9232SOL    HW128595   5.788   2.670   1.557
 9232SOL    HW228596   5.628   2.687   1.533
 9233SOL     OW28597   6.219   3.227   0.736
 9233SOL    HW128598   6.177   3.136   0.727
 9233SOL    HW228599   6.214   3.275   0.649
 9234SOL     OW28600   6.749   3.024   1.435
 9234SOL    HW128601   6.792   2.981   1.356
 9234SOL    HW228602   6.818   3.039   1.506
 9235SOL     OW28603   6.365   1.917   0.501
 9235SOL    HW128604   6.403   2.005   0.473
 9235SOL    HW228605   6.265   1.923   0.503
 9236SOL     OW28606   5.818   2.822   1.302
 9236SOL    HW128607   5.902   2.770   1.289
 9236SOL    HW228608   5.769   2.827   1.215
 9237SOL     OW28609   6.818   3.719   1.591
 9237SOL    HW128610   6.787   3.779   1.518
 9237SOL    HW228611   6.814   3.624   1.561
 9238SOL     OW28612   5.899   2.160   1.890
 9238SOL    HW128613   5.947   2.239   1.930
 9238SOL    HW228614   5.801   2.180   1.884
 9239SOL     OW28615   6.156   2.572   0.312
 9239SOL    HW128616   6.152   2.664   0.275
 9239SOL    HW228617   6.086   2.561   0.382
 9240SOL     OW28618   6.840   2.169   0.802
 9240SOL    HW128619   6.744   2.170   0.830
 9240SOL    HW228620   6.896   2.130   0.875
 9241SOL     OW28621   6.367   2.427   1.451
 9241SOL    HW128622   6.364   2.383   1.541
 9241SOL    HW228623   6.351   2.360   1.380
 9242SOL     OW28624   6.960   2.368   1.781
 9242SOL    HW128625   6.924   2.452   1.822
 9242SOL    HW228626   0.059   2.374   1.774
 9243SOL     OW28627   6.542   2.759   1.587
 9243SOL    HW128628   6.589   2.683   1.542
 9243SOL    HW228629   6.483   2.805   1.521
 9244SOL     OW28630   6.631   2.262   1.177
 9244SOL    HW128631   6.538   2.261   1.215
 9244SOL    HW228632   6.629   2.231   1.082
 9245SOL     OW28633   6.649   2.616   0.400
 9245SOL    HW128634   6.669   2.639   0.496
 9245SOL    HW228635   6.559   2.574   0.394
 9246SOL     OW28636   5.648   2.694   0.765
 9246SOL    HW128637   5.741   2.679   0.800
 9246SOL    HW228638   5.601   2.759   0.825
 9247SOL     OW28639   5.673   3.795   1.580
 9247SOL    HW128640   5.667   3.769   1.676
 9247SOL    HW228641   5.581   3.795   1.540
 9248SOL     OW28642   6.470   2.281   0.189
 9248SOL    HW128643   6.462   2.344   0.112
 9248SOL    HW228644   6.528   2.203   0.162
 9249SOL     OW28645   6.998   3.066   0.516
 9249SOL    HW128646   0.030   3.018   0.434
 9249SOL    HW228647   6.937   3.141   0.489
 9250SOL     OW28648   6.147   1.965   0.927
 9250SOL    HW128649   6.161   1.998   1.021
 9250SOL    HW228650   6.150   2.042   0.864
 9251SOL     OW28651   6.584   3.344   0.487
 9251SOL    HW128652   6.556   3.421   0.431
 9251SOL    HW228653   6.545   3.353   0.579
 9252SOL     OW28654   5.938   3.635   0.888
 9252SOL    HW128655   5.971   3.540   0.883
 9252SOL    HW228656   6.011   3.694   0.921
 9253SOL     OW28657   6.824   3.459   1.505
 9253SOL    HW128658   6.778   3.383   1.552
 9253SOL    HW228659   6.823   3.443   1.407
 9254SOL     OW28660   5.860   2.796   0.197
 9254SOL    HW128661   5.959   2.809   0.208
 9254SOL    HW228662   5.843   2.701   0.168
 9255SOL     OW28663   6.043   3.161   1.747
 9255SOL    HW128664   6.020   3.174   1.651
 9255SOL    HW228665   5.961   3.141   1.799
 9256SOL     OW28666   6.640   3.681   0.170
 9256SOL    HW128667   6.590   3.636   0.244
 9256SOL    HW228668   6.671   3.612   0.105
 9257SOL     OW28669   5.830   2.128   1.488
 9257SOL    HW128670   5.778   2.214   1.484
 9257SOL    HW228671   5.775   2.058   1.533
 9258SOL     OW28672   0.223   3.189   0.133
 9258SOL    HW128673   0.125   3.187   0.155
 9258SOL    HW228674   0.246   3.111   0.076
 9259SOL     OW28675   6.055   3.568   0.411
 9259SOL    HW128676   6.088   3.652   0.456
 9259SOL    HW228677   6.044   3.585   0.313
 9260SOL     OW28678   5.795   3.673   1.204
 9260SOL    HW128679   5.841   3.592   1.240
 9260SOL    HW228680   5.755   3.651   1.115
 9261SOL     OW28681   6.538   3.572   0.883
 9261SOL    HW128682   6.632   3.540   0.874
 9261SOL    HW228683   6.480   3.523   0.819
 9262SOL     OW28684   5.961   2.524   0.499
 9262SOL    HW128685   5.981   2.427   0.514
 9262SOL    HW228686   5.863   2.540   0.506
 9263SOL     OW28687   6.398   2.042   1.747
 9263SOL    HW128688   6.493   2.010   1.755
 9263SOL    HW228689   6.346   2.012   1.826
 9264SOL     OW28690   6.422   3.379   1.203
 9264SOL    HW128691   6.395   3.345   1.113
 9264SOL    HW228692   6.474   3.308   1.251
 9265SOL     OW28693   6.391   3.227   0.960
 9265SOL    HW128694   6.483   3.241   0.923
 9265SOL    HW228695   6.326   3.217   0.885
 9266SOL     OW28696   6.532   2.389   0.871
 9266SOL    HW128697   6.499   2.395   0.777
 9266SOL    HW228698   6.551   2.294   0.894
 9267SOL     OW28699   6.091   1.928   0.490
 9267SOL    HW128700   6.010   1.919   0.549
 9267SOL    HW228701   6.075   2.000   0.423
 9268SOL     OW28702   6.496   2.152   0.450
 9268SOL    HW128703   6.484   2.193   0.359
 9268SOL    HW228704   6.593   2.152   0.474
 9269SOL     OW28705   6.611   2.541   1.430
 9269SOL    HW128706   6.521   2.498   1.439
 9269SOL    HW228707   6.682   2.470   1.429
 9270SOL     OW28708   6.786   3.501   0.790
 9270SOL    HW128709   6.793   3.573   0.721
 9270SOL    HW228710   6.876   3.463   0.808
 9271SOL     OW28711   6.092   2.993   0.690
 9271SOL    HW128712   6.013   2.976   0.749
 9271SOL    HW228713   6.062   2.994   0.594
 9272SOL     OW28714   6.823   3.718   0.602
 9272SOL    HW128715   6.873   3.796   0.566
 9272SOL    HW228716   6.732   3.747   0.632
 9273SOL     OW28717   6.721   2.469   0.046
 9273SOL    HW128718   6.623   2.474   0.025
 9273SOL    HW228719   6.733   2.441   0.141
 9274SOL     OW28720   5.719   2.391   1.415
 9274SOL    HW128721   5.809   2.397   1.373
 9274SOL    HW228722   5.703   2.474   1.470
 9275SOL     OW28723   6.175   2.038   1.188
 9275SOL    HW128724   6.199   1.960   1.246
 9275SOL    HW228725   6.080   2.064   1.205
 9276SOL     OW28726   6.445   2.368   0.618
 9276SOL    HW128727   6.423   2.436   0.548
 9276SOL    HW228728   6.452   2.278   0.575
 9277SOL     OW28729   6.549   1.935   0.707
 9277SOL    HW128730   6.478   1.932   0.636
 9277SOL    HW228731   6.537   1.859   0.770
 9278SOL     OW28732   6.050   3.348   0.150
 9278SOL    HW128733   6.001   3.275   0.197
 9278SOL    HW228734   6.033   3.343   0.052
 9279SOL     OW28735   6.072   2.127   0.305
 9279SOL    HW128736   6.148   2.085   0.257
 9279SOL    HW228737   6.042   2.209   0.256
 9280SOL     OW28738   6.551   3.173   1.328
 9280SOL    HW128739   6.464   3.155   1.374
 9280SOL    HW228740   6.624   3.122   1.374
 9281SOL     OW28741   6.733   3.186   1.120
 9281SOL    HW128742   6.658   3.183   1.186
 9281SOL    HW228743   6.697   3.214   1.031
 9282SOL     OW28744   6.528   1.953   1.336
 9282SOL    HW128745   6.551   1.940   1.240
 9282SOL    HW228746   6.603   2.000   1.383
 9283SOL     OW28747   6.540   3.013   1.716
 9283SOL    HW128748   6.445   3.023   1.746
 9283SOL    HW228749   6.547   2.935   1.653
 9284SOL     OW28750   6.322   2.919   0.415
 9284SOL    HW128751   6.319   2.872   0.503
 9284SOL    HW228752   6.382   2.870   0.352
 9285SOL     OW28753   6.043   2.663   1.266
 9285SOL    HW128754   6.104   2.673   1.344
 9285SOL    HW228755   6.003   2.571   1.266
 9286SOL     OW28756   6.884   2.218   1.271
 9286SOL    HW128757   6.941   2.294   1.301
 9286SOL    HW228758   6.797   2.253   1.238
 9287SOL     OW28759   5.634   3.407   1.342
 9287SOL    HW128760   5.580   3.472   1.288
 9287SOL    HW228761   5.731   3.424   1.327
 9288SOL     OW28762   5.976   2.988   0.446
 9288SOL    HW128763   5.966   3.053   0.371
 9288SOL    HW228764   5.891   2.936   0.455
 9289SOL     OW28765   6.110   2.410   0.895
 9289SOL    HW128766   6.117   2.471   0.817
 9289SOL    HW228767   6.193   2.417   0.951
 9290SOL     OW28768   6.848   3.283   0.433
 9290SOL    HW128769   6.897   3.364   0.464
 9290SOL    HW228770   6.750   3.295   0.451
 9291SOL     OW28771   6.868   3.405   1.233
 9291SOL    HW128772   6.955   3.377   1.274
 9291SOL    HW228773   6.826   3.327   1.188
 9292SOL     OW28774   5.903   3.423   1.277
 9292SOL    HW128775   5.898   3.354   1.205
 9292SOL    HW228776   5.999   3.440   1.300
 9293SOL     OW28777   5.993   2.634   1.615
 9293SOL    HW128778   6.078   2.647   1.563
 9293SOL    HW228779   5.983   2.538   1.640
 9294SOL     OW28780   6.662   1.983   1.766
 9294SOL    HW128781   6.695   2.076   1.749
 9294SOL    HW228782   6.724   1.917   1.722
 9295SOL     OW28783   6.057   1.962   1.772
 9295SOL    HW128784   6.015   1.905   1.702
 9295SOL    HW228785   5.997   2.039   1.793
 9296SOL     OW28786   6.280   2.720   1.127
 9296SOL    HW128787   6.286   2.818   1.109
 9296SOL    HW228788   6.189   2.699   1.164
 9297SOL     OW28789   6.905   2.741   1.006
 9297SOL    HW128790   6.818   2.700   0.979
 9297SOL    HW228791   6.958   2.675   1.060
 9298SOL     OW28792   6.758   2.376   0.312
 9298SOL    HW128793   6.757   2.311   0.387
 9298SOL    HW228794   6.732   2.467   0.346
 9299SOL     OW28795   5.902   2.052   1.229
 9299SOL    HW128796   5.880   2.090   1.319
 9299SOL    HW228797   5.871   1.957   1.224
 9300SOL     OW28798   5.653   3.141   1.266
 9300SOL    HW128799   5.681   3.089   1.346
 9300SOL    HW228800   5.634   3.236   1.292
 9301SOL     OW28801   6.330   2.456   1.047
 9301SOL    HW128802   6.407   2.445   0.984
 9301SOL    HW228803   6.319   2.554   1.067
 9302SOL     OW28804   5.866   1.894   0.645
 9302SOL    HW128805   5.832   1.986   0.663
 9302SOL    HW228806   5.891   1.850   0.732
 9303SOL     OW28807   0.166   2.378   0.347
 9303SOL    HW128808   0.243   2.330   0.389
 9303SOL    HW228809   0.134   2.450   0.408
 9304SOL     OW28810   6.648   2.630   0.942
 9304SOL    HW128811   6.620   2.646   1.037
 9304SOL    HW228812   6.617   2.540   0.913
 9305SOL     OW28813   6.555   3.478   1.665
 9305SOL    HW128814   6.541   3.507   1.570
 9305SOL    HW228815   6.592   3.385   1.666
 9306SOL     OW28816   5.951   2.789   1.836
 9306SOL    HW128817   6.034   2.797   1.891
 9306SOL    HW228818   5.970   2.732   1.755
 9307SOL     OW28819   6.806   2.732   0.011
 9307SOL    HW128820   6.794   2.633   0.002
 9307SOL    HW228821   6.857   2.767   6.933
 9308SOL     OW28822   6.645   3.266   0.869
 9308SOL    HW128823   6.665   3.179   0.824
 9308SOL    HW228824   6.698   3.339   0.826
 9309SOL     OW28825   5.896   2.666   0.878
 9309SOL    HW128826   5.977   2.651   0.822
 9309SOL    HW228827   5.884   2.589   0.941
 9310SOL     OW28828   5.873   2.404   1.014
 9310SOL    HW128829   5.832   2.314   1.000
 9310SOL    HW228830   5.962   2.408   0.968
 9311SOL     OW28831   6.736   2.240   1.688
 9311SOL    HW128832   6.665   2.288   1.739
 9311SOL    HW228833   6.826   2.280   1.710
 9312SOL     OW28834   6.742   2.076   1.460
 9312SOL    HW128835   6.732   2.138   1.538
 9312SOL    HW228836   6.798   2.120   1.390
 9313SOL     OW28837   5.674   3.620   0.959
 9313SOL    HW128838   5.622   3.548   0.912
 9313SOL    HW228839   5.767   3.623   0.924
 9314SOL     OW28840   6.064   3.388   0.901
 9314SOL    HW128841   6.137   3.441   0.943
 9314SOL    HW228842   6.103   3.325   0.834
 9315SOL     OW28843   6.548   2.672   1.189
 9315SOL    HW128844   6.575   2.632   1.276
 9315SOL    HW228845   6.449   2.680   1.185
 9316SOL     OW28846   5.627   2.448   1.153
 9316SOL    HW128847   5.708   2.448   1.094
 9316SOL    HW228848   5.654   2.433   1.248
 9317SOL     OW28849   5.771   2.471   1.777
 9317SOL    HW128850   5.719   2.386   1.780
 9317SOL    HW228851   5.737   2.529   1.703
 9318SOL     OW28852   6.412   2.488   0.367
 9318SOL    HW128853   6.428   2.411   0.306
 9318SOL    HW228854   6.320   2.525   0.350
 9319SOL     OW28855   5.788   3.407   1.744
 9319SOL    HW128856   5.729   3.438   1.819
 9319SOL    HW228857   5.815   3.312   1.761
 9320SOL     OW28858   6.356   2.257   1.232
 9320SOL    HW128859   6.293   2.180   1.221
 9320SOL    HW228860   6.336   2.327   1.163
 9321SOL     OW28861   6.502   3.553   1.409
 9321SOL    HW128862   6.478   3.495   1.331
 9321SOL    HW228863   6.503   3.648   1.380
 9322SOL     OW28864   6.023   2.368   0.179
 9322SOL    HW128865   6.088   2.431   0.222
 9322SOL    HW228866   5.936   2.414   0.165
 9323SOL     OW28867   5.735   2.997   1.490
 9323SOL    HW128868   5.734   2.959   1.582
 9323SOL    HW228869   5.768   2.928   1.425
 9324SOL     OW28870   6.858   2.949   1.194
 9324SOL    HW128871   6.866   2.874   1.129
 9324SOL    HW228872   6.812   3.026   1.152
 9325SOL     OW28873   6.858   2.761   0.278
 9325SOL    HW128874   6.789   2.710   0.330
 9325SOL    HW228875   6.839   2.751   0.180
 9326SOL     OW28876   6.897   3.652   1.109
 9326SOL    HW128877   6.977   3.639   1.051
 9326SOL    HW228878   6.880   3.568   1.162
 9327SOL     OW28879   5.706   3.054   1.017
 9327SOL    HW128880   5.680   3.085   1.108
 9327SOL    HW228881   5.629   3.007   0.973
 9328SOL     OW28882   6.307   3.549   1.748
 9328SOL    HW128883   6.256   3.586   1.670
 9328SOL    HW228884   6.402   3.535   1.721
 9329SOL     OW28885   6.588   2.010   0.182
 9329SOL    HW128886   6.673   2.058   0.157
 9329SOL    HW228887   6.610   1.919   0.215
 9330SOL     OW28888   6.986   3.509   0.520
 9330SOL    HW128889   0.074   3.545   0.490
 9330SOL    HW228890   6.923   3.584   0.538
 9331SOL     OW28891   5.662   3.711   1.834
 9331SOL    HW128892   5.625   3.622   1.861
 9331SOL    HW228893   5.728   3.742   1.903
 9332SOL     OW28894   6.900   2.872   0.680
 9332SOL    HW128895   6.977   2.817   0.713
 9332SOL    HW228896   6.934   2.942   0.617
 9333SOL     OW28897   6.309   3.123   1.443
 9333SOL    HW128898   6.298   3.183   1.522
 9333SOL    HW228899   6.233   3.137   1.380
 9334SOL     OW28900   6.294   3.475   0.193
 9334SOL    HW128901   6.353   3.453   0.116
 9334SOL    HW228902   6.208   3.425   0.185
 9335SOL     OW28903   5.795   2.149   0.712
 9335SOL    HW128904   5.713   2.199   0.684
 9335SOL    HW228905   5.806   2.157   0.811
 9336SOL     OW28906   6.750   3.484   0.004
 9336SOL    HW128907   6.830   3.474   0.063
 9336SOL    HW228908   6.776   3.464   6.909
 9337SOL     OW28909   6.390   2.871   1.394
 9337SOL    HW128910   6.432   2.877   1.303
 9337SOL    HW228911   6.355   2.961   1.420
 9338SOL     OW28912   6.488   2.795   0.242
 9338SOL    HW128913   6.515   2.819   0.149
 9338SOL    HW228914   6.559   2.738   0.283
 9339SOL     OW28915   5.934   3.198   1.501
 9339SOL    HW128916   5.919   3.270   1.433
 9339SOL    HW228917   5.865   3.127   1.492
 9340SOL     OW28918   6.684   3.019   0.775
 9340SOL    HW128919   6.609   2.958   0.800
 9340SOL    HW228920   6.760   2.964   0.739
 9341SOL     OW28921   6.590   2.118   0.916
 9341SOL    HW128922   6.563   2.073   0.831
 9341SOL    HW228923   6.600   2.050   0.988
 9342SOL     OW28924   6.220   3.369   0.502
 9342SOL    HW128925   6.259   3.309   0.432
 9342SOL    HW228926   6.155   3.432   0.459
 9343SOL     OW28927   5.880   3.154   0.243
 9343SOL    HW128928   5.821   3.111   0.174
 9343SOL    HW228929   5.823   3.201   0.310
 9344SOL     OW28930   5.719   2.897   1.744
 9344SOL    HW128931   5.636   2.868   1.793
 9344SOL    HW228932   5.799   2.852   1.783
 9345SOL     OW28933   6.306   2.033   1.488
 9345SOL    HW128934   6.385   2.016   1.428
 9345SOL    HW228935   6.336   2.039   1.583
 9346SOL     OW28936   5.654   2.197   0.020
 9346SOL    HW128937   5.589   2.147   6.962
 9346SOL    HW228938   5.615   2.286   0.043
 9347SOL     OW28939   5.611   2.002   0.235
 9347SOL    HW128940   5.625   2.093   0.197
 9347SOL    HW228941   5.649   1.934   0.172
 9348SOL     OW28942   6.224   2.662   1.467
 9348SOL    HW128943   6.284   2.739   1.446
 9348SOL    HW228944   6.277   2.577   1.463
 9349SOL     OW28945   6.389   2.311   1.695
 9349SOL    HW128946   6.450   2.349   1.765
 9349SOL    HW228947   6.381   2.213   1.708
 9350SOL     OW28948   6.942   3.088   1.626
 9350SOL    HW128949   6.956   3.047   1.716
 9350SOL    HW228950   0.018   3.064   1.566
 9351SOL     OW28951   5.909   3.640   1.633
 9351SOL    HW128952   5.830   3.693   1.600
 9351SOL    HW228953   5.878   3.554   1.672
 9352SOL     OW28954   6.763   2.176   0.517
 9352SOL    HW128955   6.848   2.153   0.471
 9352SOL    HW228956   6.776   2.172   0.616
 9353SOL     OW28957   6.109   2.615   0.712
 9353SOL    HW128958   6.183   2.678   0.690
 9353SOL    HW228959   6.062   2.588   0.628
 9354SOL     OW28960   6.357   3.161   0.090
 9354SOL    HW128961   6.356   3.171   0.190
 9354SOL    HW228962   6.397   3.244   0.049
 9355SOL     OW28963   6.264   3.553   0.981
 9355SOL    HW128964   6.228   3.646   0.974
 9355SOL    HW228965   6.364   3.556   0.977
 9356SOL     OW28966   6.482   2.855   0.879
 9356SOL    HW128967   6.536   2.774   0.903
 9356SOL    HW228968   6.433   2.887   0.960
 9357SOL     OW28969   6.567   2.856   6.976
 9357SOL    HW128970   6.585   2.949   6.944
 9357SOL    HW228971   6.654   2.810   6.995
 9358SOL     OW28972   5.791   3.141   1.841
 9358SOL    HW128973   5.763   3.056   1.797
 9358SOL    HW228974   5.738   3.154   1.925
 9359SOL     OW28975   5.691   3.063   0.619
 9359SOL    HW128976   5.748   3.030   0.695
 9359SOL    HW228977   5.694   2.997   0.544
 9360SOL     OW28978   6.270   3.287   1.655
 9360SOL    HW128979   6.188   3.247   1.697
 9360SOL    HW228980   6.281   3.381   1.687
 9361SOL     OW28981   5.991   2.261   0.540
 9361SOL    HW128982   6.016   2.203   0.463
 9361SOL    HW228983   5.926   2.212   0.599
 9362SOL     OW28984   5.956   2.404   1.286
 9362SOL    HW128985   6.018   2.337   1.328
 9362SOL    HW228986   5.946   2.383   1.189
 9363SOL     OW28987   6.406   3.435   0.694
 9363SOL    HW128988   6.353   3.449   0.611
 9363SOL    HW228989   6.364   3.362   0.748
 9364SOL     OW28990   6.939   2.064   1.045
 9364SOL    HW128991   6.915   1.968   1.062
 9364SOL    HW228992   6.921   2.118   1.128
 9365SOL     OW28993   6.621   1.892   1.076
 9365SOL    HW128994   6.571   1.827   1.019
 9365SOL    HW228995   6.715   1.861   1.087
 9366SOL     OW28996   6.372   3.183   0.364
 9366SOL    HW128997   6.352   3.088   0.387
 9366SOL    HW228998   6.459   3.209   0.405
 9367SOL     OW28999   6.175   3.439   1.323
 9367SOL    HW129000   6.181   3.501   1.401
 9367SOL    HW229001   6.264   3.434   1.277
 9368SOL     OW29002   5.719   2.873   0.418
 9368SOL    HW129003   5.770   2.849   0.336
 9368SOL    HW229004   5.634   2.819   0.421
 9369SOL     OW29005   6.479   3.568   0.365
 9369SOL    HW129006   6.406   3.532   0.308
 9369SOL    HW229007   6.443   3.642   0.422
 9370SOL     OW29008   5.789   2.542   2.042
 9370SOL    HW129009   5.698   2.514   2.074
 9370SOL    HW229010   5.791   2.537   1.942
 9371SOL     OW29011   5.813   2.138   2.857
 9371SOL    HW129012   5.860   2.107   2.940
 9371SOL    HW229013   5.722   2.097   2.853
 9372SOL     OW29014   5.574   2.272   2.495
 9372SOL    HW129015   5.488   2.297   2.540
 9372SOL    HW229016   5.557   2.203   2.426
 9373SOL     OW29017   6.142   3.169   3.087
 9373SOL    HW129018   6.060   3.167   3.031
 9373SOL    HW229019   6.163   3.264   3.112
 9374SOL     OW29020   0.060   3.380   2.630
 9374SOL    HW129021   0.110   3.294   2.620
 9374SOL    HW229022   0.046   3.422   2.540
 9375SOL     OW29023   6.652   2.608   2.661
 9375SOL    HW129024   6.719   2.669   2.617
 9375SOL    HW229025   6.599   2.561   2.590
 9376SOL     OW29026   6.306   2.989   2.942
 9376SOL    HW129027   6.240   3.025   3.008
 9376SOL    HW229028   6.348   3.065   2.892
 9377SOL     OW29029   6.443   2.600   3.695
 9377SOL    HW129030   6.439   2.653   3.780
 9377SOL    HW229031   6.460   2.661   3.618
 9378SOL     OW29032   6.313   2.825   2.509
 9378SOL    HW129033   6.374   2.836   2.588
 9378SOL    HW229034   6.232   2.881   2.522
 9379SOL     OW29035   6.243   2.997   3.704
 9379SOL    HW129036   6.313   3.063   3.733
 9379SOL    HW229037   6.172   3.044   3.652
 9380SOL     OW29038   5.925   3.248   2.925
 9380SOL    HW129039   5.854   3.194   2.880
 9380SOL    HW229040   5.975   3.301   2.857
 9381SOL     OW29041   6.102   2.221   3.294
 9381SOL    HW129042   6.179   2.160   3.315
 9381SOL    HW229043   6.018   2.185   3.333
 9382SOL     OW29044   5.838   3.604   2.324
 9382SOL    HW129045   5.858   3.671   2.395
 9382SOL    HW229046   5.902   3.614   2.248
 9383SOL     OW29047   6.737   3.218   3.533
 9383SOL    HW129048   6.825   3.181   3.505
 9383SOL    HW229049   6.676   3.143   3.558
 9384SOL     OW29050   5.907   3.346   2.389
 9384SOL    HW129051   5.868   3.437   2.379
 9384SOL    HW229052   5.856   3.295   2.458
 9385SOL     OW29053   5.945   2.931   2.768
 9385SOL    HW129054   5.937   2.835   2.796
 9385SOL    HW229055   5.865   2.982   2.798
 9386SOL     OW29056   6.149   3.640   3.336
 9386SOL    HW129057   6.063   3.640   3.387
 9386SOL    HW229058   6.192   3.731   3.342
 9387SOL     OW29059   6.161   2.841   2.030
 9387SOL    HW129060   6.199   2.892   1.953
 9387SOL    HW229061   6.205   2.871   2.115
 9388SOL     OW29062   5.725   2.512   2.456
 9388SOL    HW129063   5.679   2.424   2.471
 9388SOL    HW229064   5.721   2.566   2.540
 9389SOL     OW29065   5.604   3.459   1.938
 9389SOL    HW129066   5.537   3.385   1.937
 9389SOL    HW229067   5.610   3.497   2.030
 9390SOL     OW29068   5.689   2.641   3.428
 9390SOL    HW129069   5.732   2.714   3.482
 9390SOL    HW229070   5.609   2.678   3.381
 9391SOL     OW29071   6.219   3.223   2.594
 9391SOL    HW129072   6.180   3.132   2.586
 9391SOL    HW229073   6.204   3.275   2.510
 9392SOL     OW29074   6.742   3.003   3.297
 9392SOL    HW129075   6.776   2.954   3.216
 9392SOL    HW229076   6.817   3.019   3.360
 9393SOL     OW29077   6.423   1.959   2.342
 9393SOL    HW129078   6.456   2.053   2.329
 9393SOL    HW229079   6.324   1.961   2.356
 9394SOL     OW29080   5.806   2.805   3.135
 9394SOL    HW129081   5.895   2.760   3.136
 9394SOL    HW229082   5.753   2.770   3.058
 9395SOL     OW29083   6.837   3.712   3.462
 9395SOL    HW129084   6.797   3.780   3.401
 9395SOL    HW229085   6.811   3.620   3.431
 9396SOL     OW29086   5.959   2.137   3.733
 9396SOL    HW129087   5.996   2.216   3.783
 9396SOL    HW229088   5.866   2.158   3.702
 9397SOL     OW29089   6.157   2.578   2.143
 9397SOL    HW129090   6.152   2.669   2.102
 9397SOL    HW229091   6.097   2.575   2.223
 9398SOL     OW29092   6.821   2.278   2.769
 9398SOL    HW129093   6.742   2.227   2.735
 9398SOL    HW229094   6.871   2.222   2.835
 9399SOL     OW29095   6.372   2.435   3.310
 9399SOL    HW129096   6.335   2.403   3.397
 9399SOL    HW229097   6.361   2.364   3.241
 9400SOL     OW29098   6.968   2.373   3.636
 9400SOL    HW129099   6.937   2.467   3.653
 9400SOL    HW229100   0.068   2.371   3.633
 9401SOL     OW29101   6.521   2.759   3.479
 9401SOL    HW129102   6.577   2.694   3.429
 9401SOL    HW229103   6.468   2.815   3.415
 9402SOL     OW29104   6.655   2.288   3.024
 9402SOL    HW129105   6.561   2.285   3.059
 9402SOL    HW229106   6.679   2.198   2.986
 9403SOL     OW29107   6.634   2.585   2.237
 9403SOL    HW129108   6.635   2.581   2.337
 9403SOL    HW229109   6.548   2.547   2.204
 9404SOL     OW29110   5.712   2.665   2.680
 9404SOL    HW129111   5.796   2.671   2.734
 9404SOL    HW229112   5.650   2.738   2.707
 9405SOL     OW29113   5.680   3.798   3.445
 9405SOL    HW129114   5.675   3.774   3.542
 9405SOL    HW229115   5.588   3.802   3.407
 9406SOL     OW29116   6.434   2.210   2.063
 9406SOL    HW129117   6.484   2.248   1.985
 9406SOL    HW229118   6.376   2.135   2.031
 9407SOL     OW29119   6.910   2.979   2.390
 9407SOL    HW129120   6.953   2.956   2.302
 9407SOL    HW229121   6.878   3.073   2.388
 9408SOL     OW29122   6.152   1.953   2.802
 9408SOL    HW129123   6.171   1.988   2.894
 9408SOL    HW229124   6.146   2.030   2.738
 9409SOL     OW29125   6.578   3.346   2.332
 9409SOL    HW129126   6.551   3.412   2.263
 9409SOL    HW229127   6.535   3.369   2.419
 9410SOL     OW29128   5.952   3.646   2.748
 9410SOL    HW129129   5.989   3.553   2.746
 9410SOL    HW229130   6.021   3.708   2.785
 9411SOL     OW29131   6.772   3.454   3.379
 9411SOL    HW129132   6.751   3.373   3.433
 9411SOL    HW229133   6.695   3.475   3.319
 9412SOL     OW29134   5.893   2.784   2.148
 9412SOL    HW129135   5.967   2.816   2.089
 9412SOL    HW229136   5.858   2.697   2.114
 9413SOL     OW29137   6.045   3.159   3.596
 9413SOL    HW129138   6.023   3.168   3.499
 9413SOL    HW229139   5.961   3.144   3.648
 9414SOL     OW29140   6.721   3.622   2.101
 9414SOL    HW129141   6.625   3.605   2.125
 9414SOL    HW229142   6.749   3.558   2.030
 9415SOL     OW29143   5.842   2.136   3.347
 9415SOL    HW129144   5.792   2.221   3.358
 9415SOL    HW229145   5.789   2.061   3.386
 9416SOL     OW29146   6.037   3.661   2.142
 9416SOL    HW129147   6.088   3.704   2.216
 9416SOL    HW229148   6.099   3.602   2.089
 9417SOL     OW29149   5.806   3.658   3.081
 9417SOL    HW129150   5.852   3.577   3.116
 9417SOL    HW229151   5.768   3.639   2.991
 9418SOL     OW29152   6.548   3.565   2.725
 9418SOL    HW129153   6.639   3.524   2.722
 9418SOL    HW229154   6.488   3.519   2.660
 9419SOL     OW29155   6.005   2.525   2.371
 9419SOL    HW129156   6.012   2.425   2.381
 9419SOL    HW229157   5.910   2.553   2.390
 9420SOL     OW29158   6.241   1.977   1.970
 9420SOL    HW129159   6.256   1.885   2.004
 9420SOL    HW229160   6.172   1.975   1.898
 9421SOL     OW29161   6.390   2.112   3.610
 9421SOL    HW129162   6.482   2.073   3.614
 9421SOL    HW229163   6.332   2.069   3.678
 9422SOL     OW29164   6.435   3.367   3.049
 9422SOL    HW129165   6.407   3.334   2.959
 9422SOL    HW229166   6.481   3.294   3.100
 9423SOL     OW29167   6.390   3.218   2.812
 9423SOL    HW129168   6.482   3.227   2.775
 9423SOL    HW229169   6.324   3.215   2.737
 9424SOL     OW29170   6.507   2.365   2.750
 9424SOL    HW129171   6.498   2.391   2.654
 9424SOL    HW229172   6.522   2.266   2.756
 9425SOL     OW29173   6.151   1.959   2.363
 9425SOL    HW129174   6.075   1.947   2.427
 9425SOL    HW229175   6.129   2.033   2.300
 9426SOL     OW29176   6.978   2.964   1.875
 9426SOL    HW129177   0.009   2.952   1.970
 9426SOL    HW229178   6.882   2.936   1.868
 9427SOL     OW29179   5.851   1.923   2.023
 9427SOL    HW129180   5.886   2.007   1.981
 9427SOL    HW229181   5.923   1.880   2.077
 9428SOL     OW29182   6.556   2.214   2.317
 9428SOL    HW129183   6.522   2.220   2.223
 9428SOL    HW229184   6.656   2.206   2.316
 9429SOL     OW29185   6.619   2.543   3.321
 9429SOL    HW129186   6.528   2.503   3.319
 9429SOL    HW229187   6.682   2.483   3.370
 9430SOL     OW29188   6.784   3.454   2.620
 9430SOL    HW129189   6.784   3.510   2.537
 9430SOL    HW229190   6.879   3.431   2.645
 9431SOL     OW29191   6.097   2.984   2.552
 9431SOL    HW129192   6.045   2.963   2.635
 9431SOL    HW229193   6.035   2.983   2.474
 9432SOL     OW29194   6.781   3.631   2.385
 9432SOL    HW129195   6.759   3.635   2.288
 9432SOL    HW229196   6.725   3.698   2.435
 9433SOL     OW29197   6.585   2.383   1.880
 9433SOL    HW129198   6.571   2.481   1.865
 9433SOL    HW229199   6.650   2.370   1.955
 9434SOL     OW29200   5.725   2.408   3.279
 9434SOL    HW129201   5.818   2.411   3.242
 9434SOL    HW229202   5.710   2.490   3.335
 9435SOL     OW29203   6.195   2.040   3.057
 9435SOL    HW129204   6.224   1.969   3.120
 9435SOL    HW229205   6.099   2.062   3.073
 9436SOL     OW29206   6.499   2.445   2.485
 9436SOL    HW129207   6.406   2.480   2.478
 9436SOL    HW229208   6.511   2.368   2.423
 9437SOL     OW29209   6.606   1.923   2.538
 9437SOL    HW129210   6.535   1.933   2.468
 9437SOL    HW229211   6.579   1.851   2.602
 9438SOL     OW29212   6.082   3.299   2.000
 9438SOL    HW129213   6.015   3.258   2.062
 9438SOL    HW229214   6.077   3.255   1.911
 9439SOL     OW29215   6.090   2.131   2.161
 9439SOL    HW129216   6.142   2.081   2.091
 9439SOL    HW229217   6.056   2.217   2.122
 9440SOL     OW29218   6.548   3.158   3.187
 9440SOL    HW129219   6.464   3.157   3.241
 9440SOL    HW229220   6.619   3.107   3.234
 9441SOL     OW29221   6.732   3.156   2.971
 9441SOL    HW129222   6.662   3.157   3.042
 9441SOL    HW229223   6.693   3.185   2.884
 9442SOL     OW29224   6.533   1.961   3.193
 9442SOL    HW129225   6.556   1.946   3.097
 9442SOL    HW229226   6.608   2.008   3.239
 9443SOL     OW29227   6.594   2.995   3.629
 9443SOL    HW129228   6.528   3.046   3.683
 9443SOL    HW229229   6.547   2.926   3.574
 9444SOL     OW29230   6.328   2.916   2.243
 9444SOL    HW129231   6.327   2.876   2.334
 9444SOL    HW229232   6.409   2.883   2.194
 9445SOL     OW29233   6.043   2.667   3.147
 9445SOL    HW129234   6.103   2.680   3.226
 9445SOL    HW229235   6.009   2.573   3.146
 9446SOL     OW29236   6.906   2.255   3.175
 9446SOL    HW129237   6.979   2.315   3.209
 9446SOL    HW229238   6.830   2.311   3.141
 9447SOL     OW29239   5.640   3.387   3.196
 9447SOL    HW129240   5.588   3.458   3.150
 9447SOL    HW229241   5.738   3.406   3.186
 9448SOL     OW29242   5.915   2.984   2.349
 9448SOL    HW129243   5.912   3.059   2.282
 9448SOL    HW229244   5.903   2.897   2.301
 9449SOL     OW29245   6.130   2.408   2.728
 9449SOL    HW129246   6.162   2.449   2.643
 9449SOL    HW229247   6.199   2.420   2.799
 9450SOL     OW29248   6.844   3.255   2.341
 9450SOL    HW129249   6.898   3.335   2.366
 9450SOL    HW229250   6.747   3.279   2.338
 9451SOL     OW29251   6.859   3.403   3.027
 9451SOL    HW129252   6.919   3.396   3.106
 9451SOL    HW229253   6.818   3.314   3.008
 9452SOL     OW29254   5.913   3.406   3.145
 9452SOL    HW129255   5.907   3.346   3.065
 9452SOL    HW229256   6.009   3.426   3.164
 9453SOL     OW29257   6.071   2.539   3.541
 9453SOL    HW129258   6.109   2.597   3.469
 9453SOL    HW229259   6.135   2.466   3.562
 9454SOL     OW29260   6.642   2.007   3.620
 9454SOL    HW129261   6.685   2.097   3.607
 9454SOL    HW229262   6.702   1.936   3.585
 9455SOL     OW29263   6.091   1.924   3.615
 9455SOL    HW129264   6.033   1.867   3.557
 9455SOL    HW229265   6.040   2.007   3.642
 9456SOL     OW29266   6.202   2.725   2.932
 9456SOL    HW129267   6.231   2.821   2.928
 9456SOL    HW229268   6.146   2.711   3.014
 9457SOL     OW29269   6.865   2.647   2.883
 9457SOL    HW129270   6.896   2.700   2.804
 9457SOL    HW229271   6.943   2.624   2.941
 9458SOL     OW29272   6.743   2.367   2.102
 9458SOL    HW129273   6.793   2.308   2.166
 9458SOL    HW229274   6.710   2.448   2.150
 9459SOL     OW29275   5.921   2.049   3.094
 9459SOL    HW129276   5.894   2.089   3.181
 9459SOL    HW229277   5.887   1.955   3.089
 9460SOL     OW29278   5.670   3.131   3.089
 9460SOL    HW129279   5.700   3.072   3.165
 9460SOL    HW229280   5.646   3.221   3.125
 9461SOL     OW29281   6.318   2.476   2.921
 9461SOL    HW129282   6.387   2.459   2.850
 9461SOL    HW229283   6.284   2.569   2.913
 9462SOL     OW29284   5.923   1.920   2.516
 9462SOL    HW129285   5.877   2.006   2.535
 9462SOL    HW229286   5.927   1.864   2.599
 9463SOL     OW29287   0.158   2.341   2.172
 9463SOL    HW129288   0.114   2.252   2.170
 9463SOL    HW229289   0.134   2.389   2.256
 9464SOL     OW29290   6.454   3.503   3.486
 9464SOL    HW129291   6.490   3.521   3.394
 9464SOL    HW229292   6.384   3.432   3.481
 9465SOL     OW29293   5.971   2.751   3.691
 9465SOL    HW129294   6.035   2.778   3.764
 9465SOL    HW229295   6.008   2.672   3.642
 9466SOL     OW29296   6.957   2.630   1.881
 9466SOL    HW129297   0.041   2.608   1.931
 9466SOL    HW229298   6.979   2.686   1.801
 9467SOL     OW29299   6.642   3.237   2.719
 9467SOL    HW129300   6.666   3.148   2.680
 9467SOL    HW229301   6.696   3.309   2.674
 9468SOL     OW29302   5.940   2.665   2.839
 9468SOL    HW129303   6.037   2.681   2.855
 9468SOL    HW229304   5.919   2.568   2.855
 9469SOL     OW29305   5.906   2.389   2.875
 9469SOL    HW129306   5.861   2.300   2.865
 9469SOL    HW229307   5.984   2.395   2.813
 9470SOL     OW29308   6.735   2.257   3.546
 9470SOL    HW129309   6.668   2.297   3.608
 9470SOL    HW229310   6.826   2.292   3.568
 9471SOL     OW29311   6.741   2.090   3.320
 9471SOL    HW129312   6.723   2.143   3.403
 9471SOL    HW229313   6.809   2.138   3.264
 9472SOL     OW29314   5.633   3.143   2.065
 9472SOL    HW129315   5.545   3.183   2.040
 9472SOL    HW229316   5.619   3.049   2.096
 9473SOL     OW29317   5.693   3.610   2.833
 9473SOL    HW129318   5.648   3.533   2.788
 9473SOL    HW229319   5.783   3.625   2.793
 9474SOL     OW29320   6.081   3.400   2.759
 9474SOL    HW129321   6.155   3.458   2.793
 9474SOL    HW229322   6.117   3.332   2.695
 9475SOL     OW29323   6.565   2.580   3.039
 9475SOL    HW129324   6.599   2.590   3.132
 9475SOL    HW229325   6.468   2.556   3.041
 9476SOL     OW29326   5.646   2.445   3.011
 9476SOL    HW129327   5.726   2.438   2.952
 9476SOL    HW229328   5.673   2.432   3.106
 9477SOL     OW29329   5.808   2.465   3.607
 9477SOL    HW129330   5.904   2.481   3.586
 9477SOL    HW229331   5.750   2.522   3.548
 9478SOL     OW29332   6.406   2.470   2.161
 9478SOL    HW129333   6.402   2.375   2.128
 9478SOL    HW229334   6.315   2.511   2.156
 9479SOL     OW29335   5.786   3.403   3.607
 9479SOL    HW129336   5.733   3.439   3.684
 9479SOL    HW229337   5.810   3.307   3.626
 9480SOL     OW29338   6.378   2.263   3.085
 9480SOL    HW129339   6.318   2.184   3.082
 9480SOL    HW229340   6.342   2.335   3.026
 9481SOL     OW29341   6.551   3.539   3.234
 9481SOL    HW129342   6.515   3.486   3.157
 9481SOL    HW229343   6.543   3.637   3.214
 9482SOL     OW29344   6.004   2.367   2.048
 9482SOL    HW129345   6.079   2.429   2.068
 9482SOL    HW229346   5.917   2.417   2.052
 9483SOL     OW29347   5.752   2.983   3.328
 9483SOL    HW129348   5.761   2.945   3.420
 9483SOL    HW229349   5.774   2.913   3.260
 9484SOL     OW29350   6.814   2.895   3.057
 9484SOL    HW129351   6.812   2.821   2.990
 9484SOL    HW229352   6.801   2.983   3.010
 9485SOL     OW29353   6.860   2.710   2.128
 9485SOL    HW129354   6.784   2.661   2.171
 9485SOL    HW229355   6.876   2.672   2.037
 9486SOL     OW29356   6.894   3.662   2.940
 9486SOL    HW129357   6.978   3.652   2.887
 9486SOL    HW229358   6.869   3.573   2.980
 9487SOL     OW29359   5.717   3.071   2.827
 9487SOL    HW129360   5.694   3.095   2.921
 9487SOL    HW229361   5.650   3.005   2.792
 9488SOL     OW29362   6.258   3.602   3.655
 9488SOL    HW129363   6.195   3.675   3.627
 9488SOL    HW229364   6.334   3.598   3.591
 9489SOL     OW29365   0.009   3.482   2.385
 9489SOL    HW129366   0.094   3.527   2.359
 9489SOL    HW229367   6.933   3.547   2.377
 9490SOL     OW29368   5.675   3.719   3.701
 9490SOL    HW129369   5.637   3.631   3.729
 9490SOL    HW229370   5.739   3.752   3.771
 9491SOL     OW29371   6.853   2.773   2.557
 9491SOL    HW129372   6.943   2.730   2.568
 9491SOL    HW229373   6.860   2.846   2.489
 9492SOL     OW29374   6.303   3.153   3.320
 9492SOL    HW129375   6.283   3.220   3.390
 9492SOL    HW229376   6.230   3.153   3.251
 9493SOL     OW29377   6.242   3.518   2.010
 9493SOL    HW129378   6.263   3.536   1.914
 9493SOL    HW229379   6.186   3.435   2.017
 9494SOL     OW29380   5.813   2.159   2.579
 9494SOL    HW129381   5.727   2.203   2.550
 9494SOL    HW229382   5.819   2.161   2.679
 9495SOL     OW29383   6.751   3.446   1.875
 9495SOL    HW129384   6.744   3.354   1.835
 9495SOL    HW229385   6.697   3.510   1.820
 9496SOL     OW29386   6.380   2.891   3.285
 9496SOL    HW129387   6.430   2.900   3.199
 9496SOL    HW229388   6.344   2.981   3.313
 9497SOL     OW29389   6.548   2.824   2.110
 9497SOL    HW129390   6.616   2.863   2.047
 9497SOL    HW229391   6.587   2.743   2.153
 9498SOL     OW29392   5.945   3.190   3.347
 9498SOL    HW129393   5.928   3.265   3.284
 9498SOL    HW229394   5.876   3.118   3.333
 9499SOL     OW29395   6.682   2.980   2.649
 9499SOL    HW129396   6.597   2.936   2.678
 9499SOL    HW229397   6.747   2.911   2.618
 9500SOL     OW29398   6.606   2.105   2.745
 9500SOL    HW129399   6.608   2.057   2.658
 9500SOL    HW229400   6.606   2.039   2.820
 9501SOL     OW29401   6.184   3.369   2.367
 9501SOL    HW129402   6.225   3.311   2.296
 9501SOL    HW229403   6.084   3.364   2.360
 9502SOL     OW29404   5.887   3.193   2.166
 9502SOL    HW129405   5.793   3.183   2.132
 9502SOL    HW229406   5.887   3.257   2.244
 9503SOL     OW29407   5.753   2.871   3.585
 9503SOL    HW129408   5.671   2.854   3.640
 9503SOL    HW229409   5.833   2.831   3.630
 9504SOL     OW29410   6.313   2.045   3.352
 9504SOL    HW129411   6.394   2.021   3.297
 9504SOL    HW229412   6.341   2.072   3.444
 9505SOL     OW29413   5.631   2.230   1.898
 9505SOL    HW129414   5.563   2.220   1.826
 9505SOL    HW229415   5.599   2.299   1.964
 9506SOL     OW29416   5.602   2.002   2.089
 9506SOL    HW129417   5.574   2.069   2.021
 9506SOL    HW229418   5.697   1.974   2.072
 9507SOL     OW29419   6.225   2.669   3.346
 9507SOL    HW129420   6.277   2.753   3.334
 9507SOL    HW229421   6.284   2.590   3.331
 9508SOL     OW29422   6.302   2.380   3.570
 9508SOL    HW129423   6.348   2.448   3.627
 9508SOL    HW229424   6.335   2.289   3.593
 9509SOL     OW29425   6.955   3.060   3.476
 9509SOL    HW129426   6.976   3.035   3.571
 9509SOL    HW229427   0.034   3.041   3.418
 9510SOL     OW29428   5.909   3.634   3.485
 9510SOL    HW129429   5.830   3.688   3.456
 9510SOL    HW229430   5.878   3.548   3.526
 9511SOL     OW29431   6.851   2.215   2.312
 9511SOL    HW129432   6.917   2.155   2.267
 9511SOL    HW229433   6.890   2.246   2.399
 9512SOL     OW29434   6.244   2.556   2.507
 9512SOL    HW129435   6.269   2.653   2.508
 9512SOL    HW229436   6.159   2.544   2.455
 9513SOL     OW29437   6.389   3.208   1.959
 9513SOL    HW129438   6.369   3.209   2.057
 9513SOL    HW229439   6.397   3.303   1.926
 9514SOL     OW29440   6.277   3.574   2.822
 9514SOL    HW129441   6.243   3.668   2.822
 9514SOL    HW229442   6.377   3.575   2.812
 9515SOL     OW29443   6.461   2.847   2.744
 9515SOL    HW129444   6.502   2.761   2.775
 9515SOL    HW229445   6.407   2.887   2.819
 9516SOL     OW29446   6.718   2.880   1.876
 9516SOL    HW129447   6.657   2.942   1.826
 9516SOL    HW229448   6.688   2.786   1.862
 9517SOL     OW29449   5.794   3.131   3.689
 9517SOL    HW129450   5.771   3.043   3.647
 9517SOL    HW229451   5.739   3.143   3.772
 9518SOL     OW29452   5.776   3.162   2.553
 9518SOL    HW129453   5.758   3.135   2.647
 9518SOL    HW229454   5.810   3.084   2.501
 9519SOL     OW29455   6.236   3.341   3.525
 9519SOL    HW129456   6.169   3.273   3.555
 9519SOL    HW229457   6.219   3.427   3.572
 9520SOL     OW29458   6.010   2.258   2.405
 9520SOL    HW129459   6.018   2.203   2.322
 9520SOL    HW229460   5.939   2.220   2.465
 9521SOL     OW29461   5.965   2.407   3.149
 9521SOL    HW129462   6.025   2.341   3.194
 9521SOL    HW229463   5.957   2.384   3.052
 9522SOL     OW29464   6.404   3.433   2.535
 9522SOL    HW129465   6.338   3.460   2.466
 9522SOL    HW229466   6.368   3.354   2.585
 9523SOL     OW29467   6.916   2.094   2.952
 9523SOL    HW129468   6.907   1.995   2.961
 9523SOL    HW229469   6.918   2.135   3.044
 9524SOL     OW29470   6.628   1.898   2.930
 9524SOL    HW129471   6.583   1.832   2.870
 9524SOL    HW229472   6.722   1.871   2.946
 9525SOL     OW29473   6.352   3.193   2.231
 9525SOL    HW129474   6.338   3.094   2.238
 9525SOL    HW229475   6.441   3.216   2.270
 9526SOL     OW29476   6.187   3.431   3.166
 9526SOL    HW129477   6.183   3.506   3.231
 9526SOL    HW229478   6.277   3.429   3.122
 9527SOL     OW29479   6.908   1.928   2.000
 9527SOL    HW129480   6.967   1.867   1.945
 9527SOL    HW229481   6.830   1.876   2.034
 9528SOL     OW29482   5.636   2.883   2.179
 9528SOL    HW129483   5.732   2.868   2.157
 9528SOL    HW229484   5.595   2.797   2.209
 9529SOL     OW29485   6.465   3.554   2.178
 9529SOL    HW129486   6.385   3.533   2.123
 9529SOL    HW229487   6.444   3.629   2.241
 9530SOL     OW29488   5.791   2.481   3.886
 9530SOL    HW129489   5.698   2.463   3.919
 9530SOL    HW229490   5.790   2.490   3.786
 9531SOL     OW29491   5.812   2.133   4.724
 9531SOL    HW129492   5.857   2.101   4.808
 9531SOL    HW229493   5.720   2.093   4.718
 9532SOL     OW29494   5.569   2.278   4.362
 9532SOL    HW129495   5.481   2.299   4.406
 9532SOL    HW229496   5.555   2.208   4.292
 9533SOL     OW29497   6.149   3.166   4.949
 9533SOL    HW129498   6.068   3.168   4.889
 9533SOL    HW229499   6.166   3.257   4.985
 9534SOL     OW29500   0.056   3.402   4.509
 9534SOL    HW129501   0.107   3.317   4.500
 9534SOL    HW229502   0.041   3.442   4.418
 9535SOL     OW29503   6.693   2.655   4.382
 9535SOL    HW129504   6.766   2.723   4.380
 9535SOL    HW229505   6.663   2.641   4.476
 9536SOL     OW29506   6.306   2.986   4.785
 9536SOL    HW129507   6.240   3.017   4.853
 9536SOL    HW229508   6.352   3.066   4.745
 9537SOL     OW29509   6.457   2.578   5.569
 9537SOL    HW129510   6.449   2.637   5.648
 9537SOL    HW229511   6.489   2.631   5.490
 9538SOL     OW29512   6.309   2.821   4.361
 9538SOL    HW129513   6.377   2.823   4.434
 9538SOL    HW229514   6.233   2.882   4.384
 9539SOL     OW29515   6.250   3.016   5.561
 9539SOL    HW129516   6.294   3.088   5.615
 9539SOL    HW229517   6.171   3.054   5.513
 9540SOL     OW29518   5.934   3.249   4.786
 9540SOL    HW129519   5.862   3.196   4.744
 9540SOL    HW229520   5.981   3.304   4.716
 9541SOL     OW29521   6.079   2.228   5.186
 9541SOL    HW129522   6.156   2.168   5.207
 9541SOL    HW229523   5.994   2.185   5.215
 9542SOL     OW29524   5.838   3.605   4.188
 9542SOL    HW129525   5.856   3.675   4.258
 9542SOL    HW229526   5.903   3.616   4.113
 9543SOL     OW29527   6.714   3.229   5.406
 9543SOL    HW129528   6.796   3.176   5.383
 9543SOL    HW229529   6.637   3.167   5.418
 9544SOL     OW29530   5.910   3.349   4.251
 9544SOL    HW129531   5.873   3.442   4.242
 9544SOL    HW229532   5.859   3.300   4.323
 9545SOL     OW29533   5.945   2.934   4.641
 9545SOL    HW129534   5.934   2.837   4.663
 9545SOL    HW229535   5.864   2.984   4.671
 9546SOL     OW29536   6.161   3.620   5.245
 9546SOL    HW129537   6.066   3.627   5.275
 9546SOL    HW229538   6.195   3.711   5.220
 9547SOL     OW29539   6.153   2.835   3.902
 9547SOL    HW129540   6.183   2.887   3.823
 9547SOL    HW229541   6.207   2.862   3.982
 9548SOL     OW29542   5.695   2.531   4.313
 9548SOL    HW129543   5.656   2.441   4.330
 9548SOL    HW229544   5.701   2.581   4.400
 9549SOL     OW29545   5.612   3.472   3.808
 9549SOL    HW129546   5.543   3.400   3.802
 9549SOL    HW229547   5.613   3.508   3.902
 9550SOL     OW29548   5.687   2.625   5.283
 9550SOL    HW129549   5.770   2.679   5.278
 9550SOL    HW229550   5.608   2.681   5.258
 9551SOL     OW29551   6.228   3.226   4.457
 9551SOL    HW129552   6.190   3.134   4.458
 9551SOL    HW229553   6.214   3.267   4.366
 9552SOL     OW29554   6.762   2.986   5.137
 9552SOL    HW129555   6.815   2.947   5.062
 9552SOL    HW229556   6.823   3.005   5.214
 9553SOL     OW29557   6.406   1.903   4.210
 9553SOL    HW129558   6.448   1.989   4.180
 9553SOL    HW229559   6.308   1.917   4.224
 9554SOL     OW29560   5.801   2.793   5.030
 9554SOL    HW129561   5.893   2.759   5.013
 9554SOL    HW229562   5.740   2.762   4.957
 9555SOL     OW29563   6.840   3.716   5.331
 9555SOL    HW129564   6.801   3.782   5.267
 9555SOL    HW229565   6.825   3.623   5.297
 9556SOL     OW29566   5.906   2.156   5.616
 9556SOL    HW129567   5.945   2.234   5.664
 9556SOL    HW229568   5.808   2.169   5.604
 9557SOL     OW29569   6.157   2.571   4.014
 9557SOL    HW129570   6.157   2.661   3.970
 9557SOL    HW229571   6.087   2.569   4.085
 9558SOL     OW29572   6.890   2.102   4.556
 9558SOL    HW129573   6.790   2.111   4.559
 9558SOL    HW229574   6.925   2.092   4.650
 9559SOL     OW29575   6.393   2.445   5.140
 9559SOL    HW129576   6.367   2.411   5.230
 9559SOL    HW229577   6.380   2.373   5.071
 9560SOL     OW29578   6.971   2.368   5.498
 9560SOL    HW129579   6.933   2.448   5.544
 9560SOL    HW229580   0.070   2.378   5.487
 9561SOL     OW29581   6.573   2.713   5.357
 9561SOL    HW129582   6.617   2.639   5.306
 9561SOL    HW229583   6.526   2.774   5.294
 9562SOL     OW29584   6.653   2.254   4.883
 9562SOL    HW129585   6.558   2.261   4.914
 9562SOL    HW229586   6.655   2.219   4.790
 9563SOL     OW29587   6.623   2.598   4.125
 9563SOL    HW129588   6.645   2.617   4.221
 9563SOL    HW229589   6.539   2.545   4.119
 9564SOL     OW29590   5.701   2.688   4.535
 9564SOL    HW129591   5.789   2.681   4.583
 9564SOL    HW229592   5.644   2.756   4.580
 9565SOL     OW29593   5.665   3.804   5.307
 9565SOL    HW129594   5.667   3.775   5.402
 9565SOL    HW229595   5.570   3.807   5.275
 9566SOL     OW29596   6.418   2.222   3.912
 9566SOL    HW129597   6.472   2.262   3.838
 9566SOL    HW229598   6.357   2.153   3.876
 9567SOL     OW29599   0.004   3.060   4.266
 9567SOL    HW129600   0.031   3.017   4.180
 9567SOL    HW229601   6.939   3.133   4.247
 9568SOL     OW29602   6.149   1.959   4.688
 9568SOL    HW129603   6.167   1.993   4.780
 9568SOL    HW229604   6.143   2.036   4.624
 9569SOL     OW29605   6.580   3.344   4.201
 9569SOL    HW129606   6.554   3.414   4.135
 9569SOL    HW229607   6.535   3.363   4.289
 9570SOL     OW29608   5.957   3.651   4.604
 9570SOL    HW129609   5.992   3.558   4.603
 9570SOL    HW229610   6.026   3.713   4.643
 9571SOL     OW29611   6.797   3.457   5.240
 9571SOL    HW129612   6.774   3.378   5.298
 9571SOL    HW229613   6.719   3.477   5.180
 9572SOL     OW29614   5.905   2.800   4.028
 9572SOL    HW129615   5.989   2.820   3.977
 9572SOL    HW229616   5.877   2.706   4.011
 9573SOL     OW29617   6.032   3.160   5.458
 9573SOL    HW129618   6.007   3.174   5.362
 9573SOL    HW229619   5.949   3.140   5.511
 9574SOL     OW29620   6.708   3.560   3.885
 9574SOL    HW129621   6.634   3.569   3.952
 9574SOL    HW229622   6.676   3.504   3.808
 9575SOL     OW29623   5.823   2.127   5.218
 9575SOL    HW129624   5.767   2.209   5.212
 9575SOL    HW229625   5.771   2.054   5.262
 9576SOL     OW29626   6.046   3.662   4.014
 9576SOL    HW129627   6.093   3.711   4.087
 9576SOL    HW229628   6.109   3.596   3.972
 9577SOL     OW29629   5.823   3.662   4.933
 9577SOL    HW129630   5.865   3.577   4.964
 9577SOL    HW229631   5.780   3.646   4.844
 9578SOL     OW29632   6.541   3.567   4.599
 9578SOL    HW129633   6.632   3.527   4.598
 9578SOL    HW229634   6.483   3.523   4.531
 9579SOL     OW29635   5.964   2.534   4.210
 9579SOL    HW129636   5.977   2.435   4.219
 9579SOL    HW229637   5.870   2.558   4.235
 9580SOL     OW29638   6.256   1.987   3.825
 9580SOL    HW129639   6.299   1.906   3.863
 9580SOL    HW229640   6.190   1.960   3.755
 9581SOL     OW29641   6.388   2.095   5.447
 9581SOL    HW129642   6.480   2.057   5.455
 9581SOL    HW229643   6.332   2.063   5.524
 9582SOL     OW29644   6.442   3.368   4.927
 9582SOL    HW129645   6.410   3.342   4.836
 9582SOL    HW229646   6.499   3.296   4.964
 9583SOL     OW29647   6.394   3.229   4.681
 9583SOL    HW129648   6.488   3.233   4.646
 9583SOL    HW229649   6.330   3.226   4.604
 9584SOL     OW29650   6.528   2.378   4.580
 9584SOL    HW129651   6.502   2.376   4.483
 9584SOL    HW229652   6.558   2.287   4.609
 9585SOL     OW29653   6.137   1.936   4.222
 9585SOL    HW129654   6.059   1.929   4.285
 9585SOL    HW229655   6.123   2.013   4.160
 9586SOL     OW29656   0.004   2.968   3.740
 9586SOL    HW129657   0.043   2.965   3.832
 9586SOL    HW229658   6.909   2.936   3.743
 9587SOL     OW29659   5.862   1.920   3.873
 9587SOL    HW129660   5.907   1.999   3.830
 9587SOL    HW229661   5.929   1.867   3.924
 9588SOL     OW29662   6.541   2.128   4.137
 9588SOL    HW129663   6.499   2.164   4.053
 9588SOL    HW229664   6.638   2.152   4.138
 9589SOL     OW29665   6.653   2.495   5.210
 9589SOL    HW129666   6.560   2.470   5.185
 9589SOL    HW229667   6.697   2.419   5.258
 9590SOL     OW29668   6.782   3.461   4.506
 9590SOL    HW129669   6.779   3.526   4.430
 9590SOL    HW229670   6.877   3.439   4.528
 9591SOL     OW29671   6.101   2.987   4.428
 9591SOL    HW129672   6.051   2.965   4.511
 9591SOL    HW229673   6.038   2.991   4.351
 9592SOL     OW29674   6.764   3.659   4.304
 9592SOL    HW129675   6.714   3.653   4.217
 9592SOL    HW229676   6.724   3.730   4.361
 9593SOL     OW29677   6.582   2.371   3.740
 9593SOL    HW129678   6.534   2.457   3.723
 9593SOL    HW229679   6.643   2.381   3.818
 9594SOL     OW29680   5.717   2.393   5.142
 9594SOL    HW129681   5.810   2.402   5.105
 9594SOL    HW229682   5.696   2.473   5.198
 9595SOL     OW29683   6.185   2.064   4.939
 9595SOL    HW129684   6.227   2.044   5.028
 9595SOL    HW229685   6.085   2.066   4.949
 9596SOL     OW29686   6.472   2.329   4.319
 9596SOL    HW129687   6.423   2.392   4.258
 9596SOL    HW229688   6.494   2.245   4.269
 9597SOL     OW29689   6.586   1.917   4.417
 9597SOL    HW129690   6.516   1.915   4.345
 9597SOL    HW229691   6.568   1.845   4.484
 9598SOL     OW29692   6.102   3.277   3.872
 9598SOL    HW129693   6.027   3.244   3.930
 9598SOL    HW229694   6.098   3.233   3.783
 9599SOL     OW29695   6.102   2.119   4.026
 9599SOL    HW129696   6.153   2.071   3.955
 9599SOL    HW229697   6.071   2.207   3.991
 9600SOL     OW29698   6.578   3.154   5.033
 9600SOL    HW129699   6.489   3.141   5.078
 9600SOL    HW229700   6.646   3.097   5.078
 9601SOL     OW29701   6.759   3.147   4.820
 9601SOL    HW129702   6.690   3.147   4.893
 9601SOL    HW229703   6.717   3.174   4.734
 9602SOL     OW29704   6.533   1.951   5.053
 9602SOL    HW129705   6.554   1.944   4.956
 9602SOL    HW229706   6.605   2.002   5.100
 9603SOL     OW29707   6.514   3.041   5.432
 9603SOL    HW129708   6.426   3.047   5.479
 9603SOL    HW229709   6.502   2.990   5.347
 9604SOL     OW29710   6.340   2.901   4.095
 9604SOL    HW129711   6.337   2.866   4.188
 9604SOL    HW229712   6.407   2.849   4.042
 9605SOL     OW29713   6.046   2.671   4.997
 9605SOL    HW129714   6.117   2.685   5.066
 9605SOL    HW229715   6.010   2.578   5.005
 9606SOL     OW29716   6.895   2.240   5.019
 9606SOL    HW129717   6.951   2.319   5.046
 9606SOL    HW229718   6.812   2.273   4.973
 9607SOL     OW29719   5.651   3.397   5.063
 9607SOL    HW129720   5.600   3.468   5.014
 9607SOL    HW229721   5.749   3.414   5.052
 9608SOL     OW29722   5.915   3.000   4.226
 9608SOL    HW129723   5.914   3.074   4.158
 9608SOL    HW229724   5.907   2.912   4.180
 9609SOL     OW29725   6.117   2.402   4.599
 9609SOL    HW129726   6.129   2.455   4.515
 9609SOL    HW229727   6.196   2.414   4.659
 9610SOL     OW29728   6.852   3.281   4.195
 9610SOL    HW129729   6.898   3.364   4.224
 9610SOL    HW229730   6.753   3.294   4.199
 9611SOL     OW29731   6.854   3.399   4.899
 9611SOL    HW129732   6.921   3.392   4.972
 9611SOL    HW229733   6.826   3.307   4.871
 9612SOL     OW29734   5.921   3.408   5.005
 9612SOL    HW129735   5.917   3.348   4.925
 9612SOL    HW229736   6.017   3.424   5.028
 9613SOL     OW29737   6.055   2.571   5.352
 9613SOL    HW129738   6.115   2.626   5.294
 9613SOL    HW229739   6.088   2.477   5.356
 9614SOL     OW29740   6.643   1.998   5.474
 9614SOL    HW129741   6.690   2.086   5.466
 9614SOL    HW229742   6.707   1.924   5.454
 9615SOL     OW29743   6.055   1.960   5.494
 9615SOL    HW129744   6.002   1.891   5.443
 9615SOL    HW229745   5.995   2.035   5.521
 9616SOL     OW29746   6.203   2.720   4.774
 9616SOL    HW129747   6.235   2.814   4.768
 9616SOL    HW229748   6.144   2.709   4.854
 9617SOL     OW29749   6.894   2.694   4.710
 9617SOL    HW129750   6.799   2.664   4.698
 9617SOL    HW229751   6.945   2.626   4.763
 9618SOL     OW29752   6.732   2.403   3.961
 9618SOL    HW129753   6.762   2.329   4.022
 9618SOL    HW229754   6.702   2.481   4.016
 9619SOL     OW29755   5.914   2.043   4.968
 9619SOL    HW129756   5.881   2.081   5.054
 9619SOL    HW229757   5.878   1.950   4.957
 9620SOL     OW29758   5.676   3.141   4.960
 9620SOL    HW129759   5.692   3.082   5.038
 9620SOL    HW229760   5.653   3.233   4.992
 9621SOL     OW29761   6.329   2.472   4.755
 9621SOL    HW129762   6.400   2.461   4.685
 9621SOL    HW229763   6.296   2.567   4.754
 9622SOL     OW29764   5.907   1.914   4.372
 9622SOL    HW129765   5.865   2.002   4.391
 9622SOL    HW229766   5.916   1.862   4.457
 9623SOL     OW29767   0.146   2.379   4.039
 9623SOL    HW129768   0.077   2.310   4.014
 9623SOL    HW229769   0.127   2.413   4.131
 9624SOL     OW29770   6.624   2.617   4.677
 9624SOL    HW129771   6.606   2.620   4.775
 9624SOL    HW229772   6.598   2.527   4.642
 9625SOL     OW29773   6.534   3.469   5.386
 9625SOL    HW129774   6.538   3.498   5.290
 9625SOL    HW229775   6.561   3.373   5.392
 9626SOL     OW29776   5.946   2.757   5.527
 9626SOL    HW129777   6.013   2.778   5.597
 9626SOL    HW229778   5.983   2.688   5.465
 9627SOL     OW29779   6.962   2.652   3.680
 9627SOL    HW129780   0.018   2.632   3.760
 9627SOL    HW229781   0.017   2.703   3.613
 9628SOL     OW29782   6.647   3.235   4.585
 9628SOL    HW129783   6.660   3.153   4.528
 9628SOL    HW229784   6.698   3.311   4.546
 9629SOL     OW29785   5.934   2.661   4.682
 9629SOL    HW129786   6.034   2.670   4.682
 9629SOL    HW229787   5.910   2.568   4.710
 9630SOL     OW29788   5.896   2.387   4.747
 9630SOL    HW129789   5.853   2.297   4.736
 9630SOL    HW229790   5.976   2.393   4.688
 9631SOL     OW29791   6.737   2.258   5.402
 9631SOL    HW129792   6.674   2.289   5.473
 9631SOL    HW229793   6.829   2.291   5.424
 9632SOL     OW29794   6.741   2.082   5.182
 9632SOL    HW129795   6.725   2.139   5.263
 9632SOL    HW229796   6.799   2.131   5.118
 9633SOL     OW29797   5.641   3.151   3.914
 9633SOL    HW129798   5.553   3.196   3.897
 9633SOL    HW229799   5.626   3.060   3.952
 9634SOL     OW29800   5.696   3.625   4.686
 9634SOL    HW129801   5.649   3.552   4.635
 9634SOL    HW229802   5.787   3.639   4.647
 9635SOL     OW29803   6.082   3.404   4.615
 9635SOL    HW129804   6.155   3.460   4.654
 9635SOL    HW229805   6.122   3.337   4.552
 9636SOL     OW29806   6.569   2.611   4.947
 9636SOL    HW129807   6.634   2.593   5.020
 9636SOL    HW229808   6.481   2.568   4.969
 9637SOL     OW29809   5.640   2.445   4.876
 9637SOL    HW129810   5.722   2.437   4.819
 9637SOL    HW229811   5.664   2.427   4.972
 9638SOL     OW29812   5.755   2.463   5.504
 9638SOL    HW129813   5.846   2.440   5.469
 9638SOL    HW229814   5.708   2.523   5.440
 9639SOL     OW29815   6.396   2.452   4.076
 9639SOL    HW129816   6.399   2.369   4.019
 9639SOL    HW229817   6.310   2.500   4.059
 9640SOL     OW29818   5.786   3.408   5.474
 9640SOL    HW129819   5.723   3.441   5.545
 9640SOL    HW229820   5.810   3.313   5.492
 9641SOL     OW29821   6.375   2.270   4.930
 9641SOL    HW129822   6.307   2.197   4.925
 9641SOL    HW229823   6.352   2.342   4.864
 9642SOL     OW29824   6.557   3.533   5.120
 9642SOL    HW129825   6.518   3.479   5.045
 9642SOL    HW229826   6.545   3.630   5.101
 9643SOL     OW29827   6.028   2.351   3.902
 9643SOL    HW129828   6.093   2.421   3.931
 9643SOL    HW229829   5.936   2.389   3.902
 9644SOL     OW29830   5.728   2.993   5.195
 9644SOL    HW129831   5.729   2.962   5.290
 9644SOL    HW229832   5.757   2.918   5.135
 9645SOL     OW29833   6.883   2.904   4.899
 9645SOL    HW129834   6.886   2.836   4.826
 9645SOL    HW229835   6.850   2.991   4.862
 9646SOL     OW29836   6.849   2.767   4.024
 9646SOL    HW129837   6.787   2.711   4.078
 9646SOL    HW229838   6.809   2.785   3.934
 9647SOL     OW29839   6.890   3.654   4.816
 9647SOL    HW129840   6.977   3.646   4.767
 9647SOL    HW229841   6.863   3.565   4.853
 9648SOL     OW29842   5.718   3.080   4.697
 9648SOL    HW129843   5.698   3.107   4.792
 9648SOL    HW229844   5.648   3.017   4.665
 9649SOL     OW29845   6.291   3.539   5.475
 9649SOL    HW129846   6.239   3.576   5.398
 9649SOL    HW229847   6.387   3.527   5.448
 9650SOL     OW29848   6.996   3.508   4.264
 9650SOL    HW129849   0.082   3.546   4.231
 9650SOL    HW229850   6.927   3.581   4.269
 9651SOL     OW29851   5.671   3.713   5.558
 9651SOL    HW129852   5.626   3.626   5.580
 9651SOL    HW229853   5.739   3.734   5.629
 9652SOL     OW29854   6.892   2.843   4.391
 9652SOL    HW129855   6.964   2.782   4.425
 9652SOL    HW229856   6.934   2.923   4.348
 9653SOL     OW29857   6.332   3.116   5.151
 9653SOL    HW129858   6.312   3.176   5.229
 9653SOL    HW229859   6.259   3.124   5.083
 9654SOL     OW29860   6.251   3.504   3.907
 9654SOL    HW129861   6.260   3.538   3.814
 9654SOL    HW229862   6.206   3.415   3.906
 9655SOL     OW29863   5.809   2.159   4.442
 9655SOL    HW129864   5.724   2.206   4.416
 9655SOL    HW229865   5.818   2.160   4.542
 9656SOL     OW29866   6.600   3.396   3.691
 9656SOL    HW129867   6.662   3.334   3.643
 9656SOL    HW229868   6.547   3.448   3.625
 9657SOL     OW29869   6.447   2.872   5.169
 9657SOL    HW129870   6.510   2.864   5.092
 9657SOL    HW229871   6.396   2.958   5.162
 9658SOL     OW29872   6.518   2.758   3.927
 9658SOL    HW129873   6.593   2.799   3.875
 9658SOL    HW229874   6.556   2.700   3.999
 9659SOL     OW29875   5.927   3.195   5.212
 9659SOL    HW129876   5.919   3.267   5.143
 9659SOL    HW229877   5.856   3.127   5.198
 9660SOL     OW29878   6.671   2.996   4.463
 9660SOL    HW129879   6.597   2.939   4.499
 9660SOL    HW229880   6.748   2.939   4.437
 9661SOL     OW29881   6.615   2.109   4.626
 9661SOL    HW129882   6.592   2.067   4.538
 9661SOL    HW229883   6.612   2.039   4.698
 9662SOL     OW29884   6.189   3.341   4.215
 9662SOL    HW129885   6.222   3.296   4.132
 9662SOL    HW229886   6.089   3.346   4.214
 9663SOL     OW29887   5.890   3.197   4.028
 9663SOL    HW129888   5.798   3.189   3.988
 9663SOL    HW229889   5.887   3.262   4.104
 9664SOL     OW29890   5.720   2.898   5.453
 9664SOL    HW129891   5.638   2.874   5.504
 9664SOL    HW229892   5.797   2.842   5.486
 9665SOL     OW29893   6.302   2.023   5.192
 9665SOL    HW129894   6.384   1.997   5.142
 9665SOL    HW229895   6.327   2.052   5.285
 9666SOL     OW29896   5.708   2.216   3.669
 9666SOL    HW129897   5.614   2.205   3.634
 9666SOL    HW229898   5.739   2.309   3.651
 9667SOL     OW29899   5.618   2.012   3.951
 9667SOL    HW129900   5.585   2.081   3.886
 9667SOL    HW229901   5.711   1.985   3.927
 9668SOL     OW29902   6.248   2.677   5.178
 9668SOL    HW129903   6.311   2.754   5.182
 9668SOL    HW229904   6.300   2.592   5.164
 9669SOL     OW29905   6.347   2.370   5.394
 9669SOL    HW129906   6.373   2.432   5.467
 9669SOL    HW229907   6.363   2.276   5.423
 9670SOL     OW29908   6.929   3.057   5.356
 9670SOL    HW129909   6.938   3.002   5.438
 9670SOL    HW229910   0.014   3.051   5.302
 9671SOL     OW29911   5.903   3.638   5.349
 9671SOL    HW129912   5.824   3.689   5.316
 9671SOL    HW229913   5.872   3.553   5.392
 9672SOL     OW29914   6.805   2.217   4.151
 9672SOL    HW129915   6.884   2.157   4.135
 9672SOL    HW229916   6.818   2.267   4.236
 9673SOL     OW29917   6.167   2.578   4.395
 9673SOL    HW129918   6.221   2.660   4.378
 9673SOL    HW229919   6.094   2.571   4.327
 9674SOL     OW29920   6.441   3.174   3.783
 9674SOL    HW129921   6.416   3.178   3.880
 9674SOL    HW229922   6.488   3.259   3.758
 9675SOL     OW29923   6.273   3.576   4.694
 9675SOL    HW129924   6.241   3.671   4.692
 9675SOL    HW229925   6.373   3.574   4.683
 9676SOL     OW29926   6.474   2.842   4.589
 9676SOL    HW129927   6.524   2.764   4.626
 9676SOL    HW229928   6.418   2.883   4.661
 9677SOL     OW29929   6.754   2.826   3.772
 9677SOL    HW129930   6.700   2.884   3.711
 9677SOL    HW229931   6.799   2.754   3.718
 9678SOL     OW29932   5.783   3.140   5.561
 9678SOL    HW129933   5.757   3.056   5.515
 9678SOL    HW229934   5.725   3.153   5.641
 9679SOL     OW29935   5.773   3.172   4.420
 9679SOL    HW129936   5.756   3.145   4.515
 9679SOL    HW229937   5.813   3.095   4.370
 9680SOL     OW29938   6.265   3.276   5.362
 9680SOL    HW129939   6.181   3.237   5.399
 9680SOL    HW229940   6.277   3.368   5.400
 9681SOL     OW29941   5.980   2.268   4.245
 9681SOL    HW129942   6.010   2.198   4.181
 9681SOL    HW229943   5.924   2.225   4.316
 9682SOL     OW29944   5.960   2.412   5.020
 9682SOL    HW129945   6.016   2.346   5.069
 9682SOL    HW229946   5.954   2.386   4.924
 9683SOL     OW29947   6.403   3.439   4.401
 9683SOL    HW129948   6.345   3.474   4.327
 9683SOL    HW229949   6.359   3.359   4.442
 9684SOL     OW29950   6.957   2.062   4.820
 9684SOL    HW129951   6.924   1.970   4.839
 9684SOL    HW229952   6.934   2.123   4.896
 9685SOL     OW29953   6.620   1.887   4.791
 9685SOL    HW129954   6.574   1.819   4.733
 9685SOL    HW229955   6.714   1.857   4.809
 9686SOL     OW29956   6.387   3.176   4.055
 9686SOL    HW129957   6.366   3.080   4.076
 9686SOL    HW229958   6.459   3.209   4.115
 9687SOL     OW29959   6.193   3.423   5.048
 9687SOL    HW129960   6.193   3.488   5.124
 9687SOL    HW229961   6.283   3.421   5.006
 9688SOL     OW29962   6.906   1.934   3.909
 9688SOL    HW129963   6.967   1.885   3.847
 9688SOL    HW229964   6.827   1.877   3.931
 9689SOL     OW29965   5.648   2.898   4.031
 9689SOL    HW129966   5.747   2.887   4.022
 9689SOL    HW229967   5.606   2.809   4.046
 9690SOL     OW29968   6.485   3.559   4.054
 9690SOL    HW129969   6.403   3.532   4.004
 9690SOL    HW229970   6.463   3.636   4.115
 9691SOL     OW29971   5.771   2.537   5.769
 9691SOL    HW129972   5.681   2.515   5.808
 9691SOL    HW229973   5.767   2.528   5.670
 9692SOL     OW29974   5.789   2.180   6.602
 9692SOL    HW129975   5.825   2.150   6.691
 9692SOL    HW229976   5.700   2.138   6.586
 9693SOL     OW29977   5.562   2.283   6.239
 9693SOL    HW129978   5.477   2.306   6.287
 9693SOL    HW229979   5.542   2.220   6.164
 9694SOL     OW29980   6.140   3.100   6.790
 9694SOL    HW129981   6.056   3.137   6.751
 9694SOL    HW229982   6.123   3.065   6.882
 9695SOL     OW29983   0.045   3.438   6.344
 9695SOL    HW129984   0.087   3.348   6.348
 9695SOL    HW229985   0.034   3.465   6.248
 9696SOL     OW29986   6.690   2.664   6.234
 9696SOL    HW129987   6.763   2.732   6.232
 9696SOL    HW229988   6.664   2.646   6.329
 9697SOL     OW29989   6.324   2.975   6.632
 9697SOL    HW129990   6.255   3.004   6.698
 9697SOL    HW229991   6.364   3.055   6.588
 9698SOL     OW29992   6.298   2.821   6.210
 9698SOL    HW129993   6.366   2.827   6.282
 9698SOL    HW229994   6.219   2.879   6.234
 9699SOL     OW29995   5.922   3.227   6.665
 9699SOL    HW129996   5.838   3.186   6.629
 9699SOL    HW229997   5.962   3.287   6.597
 9700SOL     OW29998   5.814   3.601   6.040
 9700SOL    HW129999   5.833   3.667   6.112
 9700SOL    HW230000   5.886   3.605   5.971
 9701SOL     OW30001   5.893   3.343   6.104
 9701SOL    HW130002   5.850   3.433   6.098
 9701SOL    HW230003   5.845   3.288   6.172
 9702SOL     OW30004   5.894   2.948   6.466
 9702SOL    HW130005   5.921   2.861   6.507
 9702SOL    HW230006   5.827   2.994   6.525
 9703SOL     OW30007   6.173   3.759   0.009
 9703SOL    HW130008   6.106   3.704   0.059
 9703SOL    HW230009   6.229   3.811   0.074
 9704SOL     OW30010   6.138   2.835   5.743
 9704SOL    HW130011   6.175   2.887   5.666
 9704SOL    HW230012   6.188   2.858   5.827
 9705SOL     OW30013   0.206   2.040   0.102
 9705SOL    HW130014   0.165   2.123   0.064
 9705SOL    HW230015   0.141   1.997   0.166
 9706SOL     OW30016   5.702   2.528   6.203
 9706SOL    HW130017   5.662   2.438   6.215
 9706SOL    HW230018   5.704   2.576   6.291
 9707SOL     OW30019   5.592   3.464   5.658
 9707SOL    HW130020   5.522   3.393   5.654
 9707SOL    HW230021   5.591   3.507   5.748
 9708SOL     OW30022   6.195   3.222   6.316
 9708SOL    HW130023   6.158   3.130   6.307
 9708SOL    HW230024   6.183   3.272   6.230
 9709SOL     OW30025   6.742   3.064   6.881
 9709SOL    HW130026   6.802   2.990   6.853
 9709SOL    HW230027   6.782   3.112   6.959
 9710SOL     OW30028   6.415   1.908   6.048
 9710SOL    HW130029   6.464   1.993   6.028
 9710SOL    HW230030   6.319   1.928   6.066
 9711SOL     OW30031   5.675   2.822   6.818
 9711SOL    HW130032   5.728   2.756   6.766
 9711SOL    HW230033   5.579   2.795   6.819
 9712SOL     OW30034   6.152   2.572   5.872
 9712SOL    HW130035   6.148   2.659   5.824
 9712SOL    HW230036   6.085   2.572   5.947
 9713SOL     OW30037   6.878   2.189   6.460
 9713SOL    HW130038   6.780   2.173   6.453
 9713SOL    HW230039   6.913   2.151   6.545
 9714SOL     OW30040   6.440   2.466   6.977
 9714SOL    HW130041   6.367   2.533   6.987
 9714SOL    HW230042   6.410   2.392   6.917
 9715SOL     OW30043   6.617   2.225   6.741
 9715SOL    HW130044   6.523   2.233   6.775
 9715SOL    HW230045   6.615   2.185   6.649
 9716SOL     OW30046   6.623   2.590   5.982
 9716SOL    HW130047   6.643   2.613   6.077
 9716SOL    HW230048   6.537   2.541   5.976
 9717SOL     OW30049   5.704   2.673   6.440
 9717SOL    HW130050   5.798   2.694   6.466
 9717SOL    HW230051   5.648   2.755   6.447
 9718SOL     OW30052   5.731   3.675   0.074
 9718SOL    HW130053   5.675   3.594   0.089
 9718SOL    HW230054   5.769   3.674   6.982
 9719SOL     OW30055   6.426   2.211   5.784
 9719SOL    HW130056   6.484   2.250   5.713
 9719SOL    HW230057   6.364   2.143   5.744
 9720SOL     OW30058   0.002   3.060   6.114
 9720SOL    HW130059   0.025   3.008   6.031
 9720SOL    HW230060   6.936   3.131   6.091
 9721SOL     OW30061   6.139   1.970   6.555
 9721SOL    HW130062   6.141   2.010   6.647
 9721SOL    HW230063   6.146   2.044   6.487
 9722SOL     OW30064   6.571   3.343   6.056
 9722SOL    HW130065   6.538   3.408   5.988
 9722SOL    HW230066   6.527   3.362   6.144
 9723SOL     OW30067   5.932   3.645   6.471
 9723SOL    HW130068   5.966   3.551   6.476
 9723SOL    HW230069   6.001   3.707   6.507
 9724SOL     OW30070   5.873   2.789   5.852
 9724SOL    HW130071   5.958   2.808   5.803
 9724SOL    HW230072   5.839   2.699   5.827
 9725SOL     OW30073   6.706   3.602   5.822
 9725SOL    HW130074   6.610   3.588   5.848
 9725SOL    HW230075   6.729   3.540   5.746
 9726SOL     OW30076   6.039   3.638   5.879
 9726SOL    HW130077   6.085   3.686   5.954
 9726SOL    HW230078   6.105   3.580   5.831
 9727SOL     OW30079   5.844   3.650   6.828
 9727SOL    HW130080   5.940   3.630   6.810
 9727SOL    HW230081   5.791   3.565   6.820
 9728SOL     OW30082   6.528   3.573   6.428
 9728SOL    HW130083   6.620   3.535   6.418
 9728SOL    HW230084   6.466   3.526   6.366
 9729SOL     OW30085   5.965   2.535   6.077
 9729SOL    HW130086   5.971   2.436   6.083
 9729SOL    HW230087   5.875   2.566   6.107
 9730SOL     OW30088   6.249   2.003   5.678
 9730SOL    HW130089   6.286   1.916   5.711
 9730SOL    HW230090   6.176   1.986   5.612
 9731SOL     OW30091   6.329   3.313   6.767
 9731SOL    HW130092   6.357   3.292   6.673
 9731SOL    HW230093   6.259   3.249   6.796
 9732SOL     OW30094   6.386   3.217   6.515
 9732SOL    HW130095   6.476   3.233   6.474
 9732SOL    HW230096   6.317   3.210   6.443
 9733SOL     OW30097   6.532   2.387   6.438
 9733SOL    HW130098   6.506   2.381   6.341
 9733SOL    HW230099   6.564   2.297   6.469
 9734SOL     OW30100   6.146   1.951   6.079
 9734SOL    HW130101   6.074   1.944   6.148
 9734SOL    HW230102   6.126   2.026   6.017
 9735SOL     OW30103   6.949   2.900   5.593
 9735SOL    HW130104   6.977   2.916   5.687
 9735SOL    HW230105   6.849   2.890   5.589
 9736SOL     OW30106   5.858   1.920   5.755
 9736SOL    HW130107   5.897   2.002   5.714
 9736SOL    HW230108   5.931   1.868   5.800
 9737SOL     OW30109   6.574   2.129   6.006
 9737SOL    HW130110   6.537   2.167   5.921
 9737SOL    HW230111   6.672   2.149   6.011
 9738SOL     OW30112   6.770   3.481   6.325
 9738SOL    HW130113   6.769   3.532   6.239
 9738SOL    HW230114   6.864   3.464   6.353
 9739SOL     OW30115   6.078   2.980   6.265
 9739SOL    HW130116   6.016   2.964   6.342
 9739SOL    HW230117   6.026   2.979   6.180
 9740SOL     OW30118   6.775   3.646   6.091
 9740SOL    HW130119   6.748   3.637   5.995
 9740SOL    HW230120   6.714   3.711   6.137
 9741SOL     OW30121   6.597   2.349   5.618
 9741SOL    HW130122   6.550   2.436   5.602
 9741SOL    HW230123   6.657   2.358   5.697
 9742SOL     OW30124   6.133   2.090   6.806
 9742SOL    HW130125   6.164   2.019   6.868
 9742SOL    HW230126   6.036   2.107   6.821
 9743SOL     OW30127   6.477   2.327   6.179
 9743SOL    HW130128   6.425   2.385   6.115
 9743SOL    HW230129   6.513   2.248   6.130
 9744SOL     OW30130   6.581   1.919   6.268
 9744SOL    HW130131   6.513   1.915   6.194
 9744SOL    HW230132   6.561   1.849   6.336
 9745SOL     OW30133   6.065   3.293   5.712
 9745SOL    HW130134   5.994   3.256   5.770
 9745SOL    HW230135   6.058   3.253   5.620
 9746SOL     OW30136   6.090   2.131   5.883
 9746SOL    HW130137   6.146   2.091   5.810
 9746SOL    HW230138   6.052   2.218   5.852
 9747SOL     OW30139   0.289   3.453   0.183
 9747SOL    HW130140   0.285   3.358   0.152
 9747SOL    HW230141   0.367   3.464   0.245
 9748SOL     OW30142   6.788   3.188   6.630
 9748SOL    HW130143   6.751   3.138   6.708
 9748SOL    HW230144   6.717   3.200   6.561
 9749SOL     OW30145   6.324   2.892   5.943
 9749SOL    HW130146   6.321   2.857   6.036
 9749SOL    HW230147   6.395   2.844   5.891
 9750SOL     OW30148   6.198   2.633   6.924
 9750SOL    HW130149   6.180   2.716   6.977
 9750SOL    HW230150   6.115   2.579   6.917
 9751SOL     OW30151   6.842   2.299   6.870
 9751SOL    HW130152   6.813   2.372   6.931
 9751SOL    HW230153   6.765   2.266   6.816
 9752SOL     OW30154   5.653   3.442   6.868
 9752SOL    HW130155   5.584   3.492   6.815
 9752SOL    HW230156   5.627   3.440   6.964
 9753SOL     OW30157   5.913   2.987   6.045
 9753SOL    HW130158   5.909   3.063   5.979
 9753SOL    HW230159   5.896   2.901   5.997
 9754SOL     OW30160   6.124   2.395   6.451
 9754SOL    HW130161   6.141   2.448   6.368
 9754SOL    HW230162   6.203   2.404   6.512
 9755SOL     OW30163   6.845   3.273   6.031
 9755SOL    HW130164   6.895   3.356   6.054
 9755SOL    HW230165   6.747   3.290   6.040
 9756SOL     OW30166   6.863   3.416   6.761
 9756SOL    HW130167   6.953   3.396   6.798
 9756SOL    HW230168   6.831   3.339   6.706
 9757SOL     OW30169   5.989   3.362   6.891
 9757SOL    HW130170   5.951   3.311   6.815
 9757SOL    HW230171   6.041   3.440   6.856
 9758SOL     OW30172   6.225   2.714   6.658
 9758SOL    HW130173   6.263   2.806   6.647
 9758SOL    HW230174   6.221   2.690   6.755
 9759SOL     OW30175   6.894   2.693   6.576
 9759SOL    HW130176   6.798   2.679   6.550
 9759SOL    HW230177   6.927   2.613   6.625
 9760SOL     OW30178   6.736   2.373   5.850
 9760SOL    HW130179   6.788   2.313   5.912
 9760SOL    HW230180   6.702   2.452   5.901
 9761SOL     OW30181   5.860   2.095   6.854
 9761SOL    HW130182   5.799   2.134   6.923
 9761SOL    HW230183   5.845   1.996   6.849
 9762SOL     OW30184   5.619   3.165   6.852
 9762SOL    HW130185   5.674   3.114   6.918
 9762SOL    HW230186   5.645   3.261   6.854
 9763SOL     OW30187   6.333   2.458   6.615
 9763SOL    HW130188   6.406   2.446   6.548
 9763SOL    HW230189   6.306   2.555   6.618
 9764SOL     OW30190   5.922   1.927   6.245
 9764SOL    HW130191   5.875   2.012   6.267
 9764SOL    HW230192   5.929   1.871   6.328
 9765SOL     OW30193   0.156   2.344   5.903
 9765SOL    HW130194   0.112   2.254   5.898
 9765SOL    HW230195   0.130   2.389   5.989
 9766SOL     OW30196   6.624   2.630   6.519
 9766SOL    HW130197   6.602   2.640   6.616
 9766SOL    HW230198   6.599   2.538   6.489
 9767SOL     OW30199   6.942   2.614   5.624
 9767SOL    HW130200   0.031   2.595   5.664
 9767SOL    HW230201   6.941   2.706   5.585
 9768SOL     OW30202   6.630   3.254   6.407
 9768SOL    HW130203   6.650   3.167   6.363
 9768SOL    HW230204   6.685   3.326   6.366
 9769SOL     OW30205   5.957   2.695   6.567
 9769SOL    HW130206   6.054   2.709   6.587
 9769SOL    HW230207   5.933   2.600   6.583
 9770SOL     OW30208   5.913   2.418   6.614
 9770SOL    HW130209   5.862   2.333   6.607
 9770SOL    HW230210   5.992   2.414   6.552
 9771SOL     OW30211   6.801   2.167   0.129
 9771SOL    HW130212   6.804   2.242   0.194
 9771SOL    HW230213   6.835   2.199   0.040
 9772SOL     OW30214   5.612   3.148   5.777
 9772SOL    HW130215   5.525   3.190   5.752
 9772SOL    HW230216   5.596   3.057   5.813
 9773SOL     OW30217   5.656   3.638   6.504
 9773SOL    HW130218   5.625   3.553   6.462
 9773SOL    HW230219   5.756   3.645   6.497
 9774SOL     OW30220   6.065   3.397   6.494
 9774SOL    HW130221   6.140   3.454   6.528
 9774SOL    HW230222   6.100   3.330   6.429
 9775SOL     OW30223   6.555   2.652   6.781
 9775SOL    HW130224   6.553   2.735   6.838
 9775SOL    HW230225   6.517   2.576   6.833
 9776SOL     OW30226   5.631   2.507   6.646
 9776SOL    HW130227   5.641   2.564   6.565
 9776SOL    HW230228   5.716   2.457   6.663
 9777SOL     OW30229   6.391   2.447   5.938
 9777SOL    HW130230   6.395   2.363   5.884
 9777SOL    HW230231   6.305   2.495   5.919
 9778SOL     OW30232   6.348   2.272   6.810
 9778SOL    HW130233   6.274   2.206   6.810
 9778SOL    HW230234   6.334   2.337   6.735
 9779SOL     OW30235   6.462   3.400   6.990
 9779SOL    HW130236   6.422   3.379   6.900
 9779SOL    HW230237   6.558   3.425   6.978
 9780SOL     OW30238   5.993   2.367   5.773
 9780SOL    HW130239   6.068   2.428   5.796
 9780SOL    HW230240   5.906   2.415   5.784
 9781SOL     OW30241   5.735   2.977   0.034
 9781SOL    HW130242   5.783   2.918   0.098
 9781SOL    HW230243   5.714   2.926   6.951
 9782SOL     OW30244   6.913   2.868   6.794
 9782SOL    HW130245   6.912   2.814   6.710
 9782SOL    HW230246   6.989   2.933   6.791
 9783SOL     OW30247   6.849   2.719   5.865
 9783SOL    HW130248   6.778   2.677   5.921
 9783SOL    HW230249   6.866   2.662   5.785
 9784SOL     OW30250   6.893   3.665   6.653
 9784SOL    HW130251   6.979   3.656   6.602
 9784SOL    HW230252   6.871   3.579   6.698
 9785SOL     OW30253   5.688   3.087   6.590
 9785SOL    HW130254   5.654   3.103   6.683
 9785SOL    HW230255   5.629   3.022   6.544
 9786SOL     OW30256   0.003   3.496   6.083
 9786SOL    HW130257   0.092   3.536   6.063
 9786SOL    HW230258   6.932   3.567   6.075
 9787SOL     OW30259   6.890   2.852   6.250
 9787SOL    HW130260   6.961   2.791   6.286
 9787SOL    HW230261   6.933   2.929   6.203
 9788SOL     OW30262   6.235   3.499   5.736
 9788SOL    HW130263   6.254   3.524   5.641
 9788SOL    HW230264   6.172   3.422   5.738
 9789SOL     OW30265   5.802   2.163   6.317
 9789SOL    HW130266   5.716   2.206   6.288
 9789SOL    HW230267   5.814   2.176   6.415
 9790SOL     OW30268   6.738   3.443   5.591
 9790SOL    HW130269   6.737   3.352   5.549
 9790SOL    HW230270   6.677   3.504   5.539
 9791SOL     OW30271   6.277   2.918   0.004
 9791SOL    HW130272   6.361   2.874   6.975
 9791SOL    HW230273   6.297   3.012   0.034
 9792SOL     OW30274   6.517   2.759   5.786
 9792SOL    HW130275   6.585   2.802   5.727
 9792SOL    HW230276   6.564   2.703   5.855
 9793SOL     OW30277   6.671   3.004   6.323
 9793SOL    HW130278   6.595   2.945   6.352
 9793SOL    HW230279   6.749   2.947   6.297
 9794SOL     OW30280   6.610   2.117   6.478
 9794SOL    HW130281   6.588   2.090   6.384
 9794SOL    HW230282   6.620   2.035   6.534
 9795SOL     OW30283   6.172   3.357   6.079
 9795SOL    HW130284   6.213   3.293   6.014
 9795SOL    HW230285   6.072   3.354   6.069
 9796SOL     OW30286   5.866   3.200   5.876
 9796SOL    HW130287   5.772   3.191   5.843
 9796SOL    HW230288   5.868   3.262   5.954
 9797SOL     OW30289   6.311   2.050   0.181
 9797SOL    HW130290   6.401   2.006   0.186
 9797SOL    HW230291   6.324   2.150   0.179
 9798SOL     OW30292   5.640   2.219   5.607
 9798SOL    HW130293   5.563   2.199   5.546
 9798SOL    HW230294   5.666   2.315   5.596
 9799SOL     OW30295   5.619   2.026   5.825
 9799SOL    HW130296   5.599   2.097   5.757
 9799SOL    HW230297   5.710   1.989   5.809
 9800SOL     OW30298   5.991   3.614   0.149
 9800SOL    HW130299   5.895   3.636   0.131
 9800SOL    HW230300   6.004   3.515   0.142
 9801SOL     OW30301   6.856   2.196   6.029
 9801SOL    HW130302   6.923   2.143   5.977
 9801SOL    HW230303   6.896   2.222   6.117
 9802SOL     OW30304   6.181   2.568   6.246
 9802SOL    HW130305   6.230   2.653   6.229
 9802SOL    HW230306   6.103   2.561   6.183
 9803SOL     OW30307   6.373   3.220   5.691
 9803SOL    HW130308   6.362   3.202   5.788
 9803SOL    HW230309   6.355   3.317   5.673
 9804SOL     OW30310   6.263   3.582   6.558
 9804SOL    HW130311   6.227   3.674   6.542
 9804SOL    HW230312   6.359   3.578   6.530
 9805SOL     OW30313   6.469   2.845   6.429
 9805SOL    HW130314   6.521   2.766   6.462
 9805SOL    HW230315   6.415   2.883   6.505
 9806SOL     OW30316   6.679   2.862   5.568
 9806SOL    HW130317   6.627   2.944   5.547
 9806SOL    HW230318   6.659   2.791   5.501
 9807SOL     OW30319   5.778   3.129   6.249
 9807SOL    HW130320   5.798   3.083   6.335
 9807SOL    HW230321   5.811   3.073   6.173
 9808SOL     OW30322   5.960   2.268   6.106
 9808SOL    HW130323   5.992   2.196   6.044
 9808SOL    HW230324   5.910   2.227   6.183
 9809SOL     OW30325   5.971   2.467   6.883
 9809SOL    HW130326   5.995   2.381   6.928
 9809SOL    HW230327   5.952   2.450   6.786
 9810SOL     OW30328   6.380   3.432   6.251
 9810SOL    HW130329   6.318   3.447   6.174
 9810SOL    HW230330   6.347   3.357   6.308
 9811SOL     OW30331   6.954   2.080   6.699
 9811SOL    HW130332   6.931   1.982   6.697
 9811SOL    HW230333   6.910   2.122   6.778
 9812SOL     OW30334   6.645   1.884   6.605
 9812SOL    HW130335   6.599   1.806   6.563
 9812SOL    HW230336   6.737   1.857   6.634
 9813SOL     OW30337   6.347   3.170   5.958
 9813SOL    HW130338   6.335   3.071   5.957
 9813SOL    HW230339   6.435   3.193   5.999
 9814SOL     OW30340   6.114   3.586   6.798
 9814SOL    HW130341   6.156   3.641   6.871
 9814SOL    HW230342   6.181   3.568   6.726
 9815SOL     OW30343   6.909   1.926   5.693
 9815SOL    HW130344   6.973   1.860   5.653
 9815SOL    HW230345   6.827   1.879   5.724
 9816SOL     OW30346   5.614   2.890   5.900
 9816SOL    HW130347   5.708   2.877   5.868
 9816SOL    HW230348   5.580   2.805   5.940
 9817SOL     OW30349   6.451   3.547   5.905
 9817SOL    HW130350   6.372   3.522   5.848
 9817SOL    HW230351   6.429   3.626   5.961
 9818SOL     OW30352   5.814   4.405   0.102
 9818SOL    HW130353   5.721   4.373   0.121
 9818SOL    HW230354   5.839   4.381   0.009
 9819SOL     OW30355   5.790   4.052   1.011
 9819SOL    HW130356   5.840   4.010   1.088
 9819SOL    HW230357   5.710   3.996   0.990
 9820SOL     OW30358   5.569   4.146   0.638
 9820SOL    HW130359   5.485   4.174   0.684
 9820SOL    HW230360   5.548   4.077   0.569
 9821SOL     OW30361   6.138   5.023   1.243
 9821SOL    HW130362   6.054   5.025   1.189
 9821SOL    HW230363   6.157   5.115   1.278
 9822SOL     OW30364   0.038   5.236   0.784
 9822SOL    HW130365   0.092   5.152   0.776
 9822SOL    HW230366   0.017   5.271   0.693
 9823SOL     OW30367   6.660   4.496   0.719
 9823SOL    HW130368   6.717   4.569   0.681
 9823SOL    HW230369   6.709   4.453   0.796
 9824SOL     OW30370   6.286   4.859   1.069
 9824SOL    HW130371   6.233   4.894   1.146
 9824SOL    HW230372   6.325   4.936   1.017
 9825SOL     OW30373   6.432   4.404   1.829
 9825SOL    HW130374   6.362   4.448   1.885
 9825SOL    HW230375   6.467   4.469   1.762
 9826SOL     OW30376   6.312   4.736   0.641
 9826SOL    HW130377   6.361   4.727   0.728
 9826SOL    HW230378   6.228   4.787   0.656
 9827SOL     OW30379   6.299   4.878   1.829
 9827SOL    HW130380   6.338   4.959   1.874
 9827SOL    HW230381   6.215   4.902   1.782
 9828SOL     OW30382   5.918   5.094   1.087
 9828SOL    HW130383   5.843   5.038   1.050
 9828SOL    HW230384   5.959   5.148   1.014
 9829SOL     OW30385   6.082   4.093   1.436
 9829SOL    HW130386   6.155   4.027   1.454
 9829SOL    HW230387   5.995   4.057   1.470
 9830SOL     OW30388   5.826   5.415   0.483
 9830SOL    HW130389   5.837   5.490   0.548
 9830SOL    HW230390   5.910   5.402   0.431
 9831SOL     OW30391   6.720   5.027   1.724
 9831SOL    HW130392   6.798   4.989   1.675
 9831SOL    HW230393   6.656   4.954   1.747
 9832SOL     OW30394   5.765   5.137   0.441
 9832SOL    HW130395   5.775   5.230   0.477
 9832SOL    HW230396   5.736   5.076   0.515
 9833SOL     OW30397   5.859   4.807   0.831
 9833SOL    HW130398   5.866   4.710   0.855
 9833SOL    HW230399   5.807   4.855   0.901
 9834SOL     OW30400   6.170   5.482   1.526
 9834SOL    HW130401   6.075   5.485   1.557
 9834SOL    HW230402   6.201   5.575   1.506
 9835SOL     OW30403   6.146   4.694   0.166
 9835SOL    HW130404   6.181   4.735   0.082
 9835SOL    HW230405   6.195   4.731   0.245
 9836SOL     OW30406   5.717   4.380   0.579
 9836SOL    HW130407   5.670   4.294   0.594
 9836SOL    HW230408   5.699   4.442   0.655
 9837SOL     OW30409   5.550   5.323   0.125
 9837SOL    HW130410   5.494   5.240   0.130
 9837SOL    HW230411   5.566   5.357   0.217
 9838SOL     OW30412   5.695   4.498   1.547
 9838SOL    HW130413   5.776   4.555   1.560
 9838SOL    HW230414   5.618   4.555   1.519
 9839SOL     OW30415   6.196   5.111   0.726
 9839SOL    HW130416   6.158   5.018   0.728
 9839SOL    HW230417   6.186   5.148   0.633
 9840SOL     OW30418   6.752   4.843   1.419
 9840SOL    HW130419   6.795   4.801   1.339
 9840SOL    HW230420   6.821   4.856   1.490
 9841SOL     OW30421   6.390   3.791   0.503
 9841SOL    HW130422   6.427   3.878   0.473
 9841SOL    HW230423   6.291   3.799   0.515
 9842SOL     OW30424   5.803   4.694   1.305
 9842SOL    HW130425   5.889   4.643   1.303
 9842SOL    HW230426   5.758   4.688   1.216
 9843SOL     OW30427   6.833   5.573   1.616
 9843SOL    HW130428   6.794   5.642   1.555
 9843SOL    HW230429   6.818   5.482   1.577
 9844SOL     OW30430   5.922   4.033   1.887
 9844SOL    HW130431   5.965   4.110   1.935
 9844SOL    HW230432   5.830   4.059   1.858
 9845SOL     OW30433   6.140   4.455   0.311
 9845SOL    HW130434   6.137   4.543   0.264
 9845SOL    HW230435   6.084   4.459   0.394
 9846SOL     OW30436   6.847   4.017   0.836
 9846SOL    HW130437   6.749   4.005   0.846
 9846SOL    HW230438   6.893   3.982   0.918
 9847SOL     OW30439   6.377   4.312   1.388
 9847SOL    HW130440   6.362   4.259   1.472
 9847SOL    HW230441   6.349   4.257   1.309
 9848SOL     OW30442   0.024   4.164   1.607
 9848SOL    HW130443   0.014   4.219   1.525
 9848SOL    HW230444   0.113   4.180   1.649
 9849SOL     OW30445   6.541   4.567   1.635
 9849SOL    HW130446   6.591   4.492   1.592
 9849SOL    HW230447   6.493   4.619   1.565
 9850SOL     OW30448   6.608   4.152   1.119
 9850SOL    HW130449   6.512   4.164   1.147
 9850SOL    HW230450   6.613   4.080   1.050
 9851SOL     OW30451   6.604   4.458   0.437
 9851SOL    HW130452   6.615   4.462   0.536
 9851SOL    HW230453   6.515   4.418   0.415
 9852SOL     OW30454   5.669   4.550   0.791
 9852SOL    HW130455   5.753   4.537   0.843
 9852SOL    HW230456   5.612   4.619   0.836
 9853SOL     OW30457   5.692   5.647   1.576
 9853SOL    HW130458   5.677   5.627   1.673
 9853SOL    HW230459   5.606   5.642   1.526
 9854SOL     OW30460   6.470   4.119   0.177
 9854SOL    HW130461   6.443   4.185   0.106
 9854SOL    HW230462   6.546   4.063   0.143
 9855SOL     OW30463   0.000   4.891   0.517
 9855SOL    HW130464   0.062   4.873   0.441
 9855SOL    HW230465   6.938   4.965   0.492
 9856SOL     OW30466   6.152   3.804   0.951
 9856SOL    HW130467   6.166   3.854   1.037
 9856SOL    HW230468   6.170   3.865   0.874
 9857SOL     OW30469   6.565   5.155   0.482
 9857SOL    HW130470   6.533   5.239   0.439
 9857SOL    HW230471   6.543   5.158   0.580
 9858SOL     OW30472   5.938   5.506   0.892
 9858SOL    HW130473   5.973   5.412   0.895
 9858SOL    HW230474   6.009   5.569   0.923
 9859SOL     OW30475   6.795   5.320   1.513
 9859SOL    HW130476   6.779   5.245   1.577
 9859SOL    HW230477   6.714   5.335   1.457
 9860SOL     OW30478   5.872   4.662   0.187
 9860SOL    HW130479   5.971   4.678   0.182
 9860SOL    HW230480   5.853   4.567   0.159
 9861SOL     OW30481   6.054   5.009   1.745
 9861SOL    HW130482   6.025   5.027   1.651
 9861SOL    HW230483   5.974   4.988   1.801
 9862SOL     OW30484   6.700   5.464   0.311
 9862SOL    HW130485   6.610   5.429   0.338
 9862SOL    HW230486   6.730   5.419   0.227
 9863SOL     OW30487   5.822   4.003   1.474
 9863SOL    HW130488   5.764   4.085   1.473
 9863SOL    HW230489   5.772   3.927   1.516
 9864SOL     OW30490   0.317   5.026   0.078
 9864SOL    HW130491   0.326   5.090   0.002
 9864SOL    HW230492   0.264   4.947   0.048
 9865SOL     OW30493   6.082   5.437   0.364
 9865SOL    HW130494   6.107   5.518   0.417
 9865SOL    HW230495   6.153   5.419   0.296
 9866SOL     OW30496   5.802   5.518   1.218
 9866SOL    HW130497   5.851   5.437   1.252
 9866SOL    HW230498   5.764   5.498   1.128
 9867SOL     OW30499   6.533   5.417   0.887
 9867SOL    HW130500   6.623   5.374   0.888
 9867SOL    HW230501   6.477   5.375   0.816
 9868SOL     OW30502   6.004   4.402   0.551
 9868SOL    HW130503   6.020   4.304   0.562
 9868SOL    HW230504   5.906   4.420   0.554
 9869SOL     OW30505   6.372   3.938   1.709
 9869SOL    HW130506   6.465   3.905   1.722
 9869SOL    HW230507   6.313   3.901   1.781
 9870SOL     OW30508   6.427   5.219   1.205
 9870SOL    HW130509   6.396   5.196   1.113
 9870SOL    HW230510   6.481   5.143   1.241
 9871SOL     OW30511   6.372   5.090   0.948
 9871SOL    HW130512   6.465   5.088   0.913
 9871SOL    HW230513   6.308   5.107   0.873
 9872SOL     OW30514   6.473   4.205   0.851
 9872SOL    HW130515   6.450   4.199   0.754
 9872SOL    HW230516   6.502   4.116   0.885
 9873SOL     OW30517   6.115   3.812   0.526
 9873SOL    HW130518   6.030   3.797   0.577
 9873SOL    HW230519   6.102   3.885   0.459
 9874SOL     OW30520   6.528   4.018   0.426
 9874SOL    HW130521   6.500   4.058   0.339
 9874SOL    HW230522   6.627   4.030   0.438
 9875SOL     OW30523   6.635   4.340   1.508
 9875SOL    HW130524   6.545   4.316   1.471
 9875SOL    HW230525   6.674   4.261   1.554
 9876SOL     OW30526   6.762   5.289   0.781
 9876SOL    HW130527   6.758   5.357   0.707
 9876SOL    HW230528   6.858   5.271   0.804
 9877SOL     OW30529   6.081   4.868   0.689
 9877SOL    HW130530   6.004   4.847   0.749
 9877SOL    HW230531   6.051   4.867   0.594
 9878SOL     OW30532   6.759   5.490   0.582
 9878SOL    HW130533   6.737   5.494   0.484
 9878SOL    HW230534   6.711   5.564   0.630
 9879SOL     OW30535   6.687   4.312   6.994
 9879SOL    HW130536   6.589   4.325   6.982
 9879SOL    HW230537   6.708   4.307   0.092
 9880SOL     OW30538   5.706   4.270   1.393
 9880SOL    HW130539   5.799   4.275   1.356
 9880SOL    HW230540   5.689   4.350   1.451
 9881SOL     OW30541   6.179   3.947   1.186
 9881SOL    HW130542   6.224   3.920   1.271
 9881SOL    HW230543   6.080   3.946   1.199
 9882SOL     OW30544   6.427   4.208   0.593
 9882SOL    HW130545   6.383   4.270   0.527
 9882SOL    HW230546   6.463   4.128   0.545
 9883SOL     OW30547   6.572   3.781   0.705
 9883SOL    HW130548   6.505   3.780   0.631
 9883SOL    HW230549   6.554   3.704   0.767
 9884SOL     OW30550   6.063   5.206   0.118
 9884SOL    HW130551   6.012   5.138   0.172
 9884SOL    HW230552   6.047   5.188   0.021
 9885SOL     OW30553   6.096   4.012   0.344
 9885SOL    HW130554   6.164   3.967   0.286
 9885SOL    HW230555   6.055   4.088   0.294
 9886SOL     OW30556   6.560   5.001   1.312
 9886SOL    HW130557   6.474   4.988   1.360
 9886SOL    HW230558   6.632   4.948   1.358
 9887SOL     OW30559   6.737   5.003   1.097
 9887SOL    HW130560   6.669   5.002   1.170
 9887SOL    HW230561   6.692   5.025   1.010
 9888SOL     OW30562   6.519   3.817   1.323
 9888SOL    HW130563   6.552   3.790   1.233
 9888SOL    HW230564   6.593   3.864   1.372
 9889SOL     OW30565   6.565   4.796   1.787
 9889SOL    HW130566   6.471   4.828   1.800
 9889SOL    HW230567   6.564   4.716   1.726
 9890SOL     OW30568   6.318   4.774   0.366
 9890SOL    HW130569   6.314   4.754   0.464
 9890SOL    HW230570   6.403   4.738   0.328
 9891SOL     OW30571   6.032   4.544   1.299
 9891SOL    HW130572   6.095   4.550   1.377
 9891SOL    HW230573   5.995   4.452   1.293
 9892SOL     OW30574   6.844   4.115   1.255
 9892SOL    HW130575   6.899   4.198   1.266
 9892SOL    HW230576   6.757   4.138   1.210
 9893SOL     OW30577   5.634   5.266   1.351
 9893SOL    HW130578   5.583   5.332   1.295
 9893SOL    HW230579   5.732   5.283   1.340
 9894SOL     OW30580   5.983   4.853   0.441
 9894SOL    HW130581   5.980   4.917   0.365
 9894SOL    HW230582   5.898   4.801   0.445
 9895SOL     OW30583   6.229   4.391   0.942
 9895SOL    HW130584   6.206   4.404   0.846
 9895SOL    HW230585   6.195   4.468   0.996
 9896SOL     OW30586   6.834   5.095   0.441
 9896SOL    HW130587   6.884   5.177   0.469
 9896SOL    HW230588   6.736   5.110   0.450
 9897SOL     OW30589   6.843   5.253   1.165
 9897SOL    HW130590   6.911   5.247   1.238
 9897SOL    HW230591   6.810   5.161   1.142
 9898SOL     OW30592   5.909   5.270   1.294
 9898SOL    HW130593   5.902   5.204   1.219
 9898SOL    HW230594   6.006   5.287   1.314
 9899SOL     OW30595   5.988   4.534   1.662
 9899SOL    HW130596   6.069   4.516   1.606
 9899SOL    HW230597   5.946   4.448   1.689
 9900SOL     OW30598   6.633   3.871   1.741
 9900SOL    HW130599   6.678   3.959   1.726
 9900SOL    HW230600   6.691   3.797   1.706
 9901SOL     OW30601   6.066   3.824   1.785
 9901SOL    HW130602   6.012   3.754   1.737
 9901SOL    HW230603   6.009   3.903   1.806
 9902SOL     OW30604   6.139   4.621   1.060
 9902SOL    HW130605   6.189   4.708   1.060
 9902SOL    HW230606   6.104   4.603   1.152
 9903SOL     OW30607   6.872   4.530   0.989
 9903SOL    HW130608   6.782   4.492   1.009
 9903SOL    HW230609   6.940   4.491   1.051
 9904SOL     OW30610   6.747   4.302   0.268
 9904SOL    HW130611   6.765   4.217   0.317
 9904SOL    HW230612   6.693   4.363   0.326
 9905SOL     OW30613   5.909   3.922   1.223
 9905SOL    HW130614   5.879   3.957   1.312
 9905SOL    HW230615   5.876   3.828   1.213
 9906SOL     OW30616   5.648   5.004   1.270
 9906SOL    HW130617   5.678   4.951   1.349
 9906SOL    HW230618   5.632   5.099   1.297
 9907SOL     OW30619   5.876   3.774   0.659
 9907SOL    HW130620   5.841   3.865   0.682
 9907SOL    HW230621   5.893   3.723   0.743
 9908SOL     OW30622   0.228   4.100   0.403
 9908SOL    HW130623   0.313   4.091   0.454
 9908SOL    HW230624   0.198   4.196   0.406
 9909SOL     OW30625   6.617   4.417   1.017
 9909SOL    HW130626   6.589   4.463   1.101
 9909SOL    HW230627   6.619   4.318   1.032
 9910SOL     OW30628   6.535   5.307   1.667
 9910SOL    HW130629   6.538   5.337   1.572
 9910SOL    HW230630   6.512   5.209   1.670
 9911SOL     OW30631   5.971   4.685   1.886
 9911SOL    HW130632   6.059   4.692   1.932
 9911SOL    HW230633   5.982   4.632   1.801
 9912SOL     OW30634   6.872   4.524   6.960
 9912SOL    HW130635   6.812   4.446   6.942
 9912SOL    HW230636   6.908   4.559   6.874
 9913SOL     OW30637   6.624   5.064   0.854
 9913SOL    HW130638   6.635   4.985   0.793
 9913SOL    HW230639   6.677   5.141   0.818
 9914SOL     OW30640   5.902   4.541   0.941
 9914SOL    HW130641   5.985   4.584   0.975
 9914SOL    HW230642   5.901   4.445   0.967
 9915SOL     OW30643   5.956   4.273   1.011
 9915SOL    HW130644   5.896   4.195   0.995
 9915SOL    HW230645   6.038   4.264   0.955
 9916SOL     OW30646   6.748   4.119   1.657
 9916SOL    HW130647   6.708   4.158   1.740
 9916SOL    HW230648   6.845   4.142   1.653
 9917SOL     OW30649   6.734   3.944   1.439
 9917SOL    HW130650   6.726   4.000   1.522
 9917SOL    HW230651   6.781   3.996   1.368
 9918SOL     OW30652   5.677   5.472   0.972
 9918SOL    HW130653   5.630   5.399   0.922
 9918SOL    HW230654   5.768   5.486   0.932
 9919SOL     OW30655   6.059   5.258   0.914
 9919SOL    HW130656   6.134   5.311   0.954
 9919SOL    HW230657   6.093   5.202   0.839
 9920SOL     OW30658   6.545   4.499   1.266
 9920SOL    HW130659   6.623   4.498   1.328
 9920SOL    HW230660   6.473   4.440   1.303
 9921SOL     OW30661   5.600   4.241   1.134
 9921SOL    HW130662   5.663   4.183   1.082
 9921SOL    HW230663   5.638   4.260   1.224
 9922SOL     OW30664   5.795   4.351   1.760
 9922SOL    HW130665   5.753   4.262   1.777
 9922SOL    HW230666   5.742   4.400   1.689
 9923SOL     OW30667   6.377   4.335   0.354
 9923SOL    HW130668   6.394   4.264   0.286
 9923SOL    HW230669   6.291   4.381   0.334
 9924SOL     OW30670   5.785   5.263   1.751
 9924SOL    HW130671   5.727   5.297   1.825
 9924SOL    HW230672   5.813   5.169   1.771
 9925SOL     OW30673   6.330   4.181   1.149
 9925SOL    HW130674   6.273   4.098   1.156
 9925SOL    HW230675   6.298   4.236   1.071
 9926SOL     OW30676   6.548   5.380   1.402
 9926SOL    HW130677   6.508   5.328   1.326
 9926SOL    HW230678   6.536   5.478   1.385
 9927SOL     OW30679   6.006   4.235   0.219
 9927SOL    HW130680   6.066   4.308   0.251
 9927SOL    HW230681   5.925   4.276   0.176
 9928SOL     OW30682   5.732   4.864   1.499
 9928SOL    HW130683   5.737   4.823   1.591
 9928SOL    HW230684   5.760   4.796   1.431
 9929SOL     OW30685   6.841   4.754   1.173
 9929SOL    HW130686   6.859   4.691   1.098
 9929SOL    HW230687   6.818   4.844   1.137
 9930SOL     OW30688   6.941   4.493   0.219
 9930SOL    HW130689   6.875   4.426   0.253
 9930SOL    HW230690   6.924   4.512   0.123
 9931SOL     OW30691   6.883   5.510   1.086
 9931SOL    HW130692   6.969   5.500   1.036
 9931SOL    HW230693   6.855   5.421   1.121
 9932SOL     OW30694   5.702   4.924   1.017
 9932SOL    HW130695   5.675   4.952   1.109
 9932SOL    HW230696   5.626   4.875   0.974
 9933SOL     OW30697   6.299   5.406   1.759
 9933SOL    HW130698   6.248   5.446   1.682
 9933SOL    HW230699   6.394   5.390   1.731
 9934SOL     OW30700   6.652   3.938   0.085
 9934SOL    HW130701   6.625   3.933   6.989
 9934SOL    HW230702   6.653   3.846   0.124
 9935SOL     OW30703   6.968   5.320   0.533
 9935SOL    HW130704   0.053   5.360   0.500
 9935SOL    HW230705   6.900   5.392   0.544
 9936SOL     OW30706   5.671   5.571   1.833
 9936SOL    HW130707   5.629   5.485   1.861
 9936SOL    HW230708   5.737   5.600   1.903
 9937SOL     OW30709   6.854   4.694   0.646
 9937SOL    HW130710   6.922   4.631   0.686
 9937SOL    HW230711   6.901   4.764   0.593
 9938SOL     OW30712   6.322   4.965   1.441
 9938SOL    HW130713   6.311   5.028   1.518
 9938SOL    HW230714   6.246   4.975   1.378
 9939SOL     OW30715   6.283   5.351   0.192
 9939SOL    HW130716   6.360   5.346   0.128
 9939SOL    HW230717   6.211   5.289   0.161
 9940SOL     OW30718   5.806   4.033   0.729
 9940SOL    HW130719   5.722   4.074   0.693
 9940SOL    HW230720   5.807   4.043   0.829
 9941SOL     OW30721   6.782   5.352   0.076
 9941SOL    HW130722   6.863   5.307   0.114
 9941SOL    HW230723   6.795   5.366   6.978
 9942SOL     OW30724   6.407   4.704   1.441
 9942SOL    HW130725   6.457   4.690   1.356
 9942SOL    HW230726   6.377   4.799   1.448
 9943SOL     OW30727   6.551   4.680   0.271
 9943SOL    HW130728   6.583   4.680   0.176
 9943SOL    HW230729   6.589   4.601   0.319
 9944SOL     OW30730   5.935   5.060   1.507
 9944SOL    HW130731   5.919   5.135   1.443
 9944SOL    HW230732   5.861   4.993   1.499
 9945SOL     OW30733   6.623   4.829   0.707
 9945SOL    HW130734   6.569   4.827   0.623
 9945SOL    HW230735   6.711   4.785   0.691
 9946SOL     OW30736   6.586   3.953   0.919
 9946SOL    HW130737   6.572   3.906   0.832
 9946SOL    HW230738   6.600   3.885   0.991
 9947SOL     OW30739   6.189   5.206   0.478
 9947SOL    HW130740   6.234   5.149   0.409
 9947SOL    HW230741   6.135   5.277   0.433
 9948SOL     OW30742   5.896   5.022   0.236
 9948SOL    HW130743   5.834   4.984   0.167
 9948SOL    HW230744   5.843   5.067   0.308
 9949SOL     OW30745   5.734   4.756   1.751
 9949SOL    HW130746   5.648   4.730   1.796
 9949SOL    HW230747   5.811   4.719   1.802
 9950SOL     OW30748   6.286   3.889   1.450
 9950SOL    HW130749   6.368   3.859   1.402
 9950SOL    HW230750   6.309   3.909   1.545
 9951SOL     OW30751   5.682   4.114   6.949
 9951SOL    HW130752   5.615   4.052   6.907
 9951SOL    HW230753   5.633   4.180   0.007
 9952SOL     OW30754   5.640   3.864   0.247
 9952SOL    HW130755   5.665   3.957   0.219
 9952SOL    HW230756   5.678   3.799   0.181
 9953SOL     OW30757   6.216   4.515   1.499
 9953SOL    HW130758   6.277   4.594   1.491
 9953SOL    HW230759   6.263   4.433   1.468
 9954SOL     OW30760   6.375   4.203   1.633
 9954SOL    HW130761   6.384   4.264   1.711
 9954SOL    HW230762   6.370   4.108   1.665
 9955SOL     OW30763   6.943   4.896   1.621
 9955SOL    HW130764   6.965   4.868   1.714
 9955SOL    HW230765   0.024   4.889   1.563
 9956SOL     OW30766   5.915   5.485   1.632
 9956SOL    HW130767   5.839   5.542   1.601
 9956SOL    HW230768   5.879   5.402   1.673
 9957SOL     OW30769   6.796   4.090   0.443
 9957SOL    HW130770   6.867   4.025   0.419
 9957SOL    HW230771   6.822   4.141   0.524
 9958SOL     OW30772   6.243   4.474   0.680
 9958SOL    HW130773   6.263   4.567   0.651
 9958SOL    HW230774   6.162   4.441   0.633
 9959SOL     OW30775   6.369   5.063   0.048
 9959SOL    HW130776   6.347   5.048   0.144
 9959SOL    HW230777   6.431   5.141   0.039
 9960SOL     OW30778   6.263   5.423   0.981
 9960SOL    HW130779   6.230   5.517   0.972
 9960SOL    HW230780   6.362   5.420   0.969
 9961SOL     OW30781   6.442   4.686   0.881
 9961SOL    HW130782   6.521   4.738   0.849
 9961SOL    HW230783   6.398   4.734   0.957
 9962SOL     OW30784   6.657   4.687   0.008
 9962SOL    HW130785   6.681   4.782   6.991
 9962SOL    HW230786   6.739   4.630   0.001
 9963SOL     OW30787   5.800   5.002   1.849
 9963SOL    HW130788   5.772   4.917   1.803
 9963SOL    HW230789   5.743   5.015   1.931
 9964SOL     OW30790   5.693   4.922   0.615
 9964SOL    HW130791   5.747   4.889   0.693
 9964SOL    HW230792   5.702   4.858   0.539
 9965SOL     OW30793   6.275   5.143   1.647
 9965SOL    HW130794   6.196   5.095   1.686
 9965SOL    HW230795   6.275   5.238   1.678
 9966SOL     OW30796   6.027   4.136   0.589
 9966SOL    HW130797   6.051   4.087   0.505
 9966SOL    HW230798   5.948   4.092   0.632
 9967SOL     OW30799   5.956   4.284   1.286
 9967SOL    HW130800   6.012   4.216   1.334
 9967SOL    HW230801   5.964   4.271   1.187
 9968SOL     OW30802   6.403   5.301   0.681
 9968SOL    HW130803   6.397   5.337   0.588
 9968SOL    HW230804   6.325   5.242   0.700
 9969SOL     OW30805   6.940   3.926   1.076
 9969SOL    HW130806   6.926   3.829   1.098
 9969SOL    HW230807   6.907   3.983   1.151
 9970SOL     OW30808   6.634   3.739   1.084
 9970SOL    HW130809   6.587   3.672   1.026
 9970SOL    HW230810   6.728   3.710   1.099
 9971SOL     OW30811   6.351   5.041   0.324
 9971SOL    HW130812   6.330   4.944   0.337
 9971SOL    HW230813   6.437   5.063   0.371
 9972SOL     OW30814   6.183   5.284   1.330
 9972SOL    HW130815   6.188   5.351   1.405
 9972SOL    HW230816   6.272   5.280   1.283
 9973SOL     OW30817   5.733   4.733   0.413
 9973SOL    HW130818   5.781   4.714   0.327
 9973SOL    HW230819   5.654   4.672   0.421
 9974SOL     OW30820   6.450   5.396   0.405
 9974SOL    HW130821   6.385   5.377   0.331
 9974SOL    HW230822   6.434   5.488   0.440
 9975SOL     OW30823   5.784   4.388   2.037
 9975SOL    HW130824   5.697   4.345   2.061
 9975SOL    HW230825   5.791   4.395   1.937
 9976SOL     OW30826   5.818   3.992   2.859
 9976SOL    HW130827   5.866   3.957   2.940
 9976SOL    HW230828   5.727   3.952   2.853
 9977SOL     OW30829   5.586   4.131   2.502
 9977SOL    HW130830   5.508   4.160   2.558
 9977SOL    HW230831   5.557   4.058   2.440
 9978SOL     OW30832   6.144   5.065   3.130
 9978SOL    HW130833   6.061   5.057   3.074
 9978SOL    HW230834   6.156   5.160   3.156
 9979SOL     OW30835   0.045   5.203   2.643
 9979SOL    HW130836   0.097   5.123   2.615
 9979SOL    HW230837   0.029   5.262   2.564
 9980SOL     OW30838   6.782   4.422   2.510
 9980SOL    HW130839   6.786   4.518   2.538
 9980SOL    HW230840   6.744   4.368   2.585
 9981SOL     OW30841   6.314   4.934   2.969
 9981SOL    HW130842   6.246   4.972   3.031
 9981SOL    HW230843   6.340   5.003   2.901
 9982SOL     OW30844   6.493   4.460   3.745
 9982SOL    HW130845   6.501   4.515   3.827
 9982SOL    HW230846   6.482   4.519   3.665
 9983SOL     OW30847   6.313   4.691   2.504
 9983SOL    HW130848   6.401   4.735   2.522
 9983SOL    HW230849   6.239   4.754   2.527
 9984SOL     OW30850   6.191   4.807   3.702
 9984SOL    HW130851   6.270   4.862   3.730
 9984SOL    HW230852   6.126   4.865   3.652
 9985SOL     OW30853   5.936   5.109   2.952
 9985SOL    HW130854   5.877   5.040   2.911
 9985SOL    HW230855   5.977   5.165   2.879
 9986SOL     OW30856   6.100   4.088   3.309
 9986SOL    HW130857   6.174   4.023   3.328
 9986SOL    HW230858   6.014   4.050   3.341
 9987SOL     OW30859   5.822   5.461   2.323
 9987SOL    HW130860   5.840   5.530   2.393
 9987SOL    HW230861   5.893   5.465   2.253
 9988SOL     OW30862   6.698   5.074   3.484
 9988SOL    HW130863   6.785   5.030   3.462
 9988SOL    HW230864   6.637   5.008   3.526
 9989SOL     OW30865   5.902   5.206   2.390
 9989SOL    HW130866   5.860   5.296   2.378
 9989SOL    HW230867   5.844   5.149   2.449
 9990SOL     OW30868   5.999   4.759   2.796
 9990SOL    HW130869   5.971   4.663   2.791
 9990SOL    HW230870   5.923   4.814   2.831
 9991SOL     OW30871   6.179   5.503   3.395
 9991SOL    HW130872   6.084   5.503   3.428
 9991SOL    HW230873   6.207   5.597   3.375
 9992SOL     OW30874   6.219   4.694   2.016
 9992SOL    HW130875   6.252   4.752   1.941
 9992SOL    HW230876   6.256   4.727   2.102
 9993SOL     OW30877   5.707   4.377   2.428
 9993SOL    HW130878   5.671   4.286   2.450
 9993SOL    HW230879   5.701   4.436   2.509
 9994SOL     OW30880   5.599   5.326   1.941
 9994SOL    HW130881   5.531   5.252   1.941
 9994SOL    HW230882   5.599   5.371   2.031
 9995SOL     OW30883   5.704   4.496   3.405
 9995SOL    HW130884   5.787   4.548   3.385
 9995SOL    HW230885   5.624   4.553   3.390
 9996SOL     OW30886   6.191   5.093   2.608
 9996SOL    HW130887   6.156   5.001   2.592
 9996SOL    HW230888   6.191   5.144   2.521
 9997SOL     OW30889   6.723   4.831   3.254
 9997SOL    HW130890   6.767   4.781   3.179
 9997SOL    HW230891   6.791   4.851   3.325
 9998SOL     OW30892   6.420   3.773   2.338
 9998SOL    HW130893   6.464   3.860   2.316
 9998SOL    HW230894   6.321   3.786   2.348
 9999SOL     OW30895   5.825   4.656   3.174
 9999SOL    HW130896   5.918   4.625   3.159
 9999SOL    HW230897   5.764   4.616   3.106
10000SOL     OW30898   6.864   5.553   3.448
10000SOL    HW130899   6.818   5.629   3.404
10000SOL    HW230900   6.841   5.467   3.402
10001SOL     OW30901   5.939   4.029   3.743
10001SOL    HW130902   5.985   4.103   3.791
10001SOL    HW230903   5.847   4.059   3.717
10002SOL     OW30904   6.167   4.448   2.145
10002SOL    HW130905   6.172   4.536   2.099
10002SOL    HW230906   6.097   4.452   2.217
10003SOL     OW30907   6.824   4.094   2.760
10003SOL    HW130908   6.735   4.051   2.743
10003SOL    HW230909   6.873   4.043   2.831
10004SOL     OW30910   6.388   4.320   3.286
10004SOL    HW130911   6.381   4.281   3.378
10004SOL    HW230912   6.377   4.247   3.218
10005SOL     OW30913   6.975   4.246   3.606
10005SOL    HW130914   6.942   4.337   3.627
10005SOL    HW230915   0.075   4.244   3.612
10006SOL     OW30916   6.472   4.619   3.520
10006SOL    HW130917   6.529   4.580   3.447
10006SOL    HW230918   6.376   4.614   3.494
10007SOL     OW30919   6.663   4.183   3.049
10007SOL    HW130920   6.567   4.161   3.064
10007SOL    HW230921   6.684   4.175   2.951
10008SOL     OW30922   6.622   4.446   2.274
10008SOL    HW130923   6.652   4.422   2.366
10008SOL    HW230924   6.534   4.402   2.254
10009SOL     OW30925   5.698   4.542   2.644
10009SOL    HW130926   5.784   4.530   2.693
10009SOL    HW230927   5.649   4.621   2.682
10010SOL     OW30928   5.699   5.657   3.440
10010SOL    HW130929   5.686   5.636   3.537
10010SOL    HW230930   5.613   5.642   3.391
10011SOL     OW30931   6.441   4.072   2.048
10011SOL    HW130932   6.499   4.099   1.972
10011SOL    HW230933   6.376   4.002   2.017
10012SOL     OW30934   6.927   4.906   2.478
10012SOL    HW130935   0.022   4.931   2.496
10012SOL    HW230936   6.881   4.979   2.427
10013SOL     OW30937   6.160   3.826   2.818
10013SOL    HW130938   6.181   3.860   2.909
10013SOL    HW230939   6.154   3.902   2.753
10014SOL     OW30940   6.571   5.215   2.325
10014SOL    HW130941   6.551   5.276   2.248
10014SOL    HW230942   6.526   5.249   2.407
10015SOL     OW30943   5.945   5.517   2.749
10015SOL    HW130944   5.980   5.423   2.752
10015SOL    HW230945   6.016   5.580   2.781
10016SOL     OW30946   6.786   5.308   3.347
10016SOL    HW130947   6.764   5.228   3.403
10016SOL    HW230948   6.703   5.340   3.300
10017SOL     OW30949   5.849   4.644   2.131
10017SOL    HW130950   5.892   4.675   2.046
10017SOL    HW230951   5.823   4.548   2.122
10018SOL     OW30952   6.028   5.019   3.604
10018SOL    HW130953   6.005   5.038   3.508
10018SOL    HW230954   5.944   5.005   3.656
10019SOL     OW30955   6.721   5.456   2.064
10019SOL    HW130956   6.627   5.452   2.097
10019SOL    HW230957   6.737   5.383   1.998
10020SOL     OW30958   5.841   3.998   3.341
10020SOL    HW130959   5.788   4.082   3.339
10020SOL    HW230960   5.785   3.925   3.381
10021SOL     OW30961   6.042   5.500   2.161
10021SOL    HW130962   6.091   5.549   2.234
10021SOL    HW230963   6.107   5.446   2.108
10022SOL     OW30964   5.796   5.527   3.078
10022SOL    HW130965   5.842   5.446   3.114
10022SOL    HW230966   5.762   5.509   2.986
10023SOL     OW30967   6.524   5.416   2.724
10023SOL    HW130968   6.606   5.358   2.730
10023SOL    HW230969   6.469   5.388   2.646
10024SOL     OW30970   5.981   4.406   2.353
10024SOL    HW130971   6.004   4.310   2.369
10024SOL    HW230972   5.882   4.418   2.361
10025SOL     OW30973   6.255   3.860   1.974
10025SOL    HW130974   6.291   3.772   2.004
10025SOL    HW230975   6.180   3.845   1.909
10026SOL     OW30976   6.391   3.958   3.585
10026SOL    HW130977   6.481   3.915   3.594
10026SOL    HW230978   6.335   3.934   3.664
10027SOL     OW30979   6.425   5.260   3.050
10027SOL    HW130980   6.395   5.249   2.955
10027SOL    HW230981   6.484   5.183   3.075
10028SOL     OW30982   6.388   5.126   2.793
10028SOL    HW130983   6.473   5.095   2.750
10028SOL    HW230984   6.314   5.123   2.726
10029SOL     OW30985   6.515   4.233   2.717
10029SOL    HW130986   6.500   4.239   2.619
10029SOL    HW230987   6.529   4.137   2.743
10030SOL     OW30988   6.150   3.808   2.347
10030SOL    HW130989   6.077   3.797   2.414
10030SOL    HW230990   6.132   3.889   2.291
10031SOL     OW30991   6.994   4.807   1.886
10031SOL    HW130992   0.042   4.807   1.973
10031SOL    HW230993   6.896   4.791   1.902
10032SOL     OW30994   5.832   3.812   2.024
10032SOL    HW130995   5.874   3.892   1.981
10032SOL    HW230996   5.904   3.755   2.064
10033SOL     OW30997   6.565   4.002   2.286
10033SOL    HW130998   6.528   4.029   2.197
10033SOL    HW230999   6.664   4.018   2.287
10034SOL     OW31000   6.604   4.481   3.312
10034SOL    HW131001   6.532   4.411   3.308
10034SOL    HW231002   6.691   4.438   3.336
10035SOL     OW31003   6.750   5.264   2.627
10035SOL    HW131004   6.753   5.336   2.558
10035SOL    HW231005   6.844   5.242   2.656
10036SOL     OW31006   6.092   4.844   2.553
10036SOL    HW131007   6.053   4.814   2.639
10036SOL    HW231008   6.024   4.836   2.480
10037SOL     OW31009   6.761   5.489   2.440
10037SOL    HW131010   6.736   5.502   2.344
10037SOL    HW231011   6.721   5.562   2.496
10038SOL     OW31012   6.625   4.215   1.881
10038SOL    HW131013   6.558   4.287   1.865
10038SOL    HW231014   6.674   4.233   1.966
10039SOL     OW31015   5.738   4.264   3.266
10039SOL    HW131016   5.833   4.270   3.235
10039SOL    HW231017   5.716   4.343   3.323
10040SOL     OW31018   6.202   3.931   3.068
10040SOL    HW131019   6.244   3.903   3.154
10040SOL    HW231020   6.102   3.930   3.078
10041SOL     OW31021   6.491   4.217   2.448
10041SOL    HW131022   6.433   4.262   2.381
10041SOL    HW231023   6.520   4.128   2.413
10042SOL     OW31024   6.594   3.772   2.549
10042SOL    HW131025   6.525   3.769   2.476
10042SOL    HW231026   6.576   3.699   2.615
10043SOL     OW31027   6.082   5.144   2.003
10043SOL    HW131028   6.011   5.104   2.062
10043SOL    HW231029   6.078   5.101   1.913
10044SOL     OW31030   6.110   4.010   2.170
10044SOL    HW131031   6.159   3.960   2.099
10044SOL    HW231032   6.069   4.092   2.131
10045SOL     OW31033   6.584   5.049   3.154
10045SOL    HW131034   6.502   5.050   3.210
10045SOL    HW231035   6.650   4.984   3.192
10046SOL     OW31036   6.608   4.886   2.920
10046SOL    HW131037   6.601   4.955   2.991
10046SOL    HW231038   6.616   4.930   2.831
10047SOL     OW31039   6.540   3.813   3.189
10047SOL    HW131040   6.567   3.804   3.093
10047SOL    HW231041   6.610   3.863   3.239
10048SOL     OW31042   6.560   4.865   3.606
10048SOL    HW131043   6.500   4.906   3.675
10048SOL    HW231044   6.520   4.780   3.573
10049SOL     OW31045   6.350   4.780   2.242
10049SOL    HW131046   6.320   4.739   2.329
10049SOL    HW231047   6.447   4.759   2.227
10050SOL     OW31048   6.074   4.537   3.130
10050SOL    HW131049   6.131   4.558   3.210
10050SOL    HW231050   6.039   4.444   3.138
10051SOL     OW31051   6.896   4.106   3.177
10051SOL    HW131052   6.964   4.175   3.199
10051SOL    HW231053   6.816   4.151   3.136
10052SOL     OW31054   5.631   5.257   3.196
10052SOL    HW131055   5.578   5.325   3.145
10052SOL    HW231056   5.728   5.279   3.190
10053SOL     OW31057   5.906   4.832   2.343
10053SOL    HW131058   5.912   4.908   2.278
10053SOL    HW231059   5.888   4.747   2.294
10054SOL     OW31060   6.136   4.237   2.737
10054SOL    HW131061   6.139   4.284   2.648
10054SOL    HW231062   6.211   4.271   2.794
10055SOL     OW31063   6.839   5.129   2.337
10055SOL    HW131064   6.892   5.210   2.363
10055SOL    HW231065   6.743   5.153   2.329
10056SOL     OW31066   6.784   5.238   3.039
10056SOL    HW131067   6.869   5.230   3.091
10056SOL    HW231068   6.715   5.176   3.078
10057SOL     OW31069   5.905   5.285   3.156
10057SOL    HW131070   5.906   5.219   3.080
10057SOL    HW231071   5.999   5.312   3.177
10058SOL     OW31072   6.006   4.528   3.457
10058SOL    HW131073   6.102   4.526   3.427
10058SOL    HW231074   5.985   4.443   3.504
10059SOL     OW31075   6.638   3.850   3.622
10059SOL    HW131076   6.686   3.937   3.619
10059SOL    HW231077   6.700   3.777   3.593
10060SOL     OW31078   6.067   3.810   3.632
10060SOL    HW131079   6.005   3.747   3.585
10060SOL    HW231080   6.018   3.893   3.658
10061SOL     OW31081   6.228   4.627   2.921
10061SOL    HW131082   6.172   4.687   2.864
10061SOL    HW231083   6.171   4.589   2.995
10062SOL     OW31084   6.919   4.548   2.810
10062SOL    HW131085   6.830   4.501   2.812
10062SOL    HW231086   6.979   4.508   2.879
10063SOL     OW31087   6.758   4.268   2.116
10063SOL    HW131088   6.789   4.195   2.176
10063SOL    HW231089   6.706   4.335   2.170
10064SOL     OW31090   5.930   3.902   3.096
10064SOL    HW131091   5.899   3.944   3.182
10064SOL    HW231092   5.895   3.809   3.090
10065SOL     OW31093   5.671   4.997   3.101
10065SOL    HW131094   5.694   4.943   3.183
10065SOL    HW231095   5.642   5.088   3.129
10066SOL     OW31096   6.335   4.357   2.887
10066SOL    HW131097   6.400   4.332   2.815
10066SOL    HW231098   6.303   4.451   2.872
10067SOL     OW31099   5.931   3.784   2.511
10067SOL    HW131100   5.890   3.873   2.530
10067SOL    HW231101   5.934   3.730   2.595
10068SOL     OW31102   0.138   4.218   2.289
10068SOL    HW131103   0.236   4.208   2.308
10068SOL    HW231104   0.105   4.135   2.245
10069SOL     OW31105   6.673   4.435   2.818
10069SOL    HW131106   6.632   4.468   2.902
10069SOL    HW231107   6.620   4.358   2.783
10070SOL     OW31108   6.543   5.310   3.520
10070SOL    HW131109   6.534   5.342   3.425
10070SOL    HW231110   6.585   5.219   3.520
10071SOL     OW31111   5.918   4.676   3.669
10071SOL    HW131112   5.991   4.687   3.736
10071SOL    HW231113   5.953   4.625   3.590
10072SOL     OW31114   6.897   4.470   1.994
10072SOL    HW131115   6.848   4.388   2.023
10072SOL    HW231116   6.978   4.444   1.940
10073SOL     OW31117   6.612   5.021   2.676
10073SOL    HW131118   6.603   4.957   2.600
10073SOL    HW231119   6.667   5.100   2.647
10074SOL     OW31120   5.942   4.496   2.763
10074SOL    HW131121   6.014   4.483   2.694
10074SOL    HW231122   5.927   4.411   2.812
10075SOL     OW31123   5.914   4.241   2.884
10075SOL    HW131124   5.865   4.154   2.876
10075SOL    HW231125   5.998   4.237   2.829
10076SOL     OW31126   6.743   4.100   3.578
10076SOL    HW131127   6.687   4.143   3.650
10076SOL    HW231128   6.831   4.147   3.572
10077SOL     OW31129   6.739   3.944   3.333
10077SOL    HW131130   6.723   3.994   3.418
10077SOL    HW231131   6.801   3.995   3.275
10078SOL     OW31132   5.628   5.005   2.065
10078SOL    HW131133   5.543   5.051   2.040
10078SOL    HW231134   5.608   4.914   2.102
10079SOL     OW31135   5.684   5.487   2.828
10079SOL    HW131136   5.636   5.416   2.775
10079SOL    HW231137   5.775   5.500   2.790
10080SOL     OW31138   6.067   5.270   2.775
10080SOL    HW131139   6.143   5.325   2.809
10080SOL    HW231140   6.101   5.204   2.709
10081SOL     OW31141   6.521   4.519   3.044
10081SOL    HW131142   6.567   4.516   3.133
10081SOL    HW231143   6.459   4.441   3.036
10082SOL     OW31144   5.670   4.338   3.006
10082SOL    HW131145   5.749   4.315   2.949
10082SOL    HW231146   5.688   4.311   3.100
10083SOL     OW31147   5.830   4.358   3.610
10083SOL    HW131148   5.784   4.273   3.636
10083SOL    HW231149   5.772   4.408   3.545
10084SOL     OW31150   6.395   4.309   2.203
10084SOL    HW131151   6.399   4.225   2.148
10084SOL    HW231152   6.311   4.358   2.184
10085SOL     OW31153   5.779   5.274   3.603
10085SOL    HW131154   5.723   5.310   3.678
10085SOL    HW231155   5.801   5.178   3.622
10086SOL     OW31156   6.381   4.150   3.065
10086SOL    HW131157   6.320   4.071   3.062
10086SOL    HW231158   6.350   4.219   2.999
10087SOL     OW31159   6.540   5.399   3.259
10087SOL    HW131160   6.497   5.354   3.181
10087SOL    HW231161   6.531   5.498   3.249
10088SOL     OW31162   6.013   4.238   2.052
10088SOL    HW131163   6.084   4.304   2.075
10088SOL    HW231164   5.923   4.282   2.056
10089SOL     OW31165   5.736   4.859   3.332
10089SOL    HW131166   5.726   4.829   3.426
10089SOL    HW231167   5.773   4.784   3.276
10090SOL     OW31168   6.801   4.714   3.018
10090SOL    HW131169   6.860   4.668   2.951
10090SOL    HW231170   6.741   4.778   2.970
10091SOL     OW31171   6.938   4.539   2.259
10091SOL    HW131172   6.854   4.578   2.295
10091SOL    HW231173   6.927   4.518   2.162
10092SOL     OW31174   6.868   5.485   2.948
10092SOL    HW131175   6.956   5.467   2.904
10092SOL    HW231176   6.830   5.399   2.982
10093SOL     OW31177   5.767   4.900   2.867
10093SOL    HW131178   5.729   4.932   2.954
10093SOL    HW231179   5.695   4.854   2.814
10094SOL     OW31180   6.304   5.394   3.616
10094SOL    HW131181   6.257   5.440   3.541
10094SOL    HW231182   6.398   5.373   3.589
10095SOL     OW31183   6.996   5.347   2.418
10095SOL    HW131184   0.079   5.390   2.383
10095SOL    HW231185   6.923   5.416   2.422
10096SOL     OW31186   5.683   5.580   3.697
10096SOL    HW131187   5.636   5.496   3.724
10096SOL    HW231188   5.749   5.605   3.767
10097SOL     OW31189   6.813   4.684   2.586
10097SOL    HW131190   6.857   4.659   2.673
10097SOL    HW231191   6.860   4.764   2.547
10098SOL     OW31192   6.352   5.016   3.307
10098SOL    HW131193   6.336   5.051   3.399
10098SOL    HW231194   6.269   5.028   3.252
10099SOL     OW31195   6.239   5.363   2.018
10099SOL    HW131196   6.253   5.388   1.922
10099SOL    HW231197   6.182   5.281   2.023
10100SOL     OW31198   5.834   4.030   2.580
10100SOL    HW131199   5.746   4.069   2.551
10100SOL    HW231200   5.835   4.023   2.680
10101SOL     OW31201   6.743   5.265   1.859
10101SOL    HW131202   6.738   5.169   1.829
10101SOL    HW231203   6.679   5.320   1.804
10102SOL     OW31204   6.448   4.768   3.235
10102SOL    HW131205   6.545   4.769   3.258
10102SOL    HW231206   6.404   4.851   3.269
10103SOL     OW31207   6.617   4.716   2.228
10103SOL    HW131208   6.664   4.737   2.143
10103SOL    HW231209   6.615   4.616   2.241
10104SOL     OW31210   5.921   5.071   3.362
10104SOL    HW131211   5.906   5.146   3.297
10104SOL    HW231212   5.856   4.998   3.344
10105SOL     OW31213   6.580   4.802   2.495
10105SOL    HW131214   6.590   4.791   2.396
10105SOL    HW231215   6.656   4.755   2.541
10106SOL     OW31216   6.585   3.964   2.751
10106SOL    HW131217   6.584   3.910   2.666
10106SOL    HW231218   6.591   3.902   2.829
10107SOL     OW31219   6.182   5.228   2.372
10107SOL    HW131220   6.223   5.170   2.301
10107SOL    HW231221   6.083   5.225   2.365
10108SOL     OW31222   5.883   5.047   2.170
10108SOL    HW131223   5.790   5.040   2.135
10108SOL    HW231224   5.886   5.113   2.244
10109SOL     OW31225   5.686   4.781   3.586
10109SOL    HW131226   5.605   4.754   3.638
10109SOL    HW231227   5.767   4.735   3.623
10110SOL     OW31228   6.308   3.884   3.329
10110SOL    HW131229   6.390   3.854   3.280
10110SOL    HW231230   6.332   3.912   3.421
10111SOL     OW31231   5.669   4.119   1.839
10111SOL    HW131232   5.594   4.094   1.778
10111SOL    HW231233   5.631   4.153   1.925
10112SOL     OW31234   5.569   3.859   2.106
10112SOL    HW131235   5.504   3.886   2.034
10112SOL    HW231236   5.662   3.859   2.068
10113SOL     OW31237   6.267   4.564   3.325
10113SOL    HW131238   6.330   4.635   3.292
10113SOL    HW231239   6.309   4.474   3.310
10114SOL     OW31240   6.394   4.236   3.541
10114SOL    HW131241   6.408   4.287   3.626
10114SOL    HW231242   6.392   4.138   3.561
10115SOL     OW31243   6.921   4.913   3.441
10115SOL    HW131244   6.941   4.901   3.539
10115SOL    HW231245   0.004   4.892   3.388
10116SOL     OW31246   5.925   5.497   3.499
10116SOL    HW131247   5.850   5.556   3.468
10116SOL    HW231248   5.887   5.412   3.537
10117SOL     OW31249   6.840   4.081   2.306
10117SOL    HW131250   6.913   4.029   2.261
10117SOL    HW231251   6.866   4.101   2.400
10118SOL     OW31252   6.139   4.475   2.567
10118SOL    HW131253   6.208   4.543   2.545
10118SOL    HW231254   6.083   4.456   2.486
10119SOL     OW31255   6.394   5.097   1.957
10119SOL    HW131256   6.371   5.084   2.054
10119SOL    HW231257   6.384   5.193   1.933
10120SOL     OW31258   6.269   5.437   2.839
10120SOL    HW131259   6.238   5.532   2.831
10120SOL    HW231260   6.364   5.431   2.806
10121SOL     OW31261   6.745   4.719   1.980
10121SOL    HW131262   6.678   4.744   1.911
10121SOL    HW231263   6.779   4.627   1.963
10122SOL     OW31264   5.777   5.012   3.700
10122SOL    HW131265   5.740   4.932   3.652
10122SOL    HW231266   5.730   5.023   3.787
10123SOL     OW31267   5.745   5.004   2.510
10123SOL    HW131268   5.717   4.964   2.597
10123SOL    HW231269   5.789   4.934   2.453
10124SOL     OW31270   6.277   5.123   3.556
10124SOL    HW131271   6.184   5.087   3.571
10124SOL    HW231272   6.278   5.221   3.576
10125SOL     OW31273   6.027   4.147   2.410
10125SOL    HW131274   6.052   4.086   2.335
10125SOL    HW231275   5.962   4.102   2.471
10126SOL     OW31276   5.987   4.280   3.153
10126SOL    HW131277   6.039   4.212   3.203
10126SOL    HW231278   5.974   4.250   3.059
10127SOL     OW31279   6.393   5.366   2.489
10127SOL    HW131280   6.398   5.456   2.446
10127SOL    HW231281   6.312   5.318   2.455
10128SOL     OW31282   6.935   3.941   2.956
10128SOL    HW131283   6.921   3.842   2.963
10128SOL    HW231284   6.923   3.983   3.046
10129SOL     OW31285   6.630   3.751   2.928
10129SOL    HW131286   6.585   3.682   2.870
10129SOL    HW231287   6.727   3.727   2.938
10130SOL     OW31288   6.352   5.058   2.227
10130SOL    HW131289   6.343   4.959   2.234
10130SOL    HW231290   6.438   5.087   2.267
10131SOL     OW31291   6.179   5.328   3.185
10131SOL    HW131292   6.188   5.390   3.262
10131SOL    HW231293   6.263   5.329   3.131
10132SOL     OW31294   6.907   3.830   1.994
10132SOL    HW131295   6.971   3.763   1.956
10132SOL    HW231296   6.825   3.783   2.026
10133SOL     OW31297   5.602   4.750   2.188
10133SOL    HW131298   5.695   4.729   2.160
10133SOL    HW231299   5.557   4.667   2.220
10134SOL     OW31300   6.466   5.423   2.165
10134SOL    HW131301   6.383   5.396   2.116
10134SOL    HW231302   6.444   5.493   2.233
10135SOL     OW31303   5.809   4.414   3.886
10135SOL    HW131304   5.717   4.380   3.907
10135SOL    HW231305   5.820   4.422   3.787
10136SOL     OW31306   5.804   4.009   4.724
10136SOL    HW131307   5.855   3.975   4.803
10136SOL    HW231308   5.714   3.967   4.723
10137SOL     OW31309   5.567   4.138   4.380
10137SOL    HW131310   5.489   4.161   4.438
10137SOL    HW231311   5.541   4.065   4.317
10138SOL     OW31312   6.137   5.044   4.941
10138SOL    HW131313   6.055   5.042   4.883
10138SOL    HW231314   6.156   5.139   4.968
10139SOL     OW31315   0.048   5.262   4.497
10139SOL    HW131316   0.100   5.178   4.487
10139SOL    HW231317   0.036   5.305   4.407
10140SOL     OW31318   6.678   4.519   4.403
10140SOL    HW131319   6.755   4.581   4.388
10140SOL    HW231320   6.662   4.509   4.501
10141SOL     OW31321   6.305   4.861   4.793
10141SOL    HW131322   6.236   4.895   4.857
10141SOL    HW231323   6.351   4.939   4.749
10142SOL     OW31324   6.515   4.524   5.563
10142SOL    HW131325   6.460   4.573   5.631
10142SOL    HW231326   6.501   4.565   5.473
10143SOL     OW31327   6.313   4.691   4.364
10143SOL    HW131328   6.379   4.695   4.440
10143SOL    HW231329   6.235   4.749   4.385
10144SOL     OW31330   6.243   4.863   5.561
10144SOL    HW131331   6.295   4.936   5.608
10144SOL    HW231332   6.169   4.904   5.508
10145SOL     OW31333   5.918   5.124   4.782
10145SOL    HW131334   5.849   5.067   4.738
10145SOL    HW231335   5.969   5.174   4.712
10146SOL     OW31336   6.090   4.082   5.177
10146SOL    HW131337   6.163   4.018   5.200
10146SOL    HW231338   6.002   4.045   5.207
10147SOL     OW31339   5.830   5.470   4.182
10147SOL    HW131340   5.848   5.539   4.252
10147SOL    HW231341   5.904   5.470   4.115
10148SOL     OW31342   6.724   5.092   5.402
10148SOL    HW131343   6.808   5.043   5.376
10148SOL    HW231344   6.650   5.026   5.415
10149SOL     OW31345   5.908   5.213   4.249
10149SOL    HW131346   5.868   5.304   4.239
10149SOL    HW231347   5.858   5.162   4.318
10150SOL     OW31348   5.946   4.806   4.638
10150SOL    HW131349   5.938   4.708   4.659
10150SOL    HW231350   5.863   4.853   4.670
10151SOL     OW31351   6.132   5.539   5.161
10151SOL    HW131352   6.057   5.519   5.223
10151SOL    HW231353   6.185   5.616   5.196
10152SOL     OW31354   6.153   4.685   3.942
10152SOL    HW131355   6.169   4.723   3.850
10152SOL    HW231356   6.221   4.722   4.005
10153SOL     OW31357   5.679   4.393   4.315
10153SOL    HW131358   5.646   4.301   4.336
10153SOL    HW231359   5.690   4.445   4.400
10154SOL     OW31360   5.602   5.338   3.802
10154SOL    HW131361   5.537   5.263   3.805
10154SOL    HW231362   5.606   5.382   3.892
10155SOL     OW31363   5.701   4.490   5.291
10155SOL    HW131364   5.788   4.539   5.295
10155SOL    HW231365   5.628   4.555   5.267
10156SOL     OW31366   6.224   5.091   4.450
10156SOL    HW131367   6.186   4.998   4.449
10156SOL    HW231368   6.211   5.132   4.360
10157SOL     OW31369   6.755   4.880   5.143
10157SOL    HW131370   6.793   4.833   5.064
10157SOL    HW231371   6.824   4.886   5.215
10158SOL     OW31372   6.433   3.775   4.217
10158SOL    HW131373   6.481   3.859   4.192
10158SOL    HW231374   6.335   3.793   4.221
10159SOL     OW31375   5.784   4.642   5.011
10159SOL    HW131376   5.881   4.619   5.001
10159SOL    HW231377   5.729   4.577   4.959
10160SOL     OW31378   6.825   5.577   5.336
10160SOL    HW131379   6.787   5.640   5.268
10160SOL    HW231380   6.818   5.484   5.302
10161SOL     OW31381   5.893   4.028   5.618
10161SOL    HW131382   5.938   4.107   5.659
10161SOL    HW231383   5.797   4.048   5.601
10162SOL     OW31384   6.158   4.430   4.046
10162SOL    HW131385   6.160   4.520   4.003
10162SOL    HW231386   6.086   4.428   4.117
10163SOL     OW31387   6.867   4.052   4.587
10163SOL    HW131388   6.767   4.048   4.587
10163SOL    HW231389   6.902   4.008   4.669
10164SOL     OW31390   6.370   4.305   5.173
10164SOL    HW131391   6.360   4.256   5.260
10164SOL    HW231392   6.360   4.241   5.097
10165SOL     OW31393   6.957   4.226   5.511
10165SOL    HW131394   6.926   4.312   5.552
10165SOL    HW231395   0.055   4.230   5.495
10166SOL     OW31396   6.530   4.640   5.314
10166SOL    HW131397   6.583   4.564   5.277
10166SOL    HW231398   6.476   4.681   5.240
10167SOL     OW31399   6.646   4.131   4.912
10167SOL    HW131400   6.551   4.138   4.943
10167SOL    HW231401   6.648   4.090   4.821
10168SOL     OW31402   6.596   4.436   4.158
10168SOL    HW131403   6.617   4.461   4.253
10168SOL    HW231404   6.512   4.382   4.156
10169SOL     OW31405   5.704   4.551   4.533
10169SOL    HW131406   5.794   4.548   4.578
10169SOL    HW231407   5.648   4.621   4.577
10170SOL     OW31408   5.697   5.646   5.295
10170SOL    HW131409   5.682   5.625   5.392
10170SOL    HW231410   5.611   5.637   5.245
10171SOL     OW31411   6.445   4.076   3.937
10171SOL    HW131412   6.507   4.122   3.874
10171SOL    HW231413   6.386   4.013   3.886
10172SOL     OW31414   6.997   4.916   4.251
10172SOL    HW131415   0.025   4.876   4.164
10172SOL    HW231416   6.934   4.991   4.235
10173SOL     OW31417   6.162   3.829   4.680
10173SOL    HW131418   6.177   3.863   4.773
10173SOL    HW231419   6.163   3.906   4.616
10174SOL     OW31420   6.575   5.202   4.192
10174SOL    HW131421   6.548   5.274   4.128
10174SOL    HW231422   6.533   5.221   4.281
10175SOL     OW31423   5.938   5.509   4.602
10175SOL    HW131424   5.976   5.416   4.597
10175SOL    HW231425   6.008   5.572   4.633
10176SOL     OW31426   6.819   5.319   5.244
10176SOL    HW131427   6.779   5.242   5.294
10176SOL    HW231428   6.805   5.306   5.145
10177SOL     OW31429   5.889   4.656   4.018
10177SOL    HW131430   5.984   4.671   3.991
10177SOL    HW231431   5.858   4.568   3.981
10178SOL     OW31432   6.033   5.022   5.456
10178SOL    HW131433   6.009   5.034   5.360
10178SOL    HW231434   5.951   5.003   5.509
10179SOL     OW31435   6.726   5.465   3.934
10179SOL    HW131436   6.638   5.443   3.976
10179SOL    HW231437   6.717   5.464   3.835
10180SOL     OW31438   5.825   4.002   5.202
10180SOL    HW131439   5.776   4.089   5.199
10180SOL    HW231440   5.768   3.933   5.247
10181SOL     OW31441   6.056   5.499   4.027
10181SOL    HW131442   6.103   5.550   4.099
10181SOL    HW231443   6.122   5.444   3.976
10182SOL     OW31444   5.797   5.522   4.941
10182SOL    HW131445   5.846   5.442   4.976
10182SOL    HW231446   5.761   5.503   4.850
10183SOL     OW31447   6.539   5.428   4.597
10183SOL    HW131448   6.632   5.391   4.592
10183SOL    HW231449   6.481   5.383   4.530
10184SOL     OW31450   5.962   4.403   4.238
10184SOL    HW131451   5.971   4.303   4.242
10184SOL    HW231452   5.866   4.428   4.252
10185SOL     OW31453   6.260   3.875   3.822
10185SOL    HW131454   6.302   3.790   3.854
10185SOL    HW231455   6.183   3.852   3.762
10186SOL     OW31456   6.385   3.900   5.445
10186SOL    HW131457   6.479   3.870   5.461
10186SOL    HW231458   6.329   3.877   5.526
10187SOL     OW31459   6.429   5.245   4.914
10187SOL    HW131460   6.403   5.211   4.824
10187SOL    HW231461   6.486   5.177   4.960
10188SOL     OW31462   6.392   5.096   4.674
10188SOL    HW131463   6.486   5.099   4.639
10188SOL    HW231464   6.328   5.091   4.597
10189SOL     OW31465   6.518   4.247   4.604
10189SOL    HW131466   6.497   4.236   4.507
10189SOL    HW231467   6.544   4.158   4.643
10190SOL     OW31468   6.161   3.815   4.214
10190SOL    HW131469   6.086   3.806   4.280
10190SOL    HW231470   6.144   3.895   4.156
10191SOL     OW31471   0.035   4.845   3.732
10191SOL    HW131472   0.065   4.826   3.825
10191SOL    HW231473   6.939   4.818   3.721
10192SOL     OW31474   5.843   3.817   3.894
10192SOL    HW131475   5.886   3.896   3.849
10192SOL    HW231476   5.913   3.761   3.936
10193SOL     OW31477   6.589   3.994   4.160
10193SOL    HW131478   6.545   4.029   4.077
10193SOL    HW231479   6.685   4.021   4.160
10194SOL     OW31480   6.620   4.410   5.189
10194SOL    HW131481   6.529   4.369   5.188
10194SOL    HW231482   6.688   4.339   5.208
10195SOL     OW31483   6.777   5.328   4.490
10195SOL    HW131484   6.774   5.391   4.413
10195SOL    HW231485   6.872   5.304   4.510
10196SOL     OW31486   6.098   4.851   4.420
10196SOL    HW131487   6.048   4.832   4.505
10196SOL    HW231488   6.034   4.850   4.344
10197SOL     OW31489   6.767   5.524   4.281
10197SOL    HW131490   6.736   5.534   4.186
10197SOL    HW231491   6.718   5.590   4.339
10198SOL     OW31492   6.627   4.230   3.795
10198SOL    HW131493   6.578   4.314   3.773
10198SOL    HW231494   6.695   4.249   3.866
10199SOL     OW31495   5.740   4.272   5.139
10199SOL    HW131496   5.834   4.275   5.105
10199SOL    HW231497   5.724   4.350   5.199
10200SOL     OW31498   6.189   3.927   4.934
10200SOL    HW131499   6.228   3.897   5.021
10200SOL    HW231500   6.090   3.932   4.942
10201SOL     OW31501   6.475   4.169   4.348
10201SOL    HW131502   6.419   4.220   4.283
10201SOL    HW231503   6.524   4.096   4.300
10202SOL     OW31504   6.570   3.802   4.456
10202SOL    HW131505   6.512   3.795   4.375
10202SOL    HW231506   6.555   3.722   4.514
10203SOL     OW31507   6.094   5.139   3.860
10203SOL    HW131508   6.025   5.107   3.924
10203SOL    HW231509   6.076   5.101   3.769
10204SOL     OW31510   6.108   4.004   4.027
10204SOL    HW131511   6.162   3.960   3.955
10204SOL    HW231512   6.071   4.090   3.993
10205SOL     OW31513   6.565   5.038   5.035
10205SOL    HW131514   6.477   5.023   5.078
10205SOL    HW231515   6.635   4.983   5.081
10206SOL     OW31516   6.754   5.046   4.828
10206SOL    HW131517   6.682   5.040   4.897
10206SOL    HW231518   6.713   5.066   4.739
10207SOL     OW31519   6.536   3.803   5.063
10207SOL    HW131520   6.563   3.792   4.967
10207SOL    HW231521   6.605   3.857   5.111
10208SOL     OW31522   6.541   4.887   5.445
10208SOL    HW131523   6.449   4.909   5.477
10208SOL    HW231524   6.538   4.808   5.384
10209SOL     OW31525   6.362   4.767   4.101
10209SOL    HW131526   6.352   4.734   4.194
10209SOL    HW231527   6.435   4.716   4.055
10210SOL     OW31528   6.042   4.539   4.993
10210SOL    HW131529   6.103   4.556   5.070
10210SOL    HW231530   6.013   4.443   4.994
10211SOL     OW31531   6.891   4.094   5.033
10211SOL    HW131532   6.951   4.171   5.059
10211SOL    HW231533   6.809   4.130   4.989
10212SOL     OW31534   5.629   5.261   5.066
10212SOL    HW131535   5.579   5.330   5.015
10212SOL    HW231536   5.728   5.277   5.056
10213SOL     OW31537   5.908   4.856   4.220
10213SOL    HW131538   5.911   4.928   4.150
10213SOL    HW231539   5.895   4.767   4.176
10214SOL     OW31540   6.127   4.265   4.613
10214SOL    HW131541   6.140   4.321   4.532
10214SOL    HW231542   6.203   4.280   4.677
10215SOL     OW31543   6.847   5.140   4.186
10215SOL    HW131544   6.894   5.224   4.215
10215SOL    HW231545   6.748   5.154   4.192
10216SOL     OW31546   6.859   5.268   4.966
10216SOL    HW131547   6.945   5.248   5.013
10216SOL    HW231548   6.828   5.187   4.917
10217SOL     OW31549   5.903   5.271   5.009
10217SOL    HW131550   5.897   5.214   4.927
10217SOL    HW231551   5.999   5.293   5.027
10218SOL     OW31552   5.990   4.504   5.342
10218SOL    HW131553   6.075   4.518   5.291
10218SOL    HW231554   5.985   4.410   5.375
10219SOL     OW31555   6.648   3.845   5.492
10219SOL    HW131556   6.681   3.939   5.483
10219SOL    HW231557   6.715   3.782   5.454
10220SOL     OW31558   6.046   3.827   5.505
10220SOL    HW131559   5.996   3.757   5.454
10220SOL    HW231560   5.985   3.903   5.525
10221SOL     OW31561   6.205   4.596   4.778
10221SOL    HW131562   6.235   4.691   4.774
10221SOL    HW231563   6.142   4.583   4.854
10222SOL     OW31564   6.896   4.569   4.716
10222SOL    HW131565   6.802   4.534   4.708
10222SOL    HW231566   6.947   4.510   4.779
10223SOL     OW31567   6.783   4.304   4.016
10223SOL    HW131568   6.818   4.225   4.067
10223SOL    HW231569   6.713   4.350   4.070
10224SOL     OW31570   5.916   3.913   4.958
10224SOL    HW131571   5.885   3.950   5.045
10224SOL    HW231572   5.887   3.818   4.949
10225SOL     OW31573   5.661   5.010   4.950
10225SOL    HW131574   5.685   4.945   5.023
10225SOL    HW231575   5.636   5.098   4.991
10226SOL     OW31576   6.330   4.351   4.779
10226SOL    HW131577   6.397   4.333   4.707
10226SOL    HW231578   6.293   4.443   4.767
10227SOL     OW31579   5.932   3.791   4.370
10227SOL    HW131580   5.883   3.875   4.391
10227SOL    HW231581   5.939   3.735   4.453
10228SOL     OW31582   0.141   4.226   4.035
10228SOL    HW131583   0.098   4.136   4.030
10228SOL    HW231584   0.118   4.269   4.122
10229SOL     OW31585   6.626   4.488   4.680
10229SOL    HW131586   6.602   4.501   4.776
10229SOL    HW231587   6.597   4.397   4.650
10230SOL     OW31588   6.539   5.338   5.384
10230SOL    HW131589   6.529   5.371   5.290
10230SOL    HW231590   6.569   5.242   5.383
10231SOL     OW31591   5.935   4.675   5.546
10231SOL    HW131592   6.010   4.681   5.612
10231SOL    HW231593   5.960   4.613   5.472
10232SOL     OW31594   6.971   4.517   3.672
10232SOL    HW131595   0.022   4.493   3.754
10232SOL    HW231596   0.027   4.574   3.613
10233SOL     OW31597   6.647   5.101   4.580
10233SOL    HW131598   6.664   5.017   4.528
10233SOL    HW231599   6.694   5.177   4.536
10234SOL     OW31600   5.944   4.532   4.670
10234SOL    HW131601   6.043   4.542   4.671
10234SOL    HW231602   5.919   4.439   4.699
10235SOL     OW31603   5.894   4.263   4.743
10235SOL    HW131604   5.846   4.176   4.733
10235SOL    HW231605   5.979   4.262   4.689
10236SOL     OW31606   6.726   4.104   5.427
10236SOL    HW131607   6.656   4.157   5.475
10236SOL    HW231608   6.817   4.141   5.448
10237SOL     OW31609   6.738   3.938   5.197
10237SOL    HW131610   6.721   3.995   5.278
10237SOL    HW231611   6.798   3.986   5.134
10238SOL     OW31612   5.633   5.017   3.931
10238SOL    HW131613   5.545   5.060   3.910
10238SOL    HW231614   5.618   4.924   3.963
10239SOL     OW31615   5.680   5.478   4.693
10239SOL    HW131616   5.633   5.403   4.648
10239SOL    HW231617   5.770   5.490   4.652
10240SOL     OW31618   6.072   5.266   4.605
10240SOL    HW131619   6.145   5.323   4.643
10240SOL    HW231620   6.111   5.198   4.544
10241SOL     OW31621   6.535   4.502   4.934
10241SOL    HW131622   6.580   4.484   5.022
10241SOL    HW231623   6.452   4.448   4.927
10242SOL     OW31624   5.685   4.392   4.890
10242SOL    HW131625   5.751   4.357   4.824
10242SOL    HW231626   5.701   4.349   4.979
10243SOL     OW31627   5.776   4.333   5.504
10243SOL    HW131628   5.724   4.248   5.512
10243SOL    HW231629   5.738   4.389   5.431
10244SOL     OW31630   6.375   4.282   4.116
10244SOL    HW131631   6.386   4.208   4.050
10244SOL    HW231632   6.294   4.336   4.094
10245SOL     OW31633   5.783   5.268   5.466
10245SOL    HW131634   5.728   5.305   5.542
10245SOL    HW231635   5.807   5.173   5.485
10246SOL     OW31636   6.367   4.144   4.951
10246SOL    HW131637   6.304   4.068   4.939
10246SOL    HW231638   6.345   4.216   4.885
10247SOL     OW31639   6.498   5.415   5.128
10247SOL    HW131640   6.478   5.361   5.047
10247SOL    HW231641   6.501   5.512   5.104
10248SOL     OW31642   6.022   4.237   3.909
10248SOL    HW131643   6.091   4.296   3.949
10248SOL    HW231644   5.935   4.286   3.903
10249SOL     OW31645   5.724   4.851   5.175
10249SOL    HW131646   5.724   4.821   5.270
10249SOL    HW231647   5.746   4.774   5.116
10250SOL     OW31648   6.844   4.785   4.901
10250SOL    HW131649   6.868   4.720   4.828
10250SOL    HW231650   6.827   4.875   4.861
10251SOL     OW31651   6.877   4.585   4.062
10251SOL    HW131652   6.862   4.593   4.161
10251SOL    HW231653   6.862   4.490   4.034
10252SOL     OW31654   6.884   5.507   4.833
10252SOL    HW131655   6.965   5.491   4.778
10252SOL    HW231656   6.865   5.427   4.889
10253SOL     OW31657   5.715   4.949   4.691
10253SOL    HW131658   5.692   4.974   4.785
10253SOL    HW231659   5.650   4.881   4.658
10254SOL     OW31660   6.301   5.410   5.493
10254SOL    HW131661   6.256   5.488   5.450
10254SOL    HW231662   6.392   5.398   5.454
10255SOL     OW31663   6.994   5.369   4.252
10255SOL    HW131664   0.081   5.407   4.221
10255SOL    HW231665   6.925   5.441   4.255
10256SOL     OW31666   5.676   5.571   5.552
10256SOL    HW131667   5.631   5.486   5.579
10256SOL    HW231668   5.743   5.597   5.621
10257SOL     OW31669   6.887   4.689   4.355
10257SOL    HW131670   6.956   4.639   4.406
10257SOL    HW231671   6.926   4.775   4.321
10258SOL     OW31672   6.319   4.998   5.146
10258SOL    HW131673   6.303   5.054   5.228
10258SOL    HW231674   6.243   5.010   5.082
10259SOL     OW31675   6.251   5.363   3.883
10259SOL    HW131676   6.272   5.383   3.787
10259SOL    HW231677   6.199   5.277   3.888
10260SOL     OW31678   5.811   4.023   4.446
10260SOL    HW131679   5.725   4.067   4.420
10260SOL    HW231680   5.819   4.023   4.545
10261SOL     OW31681   6.707   5.477   3.664
10261SOL    HW131682   6.780   5.503   3.600
10261SOL    HW231683   6.646   5.412   3.620
10262SOL     OW31684   6.386   4.737   5.106
10262SOL    HW131685   6.430   4.729   5.017
10262SOL    HW231686   6.359   4.832   5.122
10263SOL     OW31687   6.565   4.623   3.965
10263SOL    HW131688   6.652   4.669   3.947
10263SOL    HW231689   6.578   4.555   4.037
10264SOL     OW31690   5.923   5.053   5.210
10264SOL    HW131691   5.914   5.128   5.144
10264SOL    HW231692   5.856   4.982   5.189
10265SOL     OW31693   6.679   4.859   4.465
10265SOL    HW131694   6.603   4.806   4.503
10265SOL    HW231695   6.746   4.796   4.425
10266SOL     OW31696   6.602   3.984   4.666
10266SOL    HW131697   6.581   3.945   4.576
10266SOL    HW231698   6.611   3.910   4.733
10267SOL     OW31699   6.190   5.209   4.208
10267SOL    HW131700   6.225   5.156   4.131
10267SOL    HW231701   6.090   5.212   4.204
10268SOL     OW31702   5.890   5.059   4.028
10268SOL    HW131703   5.796   5.050   3.993
10268SOL    HW231704   5.891   5.123   4.105
10269SOL     OW31705   5.705   4.773   5.441
10269SOL    HW131706   5.624   4.748   5.493
10269SOL    HW231707   5.786   4.732   5.483
10270SOL     OW31708   6.297   3.863   5.187
10270SOL    HW131709   6.380   3.840   5.137
10270SOL    HW231710   6.319   3.879   5.283
10271SOL     OW31711   5.689   4.141   3.709
10271SOL    HW131712   5.616   4.119   3.645
10271SOL    HW231713   5.650   4.178   3.793
10272SOL     OW31714   5.581   3.856   3.988
10272SOL    HW131715   5.517   3.892   3.920
10272SOL    HW231716   5.674   3.856   3.950
10273SOL     OW31717   6.222   4.536   5.197
10273SOL    HW131718   6.280   4.614   5.172
10273SOL    HW231719   6.275   4.452   5.192
10274SOL     OW31720   6.377   4.170   5.405
10274SOL    HW131721   6.437   4.208   5.476
10274SOL    HW231722   6.373   4.071   5.414
10275SOL     OW31723   6.945   4.922   5.349
10275SOL    HW131724   6.954   4.872   5.434
10275SOL    HW231725   0.023   4.902   5.290
10276SOL     OW31726   5.922   5.485   5.341
10276SOL    HW131727   5.845   5.543   5.315
10276SOL    HW231728   5.888   5.400   5.382
10277SOL     OW31729   6.861   4.079   4.163
10277SOL    HW131730   6.921   4.022   4.107
10277SOL    HW231731   6.905   4.097   4.251
10278SOL     OW31732   6.170   4.450   4.416
10278SOL    HW131733   6.226   4.528   4.390
10278SOL    HW231734   6.094   4.440   4.352
10279SOL     OW31735   6.386   4.986   3.778
10279SOL    HW131736   6.378   5.016   3.872
10279SOL    HW231737   6.354   5.058   3.716
10280SOL     OW31738   6.265   5.438   4.679
10280SOL    HW131739   6.232   5.532   4.672
10280SOL    HW231740   6.365   5.438   4.677
10281SOL     OW31741   6.475   4.717   4.594
10281SOL    HW131742   6.523   4.637   4.629
10281SOL    HW231743   6.419   4.756   4.667
10282SOL     OW31744   6.788   4.754   3.711
10282SOL    HW131745   6.702   4.790   3.675
10282SOL    HW231746   6.791   4.655   3.696
10283SOL     OW31747   5.784   5.006   5.560
10283SOL    HW131748   5.752   4.927   5.508
10283SOL    HW231749   5.731   5.013   5.645
10284SOL     OW31750   5.769   5.031   4.411
10284SOL    HW131751   5.756   5.005   4.507
10284SOL    HW231752   5.809   4.954   4.361
10285SOL     OW31753   6.264   5.150   5.370
10285SOL    HW131754   6.180   5.108   5.407
10285SOL    HW231755   6.272   5.243   5.405
10286SOL     OW31756   5.975   4.136   4.249
10286SOL    HW131757   6.010   4.068   4.185
10286SOL    HW231758   5.921   4.090   4.320
10287SOL     OW31759   5.981   4.274   5.015
10287SOL    HW131760   6.035   4.206   5.064
10287SOL    HW231761   5.970   4.245   4.920
10288SOL     OW31762   6.403   5.301   4.396
10288SOL    HW131763   6.346   5.339   4.323
10288SOL    HW231764   6.356   5.223   4.437
10289SOL     OW31765   6.942   3.927   4.817
10289SOL    HW131766   6.920   3.830   4.830
10289SOL    HW231767   6.926   3.976   4.902
10290SOL     OW31768   6.630   3.746   4.807
10290SOL    HW131769   6.582   3.681   4.748
10290SOL    HW231770   6.726   3.719   4.815
10291SOL     OW31771   6.375   5.041   4.053
10291SOL    HW131772   6.366   4.944   4.075
10291SOL    HW231773   6.452   5.080   4.104
10292SOL     OW31774   6.177   5.308   5.019
10292SOL    HW131775   6.171   5.392   5.073
10292SOL    HW231776   6.269   5.299   4.981
10293SOL     OW31777   6.904   3.791   3.819
10293SOL    HW131778   6.974   3.728   3.786
10293SOL    HW231779   6.819   3.740   3.837
10294SOL     OW31780   5.630   4.756   4.031
10294SOL    HW131781   5.729   4.746   4.017
10294SOL    HW231782   5.589   4.667   4.048
10295SOL     OW31783   6.477   5.413   4.043
10295SOL    HW131784   6.396   5.386   3.990
10295SOL    HW231785   6.453   5.486   4.106
10296SOL     OW31786   5.779   4.407   5.767
10296SOL    HW131787   5.688   4.379   5.796
10296SOL    HW231788   5.786   4.398   5.667
10297SOL     OW31789   5.781   4.031   6.568
10297SOL    HW131790   5.824   3.994   6.650
10297SOL    HW231791   5.691   3.989   6.556
10298SOL     OW31792   5.555   4.143   6.222
10298SOL    HW131793   5.473   4.164   6.276
10298SOL    HW231794   5.531   4.081   6.147
10299SOL     OW31795   6.051   4.904   6.732
10299SOL    HW131796   5.998   4.971   6.682
10299SOL    HW231797   6.050   4.926   6.830
10300SOL     OW31798   0.045   5.261   6.343
10300SOL    HW131799   0.094   5.174   6.342
10300SOL    HW231800   0.035   5.294   6.249
10301SOL     OW31801   6.698   4.519   6.233
10301SOL    HW131802   6.772   4.586   6.233
10301SOL    HW231803   6.671   4.499   6.327
10302SOL     OW31804   6.296   4.817   6.659
10302SOL    HW131805   6.199   4.836   6.676
10302SOL    HW231806   6.340   4.901   6.626
10303SOL     OW31807   6.311   4.698   6.236
10303SOL    HW131808   6.383   4.710   6.304
10303SOL    HW231809   6.231   4.754   6.260
10304SOL     OW31810   5.899   5.102   6.616
10304SOL    HW131811   5.808   5.082   6.580
10304SOL    HW231812   5.943   5.172   6.560
10305SOL     OW31813   5.815   5.472   6.049
10305SOL    HW131814   5.833   5.541   6.119
10305SOL    HW231815   5.890   5.471   5.984
10306SOL     OW31816   5.889   5.209   6.109
10306SOL    HW131817   5.846   5.300   6.104
10306SOL    HW231818   5.840   5.154   6.176
10307SOL     OW31819   5.885   4.803   6.473
10307SOL    HW131820   5.917   4.712   6.502
10307SOL    HW231821   5.835   4.846   6.549
10308SOL     OW31822   6.187   5.622   6.984
10308SOL    HW131823   6.114   5.569   0.027
10308SOL    HW231824   6.240   5.669   0.055
10309SOL     OW31825   6.139   4.706   5.761
10309SOL    HW131826   6.177   4.755   5.682
10309SOL    HW231827   6.187   4.734   5.844
10310SOL     OW31828   0.143   3.876   0.064
10310SOL    HW131829   0.072   3.944   0.047
10310SOL    HW231830   0.113   3.813   0.136
10311SOL     OW31831   5.700   4.384   6.200
10311SOL    HW131832   5.657   4.294   6.207
10311SOL    HW231833   5.698   4.429   6.288
10312SOL     OW31834   5.601   5.330   5.664
10312SOL    HW131835   5.534   5.256   5.666
10312SOL    HW231836   5.602   5.378   5.751
10313SOL     OW31837   6.202   5.078   6.338
10313SOL    HW131838   6.162   4.987   6.331
10313SOL    HW231839   6.189   5.127   6.252
10314SOL     OW31840   6.779   4.930   6.963
10314SOL    HW131841   6.853   4.939   6.896
10314SOL    HW231842   6.812   4.956   0.053
10315SOL     OW31843   6.397   3.775   6.045
10315SOL    HW131844   6.440   3.863   6.022
10315SOL    HW231845   6.300   3.789   6.064
10316SOL     OW31846   5.660   4.645   6.815
10316SOL    HW131847   5.690   4.564   6.766
10316SOL    HW231848   5.561   4.643   6.827
10317SOL     OW31849   6.147   4.447   5.883
10317SOL    HW131850   6.141   4.535   5.835
10317SOL    HW231851   6.081   4.446   5.958
10318SOL     OW31852   6.887   4.016   6.413
10318SOL    HW131853   6.787   4.011   6.408
10318SOL    HW231854   6.917   3.983   6.502
10319SOL     OW31855   6.401   4.293   6.978
10319SOL    HW131856   6.331   4.364   6.973
10319SOL    HW231857   6.381   4.221   6.913
10320SOL     OW31858   6.573   3.939   6.819
10320SOL    HW131859   6.485   3.985   6.810
10320SOL    HW231860   6.579   3.864   6.753
10321SOL     OW31861   6.626   4.459   5.976
10321SOL    HW131862   6.646   4.476   6.073
10321SOL    HW231863   6.537   4.414   5.969
10322SOL     OW31864   5.697   4.522   6.440
10322SOL    HW131865   5.795   4.540   6.454
10322SOL    HW231866   5.646   4.608   6.447
10323SOL     OW31867   5.604   5.573   0.018
10323SOL    HW131868   5.574   5.483   0.048
10323SOL    HW231869   5.687   5.565   6.964
10324SOL     OW31870   6.405   4.095   5.772
10324SOL    HW131871   6.451   4.143   5.697
10324SOL    HW231872   6.347   4.022   5.734
10325SOL     OW31873   0.003   4.907   6.116
10325SOL    HW131874   0.027   4.859   6.031
10325SOL    HW231875   6.937   4.980   6.095
10326SOL     OW31876   6.137   3.828   6.539
10326SOL    HW131877   6.137   3.861   6.633
10326SOL    HW231878   6.138   3.905   6.476
10327SOL     OW31879   6.573   5.198   6.052
10327SOL    HW131880   6.545   5.269   5.987
10327SOL    HW231881   6.530   5.215   6.140
10328SOL     OW31882   5.932   5.524   6.477
10328SOL    HW131883   5.971   5.432   6.473
10328SOL    HW231884   6.000   5.587   6.514
10329SOL     OW31885   5.876   4.651   5.867
10329SOL    HW131886   5.958   4.677   5.815
10329SOL    HW231887   5.843   4.563   5.834
10330SOL     OW31888   6.712   5.465   5.821
10330SOL    HW131889   6.617   5.452   5.849
10330SOL    HW231890   6.734   5.404   5.745
10331SOL     OW31891   6.043   5.496   5.893
10331SOL    HW131892   6.089   5.547   5.966
10331SOL    HW231893   6.110   5.439   5.845
10332SOL     OW31894   5.841   5.558   6.880
10332SOL    HW131895   5.896   5.526   6.958
10332SOL    HW231896   5.851   5.493   6.804
10333SOL     OW31897   6.541   5.429   6.424
10333SOL    HW131898   6.631   5.387   6.413
10333SOL    HW231899   6.474   5.380   6.367
10334SOL     OW31900   5.972   4.405   6.098
10334SOL    HW131901   5.985   4.306   6.101
10334SOL    HW231902   5.876   4.427   6.118
10335SOL     OW31903   6.240   3.863   5.688
10335SOL    HW131904   6.268   3.774   5.725
10335SOL    HW231905   6.166   3.850   5.622
10336SOL     OW31906   6.366   5.207   6.793
10336SOL    HW131907   6.373   5.161   6.705
10336SOL    HW231908   6.340   5.141   6.863
10337SOL     OW31909   6.383   5.057   6.554
10337SOL    HW131910   6.474   5.073   6.515
10337SOL    HW231911   6.314   5.065   6.482
10338SOL     OW31912   6.544   4.236   6.436
10338SOL    HW131913   6.514   4.243   6.340
10338SOL    HW231914   6.574   4.143   6.454
10339SOL     OW31915   6.129   3.809   6.075
10339SOL    HW131916   6.054   3.798   6.140
10339SOL    HW231917   6.110   3.886   6.015
10340SOL     OW31918   6.971   4.776   5.592
10340SOL    HW131919   0.005   4.785   5.686
10340SOL    HW231920   6.871   4.765   5.593
10341SOL     OW31921   5.847   3.791   5.756
10341SOL    HW131922   5.886   3.873   5.714
10341SOL    HW231923   5.921   3.735   5.794
10342SOL     OW31924   6.537   4.004   5.995
10342SOL    HW131925   6.496   4.040   5.911
10342SOL    HW231926   6.636   4.020   5.992
10343SOL     OW31927   6.770   5.311   6.330
10343SOL    HW131928   6.767   5.364   6.246
10343SOL    HW231929   6.865   5.291   6.354
10344SOL     OW31930   6.080   4.840   6.286
10344SOL    HW131931   6.013   4.825   6.359
10344SOL    HW231932   6.033   4.839   6.198
10345SOL     OW31933   6.773   5.492   6.100
10345SOL    HW131934   6.749   5.491   6.003
10345SOL    HW231935   6.718   5.561   6.147
10346SOL     OW31936   6.560   4.256   5.595
10346SOL    HW131937   6.541   4.353   5.578
10346SOL    HW231938   6.622   4.247   5.672
10347SOL     OW31939   6.128   3.924   6.798
10347SOL    HW131940   6.152   3.864   6.873
10347SOL    HW231941   6.030   3.942   6.799
10348SOL     OW31942   6.473   4.211   6.174
10348SOL    HW131943   6.427   4.270   6.109
10348SOL    HW231944   6.495   4.124   6.131
10349SOL     OW31945   6.581   3.776   6.247
10349SOL    HW131946   6.510   3.776   6.176
10349SOL    HW231947   6.559   3.706   6.314
10350SOL     OW31948   6.075   5.145   5.717
10350SOL    HW131949   6.005   5.108   5.777
10350SOL    HW231950   6.065   5.106   5.625
10351SOL     OW31951   6.085   3.999   5.886
10351SOL    HW131952   6.141   3.955   5.816
10351SOL    HW231953   6.049   4.085   5.849
10352SOL     OW31954   0.275   5.317   0.212
10352SOL    HW131955   0.294   5.398   0.155
10352SOL    HW231956   0.359   5.263   0.222
10353SOL     OW31957   6.704   5.124   6.728
10353SOL    HW131958   6.681   5.045   6.785
10353SOL    HW231959   6.672   5.108   6.635
10354SOL     OW31960   6.317   4.774   5.965
10354SOL    HW131961   6.318   4.738   6.059
10354SOL    HW231962   6.395   4.738   5.915
10355SOL     OW31963   6.126   4.456   6.912
10355SOL    HW131964   6.104   4.524   6.983
10355SOL    HW231965   6.047   4.397   6.897
10356SOL     OW31966   6.775   4.117   6.827
10356SOL    HW131967   6.744   4.196   6.880
10356SOL    HW231968   6.699   4.053   6.815
10357SOL     OW31969   5.639   5.263   6.874
10357SOL    HW131970   5.590   5.329   6.816
10357SOL    HW231971   5.620   5.282   6.970
10358SOL     OW31972   5.921   4.846   6.060
10358SOL    HW131973   5.920   4.922   5.994
10358SOL    HW231974   5.903   4.760   6.012
10359SOL     OW31975   6.137   4.244   6.453
10359SOL    HW131976   6.145   4.311   6.380
10359SOL    HW231977   6.216   4.250   6.513
10360SOL     OW31978   6.845   5.122   6.035
10360SOL    HW131979   6.896   5.205   6.058
10360SOL    HW231980   6.747   5.141   6.041
10361SOL     OW31981   6.852   5.333   6.810
10361SOL    HW131982   6.942   5.294   6.829
10361SOL    HW231983   6.791   5.262   6.775
10362SOL     OW31984   6.005   5.183   6.857
10362SOL    HW131985   5.952   5.155   6.777
10362SOL    HW231986   6.059   5.264   6.835
10363SOL     OW31987   6.302   4.543   6.718
10363SOL    HW131988   6.286   4.638   6.691
10363SOL    HW231989   6.232   4.515   6.783
10364SOL     OW31990   6.926   4.443   6.538
10364SOL    HW131991   6.828   4.450   6.521
10364SOL    HW231992   6.944   4.364   6.597
10365SOL     OW31993   6.713   4.249   5.816
10365SOL    HW131994   6.755   4.179   5.874
10365SOL    HW231995   6.688   4.328   5.871
10366SOL     OW31996   5.857   3.930   6.811
10366SOL    HW131997   5.799   3.979   6.876
10366SOL    HW231998   5.840   3.832   6.818
10367SOL     OW31999   5.609   4.996   6.834
10367SOL    HW132000   5.666   4.942   6.895
10367SOL    HW232001   5.629   5.093   6.846
10368SOL     OW32002   6.347   4.288   6.618
10368SOL    HW132003   6.421   4.280   6.552
10368SOL    HW232004   6.337   4.384   6.645
10369SOL     OW32005   5.904   3.779   6.231
10369SOL    HW132006   5.859   3.867   6.249
10369SOL    HW232007   5.909   3.727   6.316
10370SOL     OW32008   0.157   4.202   5.888
10370SOL    HW132009   0.109   4.114   5.878
10370SOL    HW232010   0.132   4.244   5.975
10371SOL     OW32011   6.646   4.476   6.515
10371SOL    HW132012   6.626   4.497   6.611
10371SOL    HW232013   6.609   4.386   6.493
10372SOL     OW32014   6.945   4.483   5.620
10372SOL    HW132015   0.036   4.462   5.656
10372SOL    HW232016   6.948   4.571   5.573
10373SOL     OW32017   6.638   5.094   6.456
10373SOL    HW132018   6.682   5.007   6.436
10373SOL    HW232019   6.682   5.168   6.404
10374SOL     OW32020   5.966   4.536   6.505
10374SOL    HW132021   6.038   4.523   6.437
10374SOL    HW232022   5.950   4.449   6.553
10375SOL     OW32023   5.911   4.267   6.592
10375SOL    HW132024   5.852   4.188   6.575
10375SOL    HW232025   5.996   4.257   6.541
10376SOL     OW32026   6.934   4.052   0.041
10376SOL    HW132027   6.871   4.018   0.110
10376SOL    HW232028   6.883   4.074   6.958
10377SOL     OW32029   5.626   5.004   5.785
10377SOL    HW132030   5.540   5.050   5.763
10377SOL    HW232031   5.607   4.912   5.820
10378SOL     OW32032   5.660   5.483   6.506
10378SOL    HW132033   5.637   5.392   6.471
10378SOL    HW232034   5.758   5.500   6.494
10379SOL     OW32035   6.065   5.279   6.479
10379SOL    HW132036   6.139   5.342   6.503
10379SOL    HW232037   6.103   5.203   6.426
10380SOL     OW32038   6.571   4.551   6.769
10380SOL    HW132039   6.594   4.602   6.852
10380SOL    HW232040   6.471   4.546   6.759
10381SOL     OW32041   5.634   4.389   6.672
10381SOL    HW132042   5.646   4.429   6.581
10381SOL    HW232043   5.713   4.331   6.693
10382SOL     OW32044   6.387   4.327   5.935
10382SOL    HW132045   6.389   4.244   5.880
10382SOL    HW232046   6.301   4.376   5.920
10383SOL     OW32047   6.345   4.090   6.801
10383SOL    HW132048   6.262   4.034   6.800
10383SOL    HW232049   6.340   4.158   6.728
10384SOL     OW32050   6.504   5.304   0.026
10384SOL    HW132051   6.485   5.301   6.928
10384SOL    HW232052   6.602   5.322   0.040
10385SOL     OW32053   5.997   4.236   5.777
10385SOL    HW132054   6.072   4.297   5.802
10385SOL    HW232055   5.910   4.286   5.781
10386SOL     OW32056   5.736   4.819   0.010
10386SOL    HW132057   5.792   4.769   0.077
10386SOL    HW232058   5.714   4.758   6.934
10387SOL     OW32059   6.977   4.629   6.726
10387SOL    HW132060   6.957   4.560   6.656
10387SOL    HW232061   6.977   4.720   6.685
10388SOL     OW32062   6.858   4.578   5.867
10388SOL    HW132063   6.782   4.536   5.916
10388SOL    HW232064   6.873   4.529   5.781
10389SOL     OW32065   6.914   5.551   6.662
10389SOL    HW132066   6.992   5.521   6.608
10389SOL    HW232067   6.886   5.478   6.724
10390SOL     OW32068   5.648   4.982   6.558
10390SOL    HW132069   5.628   4.982   6.656
10390SOL    HW232070   5.610   4.900   6.516
10391SOL     OW32071   0.002   5.344   6.089
10391SOL    HW132072   0.089   5.385   6.063
10391SOL    HW232073   6.930   5.413   6.085
10392SOL     OW32074   6.906   4.697   6.262
10392SOL    HW132075   6.979   4.632   6.281
10392SOL    HW232076   6.943   4.773   6.208
10393SOL     OW32077   6.239   5.356   5.751
10393SOL    HW132078   6.261   5.382   5.657
10393SOL    HW232079   6.180   5.275   5.751
10394SOL     OW32080   5.797   4.024   6.290
10394SOL    HW132081   5.711   4.065   6.261
10394SOL    HW232082   5.805   4.031   6.389
10395SOL     OW32083   6.743   5.305   5.588
10395SOL    HW132084   6.743   5.215   5.545
10395SOL    HW232085   6.686   5.367   5.534
10396SOL     OW32086   6.263   4.824   6.954
10396SOL    HW132087   6.287   4.814   6.857
10396SOL    HW232088   6.305   4.908   6.989
10397SOL     OW32089   6.532   4.676   5.827
10397SOL    HW132090   6.603   4.716   5.770
10397SOL    HW232091   6.570   4.600   5.880
10398SOL     OW32092   6.745   4.843   6.429
10398SOL    HW132093   6.655   4.802   6.438
10398SOL    HW232094   6.799   4.789   6.364
10399SOL     OW32095   6.618   3.969   6.442
10399SOL    HW132096   6.599   3.920   6.357
10399SOL    HW232097   6.618   3.904   6.519
10400SOL     OW32098   6.169   5.210   6.101
10400SOL    HW132099   6.209   5.157   6.026
10400SOL    HW232100   6.069   5.214   6.089
10401SOL     OW32101   5.878   5.055   5.886
10401SOL    HW132102   5.785   5.044   5.850
10401SOL    HW232103   5.877   5.121   5.961
10402SOL     OW32104   6.309   3.895   0.205
10402SOL    HW132105   6.369   3.821   0.235
10402SOL    HW232106   6.364   3.977   0.188
10403SOL     OW32107   5.628   4.105   5.591
10403SOL    HW132108   5.566   4.093   5.513
10403SOL    HW232109   5.582   4.159   5.662
10404SOL     OW32110   5.601   3.884   5.816
10404SOL    HW132111   5.569   3.924   5.730
10404SOL    HW232112   5.696   3.855   5.806
10405SOL     OW32113   5.983   5.472   0.097
10405SOL    HW132114   5.972   5.494   0.194
10405SOL    HW232115   6.004   5.374   0.088
10406SOL     OW32116   6.810   4.072   6.003
10406SOL    HW132117   6.888   4.014   5.980
10406SOL    HW232118   6.829   4.121   6.088
10407SOL     OW32119   6.146   4.477   6.298
10407SOL    HW132120   6.215   4.543   6.268
10407SOL    HW232121   6.086   4.454   6.221
10408SOL     OW32122   6.382   5.065   5.676
10408SOL    HW132123   6.361   5.065   5.773
10408SOL    HW232124   6.382   5.159   5.642
10409SOL     OW32125   6.265   5.461   6.513
10409SOL    HW132126   6.228   5.552   6.531
10409SOL    HW232127   6.365   5.465   6.509
10410SOL     OW32128   6.494   4.717   6.460
10410SOL    HW132129   6.538   4.629   6.479
10410SOL    HW232130   6.429   4.738   6.533
10411SOL     OW32131   6.705   4.731   5.600
10411SOL    HW132132   6.653   4.801   5.552
10411SOL    HW232133   6.666   4.641   5.583
10412SOL     OW32134   5.777   4.991   6.254
10412SOL    HW132135   5.787   4.945   6.342
10412SOL    HW232136   5.818   4.934   6.182
10413SOL     OW32137   5.985   4.138   6.115
10413SOL    HW132138   6.013   4.075   6.042
10413SOL    HW232139   5.922   4.092   6.177
10414SOL     OW32140   5.884   4.295   6.862
10414SOL    HW132141   5.823   4.221   6.890
10414SOL    HW232142   5.907   4.285   6.765
10415SOL     OW32143   6.395   5.273   6.255
10415SOL    HW132144   6.324   5.293   6.187
10415SOL    HW232145   6.363   5.200   6.316
10416SOL     OW32146   6.936   3.934   6.672
10416SOL    HW132147   6.920   3.836   6.674
10416SOL    HW232148   6.872   3.981   6.733
10417SOL     OW32149   6.631   3.755   6.619
10417SOL    HW132150   6.580   3.688   6.564
10417SOL    HW232151   6.724   3.723   6.634
10418SOL     OW32152   6.344   5.050   5.949
10418SOL    HW132153   6.330   4.952   5.957
10418SOL    HW232154   6.433   5.075   5.987
10419SOL     OW32155   6.162   5.398   6.817
10419SOL    HW132156   6.188   5.483   6.864
10419SOL    HW232157   6.245   5.346   6.795
10420SOL     OW32158   6.904   3.791   5.750
10420SOL    HW132159   6.964   3.736   5.692
10420SOL    HW232160   6.821   3.738   5.772
10421SOL     OW32161   5.614   4.744   5.902
10421SOL    HW132162   5.711   4.733   5.877
10421SOL    HW232163   5.579   4.657   5.936
10422SOL     OW32164   6.459   5.410   5.909
10422SOL    HW132165   6.379   5.382   5.857
10422SOL    HW232166   6.435   5.489   5.967
10423SOL     OW32167   5.811   6.250   0.138
10423SOL    HW132168   5.721   6.207   0.147
10423SOL    HW232169   5.840   6.247   0.042
10424SOL     OW32170   5.799   5.860   0.993
10424SOL    HW132171   5.853   5.829   1.071
10424SOL    HW232172   5.708   5.819   0.997
10425SOL     OW32173   5.562   6.018   0.632
10425SOL    HW132174   5.479   6.038   0.684
10425SOL    HW232175   5.541   5.949   0.562
10426SOL     OW32176   6.126   6.888   1.232
10426SOL    HW132177   6.083   6.916   1.146
10426SOL    HW232178   6.065   6.908   1.308
10427SOL     OW32179   0.007   0.099   0.595
10427SOL    HW132180   6.949   0.076   0.673
10427SOL    HW232181   0.085   0.037   0.592
10428SOL     OW32182   6.708   6.391   0.653
10428SOL    HW132183   6.771   6.469   0.659
10428SOL    HW232184   6.674   6.369   0.744
10429SOL     OW32185   6.239   6.680   0.966
10429SOL    HW132186   6.218   6.752   1.033
10429SOL    HW232187   6.197   6.704   0.878
10430SOL     OW32188   6.449   6.286   1.840
10430SOL    HW132189   6.453   6.344   1.921
10430SOL    HW232190   6.463   6.342   1.758
10431SOL     OW32191   6.297   6.529   0.639
10431SOL    HW132192   6.373   6.532   0.704
10431SOL    HW232193   6.227   6.596   0.666
10432SOL     OW32194   6.308   6.778   1.845
10432SOL    HW132195   6.312   6.828   1.932
10432SOL    HW232196   6.284   6.841   1.771
10433SOL     OW32197   5.993   6.985   1.010
10433SOL    HW132198   5.905   6.953   0.975
10433SOL    HW232199   6.027   0.059   0.952
10434SOL     OW32200   6.096   5.941   1.438
10434SOL    HW132201   6.166   5.874   1.460
10434SOL    HW232202   6.008   5.910   1.473
10435SOL     OW32203   5.891   6.671   0.882
10435SOL    HW132204   5.887   6.574   0.906
10435SOL    HW232205   5.843   6.724   0.953
10436SOL     OW32206   6.166   6.503   0.199
10436SOL    HW132207   6.202   6.510   0.106
10436SOL    HW232208   6.222   6.558   0.261
10437SOL     OW32209   5.671   6.277   0.550
10437SOL    HW132210   5.636   6.187   0.575
10437SOL    HW232211   5.662   6.339   0.628
10438SOL     OW32212   5.701   6.356   1.550
10438SOL    HW132213   5.779   6.416   1.537
10438SOL    HW232214   5.617   6.406   1.531
10439SOL     OW32215   6.804   6.726   1.363
10439SOL    HW132216   6.864   6.666   1.311
10439SOL    HW232217   6.848   6.749   1.450
10440SOL     OW32218   6.407   5.645   0.510
10440SOL    HW132219   6.455   5.727   0.478
10440SOL    HW232220   6.309   5.662   0.512
10441SOL     OW32221   5.793   6.543   1.312
10441SOL    HW132222   5.877   6.493   1.290
10441SOL    HW232223   5.720   6.515   1.250
10442SOL     OW32224   5.934   5.873   1.894
10442SOL    HW132225   5.973   5.953   1.940
10442SOL    HW232226   5.841   5.895   1.864
10443SOL     OW32227   6.168   6.264   0.332
10443SOL    HW132228   6.169   6.352   0.284
10443SOL    HW232229   6.095   6.264   0.400
10444SOL     OW32230   6.851   5.926   0.884
10444SOL    HW132231   6.753   5.905   0.882
10444SOL    HW232232   6.894   5.878   0.960
10445SOL     OW32233   6.352   6.142   1.456
10445SOL    HW132234   6.316   6.110   1.544
10445SOL    HW232235   6.341   6.070   1.388
10446SOL     OW32236   6.960   6.093   1.742
10446SOL    HW132237   6.927   6.185   1.764
10446SOL    HW232238   0.060   6.093   1.742
10447SOL     OW32239   6.508   6.432   1.607
10447SOL    HW132240   6.564   6.362   1.563
10447SOL    HW232241   6.462   6.486   1.537
10448SOL     OW32242   6.647   5.989   1.196
10448SOL    HW132243   6.551   5.983   1.225
10448SOL    HW232244   6.654   5.966   1.099
10449SOL     OW32245   6.672   6.309   0.395
10449SOL    HW132246   6.691   6.340   0.488
10449SOL    HW232247   6.581   6.267   0.392
10450SOL     OW32248   5.653   6.452   0.784
10450SOL    HW132249   5.742   6.425   0.820
10450SOL    HW232250   5.617   6.528   0.839
10451SOL     OW32251   6.490   5.994   0.179
10451SOL    HW132252   6.473   6.068   0.114
10451SOL    HW232253   6.570   5.942   0.150
10452SOL     OW32254   6.981   6.756   0.471
10452SOL    HW132255   0.014   6.710   0.389
10452SOL    HW232256   6.919   6.830   0.446
10453SOL     OW32257   6.152   5.675   0.954
10453SOL    HW132258   6.170   5.707   1.047
10453SOL    HW232259   6.159   5.752   0.891
10454SOL     OW32260   5.903   6.486   0.270
10454SOL    HW132261   5.997   6.498   0.239
10454SOL    HW232262   5.866   6.400   0.235
10455SOL     OW32263   5.836   5.861   1.479
10455SOL    HW132264   5.780   5.943   1.488
10455SOL    HW232265   5.787   5.784   1.520
10456SOL     OW32266   5.953   6.250   0.507
10456SOL    HW132267   5.957   6.150   0.510
10456SOL    HW232268   5.858   6.279   0.507
10457SOL     OW32269   6.366   5.816   1.727
10457SOL    HW132270   6.458   5.778   1.736
10457SOL    HW232271   6.308   5.781   1.800
10458SOL     OW32272   6.506   6.096   0.882
10458SOL    HW132273   6.489   6.096   0.784
10458SOL    HW232274   6.532   6.004   0.911
10459SOL     OW32275   6.130   5.667   0.504
10459SOL    HW132276   6.051   5.656   0.565
10459SOL    HW232277   6.109   5.735   0.434
10460SOL     OW32278   6.569   5.865   0.446
10460SOL    HW132279   6.546   5.894   0.353
10460SOL    HW232280   6.667   5.871   0.460
10461SOL     OW32281   6.608   6.228   1.448
10461SOL    HW132282   6.515   6.192   1.454
10461SOL    HW232283   6.673   6.153   1.450
10462SOL     OW32284   6.842   0.055   0.802
10462SOL    HW132285   6.745   0.034   0.801
10462SOL    HW232286   6.869   0.084   0.894
10463SOL     OW32287   6.098   6.697   0.712
10463SOL    HW132288   6.023   6.688   0.778
10463SOL    HW232289   6.061   6.709   0.620
10464SOL     OW32290   6.745   6.191   0.021
10464SOL    HW132291   6.646   6.200   0.013
10464SOL    HW232292   6.768   6.164   0.114
10465SOL     OW32293   5.706   6.119   1.410
10465SOL    HW132294   5.798   6.119   1.370
10465SOL    HW232295   5.694   6.200   1.467
10466SOL     OW32296   6.189   5.764   1.209
10466SOL    HW132297   6.227   5.737   1.298
10466SOL    HW232298   6.090   5.775   1.218
10467SOL     OW32299   6.472   6.061   0.618
10467SOL    HW132300   6.445   6.128   0.548
10467SOL    HW232301   6.506   5.978   0.574
10468SOL     OW32302   6.571   5.646   0.731
10468SOL    HW132303   6.506   5.647   0.655
10468SOL    HW232304   6.552   5.567   0.789
10469SOL     OW32305   6.079   5.839   0.299
10469SOL    HW132306   6.161   5.803   0.254
10469SOL    HW232307   6.049   5.922   0.254
10470SOL     OW32308   6.597   6.853   1.243
10470SOL    HW132309   6.511   6.848   1.293
10470SOL    HW232310   6.669   6.809   1.296
10471SOL     OW32311   6.798   6.791   1.046
10471SOL    HW132312   6.727   6.813   1.114
10471SOL    HW232313   6.755   6.773   0.958
10472SOL     OW32314   6.531   5.652   1.349
10472SOL    HW132315   6.554   5.644   1.252
10472SOL    HW232316   6.601   5.706   1.396
10473SOL     OW32317   6.539   6.625   1.797
10473SOL    HW132318   6.456   6.678   1.813
10473SOL    HW232319   6.525   6.562   1.721
10474SOL     OW32320   6.335   6.623   0.380
10474SOL    HW132321   6.324   6.587   0.472
10474SOL    HW232322   6.408   6.573   0.333
10475SOL     OW32323   6.012   6.385   1.269
10475SOL    HW132324   6.081   6.396   1.341
10475SOL    HW232325   5.980   6.290   1.268
10476SOL     OW32326   6.892   5.942   1.314
10476SOL    HW132327   6.956   6.015   1.339
10476SOL    HW232328   6.811   5.982   1.270
10477SOL     OW32329   5.953   6.701   0.465
10477SOL    HW132330   5.980   6.770   0.398
10477SOL    HW232331   5.932   6.615   0.418
10478SOL     OW32332   6.111   6.132   0.904
10478SOL    HW132333   6.119   6.198   0.829
10478SOL    HW232334   6.190   6.140   0.964
10479SOL     OW32335   6.848   6.987   0.396
10479SOL    HW132336   6.904   0.043   0.457
10479SOL    HW232337   6.754   0.019   0.398
10480SOL     OW32338   6.063   6.256   1.673
10480SOL    HW132339   6.099   6.307   1.595
10480SOL    HW232340   6.129   6.186   1.701
10481SOL     OW32341   6.617   5.709   1.761
10481SOL    HW132342   6.663   5.798   1.753
10481SOL    HW232343   6.682   5.636   1.740
10482SOL     OW32344   6.070   5.663   1.786
10482SOL    HW132345   6.013   5.597   1.737
10482SOL    HW232346   6.015   5.744   1.808
10483SOL     OW32347   6.204   6.425   1.066
10483SOL    HW132348   6.211   6.518   1.029
10483SOL    HW232349   6.127   6.420   1.130
10484SOL     OW32350   6.900   6.372   0.975
10484SOL    HW132351   6.802   6.351   0.967
10484SOL    HW232352   6.945   6.300   1.028
10485SOL     OW32353   6.793   6.092   0.278
10485SOL    HW132354   6.825   6.028   0.347
10485SOL    HW232355   6.754   6.173   0.323
10486SOL     OW32356   5.916   5.767   1.229
10486SOL    HW132357   5.886   5.809   1.315
10486SOL    HW232358   5.882   5.673   1.224
10487SOL     OW32359   5.673   6.917   1.268
10487SOL    HW132360   5.696   6.866   1.352
10487SOL    HW232361   5.621   6.998   1.292
10488SOL     OW32362   6.329   6.189   1.070
10488SOL    HW132363   6.392   6.172   0.994
10488SOL    HW232364   6.288   6.279   1.060
10489SOL     OW32365   5.897   5.628   0.650
10489SOL    HW132366   5.850   5.715   0.666
10489SOL    HW232367   5.909   5.580   0.737
10490SOL     OW32368   0.213   5.990   0.432
10490SOL    HW132369   0.303   5.986   0.476
10490SOL    HW232370   0.164   6.071   0.464
10491SOL     OW32371   6.620   6.337   0.953
10491SOL    HW132372   6.597   6.350   1.050
10491SOL    HW232373   6.588   6.246   0.924
10492SOL     OW32374   5.947   6.483   1.789
10492SOL    HW132375   6.011   6.525   1.852
10492SOL    HW232376   5.986   6.398   1.753
10493SOL     OW32377   6.884   6.437   6.972
10493SOL    HW132378   6.857   6.344   6.946
10493SOL    HW232379   6.903   6.490   6.889
10494SOL     OW32380   5.896   6.391   0.898
10494SOL    HW132381   5.976   6.378   0.839
10494SOL    HW232382   5.882   6.308   0.953
10495SOL     OW32383   5.869   6.120   1.013
10495SOL    HW132384   5.831   6.029   0.999
10495SOL    HW232385   5.959   6.126   0.969
10496SOL     OW32386   6.727   5.955   1.699
10496SOL    HW132387   6.667   5.994   1.769
10496SOL    HW232388   6.816   6.001   1.703
10497SOL     OW32389   6.734   5.789   1.475
10497SOL    HW132390   6.719   5.847   1.556
10497SOL    HW232391   6.795   5.836   1.412
10498SOL     OW32392   6.523   6.354   1.212
10498SOL    HW132393   6.570   6.320   1.293
10498SOL    HW232394   6.444   6.297   1.193
10499SOL     OW32395   5.621   6.169   1.146
10499SOL    HW132396   5.703   6.165   1.089
10499SOL    HW232397   5.645   6.154   1.242
10500SOL     OW32398   5.800   6.186   1.744
10500SOL    HW132399   5.898   6.195   1.724
10500SOL    HW232400   5.749   6.248   1.684
10501SOL     OW32401   6.428   6.185   0.373
10501SOL    HW132402   6.442   6.109   0.310
10501SOL    HW232403   6.334   6.219   0.364
10502SOL     OW32404   6.369   5.976   1.234
10502SOL    HW132405   6.306   5.901   1.217
10502SOL    HW232406   6.347   6.053   1.173
10503SOL     OW32407   6.026   6.081   0.183
10503SOL    HW132408   6.092   6.137   0.234
10503SOL    HW232409   5.940   6.131   0.174
10504SOL     OW32410   5.776   6.757   1.479
10504SOL    HW132411   5.757   6.720   1.570
10504SOL    HW232412   5.785   6.682   1.413
10505SOL     OW32413   6.955   6.585   1.143
10505SOL    HW132414   6.938   6.505   1.085
10505SOL    HW232415   6.903   6.663   1.109
10506SOL     OW32416   6.951   6.418   0.236
10506SOL    HW132417   6.876   6.384   0.292
10506SOL    HW232418   6.921   6.423   0.140
10507SOL     OW32419   5.725   6.861   1.010
10507SOL    HW132420   5.713   6.882   1.107
10507SOL    HW232421   5.657   6.793   0.982
10508SOL     OW32422   6.574   5.675   0.188
10508SOL    HW132423   6.638   5.740   0.146
10508SOL    HW232424   6.626   5.603   0.234
10509SOL     OW32425   6.886   6.601   0.678
10509SOL    HW132426   6.961   6.545   0.713
10509SOL    HW232427   6.919   6.660   0.605
10510SOL     OW32428   6.348   6.830   1.381
10510SOL    HW132429   6.324   6.862   1.473
10510SOL    HW232430   6.273   6.848   1.318
10511SOL     OW32431   5.788   5.872   0.712
10511SOL    HW132432   5.709   5.929   0.687
10511SOL    HW232433   5.800   5.875   0.811
10512SOL     OW32434   6.397   6.557   1.390
10512SOL    HW132435   6.445   6.523   1.310
10512SOL    HW232436   6.383   6.656   1.382
10513SOL     OW32437   6.520   6.488   0.240
10513SOL    HW132438   6.561   6.517   0.153
10513SOL    HW232439   6.585   6.431   0.290
10514SOL     OW32440   5.944   6.974   1.434
10514SOL    HW132441   5.917   0.047   1.497
10514SOL    HW232442   5.890   6.892   1.453
10515SOL     OW32443   6.676   6.731   0.807
10515SOL    HW132444   6.600   6.666   0.815
10515SOL    HW232445   6.751   6.688   0.757
10516SOL     OW32446   6.593   5.835   0.935
10516SOL    HW132447   6.581   5.787   0.847
10516SOL    HW232448   6.598   5.768   1.009
10517SOL     OW32449   5.732   6.640   1.731
10517SOL    HW132450   5.649   6.611   1.779
10517SOL    HW232451   5.807   6.579   1.753
10518SOL     OW32452   6.295   5.731   1.472
10518SOL    HW132453   6.379   5.703   1.427
10518SOL    HW232454   6.315   5.765   1.564
10519SOL     OW32455   5.663   5.976   6.933
10519SOL    HW132456   5.598   5.905   6.906
10519SOL    HW232457   5.627   6.026   0.011
10520SOL     OW32458   5.620   5.716   0.252
10520SOL    HW132459   5.688   5.789   0.244
10520SOL    HW232460   5.606   5.672   0.163
10521SOL     OW32461   6.205   6.374   1.461
10521SOL    HW132462   6.264   6.452   1.443
10521SOL    HW232463   6.258   6.289   1.455
10522SOL     OW32464   6.285   6.088   1.718
10522SOL    HW132465   6.341   6.150   1.773
10522SOL    HW232466   6.317   5.994   1.730
10523SOL     OW32467   6.948   6.780   1.592
10523SOL    HW132468   6.948   6.761   1.690
10523SOL    HW232469   0.042   6.774   1.557
10524SOL     OW32470   6.851   5.905   0.473
10524SOL    HW132471   6.914   5.831   0.447
10524SOL    HW232472   6.887   5.953   0.552
10525SOL     OW32473   6.105   6.336   0.718
10525SOL    HW132474   6.179   6.396   0.688
10525SOL    HW232475   6.051   6.307   0.639
10526SOL     OW32476   6.470   6.557   0.854
10526SOL    HW132477   6.514   6.480   0.900
10526SOL    HW232478   6.397   6.593   0.913
10527SOL     OW32479   6.643   6.557   0.005
10527SOL    HW132480   6.660   6.654   6.991
10527SOL    HW232481   6.730   6.507   0.002
10528SOL     OW32482   5.750   6.897   1.820
10528SOL    HW132483   5.755   6.803   1.786
10528SOL    HW232484   5.694   6.899   1.903
10529SOL     OW32485   5.798   6.820   0.665
10529SOL    HW132486   5.823   6.768   0.747
10529SOL    HW232487   5.837   6.775   0.585
10530SOL     OW32488   6.225   6.958   1.644
10530SOL    HW132489   6.132   6.964   1.681
10530SOL    HW232490   6.249   0.045   1.601
10531SOL     OW32491   5.953   5.982   0.513
10531SOL    HW132492   5.990   5.917   0.447
10531SOL    HW232493   5.901   5.933   0.583
10532SOL     OW32494   5.947   6.120   1.287
10532SOL    HW132495   6.013   6.059   1.331
10532SOL    HW232496   5.940   6.097   1.190
10533SOL     OW32497   6.945   5.782   1.095
10533SOL    HW132498   6.920   5.686   1.105
10533SOL    HW232499   6.929   5.829   1.182
10534SOL     OW32500   6.621   5.602   1.089
10534SOL    HW132501   6.573   5.537   1.030
10534SOL    HW232502   6.718   5.578   1.093
10535SOL     OW32503   6.395   6.883   0.315
10535SOL    HW132504   6.371   6.790   0.343
10535SOL    HW232505   6.413   6.939   0.396
10536SOL     OW32506   5.673   6.629   0.265
10536SOL    HW132507   5.762   6.584   0.267
10536SOL    HW232508   5.603   6.566   0.297
10537SOL     OW32509   5.781   6.204   2.021
10537SOL    HW132510   5.688   6.181   2.050
10537SOL    HW232511   5.784   6.210   1.921
10538SOL     OW32512   5.802   5.873   2.856
10538SOL    HW132513   5.855   5.840   2.934
10538SOL    HW232514   5.711   5.832   2.858
10539SOL     OW32515   5.557   6.014   2.503
10539SOL    HW132516   5.471   6.034   2.550
10539SOL    HW232517   5.542   5.943   2.435
10540SOL     OW32518   6.126   6.869   3.137
10540SOL    HW132519   6.062   6.904   3.069
10540SOL    HW232520   6.083   6.871   3.228
10541SOL     OW32521   6.973   0.059   2.487
10541SOL    HW132522   6.915   0.038   2.566
10541SOL    HW232523   0.048   6.993   2.483
10542SOL     OW32524   6.661   6.373   2.530
10542SOL    HW132525   6.734   6.441   2.522
10542SOL    HW232526   6.637   6.361   2.627
10543SOL     OW32527   6.236   6.702   2.876
10543SOL    HW132528   6.222   6.753   2.961
10543SOL    HW232529   6.200   6.755   2.799
10544SOL     OW32530   6.451   6.289   3.705
10544SOL    HW132531   6.451   6.348   3.785
10544SOL    HW232532   6.462   6.345   3.622
10545SOL     OW32533   6.290   6.543   2.467
10545SOL    HW132534   6.361   6.547   2.538
10545SOL    HW232535   6.221   6.614   2.484
10546SOL     OW32536   6.322   6.789   3.710
10546SOL    HW132537   6.344   6.833   3.798
10546SOL    HW232538   6.317   6.859   3.639
10547SOL     OW32539   5.919   6.968   2.984
10547SOL    HW132540   5.857   6.893   2.963
10547SOL    HW232541   5.972   6.990   2.902
10548SOL     OW32542   6.085   5.965   3.290
10548SOL    HW132543   6.161   5.905   3.316
10548SOL    HW232544   5.999   5.927   3.323
10549SOL     OW32545   5.905   6.677   2.719
10549SOL    HW132546   5.909   6.577   2.721
10549SOL    HW232547   5.863   6.711   2.803
10550SOL     OW32548   6.121   6.605   1.968
10550SOL    HW132549   6.178   6.662   1.909
10550SOL    HW232550   6.175   6.576   2.048
10551SOL     OW32551   5.670   6.273   2.447
10551SOL    HW132552   5.636   6.181   2.468
10551SOL    HW232553   5.656   6.332   2.526
10552SOL     OW32554   5.732   6.331   3.429
10552SOL    HW132555   5.821   6.373   3.447
10552SOL    HW232556   5.667   6.402   3.401
10553SOL     OW32557   6.804   6.714   3.215
10553SOL    HW132558   6.863   6.653   3.162
10553SOL    HW232559   6.848   6.737   3.302
10554SOL     OW32560   6.414   5.614   2.365
10554SOL    HW132561   6.468   5.693   2.335
10554SOL    HW232562   6.318   5.639   2.367
10555SOL     OW32563   5.761   6.599   3.171
10555SOL    HW132564   5.842   6.542   3.157
10555SOL    HW232565   5.687   6.543   3.209
10556SOL     OW32566   5.928   5.879   3.753
10556SOL    HW132567   5.966   5.958   3.802
10556SOL    HW232568   5.829   5.889   3.744
10557SOL     OW32569   6.156   6.288   2.189
10557SOL    HW132570   6.192   6.380   2.182
10557SOL    HW232571   6.075   6.288   2.248
10558SOL     OW32572   6.870   5.898   2.731
10558SOL    HW132573   6.770   5.900   2.735
10558SOL    HW232574   6.906   5.848   2.810
10559SOL     OW32575   6.329   6.175   3.296
10559SOL    HW132576   6.309   6.142   3.388
10559SOL    HW232577   6.322   6.098   3.232
10560SOL     OW32578   6.970   6.099   3.610
10560SOL    HW132579   6.931   6.188   3.632
10560SOL    HW232580   0.070   6.103   3.616
10561SOL     OW32581   6.500   6.434   3.467
10561SOL    HW132582   6.554   6.363   3.422
10561SOL    HW232583   6.457   6.492   3.398
10562SOL     OW32584   6.640   5.980   3.056
10562SOL    HW132585   6.545   5.986   3.083
10562SOL    HW232586   6.646   5.945   2.962
10563SOL     OW32587   6.594   6.286   2.281
10563SOL    HW132588   6.617   6.316   2.374
10563SOL    HW232589   6.511   6.230   2.284
10564SOL     OW32590   5.640   6.463   2.658
10564SOL    HW132591   5.734   6.441   2.684
10564SOL    HW232592   5.608   6.541   2.711
10565SOL     OW32593   6.429   5.909   2.080
10565SOL    HW132594   6.484   5.955   2.010
10565SOL    HW232595   6.369   5.842   2.037
10566SOL     OW32596   6.905   6.765   2.363
10566SOL    HW132597   6.968   6.754   2.285
10566SOL    HW232598   6.844   6.842   2.344
10567SOL     OW32599   6.158   5.689   2.814
10567SOL    HW132600   6.173   5.720   2.908
10567SOL    HW232601   6.161   5.767   2.752
10568SOL     OW32602   5.885   6.583   2.120
10568SOL    HW132603   5.960   6.604   2.058
10568SOL    HW232604   5.871   6.484   2.123
10569SOL     OW32605   5.832   5.872   3.338
10569SOL    HW132606   5.767   5.948   3.328
10569SOL    HW232607   5.786   5.794   3.381
10570SOL     OW32608   5.939   6.263   2.360
10570SOL    HW132609   5.955   6.164   2.364
10570SOL    HW232610   5.843   6.282   2.377
10571SOL     OW32611   6.259   5.705   1.973
10571SOL    HW132612   6.313   5.623   1.989
10571SOL    HW232613   6.184   5.685   1.910
10572SOL     OW32614   6.342   5.825   3.586
10572SOL    HW132615   6.431   5.789   3.616
10572SOL    HW232616   6.269   5.776   3.633
10573SOL     OW32617   6.503   6.096   2.739
10573SOL    HW132618   6.485   6.083   2.642
10573SOL    HW232619   6.534   6.010   2.780
10574SOL     OW32620   6.146   5.664   2.359
10574SOL    HW132621   6.068   5.656   2.421
10574SOL    HW232622   6.133   5.741   2.298
10575SOL     OW32623   6.973   6.691   1.860
10575SOL    HW132624   0.014   6.723   1.945
10575SOL    HW232625   6.887   6.643   1.881
10576SOL     OW32626   5.851   5.651   2.030
10576SOL    HW132627   5.894   5.730   1.988
10576SOL    HW232628   5.921   5.594   2.072
10577SOL     OW32629   6.577   5.824   2.301
10577SOL    HW132630   6.535   5.862   2.218
10577SOL    HW232631   6.674   5.851   2.304
10578SOL     OW32632   6.594   6.232   3.303
10578SOL    HW132633   6.498   6.205   3.304
10578SOL    HW232634   6.652   6.150   3.303
10579SOL     OW32635   6.818   0.025   2.707
10579SOL    HW132636   6.843   0.115   2.742
10579SOL    HW232637   6.825   6.957   2.779
10580SOL     OW32638   6.091   6.718   2.517
10580SOL    HW132639   6.029   6.706   2.595
10580SOL    HW232640   6.039   6.747   2.437
10581SOL     OW32641   6.586   6.059   1.908
10581SOL    HW132642   6.540   6.145   1.885
10581SOL    HW232643   6.645   6.073   1.987
10582SOL     OW32644   5.702   6.116   3.261
10582SOL    HW132645   5.791   6.121   3.216
10582SOL    HW232646   5.693   6.190   3.327
10583SOL     OW32647   6.187   5.776   3.070
10583SOL    HW132648   6.225   5.755   3.160
10583SOL    HW232649   6.087   5.784   3.078
10584SOL     OW32650   6.466   6.011   2.483
10584SOL    HW132651   6.416   6.064   2.414
10584SOL    HW232652   6.515   5.936   2.438
10585SOL     OW32653   6.581   5.653   2.593
10585SOL    HW132654   6.517   5.655   2.517
10585SOL    HW232655   6.562   5.573   2.651
10586SOL     OW32656   6.107   5.851   2.169
10586SOL    HW132657   6.158   5.802   2.099
10586SOL    HW232658   6.074   5.938   2.131
10587SOL     OW32659   6.606   6.861   3.109
10587SOL    HW132660   6.523   6.861   3.164
10587SOL    HW232661   6.676   6.807   3.155
10588SOL     OW32662   6.812   6.825   2.905
10588SOL    HW132663   6.748   6.840   2.979
10588SOL    HW232664   6.768   6.771   2.833
10589SOL     OW32665   6.530   5.670   3.211
10589SOL    HW132666   6.555   5.660   3.115
10589SOL    HW232667   6.605   5.715   3.260
10590SOL     OW32668   6.537   6.615   3.667
10590SOL    HW132669   6.458   6.675   3.680
10590SOL    HW232670   6.522   6.556   3.588
10591SOL     OW32671   6.282   6.542   2.186
10591SOL    HW132672   6.292   6.545   2.285
10591SOL    HW232673   6.368   6.512   2.145
10592SOL     OW32674   5.974   6.421   3.138
10592SOL    HW132675   6.050   6.433   3.201
10592SOL    HW232676   5.949   6.324   3.134
10593SOL     OW32677   6.890   5.927   3.165
10593SOL    HW132678   6.953   5.999   3.193
10593SOL    HW232679   6.809   5.967   3.124
10594SOL     OW32680   5.923   6.789   2.308
10594SOL    HW132681   5.919   6.877   2.261
10594SOL    HW232682   5.909   6.715   2.241
10595SOL     OW32683   6.105   6.141   2.742
10595SOL    HW132684   6.117   6.205   2.666
10595SOL    HW232685   6.183   6.148   2.805
10596SOL     OW32686   6.771   0.004   2.304
10596SOL    HW132687   6.834   0.040   2.373
10596SOL    HW232688   6.677   0.023   2.331
10597SOL     OW32689   5.994   6.398   3.502
10597SOL    HW132690   6.062   6.411   3.429
10597SOL    HW232691   6.031   6.337   3.571
10598SOL     OW32692   6.585   5.727   3.657
10598SOL    HW132693   6.655   5.794   3.634
10598SOL    HW232694   6.627   5.637   3.669
10599SOL     OW32695   6.085   5.681   3.651
10599SOL    HW132696   6.032   5.609   3.608
10599SOL    HW232697   6.025   5.758   3.674
10600SOL     OW32698   6.186   6.437   2.940
10600SOL    HW132699   6.204   6.531   2.911
10600SOL    HW232700   6.104   6.434   2.997
10601SOL     OW32701   6.892   6.375   2.835
10601SOL    HW132702   6.794   6.358   2.824
10601SOL    HW232703   6.932   6.303   2.892
10602SOL     OW32704   6.725   6.091   2.138
10602SOL    HW132705   6.777   6.031   2.199
10602SOL    HW232706   6.688   6.167   2.191
10603SOL     OW32707   5.914   5.774   3.090
10603SOL    HW132708   5.884   5.816   3.176
10603SOL    HW232709   5.879   5.680   3.085
10604SOL     OW32710   6.312   6.198   2.918
10604SOL    HW132711   6.379   6.188   2.844
10604SOL    HW232712   6.272   6.290   2.915
10605SOL     OW32713   5.913   5.646   2.509
10605SOL    HW132714   5.866   5.733   2.525
10605SOL    HW232715   5.921   5.595   2.594
10606SOL     OW32716   0.140   6.071   2.178
10606SOL    HW132717   0.096   5.982   2.176
10606SOL    HW232718   0.115   6.119   2.263
10607SOL     OW32719   6.603   6.342   2.809
10607SOL    HW132720   6.582   6.358   2.905
10607SOL    HW232721   6.576   6.249   2.784
10608SOL     OW32722   5.909   6.619   3.646
10608SOL    HW132723   5.976   6.635   3.719
10608SOL    HW232724   5.939   6.543   3.588
10609SOL     OW32725   6.947   6.364   1.813
10609SOL    HW132726   0.007   6.334   1.888
10609SOL    HW232727   6.999   6.422   1.750
10610SOL     OW32728   5.897   6.399   2.732
10610SOL    HW132729   5.977   6.383   2.673
10610SOL    HW232730   5.883   6.320   2.791
10611SOL     OW32731   5.870   6.134   2.865
10611SOL    HW132732   5.832   6.042   2.858
10611SOL    HW232733   5.957   6.138   2.816
10612SOL     OW32734   6.745   5.943   3.568
10612SOL    HW132735   6.681   5.985   3.632
10612SOL    HW232736   6.832   5.992   3.570
10613SOL     OW32737   6.746   5.779   3.344
10613SOL    HW132738   6.737   5.836   3.426
10613SOL    HW232739   6.803   5.826   3.277
10614SOL     OW32740   5.575   6.879   2.032
10614SOL    HW132741   5.479   6.902   2.014
10614SOL    HW232742   5.580   6.790   2.077
10615SOL     OW32743   6.514   6.365   3.069
10615SOL    HW132744   6.563   6.330   3.149
10615SOL    HW232745   6.426   6.318   3.061
10616SOL     OW32746   5.614   6.166   2.997
10616SOL    HW132747   5.696   6.172   2.940
10616SOL    HW232748   5.641   6.150   3.092
10617SOL     OW32749   5.787   6.134   3.610
10617SOL    HW132750   5.865   6.086   3.569
10617SOL    HW232751   5.757   6.207   3.549
10618SOL     OW32752   6.371   6.127   2.252
10618SOL    HW132753   6.380   6.050   2.188
10618SOL    HW232754   6.290   6.180   2.229
10619SOL     OW32755   6.362   5.993   3.087
10619SOL    HW132756   6.300   5.916   3.074
10619SOL    HW232757   6.339   6.066   3.023
10620SOL     OW32758   6.022   6.085   2.054
10620SOL    HW132759   6.086   6.154   2.087
10620SOL    HW232760   5.930   6.124   2.049
10621SOL     OW32761   5.703   6.817   3.341
10621SOL    HW132762   5.694   6.769   3.428
10621SOL    HW232763   5.730   6.753   3.269
10622SOL     OW32764   6.951   6.587   3.001
10622SOL    HW132765   6.931   6.510   2.942
10622SOL    HW232766   6.910   6.670   2.963
10623SOL     OW32767   6.898   6.508   2.159
10623SOL    HW132768   6.863   6.448   2.230
10623SOL    HW232769   6.837   6.506   2.080
10624SOL     OW32770   5.758   6.750   2.939
10624SOL    HW132771   5.760   6.697   3.023
10624SOL    HW232772   5.675   6.730   2.888
10625SOL     OW32773   6.860   6.558   2.528
10625SOL    HW132774   6.946   6.515   2.554
10625SOL    HW232775   6.879   6.635   2.467
10626SOL     OW32776   6.369   6.850   3.261
10626SOL    HW132777   6.355   6.893   3.350
10626SOL    HW232778   6.286   6.858   3.206
10627SOL     OW32779   5.799   5.887   2.575
10627SOL    HW132780   5.715   5.936   2.550
10627SOL    HW232781   5.809   5.888   2.675
10628SOL     OW32782   6.865   0.132   1.865
10628SOL    HW132783   6.879   0.068   1.941
10628SOL    HW232784   6.773   0.120   1.828
10629SOL     OW32785   6.401   6.575   3.253
10629SOL    HW132786   6.451   6.543   3.173
10629SOL    HW232787   6.396   6.675   3.253
10630SOL     OW32788   6.512   6.440   2.072
10630SOL    HW132789   6.589   6.486   2.027
10630SOL    HW232790   6.546   6.385   2.148
10631SOL     OW32791   5.974   6.906   3.364
10631SOL    HW132792   5.989   6.947   3.454
10631SOL    HW232793   5.878   6.879   3.355
10632SOL     OW32794   6.695   6.682   2.712
10632SOL    HW132795   6.600   6.652   2.698
10632SOL    HW232796   6.754   6.639   2.644
10633SOL     OW32797   6.602   5.838   2.804
10633SOL    HW132798   6.590   5.798   2.713
10633SOL    HW232799   6.605   5.765   2.873
10634SOL     OW32800   5.654   6.686   3.576
10634SOL    HW132801   5.589   6.644   3.638
10634SOL    HW232802   5.747   6.666   3.606
10635SOL     OW32803   6.293   5.753   3.328
10635SOL    HW132804   6.379   5.725   3.285
10635SOL    HW232805   6.311   5.786   3.420
10636SOL     OW32806   5.684   5.948   1.822
10636SOL    HW132807   5.594   5.934   1.780
10636SOL    HW232808   5.720   6.037   1.794
10637SOL     OW32809   5.610   5.751   2.104
10637SOL    HW132810   5.579   5.811   2.031
10637SOL    HW232811   5.703   5.721   2.086
10638SOL     OW32812   6.188   6.411   3.307
10638SOL    HW132813   6.256   6.482   3.291
10638SOL    HW232814   6.232   6.321   3.303
10639SOL     OW32815   6.305   6.098   3.553
10639SOL    HW132816   6.351   6.156   3.621
10639SOL    HW232817   6.321   6.002   3.575
10640SOL     OW32818   6.944   6.775   3.442
10640SOL    HW132819   6.947   6.756   3.540
10640SOL    HW232820   0.037   6.778   3.406
10641SOL     OW32821   6.849   5.910   2.314
10641SOL    HW132822   6.915   5.860   2.257
10641SOL    HW232823   6.893   5.940   2.398
10642SOL     OW32824   6.108   6.347   2.558
10642SOL    HW132825   6.179   6.410   2.526
10642SOL    HW232826   6.050   6.319   2.481
10643SOL     OW32827   6.439   6.565   2.711
10643SOL    HW132828   6.486   6.488   2.753
10643SOL    HW232829   6.377   6.607   2.777
10644SOL     OW32830   6.750   6.523   1.928
10644SOL    HW132831   6.678   6.565   1.873
10644SOL    HW232832   6.799   6.455   1.874
10645SOL     OW32833   5.787   6.960   3.766
10645SOL    HW132834   5.710   6.900   3.786
10645SOL    HW232835   5.836   6.982   3.851
10646SOL     OW32836   5.794   6.860   2.538
10646SOL    HW132837   5.826   6.796   2.607
10646SOL    HW232838   5.828   6.832   2.448
10647SOL     OW32839   6.276   6.988   3.508
10647SOL    HW132840   6.180   6.983   3.535
10647SOL    HW232841   6.297   0.080   3.475
10648SOL     OW32842   5.974   5.998   2.384
10648SOL    HW132843   6.012   5.931   2.320
10648SOL    HW232844   5.917   5.951   2.452
10649SOL     OW32845   5.939   6.146   3.138
10649SOL    HW132846   6.007   6.087   3.181
10649SOL    HW232847   5.937   6.129   3.039
10650SOL     OW32848   6.947   5.757   2.951
10650SOL    HW132849   6.918   5.662   2.964
10650SOL    HW232850   6.931   5.808   3.036
10651SOL     OW32851   6.616   5.601   2.951
10651SOL    HW132852   6.560   5.536   2.899
10651SOL    HW232853   6.710   5.569   2.954
10652SOL     OW32854   6.272   6.874   2.123
10652SOL    HW132855   6.275   6.778   2.150
10652SOL    HW232856   6.259   6.931   2.204
10653SOL     OW32857   6.905   5.645   1.970
10653SOL    HW132858   6.967   5.583   1.922
10653SOL    HW232859   6.828   5.593   2.006
10654SOL     OW32860   5.613   6.633   2.171
10654SOL    HW132861   5.711   6.628   2.150
10654SOL    HW232862   5.577   6.541   2.182
10655SOL     OW32863   5.776   6.195   3.879
10655SOL    HW132864   5.684   6.178   3.913
10655SOL    HW232865   5.776   6.188   3.779
10656SOL     OW32866   5.794   5.867   4.717
10656SOL    HW132867   5.848   5.834   4.795
10656SOL    HW232868   5.703   5.824   4.718
10657SOL     OW32869   5.556   6.021   4.369
10657SOL    HW132870   5.470   6.034   4.419
10657SOL    HW232871   5.541   5.955   4.295
10658SOL     OW32872   6.137   6.860   4.921
10658SOL    HW132873   6.088   6.909   4.849
10658SOL    HW232874   6.085   6.867   5.006
10659SOL     OW32875   6.983   0.129   4.357
10659SOL    HW132876   6.913   0.115   4.427
10659SOL    HW232877   0.056   0.062   4.369
10660SOL     OW32878   6.673   6.396   4.388
10660SOL    HW132879   6.742   6.469   4.387
10660SOL    HW232880   6.648   6.376   4.483
10661SOL     OW32881   6.221   6.684   4.696
10661SOL    HW132882   6.196   6.741   4.773
10661SOL    HW232883   6.180   6.720   4.612
10662SOL     OW32884   6.430   6.305   5.561
10662SOL    HW132885   6.437   6.365   5.641
10662SOL    HW232886   6.449   6.358   5.479
10663SOL     OW32887   6.276   6.547   4.332
10663SOL    HW132888   6.352   6.545   4.397
10663SOL    HW232889   6.210   6.617   4.361
10664SOL     OW32890   6.302   6.759   5.576
10664SOL    HW132891   6.318   6.807   5.662
10664SOL    HW232892   6.277   6.824   5.505
10665SOL     OW32893   5.984   6.997   4.745
10665SOL    HW132894   5.894   6.971   4.708
10665SOL    HW232895   6.019   0.075   4.694
10666SOL     OW32896   6.096   5.940   5.155
10666SOL    HW132897   6.169   5.876   5.176
10666SOL    HW232898   6.009   5.907   5.192
10667SOL     OW32899   5.885   6.686   4.596
10667SOL    HW132900   5.887   6.589   4.620
10667SOL    HW232901   5.843   6.738   4.670
10668SOL     OW32902   6.117   6.636   3.839
10668SOL    HW132903   6.179   6.686   3.778
10668SOL    HW232904   6.168   6.599   3.917
10669SOL     OW32905   5.673   6.273   4.314
10669SOL    HW132906   5.637   6.182   4.336
10669SOL    HW232907   5.661   6.333   4.393
10670SOL     OW32908   5.706   6.346   5.280
10670SOL    HW132909   5.787   6.403   5.289
10670SOL    HW232910   5.627   6.403   5.255
10671SOL     OW32911   6.821   6.756   5.083
10671SOL    HW132912   6.872   6.691   5.027
10671SOL    HW232913   6.871   6.773   5.168
10672SOL     OW32914   6.422   5.623   4.210
10672SOL    HW132915   6.471   5.706   4.185
10672SOL    HW232916   6.325   5.645   4.221
10673SOL     OW32917   5.786   6.527   5.014
10673SOL    HW132918   5.873   6.480   4.998
10673SOL    HW232919   5.714   6.483   4.959
10674SOL     OW32920   5.941   5.854   5.596
10674SOL    HW132921   5.978   5.936   5.639
10674SOL    HW232922   5.845   5.870   5.573
10675SOL     OW32923   6.155   6.289   4.050
10675SOL    HW132924   6.191   6.382   4.045
10675SOL    HW232925   6.078   6.287   4.113
10676SOL     OW32926   6.863   5.907   4.590
10676SOL    HW132927   6.764   5.899   4.592
10676SOL    HW232928   6.902   5.862   4.670
10677SOL     OW32929   6.345   6.138   5.178
10677SOL    HW132930   6.308   6.107   5.265
10677SOL    HW232931   6.333   6.066   5.109
10678SOL     OW32932   6.958   6.094   5.468
10678SOL    HW132933   6.930   6.186   5.492
10678SOL    HW232934   0.058   6.089   5.467
10679SOL     OW32935   6.506   6.434   5.324
10679SOL    HW132936   6.560   6.360   5.284
10679SOL    HW232937   6.462   6.486   5.251
10680SOL     OW32938   6.635   5.983   4.907
10680SOL    HW132939   6.541   5.978   4.942
10680SOL    HW232940   6.638   5.944   4.815
10681SOL     OW32941   6.616   6.309   4.137
10681SOL    HW132942   6.634   6.337   4.231
10681SOL    HW232943   6.535   6.251   4.134
10682SOL     OW32944   5.645   6.457   4.524
10682SOL    HW132945   5.737   6.434   4.557
10682SOL    HW232946   5.611   6.537   4.572
10683SOL     OW32947   6.434   5.920   3.935
10683SOL    HW132948   6.489   5.958   3.861
10683SOL    HW232949   6.375   5.848   3.899
10684SOL     OW32950   6.964   6.793   4.242
10684SOL    HW132951   0.000   6.746   4.161
10684SOL    HW232952   6.904   6.868   4.213
10685SOL     OW32953   6.145   5.687   4.660
10685SOL    HW132954   6.162   5.714   4.755
10685SOL    HW232955   6.151   5.768   4.601
10686SOL     OW32956   5.901   6.570   4.015
10686SOL    HW132957   5.966   6.594   3.943
10686SOL    HW232958   5.907   6.472   4.034
10687SOL     OW32959   5.836   5.862   5.202
10687SOL    HW132960   5.778   5.943   5.211
10687SOL    HW232961   5.789   5.783   5.242
10688SOL     OW32962   5.936   6.271   4.218
10688SOL    HW132963   5.954   6.173   4.223
10688SOL    HW232964   5.841   6.289   4.241
10689SOL     OW32965   6.258   5.704   3.861
10689SOL    HW132966   6.309   5.620   3.879
10689SOL    HW232967   6.190   5.687   3.789
10690SOL     OW32968   6.377   5.830   5.473
10690SOL    HW132969   6.470   5.792   5.476
10690SOL    HW232970   6.322   5.789   5.545
10691SOL     OW32971   6.504   6.094   4.593
10691SOL    HW132972   6.487   6.085   4.495
10691SOL    HW232973   6.536   6.007   4.630
10692SOL     OW32974   6.151   5.670   4.223
10692SOL    HW132975   6.074   5.661   4.286
10692SOL    HW232976   6.136   5.748   4.163
10693SOL     OW32977   6.983   6.689   3.708
10693SOL    HW132978   0.022   6.740   3.784
10693SOL    HW232979   6.901   6.641   3.739
10694SOL     OW32980   5.867   5.648   3.894
10694SOL    HW132981   5.911   5.728   3.853
10694SOL    HW232982   5.937   5.591   3.938
10695SOL     OW32983   6.583   5.839   4.156
10695SOL    HW132984   6.543   5.875   4.072
10695SOL    HW232985   6.680   5.865   4.160
10696SOL     OW32986   6.602   6.221   5.175
10696SOL    HW132987   6.508   6.186   5.178
10696SOL    HW232988   6.666   6.147   5.197
10697SOL     OW32989   6.803   0.074   4.545
10697SOL    HW132990   6.714   0.043   4.512
10697SOL    HW232991   6.813   0.051   4.642
10698SOL     OW32992   6.087   6.724   4.418
10698SOL    HW132993   6.013   6.709   4.484
10698SOL    HW232994   6.050   6.763   4.334
10699SOL     OW32995   6.596   6.064   3.762
10699SOL    HW132996   6.547   6.148   3.741
10699SOL    HW232997   6.654   6.078   3.842
10700SOL     OW32998   5.702   6.115   5.130
10700SOL    HW132999   5.794   6.113   5.089
10700SOL    HW233000   5.694   6.196   5.189
10701SOL     OW33001   6.183   5.751   4.921
10701SOL    HW133002   6.214   5.682   4.987
10701SOL    HW233003   6.086   5.771   4.937
10702SOL     OW33004   6.471   6.028   4.332
10702SOL    HW133005   6.428   6.083   4.260
10702SOL    HW233006   6.516   5.949   4.291
10703SOL     OW33007   6.570   5.655   4.444
10703SOL    HW133008   6.510   5.645   4.365
10703SOL    HW233009   6.557   5.577   4.505
10704SOL     OW33010   6.105   5.860   4.036
10704SOL    HW133011   6.163   5.808   3.972
10704SOL    HW233012   6.076   5.945   3.992
10705SOL     OW33013   6.607   6.860   4.956
10705SOL    HW133014   6.521   6.842   5.005
10705SOL    HW233015   6.684   6.826   5.010
10706SOL     OW33016   6.785   6.810   4.740
10706SOL    HW133017   6.722   6.831   4.815
10706SOL    HW233018   6.733   6.785   4.659
10707SOL     OW33019   6.518   5.682   5.060
10707SOL    HW133020   6.545   5.664   4.966
10707SOL    HW233021   6.593   5.726   5.109
10708SOL     OW33022   6.541   6.624   5.517
10708SOL    HW133023   6.455   6.670   5.538
10708SOL    HW233024   6.528   6.563   5.439
10709SOL     OW33025   6.269   6.546   4.052
10709SOL    HW133026   6.278   6.549   4.151
10709SOL    HW233027   6.356   6.517   4.012
10710SOL     OW33028   6.014   6.376   4.984
10710SOL    HW133029   6.081   6.390   5.057
10710SOL    HW233030   5.981   6.282   4.986
10711SOL     OW33031   6.886   5.946   5.024
10711SOL    HW133032   6.947   6.020   5.052
10711SOL    HW233033   6.804   5.984   4.981
10712SOL     OW33034   5.933   6.789   4.184
10712SOL    HW133035   5.932   6.870   4.126
10712SOL    HW233036   5.922   6.707   4.128
10713SOL     OW33037   6.098   6.141   4.611
10713SOL    HW133038   6.108   6.209   4.538
10713SOL    HW233039   6.179   6.142   4.669
10714SOL     OW33040   6.830   0.023   4.152
10714SOL    HW133041   6.885   0.075   4.218
10714SOL    HW233042   6.737   0.060   4.152
10715SOL     OW33043   6.056   6.260   5.395
10715SOL    HW133044   6.093   6.311   5.317
10715SOL    HW233045   6.122   6.191   5.424
10716SOL     OW33046   6.628   5.722   5.486
10716SOL    HW133047   6.672   5.811   5.471
10716SOL    HW233048   6.688   5.649   5.453
10717SOL     OW33049   6.087   5.643   5.500
10717SOL    HW133050   6.031   5.577   5.449
10717SOL    HW233051   6.034   5.725   5.518
10718SOL     OW33052   6.204   6.421   4.782
10718SOL    HW133053   6.206   6.515   4.748
10718SOL    HW233054   6.129   6.410   4.847
10719SOL     OW33055   6.887   6.385   4.709
10719SOL    HW133056   6.791   6.360   4.695
10719SOL    HW233057   6.932   6.314   4.764
10720SOL     OW33058   6.732   6.100   3.995
10720SOL    HW133059   6.784   6.040   4.055
10720SOL    HW233060   6.701   6.180   4.046
10721SOL     OW33061   5.910   5.772   4.950
10721SOL    HW133062   5.885   5.813   5.037
10721SOL    HW233063   5.878   5.678   4.947
10722SOL     OW33064   5.686   6.924   4.995
10722SOL    HW133065   5.707   6.865   5.072
10722SOL    HW233066   5.630   0.001   5.025
10723SOL     OW33067   6.320   6.177   4.779
10723SOL    HW133068   6.385   6.161   4.705
10723SOL    HW233069   6.284   6.270   4.772
10724SOL     OW33070   5.915   5.654   4.369
10724SOL    HW133071   5.868   5.740   4.388
10724SOL    HW233072   5.918   5.599   4.453
10725SOL     OW33073   0.143   6.092   4.038
10725SOL    HW133074   0.104   6.000   4.036
10725SOL    HW233075   0.118   6.137   4.124
10726SOL     OW33076   6.602   6.342   4.667
10726SOL    HW133077   6.581   6.352   4.764
10726SOL    HW233078   6.576   6.250   4.637
10727SOL     OW33079   5.935   6.475   5.527
10727SOL    HW133080   5.992   6.505   5.604
10727SOL    HW233081   5.977   6.395   5.484
10728SOL     OW33082   6.962   6.371   3.678
10728SOL    HW133083   0.023   6.352   3.755
10728SOL    HW233084   0.012   6.425   3.609
10729SOL     OW33085   5.895   6.405   4.622
10729SOL    HW133086   5.972   6.392   4.560
10729SOL    HW233087   5.884   6.324   4.679
10730SOL     OW33088   5.861   6.128   4.731
10730SOL    HW133089   5.823   6.036   4.720
10730SOL    HW233090   5.948   6.134   4.682
10731SOL     OW33091   6.723   5.970   5.406
10731SOL    HW133092   6.660   6.011   5.472
10731SOL    HW233093   6.815   6.010   5.419
10732SOL     OW33094   6.731   5.795   5.190
10732SOL    HW133095   6.718   5.856   5.269
10732SOL    HW233096   6.792   5.839   5.124
10733SOL     OW33097   5.569   6.838   3.883
10733SOL    HW133098   5.480   6.839   3.837
10733SOL    HW233099   5.582   6.750   3.928
10734SOL     OW33100   6.517   6.341   4.932
10734SOL    HW133101   6.566   6.306   5.011
10734SOL    HW233102   6.439   6.281   4.912
10735SOL     OW33103   5.619   6.179   4.869
10735SOL    HW133104   5.700   6.173   4.811
10735SOL    HW233105   5.643   6.157   4.964
10736SOL     OW33106   5.796   6.161   5.465
10736SOL    HW133107   5.894   6.174   5.448
10736SOL    HW233108   5.744   6.224   5.407
10737SOL     OW33109   6.391   6.149   4.096
10737SOL    HW133110   6.400   6.069   4.037
10737SOL    HW233111   6.304   6.195   4.079
10738SOL     OW33112   6.358   5.971   4.955
10738SOL    HW133113   6.297   5.892   4.945
10738SOL    HW233114   6.332   6.041   4.889
10739SOL     OW33115   6.022   6.089   3.910
10739SOL    HW133116   6.086   6.157   3.947
10739SOL    HW233117   5.930   6.128   3.909
10740SOL     OW33118   5.774   6.738   5.184
10740SOL    HW133119   5.756   6.703   5.276
10740SOL    HW233120   5.779   6.662   5.120
10741SOL     OW33121   6.940   6.609   4.865
10741SOL    HW133122   6.924   6.525   4.814
10741SOL    HW233123   6.891   6.684   4.822
10742SOL     OW33124   6.844   6.490   4.044
10742SOL    HW133125   6.786   6.425   4.094
10742SOL    HW233126   6.808   6.501   3.951
10743SOL     OW33127   5.719   6.875   4.732
10743SOL    HW133128   5.712   6.890   4.831
10743SOL    HW233129   5.654   6.804   4.705
10744SOL     OW33130   6.862   6.597   4.405
10744SOL    HW133131   6.937   6.538   4.434
10744SOL    HW233132   6.897   6.667   4.343
10745SOL     OW33133   6.359   6.823   5.081
10745SOL    HW133134   6.332   6.856   5.171
10745SOL    HW233135   6.283   6.836   5.017
10746SOL     OW33136   5.799   5.893   4.438
10746SOL    HW133137   5.715   5.942   4.413
10746SOL    HW233138   5.807   5.889   4.537
10747SOL     OW33139   6.860   0.107   3.732
10747SOL    HW133140   6.882   0.029   3.791
10747SOL    HW233141   6.771   0.093   3.689
10748SOL     OW33142   6.398   6.549   5.102
10748SOL    HW133143   6.443   6.507   5.023
10748SOL    HW233144   6.389   6.648   5.087
10749SOL     OW33145   6.500   6.455   3.933
10749SOL    HW133146   6.565   6.512   3.882
10749SOL    HW233147   6.548   6.405   4.004
10750SOL     OW33148   5.989   6.909   5.149
10750SOL    HW133149   6.007   6.954   5.236
10750SOL    HW233150   5.911   6.847   5.159
10751SOL     OW33151   6.648   6.735   4.514
10751SOL    HW133152   6.570   6.673   4.524
10751SOL    HW233153   6.723   6.686   4.470
10752SOL     OW33154   6.598   5.835   4.656
10752SOL    HW133155   6.582   5.794   4.567
10752SOL    HW233156   6.606   5.764   4.725
10753SOL     OW33157   5.729   6.633   5.438
10753SOL    HW133158   5.641   6.614   5.482
10753SOL    HW233159   5.799   6.572   5.476
10754SOL     OW33160   6.296   5.755   5.218
10754SOL    HW133161   6.376   5.735   5.162
10754SOL    HW233162   6.325   5.785   5.309
10755SOL     OW33163   5.655   5.922   3.725
10755SOL    HW133164   5.574   5.896   3.673
10755SOL    HW233165   5.690   6.009   3.692
10756SOL     OW33166   5.632   5.764   3.965
10756SOL    HW133167   5.614   5.826   3.888
10756SOL    HW233168   5.723   5.724   3.954
10757SOL     OW33169   6.202   6.373   5.180
10757SOL    HW133170   6.264   6.449   5.160
10757SOL    HW233171   6.253   6.287   5.177
10758SOL     OW33172   6.278   6.095   5.444
10758SOL    HW133173   6.330   6.163   5.496
10758SOL    HW233174   6.314   6.004   5.462
10759SOL     OW33175   6.977   6.794   5.307
10759SOL    HW133176   6.968   6.774   5.405
10759SOL    HW233177   0.073   6.792   5.281
10760SOL     OW33178   6.855   5.924   4.172
10760SOL    HW133179   6.925   5.876   4.119
10760SOL    HW233180   6.894   5.954   4.259
10761SOL     OW33181   6.093   6.353   4.430
10761SOL    HW133182   6.164   6.415   4.398
10761SOL    HW233183   6.036   6.324   4.353
10762SOL     OW33184   6.440   6.562   4.563
10762SOL    HW133185   6.484   6.484   4.608
10762SOL    HW233186   6.369   6.599   4.622
10763SOL     OW33187   6.762   6.530   3.787
10763SOL    HW133188   6.687   6.564   3.732
10763SOL    HW233189   6.812   6.460   3.736
10764SOL     OW33190   5.754   6.889   5.532
10764SOL    HW133191   5.755   6.796   5.496
10764SOL    HW233192   5.699   6.891   5.616
10765SOL     OW33193   5.771   6.852   4.397
10765SOL    HW133194   5.800   6.795   4.473
10765SOL    HW233195   5.819   6.824   4.314
10766SOL     OW33196   6.219   6.957   5.389
10766SOL    HW133197   6.134   6.970   5.439
10766SOL    HW233198   6.246   0.043   5.346
10767SOL     OW33199   5.970   6.007   4.243
10767SOL    HW133200   6.012   5.939   4.182
10767SOL    HW233201   5.916   5.959   4.312
10768SOL     OW33202   5.944   6.114   5.005
10768SOL    HW133203   6.010   6.054   5.051
10768SOL    HW233204   5.938   6.091   4.909
10769SOL     OW33205   6.946   5.777   4.814
10769SOL    HW133206   6.922   5.681   4.831
10769SOL    HW233207   6.928   5.830   4.897
10770SOL     OW33208   6.623   5.604   4.809
10770SOL    HW133209   6.578   5.538   4.750
10770SOL    HW233210   6.718   5.576   4.825
10771SOL     OW33211   6.334   6.882   3.979
10771SOL    HW133212   6.299   6.798   4.021
10771SOL    HW233213   6.383   6.936   4.048
10772SOL     OW33214   6.915   5.664   3.845
10772SOL    HW133215   6.980   5.600   3.804
10772SOL    HW233216   6.839   5.613   3.885
10773SOL     OW33217   5.625   6.611   4.036
10773SOL    HW133218   5.724   6.603   4.026
10773SOL    HW233219   5.585   6.520   4.048
10774SOL     OW33220   5.770   6.177   5.741
10774SOL    HW133221   5.676   6.164   5.772
10774SOL    HW233222   5.771   6.186   5.641
10775SOL     OW33223   5.786   5.883   6.572
10775SOL    HW133224   5.834   5.857   6.656
10775SOL    HW233225   5.698   5.834   6.567
10776SOL     OW33226   5.563   6.033   6.216
10776SOL    HW133227   5.479   6.043   6.270
10776SOL    HW233228   5.546   5.968   6.141
10777SOL     OW33229   6.096   6.839   6.730
10777SOL    HW133230   6.034   6.913   6.705
10777SOL    HW233231   6.096   6.828   6.830
10778SOL     OW33232   0.011   0.097   6.255
10778SOL    HW133233   6.939   0.091   6.324
10778SOL    HW233234   0.082   0.029   6.274
10779SOL     OW33235   6.662   6.382   6.249
10779SOL    HW133236   6.737   6.448   6.243
10779SOL    HW233237   6.632   6.376   6.344
10780SOL     OW33238   6.241   6.712   6.536
10780SOL    HW133239   6.194   6.760   6.610
10780SOL    HW233240   6.194   6.731   6.449
10781SOL     OW33241   6.280   6.557   6.201
10781SOL    HW133242   6.357   6.557   6.264
10781SOL    HW233243   6.212   6.624   6.231
10782SOL     OW33244   5.912   0.035   6.672
10782SOL    HW133245   5.823   0.002   6.640
10782SOL    HW233246   5.948   0.101   6.606
10783SOL     OW33247   5.898   6.690   6.491
10783SOL    HW133248   5.896   6.590   6.493
10783SOL    HW233249   5.889   6.725   6.585
10784SOL     OW33250   6.127   6.569   5.728
10784SOL    HW133251   6.163   6.619   5.649
10784SOL    HW233252   6.185   6.586   5.808
10785SOL     OW33253   0.185   5.761   0.055
10785SOL    HW133254   0.164   5.858   0.042
10785SOL    HW233255   0.109   5.716   0.101
10786SOL     OW33256   5.679   6.288   6.159
10786SOL    HW133257   5.643   6.198   6.183
10786SOL    HW233258   5.670   6.350   6.237
10787SOL     OW33259   6.765   6.797   6.947
10787SOL    HW133260   6.819   6.748   6.879
10787SOL    HW233261   6.825   6.828   0.021
10788SOL     OW33262   6.400   5.636   6.052
10788SOL    HW133263   6.443   5.724   6.033
10788SOL    HW233264   6.303   5.651   6.073
10789SOL     OW33265   5.774   6.579   6.851
10789SOL    HW133266   5.855   6.524   6.830
10789SOL    HW233267   5.692   6.525   6.834
10790SOL     OW33268   6.136   6.305   5.849
10790SOL    HW133269   6.138   6.389   5.795
10790SOL    HW233270   6.063   6.309   5.917
10791SOL     OW33271   6.869   5.899   6.421
10791SOL    HW133272   6.770   5.891   6.425
10791SOL    HW233273   6.908   5.872   6.510
10792SOL     OW33274   6.457   6.198   6.995
10792SOL    HW133275   6.391   6.262   0.035
10792SOL    HW233276   6.409   6.135   6.933
10793SOL     OW33277   6.589   5.956   6.729
10793SOL    HW133278   6.497   5.972   6.767
10793SOL    HW233279   6.581   5.910   6.641
10794SOL     OW33280   6.590   6.306   5.997
10794SOL    HW133281   6.612   6.330   6.091
10794SOL    HW233282   6.503   6.256   5.995
10795SOL     OW33283   5.663   6.477   6.366
10795SOL    HW133284   5.750   6.448   6.405
10795SOL    HW233285   5.635   6.563   6.408
10796SOL     OW33286   6.411   5.946   5.783
10796SOL    HW133287   6.468   5.984   5.709
10796SOL    HW233288   6.356   5.871   5.747
10797SOL     OW33289   6.974   6.774   6.108
10797SOL    HW133290   0.021   6.754   6.022
10797SOL    HW233291   6.917   6.856   6.097
10798SOL     OW33292   6.136   5.707   6.549
10798SOL    HW133293   6.145   5.746   6.641
10798SOL    HW233294   6.135   5.781   6.482
10799SOL     OW33295   5.905   6.568   5.916
10799SOL    HW133296   5.972   6.574   5.842
10799SOL    HW233297   5.911   6.478   5.959
10800SOL     OW33298   5.934   6.297   6.046
10800SOL    HW133299   5.960   6.201   6.054
10800SOL    HW233300   5.839   6.308   6.076
10801SOL     OW33301   6.257   5.712   5.702
10801SOL    HW133302   6.305   5.634   5.740
10801SOL    HW233303   6.190   5.680   5.635
10802SOL     OW33304   6.509   6.124   6.445
10802SOL    HW133305   6.480   6.118   6.349
10802SOL    HW233306   6.550   6.037   6.473
10803SOL     OW33307   6.132   5.673   6.086
10803SOL    HW133308   6.054   5.666   6.149
10803SOL    HW233309   6.116   5.750   6.023
10804SOL     OW33310   6.982   6.696   5.576
10804SOL    HW133311   0.024   6.726   5.662
10804SOL    HW233312   6.895   6.651   5.596
10805SOL     OW33313   5.860   5.640   5.748
10805SOL    HW133314   5.907   5.715   5.700
10805SOL    HW233315   5.928   5.584   5.795
10806SOL     OW33316   6.541   5.868   6.010
10806SOL    HW133317   6.500   5.901   5.925
10806SOL    HW233318   6.639   5.885   6.009
10807SOL     OW33319   6.791   0.106   6.409
10807SOL    HW133320   6.720   0.065   6.353
10807SOL    HW233321   6.773   0.204   6.420
10808SOL     OW33322   6.089   6.728   6.299
10808SOL    HW133323   6.017   6.715   6.368
10808SOL    HW233324   6.048   6.763   6.215
10809SOL     OW33325   6.578   6.082   5.607
10809SOL    HW133326   6.527   6.166   5.588
10809SOL    HW233327   6.639   6.097   5.685
10810SOL     OW33328   6.146   5.821   6.802
10810SOL    HW133329   6.172   5.747   6.864
10810SOL    HW233330   6.048   5.837   6.809
10811SOL     OW33331   6.442   6.058   6.188
10811SOL    HW133332   6.389   6.112   6.123
10811SOL    HW233333   6.481   5.979   6.142
10812SOL     OW33334   6.588   5.641   6.252
10812SOL    HW133335   6.516   5.638   6.183
10812SOL    HW233336   6.570   5.573   6.322
10813SOL     OW33337   6.102   5.859   5.891
10813SOL    HW133338   6.156   5.805   5.827
10813SOL    HW233339   6.066   5.940   5.845
10814SOL     OW33340   6.525   6.926   6.924
10814SOL    HW133341   6.455   6.864   6.960
10814SOL    HW233342   6.616   6.885   6.935
10815SOL     OW33343   6.783   6.817   6.571
10815SOL    HW133344   6.724   6.889   6.607
10815SOL    HW233345   6.748   6.787   6.482
10816SOL     OW33346   6.309   6.611   5.925
10816SOL    HW133347   6.303   6.588   6.023
10816SOL    HW233348   6.383   6.558   5.883
10817SOL     OW33349   6.020   6.444   6.830
10817SOL    HW133350   6.096   6.479   6.885
10817SOL    HW233351   5.996   6.352   6.861
10818SOL     OW33352   6.825   5.998   6.847
10818SOL    HW133353   6.808   6.073   6.910
10818SOL    HW233354   6.741   5.975   6.798
10819SOL     OW33355   5.933   6.796   6.078
10819SOL    HW133356   5.923   6.880   6.025
10819SOL    HW233357   5.921   6.717   6.018
10820SOL     OW33358   6.086   6.156   6.463
10820SOL    HW133359   6.095   6.214   6.382
10820SOL    HW233360   6.170   6.161   6.517
10821SOL     OW33361   6.840   0.014   6.060
10821SOL    HW133362   6.907   0.057   6.122
10821SOL    HW233363   6.751   0.011   6.104
10822SOL     OW33364   6.214   6.453   6.630
10822SOL    HW133365   6.223   6.545   6.592
10822SOL    HW233366   6.133   6.449   6.688
10823SOL     OW33367   6.870   6.390   6.579
10823SOL    HW133368   6.771   6.377   6.565
10823SOL    HW233369   6.907   6.311   6.627
10824SOL     OW33370   6.717   6.127   5.833
10824SOL    HW133371   6.759   6.057   5.891
10824SOL    HW233372   6.678   6.199   5.890
10825SOL     OW33373   5.874   5.828   6.828
10825SOL    HW133374   5.804   5.884   6.873
10825SOL    HW233375   5.858   5.732   6.849
10826SOL     OW33376   5.620   6.910   6.901
10826SOL    HW133377   5.695   6.864   6.948
10826SOL    HW233378   5.565   6.960   6.968
10827SOL     OW33379   6.308   6.197   6.617
10827SOL    HW133380   6.380   6.181   6.550
10827SOL    HW233381   6.285   6.295   6.619
10828SOL     OW33382   5.901   5.659   6.237
10828SOL    HW133383   5.861   5.750   6.252
10828SOL    HW233384   5.905   5.610   6.323
10829SOL     OW33385   0.148   6.075   5.915
10829SOL    HW133386   0.103   5.986   5.919
10829SOL    HW233387   0.130   6.125   5.999
10830SOL     OW33388   6.592   6.366   6.544
10830SOL    HW133389   6.563   6.380   6.638
10830SOL    HW233390   6.565   6.274   6.514
10831SOL     OW33391   6.952   6.367   5.538
10831SOL    HW133392   0.009   6.331   5.612
10831SOL    HW233393   0.008   6.424   5.478
10832SOL     OW33394   5.905   6.413   6.476
10832SOL    HW133395   5.977   6.395   6.409
10832SOL    HW233396   5.900   6.336   6.541
10833SOL     OW33397   5.874   6.136   6.622
10833SOL    HW133398   5.829   6.048   6.603
10833SOL    HW233399   5.955   6.145   6.565
10834SOL     OW33400   6.731   5.883   0.102
10834SOL    HW133401   6.775   5.949   0.164
10834SOL    HW233402   6.778   5.885   0.014
10835SOL     OW33403   5.585   6.872   5.748
10835SOL    HW133404   5.489   6.893   5.731
10835SOL    HW233405   5.591   6.784   5.795
10836SOL     OW33406   6.521   6.404   6.809
10836SOL    HW133407   6.563   6.471   6.869
10836SOL    HW233408   6.503   6.320   6.861
10837SOL     OW33409   5.623   6.179   6.741
10837SOL    HW133410   5.706   6.183   6.686
10837SOL    HW233411   5.632   6.109   6.812
10838SOL     OW33412   6.355   6.168   5.947
10838SOL    HW133413   6.368   6.088   5.889
10838SOL    HW233414   6.277   6.221   5.914
10839SOL     OW33415   6.333   6.026   6.823
10839SOL    HW133416   6.267   5.950   6.820
10839SOL    HW233417   6.315   6.088   6.747
10840SOL     OW33418   6.018   6.074   5.749
10840SOL    HW133419   6.080   6.150   5.770
10840SOL    HW233420   5.923   6.106   5.755
10841SOL     OW33421   5.805   6.761   0.046
10841SOL    HW133422   5.758   6.726   0.127
10841SOL    HW233423   5.798   6.694   6.972
10842SOL     OW33424   6.864   6.613   6.742
10842SOL    HW133425   6.877   6.534   6.682
10842SOL    HW233426   6.837   6.692   6.686
10843SOL     OW33427   6.891   6.524   5.887
10843SOL    HW133428   6.852   6.463   5.955
10843SOL    HW233429   6.836   6.521   5.804
10844SOL     OW33430   5.661   6.928   6.625
10844SOL    HW133431   5.640   6.917   6.723
10844SOL    HW233432   5.633   6.846   6.576
10845SOL     OW33433   6.868   6.564   6.243
10845SOL    HW133434   6.940   6.507   6.281
10845SOL    HW233435   6.909   6.639   6.191
10846SOL     OW33436   6.328   6.777   0.053
10846SOL    HW133437   6.355   6.805   0.146
10846SOL    HW233438   6.233   6.803   0.037
10847SOL     OW33439   5.807   5.914   6.292
10847SOL    HW133440   5.722   5.959   6.263
10847SOL    HW233441   5.810   5.911   6.392
10848SOL     OW33442   6.864   0.126   5.592
10848SOL    HW133443   6.880   0.061   5.666
10848SOL    HW233444   6.769   0.117   5.561
10849SOL     OW33445   6.272   6.525   6.944
10849SOL    HW133446   6.328   6.496   6.866
10849SOL    HW233447   6.302   6.616   6.974
10850SOL     OW33448   6.505   6.464   5.791
10850SOL    HW133449   6.582   6.508   5.744
10850SOL    HW233450   6.540   6.406   5.865
10851SOL     OW33451   6.069   6.854   0.010
10851SOL    HW133452   6.078   6.952   0.024
10851SOL    HW233453   5.974   6.826   0.029
10852SOL     OW33454   6.667   6.732   6.333
10852SOL    HW133455   6.587   6.678   6.358
10852SOL    HW233456   6.737   6.672   6.296
10853SOL     OW33457   6.597   5.851   6.464
10853SOL    HW133458   6.570   5.824   6.371
10853SOL    HW233459   6.619   5.769   6.517
10854SOL     OW33460   6.319   5.767   0.179
10854SOL    HW133461   6.400   5.710   0.186
10854SOL    HW233462   6.347   5.863   0.171
10855SOL     OW33463   5.676   5.925   5.554
10855SOL    HW133464   5.587   5.911   5.511
10855SOL    HW233465   5.714   6.013   5.524
10856SOL     OW33466   5.629   5.767   5.811
10856SOL    HW133467   5.613   5.828   5.734
10856SOL    HW233468   5.719   5.724   5.802
10857SOL     OW33469   6.811   5.940   6.014
10857SOL    HW133470   6.888   5.886   5.980
10857SOL    HW233471   6.837   5.985   6.099
10858SOL     OW33472   6.090   6.359   6.272
10858SOL    HW133473   6.165   6.420   6.247
10858SOL    HW233474   6.036   6.337   6.190
10859SOL     OW33475   6.456   6.583   6.420
10859SOL    HW133476   6.495   6.508   6.474
10859SOL    HW233477   6.385   6.628   6.473
10860SOL     OW33478   6.758   6.534   5.648
10860SOL    HW133479   6.684   6.570   5.590
10860SOL    HW233480   6.806   6.462   5.598
10861SOL     OW33481   5.791   6.876   6.298
10861SOL    HW133482   5.807   6.813   6.373
10861SOL    HW233483   5.834   6.842   6.215
10862SOL     OW33484   5.981   6.033   6.094
10862SOL    HW133485   6.022   5.963   6.036
10862SOL    HW233486   5.926   5.990   6.166
10863SOL     OW33487   5.942   6.189   6.893
10863SOL    HW133488   5.984   6.110   6.938
10863SOL    HW233489   5.917   6.163   6.799
10864SOL     OW33490   6.954   5.821   6.670
10864SOL    HW133491   6.937   5.723   6.676
10864SOL    HW233492   6.910   5.867   6.747
10865SOL     OW33493   6.657   5.623   6.590
10865SOL    HW133494   6.610   5.545   6.550
10865SOL    HW233495   6.749   5.597   6.619
10866SOL     OW33496   6.329   6.876   5.834
10866SOL    HW133497   6.317   6.784   5.872
10866SOL    HW233498   6.372   6.935   5.903
10867SOL     OW33499   6.902   5.662   5.743
10867SOL    HW133500   6.963   5.607   5.687
10867SOL    HW233501   6.822   5.608   5.770
10868SOL     OW33502   5.630   6.625   5.888
10868SOL    HW133503   5.729   6.616   5.894
10868SOL    HW233504   5.588   6.534   5.894
10869NA      NA33505   0.495   1.829   4.654
10870NA      NA33506   1.154   2.610   2.000
10871NA      NA33507   1.284   5.015   0.695
10872NA      NA33508   0.004   4.364   2.422
10873NA      NA33509   1.628   3.748   5.044
10874NA      NA33510   0.385   4.265   6.928
10875NA      NA33511   3.419   1.047   0.250
10876NA      NA33512   3.281   0.887   4.874
10877NA      NA33513   2.113   6.318   4.759
10878NA      NA33514   5.201   1.028   1.383
10879NA      NA33515   6.693   2.480   2.863
10880NA      NA33516   6.448   4.444   0.838
10881NA      NA33517   6.431   4.735   2.997
10882NA      NA33518   5.550   0.007   3.365
   7.00000   7.00000   7.00000
