CNT in water
  906
    1C        C    1   2.812   2.735   4.777
    1C        C    2   2.873   2.692   4.905
    1C        C    3   2.832   2.762   5.024
    1C        C    4   2.805   2.727   4.271
    1C        C    5   2.861   2.680   4.397
    1C        C    6   2.808   2.730   4.524
    1C        C    7   2.989   2.607   4.649
    1C        C    8   2.865   2.685   4.650
    1C        C    9   3.054   2.572   4.775
    1C        C   10   2.991   2.605   4.903
    1C        C   11   3.166   2.466   5.019
    1C        C   12   3.041   2.536   5.019
    1C        C   13   2.801   2.721   3.765
    1C        C   14   2.857   2.674   3.892
    1C        C   15   2.803   2.724   4.018
    1C        C   16   2.983   2.600   4.144
    1C        C   17   2.859   2.677   4.144
    1C        C   18   3.048   2.567   4.270
    1C        C   19   2.985   2.603   4.397
    1C        C   20   3.186   2.514   4.522
    1C        C   21   3.051   2.569   4.523
    1C        C   22   3.257   2.491   4.647
    1C        C   23   3.188   2.514   4.774
    1C        C   24   3.400   2.474   4.901
    1C        C   25   3.252   2.471   4.899
    1C        C   26   3.475   2.504   5.019
    1C        C   27   2.797   2.716   3.259
    1C        C   28   2.853   2.669   3.386
    1C        C   29   2.799   2.719   3.512
    1C        C   30   2.979   2.595   3.639
    1C        C   31   2.855   2.672   3.639
    1C        C   32   3.044   2.562   3.765
    1C        C   33   2.981   2.597   3.891
    1C        C   34   3.182   2.511   4.017
    1C        C   35   3.046   2.563   4.018
    1C        C   36   3.253   2.492   4.143
    1C        C   37   3.185   2.515   4.269
    1C        C   38   3.399   2.468   4.395
    1C        C   39   3.255   2.492   4.395
    1C        C   40   3.473   2.462   4.521
    1C        C   41   3.401   2.469   4.647
    1C        C   42   3.621   2.469   4.773
    1C        C   43   3.474   2.462   4.774
    1C        C   44   3.694   2.489   4.900
    1C        C   45   3.616   2.508   5.020
    1C        C   46   2.795   2.713   2.754
    1C        C   47   2.850   2.665   2.880
    1C        C   48   2.796   2.715   3.007
    1C        C   49   2.975   2.590   3.133
    1C        C   50   2.852   2.668   3.133
    1C        C   51   3.041   2.557   3.260
    1C        C   52   2.977   2.592   3.386
    1C        C   53   3.179   2.507   3.512
    1C        C   54   3.042   2.558   3.512
    1C        C   55   3.250   2.488   3.638
    1C        C   56   3.181   2.511   3.764
    1C        C   57   3.396   2.465   3.890
    1C        C   58   3.251   2.489   3.890
    1C        C   59   3.469   2.460   4.015
    1C        C   60   3.397   2.468   4.142
    1C        C   61   3.617   2.466   4.267
    1C        C   62   3.471   2.460   4.268
    1C        C   63   3.690   2.476   4.393
    1C        C   64   3.619   2.469   4.520
    1C        C   65   3.833   2.515   4.644
    1C        C   66   3.692   2.477   4.646
    1C        C   67   3.904   2.539   4.769
    1C        C   68   3.838   2.516   4.897
    1C        C   69   4.060   2.549   5.011
    1C        C   70   3.925   2.504   5.012
    1C        C   71   2.798   2.710   2.248
    1C        C   72   2.851   2.662   2.375
    1C        C   73   2.796   2.712   2.501
    1C        C   74   2.973   2.584   2.628
    1C        C   75   2.850   2.664   2.627
    1C        C   76   3.037   2.551   2.755
    1C        C   77   2.974   2.587   2.881
    1C        C   78   3.175   2.502   3.007
    1C        C   79   3.039   2.553   3.007
    1C        C   80   3.247   2.483   3.133
    1C        C   81   3.178   2.506   3.259
    1C        C   82   3.392   2.462   3.385
    1C        C   83   3.248   2.485   3.385
    1C        C   84   3.466   2.456   3.510
    1C        C   85   3.394   2.465   3.637
    1C        C   86   3.613   2.463   3.762
    1C        C   87   3.468   2.457   3.763
    1C        C   88   3.687   2.473   3.887
    1C        C   89   3.615   2.466   4.014
    1C        C   90   3.830   2.511   4.139
    1C        C   91   3.689   2.474   4.140
    1C        C   92   3.900   2.536   4.264
    1C        C   93   3.831   2.514   4.391
    1C        C   94   4.033   2.601   4.515
    1C        C   95   3.902   2.537   4.517
    1C        C   96   4.098   2.637   4.640
    1C        C   97   4.038   2.599   4.767
    1C        C   98   4.209   2.729   4.893
    1C        C   99   4.113   2.616   4.892
    1C        C  100   4.242   2.800   5.013
    1C        C  101   2.808   2.720   2.000
    1C        C  102   2.965   2.562   2.122
    1C        C  103   2.851   2.656   2.121
    1C        C  104   3.032   2.537   2.250
    1C        C  105   2.972   2.580   2.376
    1C        C  106   3.172   2.494   2.502
    1C        C  107   3.036   2.546   2.502
    1C        C  108   3.243   2.476   2.628
    1C        C  109   3.174   2.500   2.755
    1C        C  110   3.389   2.456   2.880
    1C        C  111   3.245   2.479   2.881
    1C        C  112   3.462   2.451   3.006
    1C        C  113   3.391   2.460   3.132
    1C        C  114   3.610   2.459   3.257
    1C        C  115   3.464   2.453   3.258
    1C        C  116   3.684   2.469   3.382
    1C        C  117   3.612   2.463   3.509
    1C        C  118   3.827   2.507   3.634
    1C        C  119   3.685   2.470   3.635
    1C        C  120   3.897   2.532   3.759
    1C        C  121   3.828   2.510   3.886
    1C        C  122   4.029   2.599   4.010
    1C        C  123   3.899   2.533   4.012
    1C        C  124   4.092   2.638   4.136
    1C        C  125   4.030   2.602   4.263
    1C        C  126   4.208   2.731   4.387
    1C        C  127   4.095   2.638   4.388
    1C        C  128   4.261   2.782   4.513
    1C        C  129   4.209   2.732   4.640
    1C        C  130   4.350   2.900   4.765
    1C        C  131   4.263   2.781   4.766
    1C        C  132   4.383   2.966   4.892
    1C        C  133   4.333   2.908   5.014
    1C        C  134   3.152   2.446   2.006
    1C        C  135   3.015   2.485   2.007
    1C        C  136   3.235   2.449   2.124
    1C        C  137   3.171   2.487   2.250
    1C        C  138   3.385   2.447   2.375
    1C        C  139   3.241   2.469   2.376
    1C        C  140   3.459   2.443   2.501
    1C        C  141   3.387   2.453   2.628
    1C        C  142   3.606   2.453   2.752
    1C        C  143   3.461   2.446   2.753
    1C        C  144   3.680   2.464   2.877
    1C        C  145   3.608   2.458   3.004
    1C        C  146   3.823   2.502   3.128
    1C        C  147   3.682   2.466   3.130
    1C        C  148   3.894   2.527   3.254
    1C        C  149   3.825   2.506   3.381
    1C        C  150   4.026   2.594   3.505
    1C        C  151   3.896   2.529   3.507
    1C        C  152   4.089   2.633   3.631
    1C        C  153   4.027   2.598   3.758
    1C        C  154   4.205   2.726   3.882
    1C        C  155   4.091   2.635   3.883
    1C        C  156   4.259   2.778   4.008
    1C        C  157   4.206   2.730   4.135
    1C        C  158   4.352   2.893   4.259
    1C        C  159   4.261   2.780   4.260
    1C        C  160   4.393   2.955   4.385
    1C        C  161   4.351   2.897   4.512
    1C        C  162   4.457   3.090   4.637
    1C        C  163   4.392   2.959   4.638
    1C        C  164   4.482   3.160   4.762
    1C        C  165   4.447   3.098   4.891
    1C        C  166   4.515   3.307   5.008
    1C        C  167   4.474   3.172   5.011
    1C        C  168   3.458   2.397   2.003
    1C        C  169   3.381   2.427   2.122
    1C        C  170   3.603   2.438   2.248
    1C        C  171   3.456   2.432   2.249
    1C        C  172   3.676   2.453   2.373
    1C        C  173   3.604   2.450   2.500
    1C        C  174   3.819   2.498   2.623
    1C        C  175   3.678   2.459   2.625
    1C        C  176   3.889   2.523   2.748
    1C        C  177   3.821   2.501   2.876
    1C        C  178   4.022   2.590   2.999
    1C        C  179   3.892   2.524   3.001
    1C        C  180   4.086   2.629   3.125
    1C        C  181   4.024   2.593   3.252
    1C        C  182   4.202   2.721   3.376
    1C        C  183   4.088   2.630   3.378
    1C        C  184   4.256   2.773   3.502
    1C        C  185   4.203   2.725   3.629
    1C        C  186   4.351   2.888   3.753
    1C        C  187   4.259   2.774   3.755
    1C        C  188   4.393   2.949   3.879
    1C        C  189   4.351   2.891   4.006
    1C        C  190   4.461   3.082   4.130
    1C        C  191   4.394   2.952   4.132
    1C        C  192   4.488   3.151   4.256
    1C        C  193   4.459   3.086   4.384
    1C        C  194   4.528   3.295   4.507
    1C        C  195   4.488   3.155   4.509
    1C        C  196   4.544   3.368   4.632
    1C        C  197   4.528   3.300   4.760
    1C        C  198   4.579   3.519   4.882
    1C        C  199   4.546   3.375   4.886
    1C        C  200   4.614   3.602   4.999
    1C        C  201   3.600   2.383   2.003
    1C        C  202   3.812   2.486   2.117
    1C        C  203   3.676   2.428   2.121
    1C        C  204   3.882   2.518   2.243
    1C        C  205   3.815   2.496   2.371
    1C        C  206   4.016   2.589   2.493
    1C        C  207   3.887   2.521   2.496
    1C        C  208   4.080   2.627   2.619
    1C        C  209   4.019   2.590   2.746
    1C        C  210   4.198   2.718   2.870
    1C        C  211   4.084   2.627   2.872
    1C        C  212   4.252   2.768   2.996
    1C        C  213   4.200   2.720   3.124
    1C        C  214   4.347   2.883   3.248
    1C        C  215   4.255   2.770   3.249
    1C        C  216   4.390   2.944   3.373
    1C        C  217   4.348   2.886   3.501
    1C        C  218   4.458   3.076   3.625
    1C        C  219   4.392   2.946   3.626
    1C        C  220   4.487   3.145   3.750
    1C        C  221   4.459   3.079   3.877
    1C        C  222   4.527   3.288   4.001
    1C        C  223   4.489   3.147   4.003
    1C        C  224   4.541   3.362   4.127
    1C        C  225   4.526   3.292   4.254
    1C        C  226   4.552   3.510   4.377
    1C        C  227   4.543   3.365   4.379
    1C        C  228   4.553   3.585   4.502
    1C        C  229   4.555   3.514   4.629
    1C        C  230   4.535   3.733   4.753
    1C        C  231   4.566   3.589   4.754
    1C        C  232   4.529   3.807   4.879
    1C        C  233   4.581   3.741   4.996
    1C        C  234   3.995   2.598   1.992
    1C        C  235   3.868   2.539   1.996
    1C        C  236   4.066   2.634   2.112
    1C        C  237   4.011   2.591   2.240
    1C        C  238   4.191   2.718   2.364
    1C        C  239   4.076   2.627   2.366
    1C        C  240   4.246   2.768   2.490
    1C        C  241   4.194   2.719   2.617
    1C        C  242   4.344   2.879   2.742
    1C        C  243   4.250   2.767   2.743
    1C        C  244   4.386   2.940   2.868
    1C        C  245   4.345   2.882   2.995
    1C        C  246   4.455   3.071   3.119
    1C        C  247   4.389   2.941   3.121
    1C        C  248   4.484   3.140   3.245
    1C        C  249   4.456   3.074   3.372
    1C        C  250   4.524   3.283   3.496
    1C        C  251   4.487   3.142   3.497
    1C        C  252   4.538   3.356   3.621
    1C        C  253   4.524   3.286   3.749
    1C        C  254   4.548   3.505   3.872
    1C        C  255   4.541   3.359   3.874
    1C        C  256   4.547   3.579   3.998
    1C        C  257   4.548   3.507   4.125
    1C        C  258   4.528   3.726   4.249
    1C        C  259   4.550   3.582   4.250
    1C        C  260   4.512   3.799   4.374
    1C        C  261   4.529   3.729   4.501
    1C        C  262   4.464   3.939   4.626
    1C        C  263   4.516   3.803   4.627
    1C        C  264   4.434   4.006   4.753
    1C        C  265   4.464   3.938   4.880
    1C        C  266   4.331   4.113   4.999
    1C        C  267   4.402   3.991   5.000
    1C        C  268   4.228   2.787   1.988
    1C        C  269   4.180   2.728   2.111
    1C        C  270   4.343   2.877   2.236
    1C        C  271   4.242   2.769   2.237
    1C        C  272   4.386   2.936   2.362
    1C        C  273   4.341   2.878   2.489
    1C        C  274   4.454   3.067   2.614
    1C        C  275   4.386   2.937   2.615
    1C        C  276   4.482   3.136   2.740
    1C        C  277   4.453   3.070   2.867
    1C        C  278   4.522   3.279   2.991
    1C        C  279   4.484   3.137   2.992
    1C        C  280   4.536   3.352   3.116
    1C        C  281   4.521   3.281   3.243
    1C        C  282   4.546   3.500   3.367
    1C        C  283   4.538   3.354   3.369
    1C        C  284   4.545   3.574   3.493
    1C        C  285   4.546   3.502   3.620
    1C        C  286   4.525   3.721   3.744
    1C        C  287   4.547   3.577   3.745
    1C        C  288   4.509   3.794   3.870
    1C        C  289   4.525   3.723   3.996
    1C        C  290   4.461   3.933   4.121
    1C        C  291   4.512   3.797   4.122
    1C        C  292   4.431   4.001   4.247
    1C        C  293   4.461   3.936   4.374
    1C        C  294   4.356   4.128   4.499
    1C        C  295   4.433   4.004   4.500
    1C        C  296   4.314   4.189   4.625
    1C        C  297   4.358   4.132   4.752
    1C        C  298   4.223   4.309   4.877
    1C        C  299   4.308   4.188   4.879
    1C        C  300   4.185   4.389   4.995
    1C        C  301   4.323   2.891   1.989
    1C        C  302   4.469   3.059   2.108
    1C        C  303   4.388   2.936   2.108
    1C        C  304   4.488   3.129   2.236
    1C        C  305   4.454   3.065   2.362
    1C        C  306   4.521   3.274   2.486
    1C        C  307   4.484   3.133   2.488
    1C        C  308   4.534   3.347   2.612
    1C        C  309   4.519   3.277   2.738
    1C        C  310   4.543   3.495   2.862
    1C        C  311   4.536   3.349   2.864
    1C        C  312   4.542   3.569   2.988
    1C        C  313   4.543   3.497   3.115
    1C        C  314   4.522   3.716   3.239
    1C        C  315   4.545   3.572   3.240
    1C        C  316   4.506   3.788   3.365
    1C        C  317   4.522   3.718   3.491
    1C        C  318   4.457   3.928   3.616
    1C        C  319   4.509   3.791   3.617
    1C        C  320   4.427   3.996   3.742
    1C        C  321   4.458   3.930   3.868
    1C        C  322   4.352   4.122   3.993
    1C        C  323   4.430   3.999   3.994
    1C        C  324   4.309   4.182   4.119
    1C        C  325   4.353   4.124   4.246
    1C        C  326   4.210   4.290   4.371
    1C        C  327   4.312   4.186   4.372
    1C        C  328   4.155   4.339   4.497
    1C        C  329   4.212   4.293   4.624
    1C        C  330   4.037   4.425   4.749
    1C        C  331   4.163   4.348   4.749
    1C        C  332   3.979   4.472   4.875
    1C        C  333   4.062   4.460   4.993
    1C        C  334   4.569   3.255   1.992
    1C        C  335   4.539   3.116   1.991
    1C        C  336   4.553   3.339   2.108
    1C        C  337   4.524   3.271   2.234
    1C        C  338   4.542   3.490   2.357
    1C        C  339   4.537   3.344   2.360
    1C        C  340   4.540   3.564   2.483
    1C        C  341   4.541   3.493   2.610
    1C        C  342   4.520   3.711   2.734
    1C        C  343   4.542   3.567   2.735
    1C        C  344   4.504   3.784   2.859
    1C        C  345   4.520   3.713   2.986
    1C        C  346   4.454   3.923   3.111
    1C        C  347   4.506   3.786   3.112
    1C        C  348   4.424   3.990   3.237
    1C        C  349   4.454   3.925   3.363
    1C        C  350   4.348   4.116   3.488
    1C        C  351   4.426   3.993   3.489
    1C        C  352   4.304   4.176   3.614
    1C        C  353   4.348   4.118   3.741
    1C        C  354   4.204   4.283   3.866
    1C        C  355   4.307   4.180   3.867
    1C        C  356   4.150   4.332   3.992
    1C        C  357   4.206   4.285   4.119
    1C        C  358   4.030   4.415   4.245
    1C        C  359   4.153   4.336   4.245
    1C        C  360   3.967   4.450   4.371
    1C        C  361   4.032   4.416   4.497
    1C        C  362   3.832   4.504   4.624
    1C        C  363   3.970   4.455   4.623
    1C        C  364   3.765   4.526   4.751
    1C        C  365   3.838   4.513   4.878
    1C        C  366   3.628   4.564   5.000
    1C        C  367   3.764   4.528   5.001
    1C        C  368   4.521   3.558   1.981
    1C        C  369   4.542   3.485   2.104
    1C        C  370   4.520   3.707   2.228
    1C        C  371   4.541   3.561   2.229
    1C        C  372   4.502   3.778   2.354
    1C        C  373   4.517   3.708   2.481
    1C        C  374   4.451   3.918   2.606
    1C        C  375   4.503   3.781   2.607
    1C        C  376   4.421   3.985   2.731
    1C        C  377   4.452   3.920   2.858
    1C        C  378   4.345   4.111   2.983
    1C        C  379   4.424   3.988   2.984
    1C        C  380   4.301   4.171   3.109
    1C        C  381   4.345   4.113   3.236
    1C        C  382   4.200   4.278   3.361
    1C        C  383   4.303   4.174   3.362
    1C        C  384   4.146   4.327   3.487
    1C        C  385   4.201   4.279   3.614
    1C        C  386   4.026   4.410   3.740
    1C        C  387   4.148   4.330   3.740
    1C        C  388   3.963   4.446   3.866
    1C        C  389   4.027   4.411   3.992
    1C        C  390   3.828   4.501   4.119
    1C        C  391   3.965   4.449   4.119
    1C        C  392   3.759   4.522   4.246
    1C        C  393   3.830   4.501   4.372
    1C        C  394   3.617   4.548   4.500
    1C        C  395   3.761   4.524   4.499
    1C        C  396   3.546   4.556   4.627
    1C        C  397   3.620   4.549   4.753
    1C        C  398   3.404   4.539   4.882
    1C        C  399   3.549   4.561   4.880
    1C        C  400   3.332   4.507   5.004
    1C        C  401   4.504   3.698   1.979
    1C        C  402   4.454   3.916   2.100
    1C        C  403   4.501   3.777   2.100
    1C        C  404   4.418   3.980   2.227
    1C        C  405   4.447   3.914   2.353
    1C        C  406   4.343   4.107   2.478
    1C        C  407   4.420   3.983   2.479
    1C        C  408   4.299   4.166   2.604
    1C        C  409   4.343   4.108   2.731
    1C        C  410   4.198   4.273   2.856
    1C        C  411   4.301   4.169   2.857
    1C        C  412   4.143   4.322   2.982
    1C        C  413   4.198   4.274   3.109
    1C        C  414   4.022   4.405   3.235
    1C        C  415   4.145   4.325   3.235
    1C        C  416   3.959   4.441   3.361
    1C        C  417   4.023   4.406   3.487
    1C        C  418   3.825   4.497   3.614
    1C        C  419   3.961   4.444   3.614
    1C        C  420   3.756   4.519   3.741
    1C        C  421   3.826   4.498   3.867
    1C        C  422   3.614   4.546   3.994
    1C        C  423   3.758   4.522   3.993
    1C        C  424   3.542   4.553   4.121
    1C        C  425   3.615   4.546   4.247
    1C        C  426   3.397   4.549   4.375
    1C        C  427   3.543   4.555   4.374
    1C        C  428   3.326   4.540   4.503
    1C        C  429   3.400   4.548   4.629
    1C        C  430   3.184   4.509   4.757
    1C        C  431   3.328   4.539   4.756
    1C        C  432   3.115   4.482   4.884
    1C        C  433   3.196   4.476   5.003
    1C        C  434   4.391   4.129   1.981
    1C        C  435   4.453   4.001   1.983
    1C        C  436   4.318   4.176   2.099
    1C        C  437   4.345   4.107   2.226
    1C        C  438   4.196   4.268   2.351
    1C        C  439   4.301   4.167   2.352
    1C        C  440   4.140   4.316   2.476
    1C        C  441   4.196   4.269   2.603
    1C        C  442   4.019   4.399   2.729
    1C        C  443   4.142   4.320   2.729
    1C        C  444   3.956   4.435   2.855
    1C        C  445   4.020   4.401   2.982
    1C        C  446   3.822   4.491   3.108
    1C        C  447   3.958   4.439   3.108
    1C        C  448   3.752   4.514   3.235
    1C        C  449   3.823   4.493   3.361
    1C        C  450   3.610   4.541   3.489
    1C        C  451   3.754   4.518   3.488
    1C        C  452   3.538   4.549   3.616
    1C        C  453   3.612   4.542   3.741
    1C        C  454   3.394   4.546   3.869
    1C        C  455   3.540   4.552   3.868
    1C        C  456   3.322   4.538   3.996
    1C        C  457   3.396   4.546   4.122
    1C        C  458   3.183   4.504   4.251
    1C        C  459   3.324   4.540   4.249
    1C        C  460   3.114   4.481   4.378
    1C        C  461   3.184   4.505   4.504
    1C        C  462   2.984   4.420   4.631
    1C        C  463   3.115   4.485   4.631
    1C        C  464   2.919   4.387   4.757
    1C        C  465   2.977   4.430   4.885
    1C        C  466   2.781   4.332   5.003
    1C        C  467   2.887   4.428   5.001
    1C        C  468   4.117   4.279   1.978
    1C        C  469   4.195   4.260   2.097
    1C        C  470   4.016   4.392   2.223
    1C        C  471   4.141   4.313   2.223
    1C        C  472   3.952   4.428   2.349
    1C        C  473   4.017   4.394   2.476
    1C        C  474   3.818   4.484   2.603
    1C        C  475   3.954   4.432   2.602
    1C        C  476   3.749   4.506   2.730
    1C        C  477   3.819   4.486   2.856
    1C        C  478   3.607   4.535   2.983
    1C        C  479   3.751   4.512   2.982
    1C        C  480   3.535   4.543   3.110
    1C        C  481   3.608   4.537   3.236
    1C        C  482   3.391   4.540   3.364
    1C        C  483   3.537   4.547   3.363
    1C        C  484   3.319   4.532   3.491
    1C        C  485   3.393   4.542   3.617
    1C        C  486   3.179   4.499   3.745
    1C        C  487   3.321   4.536   3.744
    1C        C  488   3.111   4.476   3.872
    1C        C  489   3.181   4.500   3.998
    1C        C  490   2.982   4.413   4.126
    1C        C  491   3.112   4.480   4.125
    1C        C  492   2.921   4.377   4.253
    1C        C  493   2.984   4.415   4.379
    1C        C  494   2.808   4.288   4.507
    1C        C  495   2.921   4.381   4.505
    1C        C  496   2.755   4.239   4.634
    1C        C  497   2.806   4.292   4.759
    1C        C  498   2.652   4.139   4.889
    1C        C  499   2.741   4.257   4.886
    1C        C  500   2.593   4.086   5.010
    1C        C  501   4.000   4.356   1.976
    1C        C  502   3.812   4.477   2.097
    1C        C  503   3.946   4.417   2.095
    1C        C  504   3.744   4.497   2.225
    1C        C  505   3.815   4.477   2.350
    1C        C  506   3.603   4.530   2.478
    1C        C  507   3.747   4.503   2.477
    1C        C  508   3.531   4.537   2.605
    1C        C  509   3.605   4.531   2.730
    1C        C  510   3.387   4.535   2.858
    1C        C  511   3.533   4.541   2.857
    1C        C  512   3.315   4.527   2.985
    1C        C  513   3.389   4.536   3.111
    1C        C  514   3.176   4.493   3.239
    1C        C  515   3.317   4.531   3.238
    1C        C  516   3.108   4.471   3.366
    1C        C  517   3.178   4.495   3.492
    1C        C  518   2.979   4.408   3.621
    1C        C  519   3.109   4.474   3.619
    1C        C  520   2.918   4.371   3.748
    1C        C  521   2.981   4.409   3.873
    1C        C  522   2.805   4.282   4.002
    1C        C  523   2.919   4.375   4.000
    1C        C  524   2.753   4.233   4.129
    1C        C  525   2.808   4.284   4.255
    1C        C  526   2.662   4.123   4.383
    1C        C  527   2.754   4.237   4.382
    1C        C  528   2.622   4.064   4.511
    1C        C  529   2.665   4.125   4.636
    1C        C  530   2.551   3.941   4.765
    1C        C  531   2.619   4.071   4.763
    1C        C  532   2.510   3.881   4.893
    1C        C  533   2.511   3.969   5.011
    1C        C  534   3.612   4.573   1.979
    1C        C  535   3.748   4.532   1.981
    1C        C  536   3.529   4.553   2.099
    1C        C  537   3.601   4.529   2.226
    1C        C  538   3.384   4.530   2.353
    1C        C  539   3.529   4.538   2.352
    1C        C  540   3.312   4.522   2.479
    1C        C  541   3.385   4.530   2.605
    1C        C  542   3.172   4.488   2.734
    1C        C  543   3.313   4.525   2.732
    1C        C  544   3.104   4.465   2.861
    1C        C  545   3.174   4.490   2.987
    1C        C  546   2.976   4.402   3.115
    1C        C  547   3.106   4.469   3.114
    1C        C  548   2.914   4.366   3.242
    1C        C  549   2.978   4.404   3.368
    1C        C  550   2.802   4.277   3.497
    1C        C  551   2.915   4.369   3.495
    1C        C  552   2.750   4.228   3.624
    1C        C  553   2.805   4.279   3.750
    1C        C  554   2.659   4.118   3.878
    1C        C  555   2.751   4.231   3.877
    1C        C  556   2.618   4.059   4.006
    1C        C  557   2.662   4.120   4.131
    1C        C  558   2.552   3.932   4.260
    1C        C  559   2.619   4.062   4.258
    1C        C  560   2.524   3.867   4.387
    1C        C  561   2.555   3.935   4.513
    1C        C  562   2.488   3.729   4.643
    1C        C  563   2.523   3.871   4.640
    1C        C  564   2.476   3.659   4.770
    1C        C  565   2.491   3.734   4.896
    1C        C  566   2.505   3.517   5.019
    1C        C  567   2.515   3.658   5.016
    1C        C  568   3.319   4.467   1.983
    1C        C  569   3.386   4.519   2.099
    1C        C  570   3.168   4.484   2.227
    1C        C  571   3.311   4.519   2.226
    1C        C  572   3.100   4.460   2.355
    1C        C  573   3.171   4.484   2.480
    1C        C  574   2.972   4.397   2.610
    1C        C  575   3.102   4.464   2.608
    1C        C  576   2.911   4.360   2.737
    1C        C  577   2.975   4.399   2.863
    1C        C  578   2.799   4.272   2.992
    1C        C  579   2.912   4.364   2.990
    1C        C  580   2.746   4.223   3.119
    1C        C  581   2.801   4.273   3.244
    1C        C  582   2.655   4.113   3.373
    1C        C  583   2.747   4.226   3.371
    1C        C  584   2.615   4.054   3.501
    1C        C  585   2.658   4.114   3.626
    1C        C  586   2.549   3.927   3.755
    1C        C  587   2.615   4.057   3.753
    1C        C  588   2.521   3.861   3.882
    1C        C  589   2.551   3.929   4.008
    1C        C  590   2.483   3.723   4.137
    1C        C  591   2.521   3.864   4.135
    1C        C  592   2.470   3.653   4.264
    1C        C  593   2.486   3.726   4.390
    1C        C  594   2.465   3.510   4.519
    1C        C  595   2.472   3.656   4.517
    1C        C  596   2.468   3.438   4.646
    1C        C  597   2.469   3.512   4.772
    1C        C  598   2.485   3.293   4.900
    1C        C  599   2.482   3.440   4.900
    1C        C  600   2.473   3.211   5.018
    1C        C  601   3.182   4.436   1.983
    1C        C  602   2.962   4.396   2.102
    1C        C  603   3.100   4.448   2.100
    1C        C  604   2.906   4.356   2.232
    1C        C  605   2.971   4.393   2.357
    1C        C  606   2.795   4.265   2.487
    1C        C  607   2.908   4.358   2.484
    1C        C  608   2.743   4.216   2.614
    1C        C  609   2.798   4.267   2.739
    1C        C  610   2.652   4.107   2.868
    1C        C  611   2.744   4.220   2.866
    1C        C  612   2.611   4.049   2.995
    1C        C  613   2.655   4.109   3.121
    1C        C  614   2.545   3.922   3.250
    1C        C  615   2.612   4.052   3.248
    1C        C  616   2.518   3.856   3.377
    1C        C  617   2.548   3.924   3.502
    1C        C  618   2.480   3.718   3.631
    1C        C  619   2.518   3.859   3.630
    1C        C  620   2.467   3.647   3.759
    1C        C  621   2.483   3.720   3.884
    1C        C  622   2.458   3.504   4.013
    1C        C  623   2.467   3.650   4.011
    1C        C  624   2.461   3.433   4.140
    1C        C  625   2.462   3.507   4.266
    1C        C  626   2.484   3.291   4.394
    1C        C  627   2.463   3.435   4.393
    1C        C  628   2.502   3.221   4.521
    1C        C  629   2.489   3.294   4.646
    1C        C  630   2.549   3.083   4.773
    1C        C  631   2.502   3.222   4.773
    1C        C  632   2.566   3.012   4.901
    1C        C  633   2.505   3.072   5.020
    1C        C  634   2.764   4.295   1.991
    1C        C  635   2.872   4.388   1.987
    1C        C  636   2.726   4.223   2.110
    1C        C  637   2.792   4.263   2.235
    1C        C  638   2.648   4.101   2.363
    1C        C  639   2.739   4.215   2.362
    1C        C  640   2.607   4.043   2.490
    1C        C  641   2.651   4.103   2.615
    1C        C  642   2.541   3.917   2.745
    1C        C  643   2.608   4.046   2.743
    1C        C  644   2.513   3.851   2.872
    1C        C  645   2.544   3.919   2.997
    1C        C  646   2.476   3.713   3.126
    1C        C  647   2.515   3.854   3.125
    1C        C  648   2.463   3.642   3.253
    1C        C  649   2.479   3.715   3.379
    1C        C  650   2.454   3.499   3.507
    1C        C  651   2.464   3.645   3.506
    1C        C  652   2.456   3.427   3.634
    1C        C  653   2.458   3.502   3.760
    1C        C  654   2.479   3.286   3.888
    1C        C  655   2.457   3.430   3.887
    1C        C  656   2.497   3.216   4.015
    1C        C  657   2.483   3.288   4.141
    1C        C  658   2.551   3.082   4.269
    1C        C  659   2.498   3.218   4.268
    1C        C  660   2.584   3.017   4.395
    1C        C  661   2.553   3.084   4.521
    1C        C  662   2.667   2.898   4.649
    1C        C  663   2.581   3.017   4.647
    1C        C  664   2.712   2.843   4.776
    1C        C  665   2.665   2.902   4.903
    1C        C  666   2.737   2.866   5.022
    1C        C  667   2.615   4.029   1.988
    1C        C  668   2.647   4.100   2.109
    1C        C  669   2.533   3.912   2.239
    1C        C  670   2.604   4.041   2.237
    1C        C  671   2.507   3.846   2.366
    1C        C  672   2.539   3.914   2.492
    1C        C  673   2.470   3.708   2.621
    1C        C  674   2.510   3.849   2.619
    1C        C  675   2.458   3.638   2.749
    1C        C  676   2.475   3.710   2.874
    1C        C  677   2.450   3.494   3.002
    1C        C  678   2.459   3.640   3.001
    1C        C  679   2.452   3.422   3.129
    1C        C  680   2.454   3.497   3.255
    1C        C  681   2.475   3.280   3.383
    1C        C  682   2.453   3.425   3.382
    1C        C  683   2.492   3.210   3.510
    1C        C  684   2.478   3.283   3.636
    1C        C  685   2.547   3.077   3.764
    1C        C  686   2.493   3.213   3.763
    1C        C  687   2.581   3.013   3.890
    1C        C  688   2.550   3.080   4.016
    1C        C  689   2.665   2.895   4.144
    1C        C  690   2.581   3.014   4.143
    1C        C  691   2.713   2.840   4.270
    1C        C  692   2.669   2.898   4.396
    1C        C  693   2.713   2.841   4.523
    1C        C  694   2.545   3.906   1.990
    1C        C  695   2.456   3.703   2.116
    1C        C  696   2.502   3.843   2.112
    1C        C  697   2.449   3.633   2.244
    1C        C  698   2.469   3.706   2.369
    1C        C  699   2.442   3.490   2.498
    1C        C  700   2.453   3.636   2.496
    1C        C  701   2.446   3.418   2.625
    1C        C  702   2.448   3.492   2.750
    1C        C  703   2.471   3.276   2.878
    1C        C  704   2.449   3.420   2.877
    1C        C  705   2.489   3.205   3.004
    1C        C  706   2.474   3.278   3.130
    1C        C  707   2.543   3.072   3.258
    1C        C  708   2.489   3.207   3.257
    1C        C  709   2.577   3.007   3.385
    1C        C  710   2.546   3.075   3.511
    1C        C  711   2.661   2.890   3.638
    1C        C  712   2.577   3.009   3.638
    1C        C  713   2.709   2.835   3.765
    1C        C  714   2.665   2.893   3.891
    1C        C  715   2.710   2.837   4.017
    1C        C  716   2.377   3.493   2.002
    1C        C  717   2.403   3.633   2.001
    1C        C  718   2.411   3.414   2.121
    1C        C  719   2.432   3.487   2.246
    1C        C  720   2.465   3.272   2.373
    1C        C  721   2.437   3.416   2.373
    1C        C  722   2.485   3.202   2.499
    1C        C  723   2.470   3.274   2.625
    1C        C  724   2.541   3.068   2.752
    1C        C  725   2.486   3.203   2.752
    1C        C  726   2.574   3.003   2.879
    1C        C  727   2.543   3.070   3.005
    1C        C  728   2.658   2.885   3.132
    1C        C  729   2.574   3.004   3.132
    1C        C  730   2.705   2.830   3.259
    1C        C  731   2.661   2.888   3.385
    1C        C  732   2.706   2.832   3.512
    1C        C  733   2.506   3.211   1.999
    1C        C  734   2.462   3.274   2.119
    1C        C  735   2.542   3.067   2.246
    1C        C  736   2.482   3.202   2.246
    1C        C  737   2.576   3.002   2.372
    1C        C  738   2.542   3.068   2.499
    1C        C  739   2.657   2.882   2.626
    1C        C  740   2.573   3.002   2.626
    1C        C  741   2.704   2.826   2.753
    1C        C  742   2.659   2.884   2.879
    1C        C  743   2.703   2.827   3.006
    1C        C  744   2.554   3.079   1.997
    1C        C  745   2.667   2.887   2.119
    1C        C  746   2.582   3.006   2.118
    1C        C  747   2.708   2.827   2.247
    1C        C  748   2.661   2.884   2.373
    1C        C  749   2.704   2.825   2.500
    1C        C  750   2.716   2.826   1.998
    1C        C  751   3.655   2.291   1.900
    1C        O  752   3.706   2.181   1.933
    1C        O  753   3.677   2.338   1.769
    1C        C  754   4.605   3.035   1.885
    1C        O  755   4.565   3.044   1.766
    1C        O  756   4.722   2.963   1.912
    1C        C  757   4.437   4.220   1.872
    1C        O  758   4.527   4.305   1.895
    1C        O  759   4.417   4.182   1.738
    1C        C  760   3.577   4.671   1.872
    1C        O  761   3.584   4.795   1.897
    1C        O  762   3.588   4.633   1.738
    1C        C  763   2.858   4.495   1.883
    1C        O  764   2.872   4.462   1.762
    1C        O  765   2.774   4.604   1.908
    1C        C  766   2.287   3.444   1.893
    1C        O  767   2.168   3.412   1.917
    1C        O  768   2.332   3.443   1.761
    1C        C  769   4.708   3.560   5.106
    1C        O  770   4.666   3.541   5.224
    1C        O  771   4.842   3.528   5.077
    1C        C  772   4.282   4.431   5.101
    1C        O  773   4.257   4.403   5.221
    1C        O  774   4.377   4.530   5.075
    1C        C  775   4.147   2.492   5.118
    1C        O  776   4.239   2.410   5.091
    1C        O  777   4.145   2.549   5.247
    1C        C  778   2.880   4.536   5.104
    1C        O  779   2.935   4.518   5.216
    1C        O  780   2.857   4.669   5.066
    1C        C  781   2.436   2.992   5.125
    1C        O  782   2.338   2.918   5.096
    1C        O  783   2.479   2.998   5.257
    1C        C  784   2.405   3.968   5.115
    1C        O  785   2.284   3.985   5.084
    1C        O  786   2.435   3.924   5.245
    1C        C  787   2.928   2.422   1.904
    1C        O  788   2.920   2.473   1.789
    1C        O  789   2.827   2.332   1.941
    1C        C  790   3.182   2.363   5.125
    1C        O  791   3.173   2.240   5.098
    1C        O  792   3.209   2.401   5.257
    1C        H  793   4.387   2.923   5.105
    1C        H  794   4.194   2.773   5.105
    1C        H  795   4.492   3.119   5.102
    1C        H  796   4.512   3.363   5.099
    1C        H  797   4.595   3.798   5.086
    1C        H  798   4.410   3.937   5.092
    1C        H  799   4.298   4.152   5.093
    1C        H  800   4.032   4.510   5.083
    1C        H  801   3.801   4.480   5.089
    1C        H  802   3.589   4.615   5.086
    1C        H  803   3.375   4.534   5.098
    1C        H  804   3.148   4.456   5.097
    1C        H  805   3.883   2.477   5.107
    1C        H  806   3.665   2.515   5.115
    1C        H  807   2.992   2.548   5.113
    1C        H  808   3.424   2.514   5.113
    1C        H  809   2.863   2.725   5.120
    1C        H  810   2.711   2.913   5.115
    1C        H  811   2.446   3.257   5.111
    1C        H  812   2.504   3.470   5.115
    1C        H  813   2.524   3.710   5.109
    1C        H  814   2.638   4.112   5.103
    1C        H  815   2.749   4.298   5.099
    1C        H  816   2.662   2.840   1.906
    1C        H  817   2.851   2.688   1.907
    1C        H  818   3.199   2.445   1.909
    1C        H  819   3.413   2.418   1.908
    1C        H  820   3.810   2.537   1.906
    1C        H  821   4.051   2.585   1.901
    1C        H  822   4.215   2.734   1.896
    1C        H  823   4.343   2.941   1.896
    1C        H  824   4.602   3.299   1.899
    1C        H  825   4.494   3.504   1.892
    1C        H  826   4.485   3.744   1.885
    1C        H  827   3.806   4.548   1.891
    1C        H  828   3.956   4.378   1.881
    1C        H  829   4.150   4.233   1.886
    1C        H  830   4.490   3.963   1.890
    1C        H  831   2.534   3.854   1.897
    1C        H  832   2.663   4.057   1.897
    1C        H  833   2.698   4.292   1.906
    1C        H  834   3.372   4.463   1.890
    1C        H  835   3.135   4.418   1.888
    1C        H  836   2.539   3.024   1.906
    1C        H  837   2.513   3.269   1.909
    1C        H  838   2.400   3.682   1.906
    2V3OU   H29  839   2.804   3.628   0.669
    2V3OU   C27  840   2.775   3.529   0.712
    2V3OU   H27  841   2.697   3.538   0.792
    2V3OU   H28  842   2.752   3.452   0.634
    2V3OU   O11  843   2.894   3.483   0.778
    2V3OU   C15  844   2.897   3.373   0.864
    2V3OU   C13  845   3.020   3.349   0.932
    2V3OU   C14  846   3.037   3.227   1.003
    2V3OU   C16  847   2.934   3.134   1.007
    2V3OU    H6  848   2.946   3.041   1.065
    2V3OU   C12  849   3.168   3.192   1.070
    2V3OU    O2  850   3.181   3.088   1.139
    2V3OU   C10  851   3.285   3.277   1.039
    2V3OU    C8  852   3.413   3.235   1.072
    2V3OU   O10  853   3.436   3.121   1.144
    2V3OU   H26  854   3.346   3.082   1.166
    2V3OU    C6  855   3.529   3.312   1.031
    2V3OU    C5  856   3.509   3.430   0.960
    2V3OU    C4  857   3.666   3.255   1.049
    2V3OU    H4  858   3.675   3.214   1.154
    2V3OU    H5  859   3.675   3.166   0.980
    2V3OU    C2  860   3.784   3.347   1.025
    2V3OU    O6  861   3.794   3.433   1.138
    2V3OU   H21  862   3.733   3.508   1.115
    2V3OU    C3  863   3.753   3.436   0.906
    2V3OU    H2  864   3.837   3.508   0.891
    2V3OU    H3  865   3.744   3.371   0.815
    2V3OU   C25  866   3.915   3.265   1.004
    2V3OU    O7  867   3.954   3.227   0.892
    2V3OU   C26  868   3.999   3.233   1.128
    2V3OU   H22  869   4.056   3.325   1.155
    2V3OU   H23  870   4.070   3.149   1.105
    2V3OU    O8  871   3.924   3.184   1.238
    2V3OU   H24  872   3.886   3.260   1.288
    2V3OU    C1  873   3.625   3.515   0.920
    2V3OU    H1  874   3.604   3.565   0.821
    2V3OU    O3  875   3.647   3.612   1.023
    2V3OU   C19  876   3.625   3.749   0.991
    2V3OU    H9  877   3.531   3.764   0.929
    2V3OU    O4  878   3.730   3.783   0.903
    2V3OU   C20  879   3.861   3.803   0.959
    2V3OU   H10  880   3.897   3.703   0.996
    2V3OU   C24  881   3.619   3.832   1.119
    2V3OU   H16  882   3.547   3.785   1.190
    2V3OU   H17  883   3.581   3.934   1.091
    2V3OU   C23  884   3.757   3.847   1.182
    2V3OU   H15  885   3.792   3.743   1.213
    2V3OU    N1  886   3.747   3.937   1.295
    2V3OU   H19  887   3.814   3.909   1.365
    2V3OU   H20  888   3.656   3.929   1.335
    2V3OU   C21  889   3.863   3.901   1.079
    2V3OU   H11  890   3.965   3.889   1.126
    2V3OU    O5  891   3.842   4.044   1.050
    2V3OU   H18  892   3.812   4.085   1.136
    2V3OU   C22  893   3.949   3.848   0.843
    2V3OU   H12  894   3.910   3.944   0.801
    2V3OU   H13  895   3.948   3.770   0.763
    2V3OU   H14  896   4.053   3.863   0.879
    2V3OU   C11  897   3.130   3.447   0.931
    2V3OU    O1  898   3.115   3.566   0.895
    2V3OU    C9  899   3.267   3.400   0.967
    2V3OU    C7  900   3.378   3.474   0.930
    2V3OU    O9  901   3.370   3.591   0.859
    2V3OU   H25  902   3.271   3.611   0.856
    2V3OU   C17  903   2.796   3.276   0.871
    2V3OU    H7  904   2.701   3.294   0.821
    2V3OU   C18  905   2.814   3.158   0.942
    2V3OU    H8  906   2.733   3.083   0.947
   7.00000   7.00000   7.00000
