CNT in water
33518
    1C        C    1   2.812   2.735   4.777
    1C        C    2   2.873   2.692   4.905
    1C        C    3   2.832   2.762   5.024
    1C        C    4   2.805   2.727   4.271
    1C        C    5   2.861   2.680   4.397
    1C        C    6   2.808   2.730   4.524
    1C        C    7   2.989   2.607   4.649
    1C        C    8   2.865   2.685   4.650
    1C        C    9   3.054   2.572   4.775
    1C        C   10   2.991   2.605   4.903
    1C        C   11   3.166   2.466   5.019
    1C        C   12   3.041   2.536   5.019
    1C        C   13   2.801   2.721   3.765
    1C        C   14   2.857   2.674   3.892
    1C        C   15   2.803   2.724   4.018
    1C        C   16   2.983   2.600   4.144
    1C        C   17   2.859   2.677   4.144
    1C        C   18   3.048   2.567   4.270
    1C        C   19   2.985   2.603   4.397
    1C        C   20   3.186   2.514   4.522
    1C        C   21   3.051   2.569   4.523
    1C        C   22   3.257   2.491   4.647
    1C        C   23   3.188   2.514   4.774
    1C        C   24   3.400   2.474   4.901
    1C        C   25   3.252   2.471   4.899
    1C        C   26   3.475   2.504   5.019
    1C        C   27   2.797   2.716   3.259
    1C        C   28   2.853   2.669   3.386
    1C        C   29   2.799   2.719   3.512
    1C        C   30   2.979   2.595   3.639
    1C        C   31   2.855   2.672   3.639
    1C        C   32   3.044   2.562   3.765
    1C        C   33   2.981   2.597   3.891
    1C        C   34   3.182   2.511   4.017
    1C        C   35   3.046   2.563   4.018
    1C        C   36   3.253   2.492   4.143
    1C        C   37   3.185   2.515   4.269
    1C        C   38   3.399   2.468   4.395
    1C        C   39   3.255   2.492   4.395
    1C        C   40   3.473   2.462   4.521
    1C        C   41   3.401   2.469   4.647
    1C        C   42   3.621   2.469   4.773
    1C        C   43   3.474   2.462   4.774
    1C        C   44   3.694   2.489   4.900
    1C        C   45   3.616   2.508   5.020
    1C        C   46   2.795   2.713   2.754
    1C        C   47   2.850   2.665   2.880
    1C        C   48   2.796   2.715   3.007
    1C        C   49   2.975   2.590   3.133
    1C        C   50   2.852   2.668   3.133
    1C        C   51   3.041   2.557   3.260
    1C        C   52   2.977   2.592   3.386
    1C        C   53   3.179   2.507   3.512
    1C        C   54   3.042   2.558   3.512
    1C        C   55   3.250   2.488   3.638
    1C        C   56   3.181   2.511   3.764
    1C        C   57   3.396   2.465   3.890
    1C        C   58   3.251   2.489   3.890
    1C        C   59   3.469   2.460   4.015
    1C        C   60   3.397   2.468   4.142
    1C        C   61   3.617   2.466   4.267
    1C        C   62   3.471   2.460   4.268
    1C        C   63   3.690   2.476   4.393
    1C        C   64   3.619   2.469   4.520
    1C        C   65   3.833   2.515   4.644
    1C        C   66   3.692   2.477   4.646
    1C        C   67   3.904   2.539   4.769
    1C        C   68   3.838   2.516   4.897
    1C        C   69   4.060   2.549   5.011
    1C        C   70   3.925   2.504   5.012
    1C        C   71   2.798   2.710   2.248
    1C        C   72   2.851   2.662   2.375
    1C        C   73   2.796   2.712   2.501
    1C        C   74   2.973   2.584   2.628
    1C        C   75   2.850   2.664   2.627
    1C        C   76   3.037   2.551   2.755
    1C        C   77   2.974   2.587   2.881
    1C        C   78   3.175   2.502   3.007
    1C        C   79   3.039   2.553   3.007
    1C        C   80   3.247   2.483   3.133
    1C        C   81   3.178   2.506   3.259
    1C        C   82   3.392   2.462   3.385
    1C        C   83   3.248   2.485   3.385
    1C        C   84   3.466   2.456   3.510
    1C        C   85   3.394   2.465   3.637
    1C        C   86   3.613   2.463   3.762
    1C        C   87   3.468   2.457   3.763
    1C        C   88   3.687   2.473   3.887
    1C        C   89   3.615   2.466   4.014
    1C        C   90   3.830   2.511   4.139
    1C        C   91   3.689   2.474   4.140
    1C        C   92   3.900   2.536   4.264
    1C        C   93   3.831   2.514   4.391
    1C        C   94   4.033   2.601   4.515
    1C        C   95   3.902   2.537   4.517
    1C        C   96   4.098   2.637   4.640
    1C        C   97   4.038   2.599   4.767
    1C        C   98   4.209   2.729   4.893
    1C        C   99   4.113   2.616   4.892
    1C        C  100   4.242   2.800   5.013
    1C        C  101   2.808   2.720   2.000
    1C        C  102   2.965   2.562   2.122
    1C        C  103   2.851   2.656   2.121
    1C        C  104   3.032   2.537   2.250
    1C        C  105   2.972   2.580   2.376
    1C        C  106   3.172   2.494   2.502
    1C        C  107   3.036   2.546   2.502
    1C        C  108   3.243   2.476   2.628
    1C        C  109   3.174   2.500   2.755
    1C        C  110   3.389   2.456   2.880
    1C        C  111   3.245   2.479   2.881
    1C        C  112   3.462   2.451   3.006
    1C        C  113   3.391   2.460   3.132
    1C        C  114   3.610   2.459   3.257
    1C        C  115   3.464   2.453   3.258
    1C        C  116   3.684   2.469   3.382
    1C        C  117   3.612   2.463   3.509
    1C        C  118   3.827   2.507   3.634
    1C        C  119   3.685   2.470   3.635
    1C        C  120   3.897   2.532   3.759
    1C        C  121   3.828   2.510   3.886
    1C        C  122   4.029   2.599   4.010
    1C        C  123   3.899   2.533   4.012
    1C        C  124   4.092   2.638   4.136
    1C        C  125   4.030   2.602   4.263
    1C        C  126   4.208   2.731   4.387
    1C        C  127   4.095   2.638   4.388
    1C        C  128   4.261   2.782   4.513
    1C        C  129   4.209   2.732   4.640
    1C        C  130   4.350   2.900   4.765
    1C        C  131   4.263   2.781   4.766
    1C        C  132   4.383   2.966   4.892
    1C        C  133   4.333   2.908   5.014
    1C        C  134   3.152   2.446   2.006
    1C        C  135   3.015   2.485   2.007
    1C        C  136   3.235   2.449   2.124
    1C        C  137   3.171   2.487   2.250
    1C        C  138   3.385   2.447   2.375
    1C        C  139   3.241   2.469   2.376
    1C        C  140   3.459   2.443   2.501
    1C        C  141   3.387   2.453   2.628
    1C        C  142   3.606   2.453   2.752
    1C        C  143   3.461   2.446   2.753
    1C        C  144   3.680   2.464   2.877
    1C        C  145   3.608   2.458   3.004
    1C        C  146   3.823   2.502   3.128
    1C        C  147   3.682   2.466   3.130
    1C        C  148   3.894   2.527   3.254
    1C        C  149   3.825   2.506   3.381
    1C        C  150   4.026   2.594   3.505
    1C        C  151   3.896   2.529   3.507
    1C        C  152   4.089   2.633   3.631
    1C        C  153   4.027   2.598   3.758
    1C        C  154   4.205   2.726   3.882
    1C        C  155   4.091   2.635   3.883
    1C        C  156   4.259   2.778   4.008
    1C        C  157   4.206   2.730   4.135
    1C        C  158   4.352   2.893   4.259
    1C        C  159   4.261   2.780   4.260
    1C        C  160   4.393   2.955   4.385
    1C        C  161   4.351   2.897   4.512
    1C        C  162   4.457   3.090   4.637
    1C        C  163   4.392   2.959   4.638
    1C        C  164   4.482   3.160   4.762
    1C        C  165   4.447   3.098   4.891
    1C        C  166   4.515   3.307   5.008
    1C        C  167   4.474   3.172   5.011
    1C        C  168   3.458   2.397   2.003
    1C        C  169   3.381   2.427   2.122
    1C        C  170   3.603   2.438   2.248
    1C        C  171   3.456   2.432   2.249
    1C        C  172   3.676   2.453   2.373
    1C        C  173   3.604   2.450   2.500
    1C        C  174   3.819   2.498   2.623
    1C        C  175   3.678   2.459   2.625
    1C        C  176   3.889   2.523   2.748
    1C        C  177   3.821   2.501   2.876
    1C        C  178   4.022   2.590   2.999
    1C        C  179   3.892   2.524   3.001
    1C        C  180   4.086   2.629   3.125
    1C        C  181   4.024   2.593   3.252
    1C        C  182   4.202   2.721   3.376
    1C        C  183   4.088   2.630   3.378
    1C        C  184   4.256   2.773   3.502
    1C        C  185   4.203   2.725   3.629
    1C        C  186   4.351   2.888   3.753
    1C        C  187   4.259   2.774   3.755
    1C        C  188   4.393   2.949   3.879
    1C        C  189   4.351   2.891   4.006
    1C        C  190   4.461   3.082   4.130
    1C        C  191   4.394   2.952   4.132
    1C        C  192   4.488   3.151   4.256
    1C        C  193   4.459   3.086   4.384
    1C        C  194   4.528   3.295   4.507
    1C        C  195   4.488   3.155   4.509
    1C        C  196   4.544   3.368   4.632
    1C        C  197   4.528   3.300   4.760
    1C        C  198   4.579   3.519   4.882
    1C        C  199   4.546   3.375   4.886
    1C        C  200   4.614   3.602   4.999
    1C        C  201   3.600   2.383   2.003
    1C        C  202   3.812   2.486   2.117
    1C        C  203   3.676   2.428   2.121
    1C        C  204   3.882   2.518   2.243
    1C        C  205   3.815   2.496   2.371
    1C        C  206   4.016   2.589   2.493
    1C        C  207   3.887   2.521   2.496
    1C        C  208   4.080   2.627   2.619
    1C        C  209   4.019   2.590   2.746
    1C        C  210   4.198   2.718   2.870
    1C        C  211   4.084   2.627   2.872
    1C        C  212   4.252   2.768   2.996
    1C        C  213   4.200   2.720   3.124
    1C        C  214   4.347   2.883   3.248
    1C        C  215   4.255   2.770   3.249
    1C        C  216   4.390   2.944   3.373
    1C        C  217   4.348   2.886   3.501
    1C        C  218   4.458   3.076   3.625
    1C        C  219   4.392   2.946   3.626
    1C        C  220   4.487   3.145   3.750
    1C        C  221   4.459   3.079   3.877
    1C        C  222   4.527   3.288   4.001
    1C        C  223   4.489   3.147   4.003
    1C        C  224   4.541   3.362   4.127
    1C        C  225   4.526   3.292   4.254
    1C        C  226   4.552   3.510   4.377
    1C        C  227   4.543   3.365   4.379
    1C        C  228   4.553   3.585   4.502
    1C        C  229   4.555   3.514   4.629
    1C        C  230   4.535   3.733   4.753
    1C        C  231   4.566   3.589   4.754
    1C        C  232   4.529   3.807   4.879
    1C        C  233   4.581   3.741   4.996
    1C        C  234   3.995   2.598   1.992
    1C        C  235   3.868   2.539   1.996
    1C        C  236   4.066   2.634   2.112
    1C        C  237   4.011   2.591   2.240
    1C        C  238   4.191   2.718   2.364
    1C        C  239   4.076   2.627   2.366
    1C        C  240   4.246   2.768   2.490
    1C        C  241   4.194   2.719   2.617
    1C        C  242   4.344   2.879   2.742
    1C        C  243   4.250   2.767   2.743
    1C        C  244   4.386   2.940   2.868
    1C        C  245   4.345   2.882   2.995
    1C        C  246   4.455   3.071   3.119
    1C        C  247   4.389   2.941   3.121
    1C        C  248   4.484   3.140   3.245
    1C        C  249   4.456   3.074   3.372
    1C        C  250   4.524   3.283   3.496
    1C        C  251   4.487   3.142   3.497
    1C        C  252   4.538   3.356   3.621
    1C        C  253   4.524   3.286   3.749
    1C        C  254   4.548   3.505   3.872
    1C        C  255   4.541   3.359   3.874
    1C        C  256   4.547   3.579   3.998
    1C        C  257   4.548   3.507   4.125
    1C        C  258   4.528   3.726   4.249
    1C        C  259   4.550   3.582   4.250
    1C        C  260   4.512   3.799   4.374
    1C        C  261   4.529   3.729   4.501
    1C        C  262   4.464   3.939   4.626
    1C        C  263   4.516   3.803   4.627
    1C        C  264   4.434   4.006   4.753
    1C        C  265   4.464   3.938   4.880
    1C        C  266   4.331   4.113   4.999
    1C        C  267   4.402   3.991   5.000
    1C        C  268   4.228   2.787   1.988
    1C        C  269   4.180   2.728   2.111
    1C        C  270   4.343   2.877   2.236
    1C        C  271   4.242   2.769   2.237
    1C        C  272   4.386   2.936   2.362
    1C        C  273   4.341   2.878   2.489
    1C        C  274   4.454   3.067   2.614
    1C        C  275   4.386   2.937   2.615
    1C        C  276   4.482   3.136   2.740
    1C        C  277   4.453   3.070   2.867
    1C        C  278   4.522   3.279   2.991
    1C        C  279   4.484   3.137   2.992
    1C        C  280   4.536   3.352   3.116
    1C        C  281   4.521   3.281   3.243
    1C        C  282   4.546   3.500   3.367
    1C        C  283   4.538   3.354   3.369
    1C        C  284   4.545   3.574   3.493
    1C        C  285   4.546   3.502   3.620
    1C        C  286   4.525   3.721   3.744
    1C        C  287   4.547   3.577   3.745
    1C        C  288   4.509   3.794   3.870
    1C        C  289   4.525   3.723   3.996
    1C        C  290   4.461   3.933   4.121
    1C        C  291   4.512   3.797   4.122
    1C        C  292   4.431   4.001   4.247
    1C        C  293   4.461   3.936   4.374
    1C        C  294   4.356   4.128   4.499
    1C        C  295   4.433   4.004   4.500
    1C        C  296   4.314   4.189   4.625
    1C        C  297   4.358   4.132   4.752
    1C        C  298   4.223   4.309   4.877
    1C        C  299   4.308   4.188   4.879
    1C        C  300   4.185   4.389   4.995
    1C        C  301   4.323   2.891   1.989
    1C        C  302   4.469   3.059   2.108
    1C        C  303   4.388   2.936   2.108
    1C        C  304   4.488   3.129   2.236
    1C        C  305   4.454   3.065   2.362
    1C        C  306   4.521   3.274   2.486
    1C        C  307   4.484   3.133   2.488
    1C        C  308   4.534   3.347   2.612
    1C        C  309   4.519   3.277   2.738
    1C        C  310   4.543   3.495   2.862
    1C        C  311   4.536   3.349   2.864
    1C        C  312   4.542   3.569   2.988
    1C        C  313   4.543   3.497   3.115
    1C        C  314   4.522   3.716   3.239
    1C        C  315   4.545   3.572   3.240
    1C        C  316   4.506   3.788   3.365
    1C        C  317   4.522   3.718   3.491
    1C        C  318   4.457   3.928   3.616
    1C        C  319   4.509   3.791   3.617
    1C        C  320   4.427   3.996   3.742
    1C        C  321   4.458   3.930   3.868
    1C        C  322   4.352   4.122   3.993
    1C        C  323   4.430   3.999   3.994
    1C        C  324   4.309   4.182   4.119
    1C        C  325   4.353   4.124   4.246
    1C        C  326   4.210   4.290   4.371
    1C        C  327   4.312   4.186   4.372
    1C        C  328   4.155   4.339   4.497
    1C        C  329   4.212   4.293   4.624
    1C        C  330   4.037   4.425   4.749
    1C        C  331   4.163   4.348   4.749
    1C        C  332   3.979   4.472   4.875
    1C        C  333   4.062   4.460   4.993
    1C        C  334   4.569   3.255   1.992
    1C        C  335   4.539   3.116   1.991
    1C        C  336   4.553   3.339   2.108
    1C        C  337   4.524   3.271   2.234
    1C        C  338   4.542   3.490   2.357
    1C        C  339   4.537   3.344   2.360
    1C        C  340   4.540   3.564   2.483
    1C        C  341   4.541   3.493   2.610
    1C        C  342   4.520   3.711   2.734
    1C        C  343   4.542   3.567   2.735
    1C        C  344   4.504   3.784   2.859
    1C        C  345   4.520   3.713   2.986
    1C        C  346   4.454   3.923   3.111
    1C        C  347   4.506   3.786   3.112
    1C        C  348   4.424   3.990   3.237
    1C        C  349   4.454   3.925   3.363
    1C        C  350   4.348   4.116   3.488
    1C        C  351   4.426   3.993   3.489
    1C        C  352   4.304   4.176   3.614
    1C        C  353   4.348   4.118   3.741
    1C        C  354   4.204   4.283   3.866
    1C        C  355   4.307   4.180   3.867
    1C        C  356   4.150   4.332   3.992
    1C        C  357   4.206   4.285   4.119
    1C        C  358   4.030   4.415   4.245
    1C        C  359   4.153   4.336   4.245
    1C        C  360   3.967   4.450   4.371
    1C        C  361   4.032   4.416   4.497
    1C        C  362   3.832   4.504   4.624
    1C        C  363   3.970   4.455   4.623
    1C        C  364   3.765   4.526   4.751
    1C        C  365   3.838   4.513   4.878
    1C        C  366   3.628   4.564   5.000
    1C        C  367   3.764   4.528   5.001
    1C        C  368   4.521   3.558   1.981
    1C        C  369   4.542   3.485   2.104
    1C        C  370   4.520   3.707   2.228
    1C        C  371   4.541   3.561   2.229
    1C        C  372   4.502   3.778   2.354
    1C        C  373   4.517   3.708   2.481
    1C        C  374   4.451   3.918   2.606
    1C        C  375   4.503   3.781   2.607
    1C        C  376   4.421   3.985   2.731
    1C        C  377   4.452   3.920   2.858
    1C        C  378   4.345   4.111   2.983
    1C        C  379   4.424   3.988   2.984
    1C        C  380   4.301   4.171   3.109
    1C        C  381   4.345   4.113   3.236
    1C        C  382   4.200   4.278   3.361
    1C        C  383   4.303   4.174   3.362
    1C        C  384   4.146   4.327   3.487
    1C        C  385   4.201   4.279   3.614
    1C        C  386   4.026   4.410   3.740
    1C        C  387   4.148   4.330   3.740
    1C        C  388   3.963   4.446   3.866
    1C        C  389   4.027   4.411   3.992
    1C        C  390   3.828   4.501   4.119
    1C        C  391   3.965   4.449   4.119
    1C        C  392   3.759   4.522   4.246
    1C        C  393   3.830   4.501   4.372
    1C        C  394   3.617   4.548   4.500
    1C        C  395   3.761   4.524   4.499
    1C        C  396   3.546   4.556   4.627
    1C        C  397   3.620   4.549   4.753
    1C        C  398   3.404   4.539   4.882
    1C        C  399   3.549   4.561   4.880
    1C        C  400   3.332   4.507   5.004
    1C        C  401   4.504   3.698   1.979
    1C        C  402   4.454   3.916   2.100
    1C        C  403   4.501   3.777   2.100
    1C        C  404   4.418   3.980   2.227
    1C        C  405   4.447   3.914   2.353
    1C        C  406   4.343   4.107   2.478
    1C        C  407   4.420   3.983   2.479
    1C        C  408   4.299   4.166   2.604
    1C        C  409   4.343   4.108   2.731
    1C        C  410   4.198   4.273   2.856
    1C        C  411   4.301   4.169   2.857
    1C        C  412   4.143   4.322   2.982
    1C        C  413   4.198   4.274   3.109
    1C        C  414   4.022   4.405   3.235
    1C        C  415   4.145   4.325   3.235
    1C        C  416   3.959   4.441   3.361
    1C        C  417   4.023   4.406   3.487
    1C        C  418   3.825   4.497   3.614
    1C        C  419   3.961   4.444   3.614
    1C        C  420   3.756   4.519   3.741
    1C        C  421   3.826   4.498   3.867
    1C        C  422   3.614   4.546   3.994
    1C        C  423   3.758   4.522   3.993
    1C        C  424   3.542   4.553   4.121
    1C        C  425   3.615   4.546   4.247
    1C        C  426   3.397   4.549   4.375
    1C        C  427   3.543   4.555   4.374
    1C        C  428   3.326   4.540   4.503
    1C        C  429   3.400   4.548   4.629
    1C        C  430   3.184   4.509   4.757
    1C        C  431   3.328   4.539   4.756
    1C        C  432   3.115   4.482   4.884
    1C        C  433   3.196   4.476   5.003
    1C        C  434   4.391   4.129   1.981
    1C        C  435   4.453   4.001   1.983
    1C        C  436   4.318   4.176   2.099
    1C        C  437   4.345   4.107   2.226
    1C        C  438   4.196   4.268   2.351
    1C        C  439   4.301   4.167   2.352
    1C        C  440   4.140   4.316   2.476
    1C        C  441   4.196   4.269   2.603
    1C        C  442   4.019   4.399   2.729
    1C        C  443   4.142   4.320   2.729
    1C        C  444   3.956   4.435   2.855
    1C        C  445   4.020   4.401   2.982
    1C        C  446   3.822   4.491   3.108
    1C        C  447   3.958   4.439   3.108
    1C        C  448   3.752   4.514   3.235
    1C        C  449   3.823   4.493   3.361
    1C        C  450   3.610   4.541   3.489
    1C        C  451   3.754   4.518   3.488
    1C        C  452   3.538   4.549   3.616
    1C        C  453   3.612   4.542   3.741
    1C        C  454   3.394   4.546   3.869
    1C        C  455   3.540   4.552   3.868
    1C        C  456   3.322   4.538   3.996
    1C        C  457   3.396   4.546   4.122
    1C        C  458   3.183   4.504   4.251
    1C        C  459   3.324   4.540   4.249
    1C        C  460   3.114   4.481   4.378
    1C        C  461   3.184   4.505   4.504
    1C        C  462   2.984   4.420   4.631
    1C        C  463   3.115   4.485   4.631
    1C        C  464   2.919   4.387   4.757
    1C        C  465   2.977   4.430   4.885
    1C        C  466   2.781   4.332   5.003
    1C        C  467   2.887   4.428   5.001
    1C        C  468   4.117   4.279   1.978
    1C        C  469   4.195   4.260   2.097
    1C        C  470   4.016   4.392   2.223
    1C        C  471   4.141   4.313   2.223
    1C        C  472   3.952   4.428   2.349
    1C        C  473   4.017   4.394   2.476
    1C        C  474   3.818   4.484   2.603
    1C        C  475   3.954   4.432   2.602
    1C        C  476   3.749   4.506   2.730
    1C        C  477   3.819   4.486   2.856
    1C        C  478   3.607   4.535   2.983
    1C        C  479   3.751   4.512   2.982
    1C        C  480   3.535   4.543   3.110
    1C        C  481   3.608   4.537   3.236
    1C        C  482   3.391   4.540   3.364
    1C        C  483   3.537   4.547   3.363
    1C        C  484   3.319   4.532   3.491
    1C        C  485   3.393   4.542   3.617
    1C        C  486   3.179   4.499   3.745
    1C        C  487   3.321   4.536   3.744
    1C        C  488   3.111   4.476   3.872
    1C        C  489   3.181   4.500   3.998
    1C        C  490   2.982   4.413   4.126
    1C        C  491   3.112   4.480   4.125
    1C        C  492   2.921   4.377   4.253
    1C        C  493   2.984   4.415   4.379
    1C        C  494   2.808   4.288   4.507
    1C        C  495   2.921   4.381   4.505
    1C        C  496   2.755   4.239   4.634
    1C        C  497   2.806   4.292   4.759
    1C        C  498   2.652   4.139   4.889
    1C        C  499   2.741   4.257   4.886
    1C        C  500   2.593   4.086   5.010
    1C        C  501   4.000   4.356   1.976
    1C        C  502   3.812   4.477   2.097
    1C        C  503   3.946   4.417   2.095
    1C        C  504   3.744   4.497   2.225
    1C        C  505   3.815   4.477   2.350
    1C        C  506   3.603   4.530   2.478
    1C        C  507   3.747   4.503   2.477
    1C        C  508   3.531   4.537   2.605
    1C        C  509   3.605   4.531   2.730
    1C        C  510   3.387   4.535   2.858
    1C        C  511   3.533   4.541   2.857
    1C        C  512   3.315   4.527   2.985
    1C        C  513   3.389   4.536   3.111
    1C        C  514   3.176   4.493   3.239
    1C        C  515   3.317   4.531   3.238
    1C        C  516   3.108   4.471   3.366
    1C        C  517   3.178   4.495   3.492
    1C        C  518   2.979   4.408   3.621
    1C        C  519   3.109   4.474   3.619
    1C        C  520   2.918   4.371   3.748
    1C        C  521   2.981   4.409   3.873
    1C        C  522   2.805   4.282   4.002
    1C        C  523   2.919   4.375   4.000
    1C        C  524   2.753   4.233   4.129
    1C        C  525   2.808   4.284   4.255
    1C        C  526   2.662   4.123   4.383
    1C        C  527   2.754   4.237   4.382
    1C        C  528   2.622   4.064   4.511
    1C        C  529   2.665   4.125   4.636
    1C        C  530   2.551   3.941   4.765
    1C        C  531   2.619   4.071   4.763
    1C        C  532   2.510   3.881   4.893
    1C        C  533   2.511   3.969   5.011
    1C        C  534   3.612   4.573   1.979
    1C        C  535   3.748   4.532   1.981
    1C        C  536   3.529   4.553   2.099
    1C        C  537   3.601   4.529   2.226
    1C        C  538   3.384   4.530   2.353
    1C        C  539   3.529   4.538   2.352
    1C        C  540   3.312   4.522   2.479
    1C        C  541   3.385   4.530   2.605
    1C        C  542   3.172   4.488   2.734
    1C        C  543   3.313   4.525   2.732
    1C        C  544   3.104   4.465   2.861
    1C        C  545   3.174   4.490   2.987
    1C        C  546   2.976   4.402   3.115
    1C        C  547   3.106   4.469   3.114
    1C        C  548   2.914   4.366   3.242
    1C        C  549   2.978   4.404   3.368
    1C        C  550   2.802   4.277   3.497
    1C        C  551   2.915   4.369   3.495
    1C        C  552   2.750   4.228   3.624
    1C        C  553   2.805   4.279   3.750
    1C        C  554   2.659   4.118   3.878
    1C        C  555   2.751   4.231   3.877
    1C        C  556   2.618   4.059   4.006
    1C        C  557   2.662   4.120   4.131
    1C        C  558   2.552   3.932   4.260
    1C        C  559   2.619   4.062   4.258
    1C        C  560   2.524   3.867   4.387
    1C        C  561   2.555   3.935   4.513
    1C        C  562   2.488   3.729   4.643
    1C        C  563   2.523   3.871   4.640
    1C        C  564   2.476   3.659   4.770
    1C        C  565   2.491   3.734   4.896
    1C        C  566   2.505   3.517   5.019
    1C        C  567   2.515   3.658   5.016
    1C        C  568   3.319   4.467   1.983
    1C        C  569   3.386   4.519   2.099
    1C        C  570   3.168   4.484   2.227
    1C        C  571   3.311   4.519   2.226
    1C        C  572   3.100   4.460   2.355
    1C        C  573   3.171   4.484   2.480
    1C        C  574   2.972   4.397   2.610
    1C        C  575   3.102   4.464   2.608
    1C        C  576   2.911   4.360   2.737
    1C        C  577   2.975   4.399   2.863
    1C        C  578   2.799   4.272   2.992
    1C        C  579   2.912   4.364   2.990
    1C        C  580   2.746   4.223   3.119
    1C        C  581   2.801   4.273   3.244
    1C        C  582   2.655   4.113   3.373
    1C        C  583   2.747   4.226   3.371
    1C        C  584   2.615   4.054   3.501
    1C        C  585   2.658   4.114   3.626
    1C        C  586   2.549   3.927   3.755
    1C        C  587   2.615   4.057   3.753
    1C        C  588   2.521   3.861   3.882
    1C        C  589   2.551   3.929   4.008
    1C        C  590   2.483   3.723   4.137
    1C        C  591   2.521   3.864   4.135
    1C        C  592   2.470   3.653   4.264
    1C        C  593   2.486   3.726   4.390
    1C        C  594   2.465   3.510   4.519
    1C        C  595   2.472   3.656   4.517
    1C        C  596   2.468   3.438   4.646
    1C        C  597   2.469   3.512   4.772
    1C        C  598   2.485   3.293   4.900
    1C        C  599   2.482   3.440   4.900
    1C        C  600   2.473   3.211   5.018
    1C        C  601   3.182   4.436   1.983
    1C        C  602   2.962   4.396   2.102
    1C        C  603   3.100   4.448   2.100
    1C        C  604   2.906   4.356   2.232
    1C        C  605   2.971   4.393   2.357
    1C        C  606   2.795   4.265   2.487
    1C        C  607   2.908   4.358   2.484
    1C        C  608   2.743   4.216   2.614
    1C        C  609   2.798   4.267   2.739
    1C        C  610   2.652   4.107   2.868
    1C        C  611   2.744   4.220   2.866
    1C        C  612   2.611   4.049   2.995
    1C        C  613   2.655   4.109   3.121
    1C        C  614   2.545   3.922   3.250
    1C        C  615   2.612   4.052   3.248
    1C        C  616   2.518   3.856   3.377
    1C        C  617   2.548   3.924   3.502
    1C        C  618   2.480   3.718   3.631
    1C        C  619   2.518   3.859   3.630
    1C        C  620   2.467   3.647   3.759
    1C        C  621   2.483   3.720   3.884
    1C        C  622   2.458   3.504   4.013
    1C        C  623   2.467   3.650   4.011
    1C        C  624   2.461   3.433   4.140
    1C        C  625   2.462   3.507   4.266
    1C        C  626   2.484   3.291   4.394
    1C        C  627   2.463   3.435   4.393
    1C        C  628   2.502   3.221   4.521
    1C        C  629   2.489   3.294   4.646
    1C        C  630   2.549   3.083   4.773
    1C        C  631   2.502   3.222   4.773
    1C        C  632   2.566   3.012   4.901
    1C        C  633   2.505   3.072   5.020
    1C        C  634   2.764   4.295   1.991
    1C        C  635   2.872   4.388   1.987
    1C        C  636   2.726   4.223   2.110
    1C        C  637   2.792   4.263   2.235
    1C        C  638   2.648   4.101   2.363
    1C        C  639   2.739   4.215   2.362
    1C        C  640   2.607   4.043   2.490
    1C        C  641   2.651   4.103   2.615
    1C        C  642   2.541   3.917   2.745
    1C        C  643   2.608   4.046   2.743
    1C        C  644   2.513   3.851   2.872
    1C        C  645   2.544   3.919   2.997
    1C        C  646   2.476   3.713   3.126
    1C        C  647   2.515   3.854   3.125
    1C        C  648   2.463   3.642   3.253
    1C        C  649   2.479   3.715   3.379
    1C        C  650   2.454   3.499   3.507
    1C        C  651   2.464   3.645   3.506
    1C        C  652   2.456   3.427   3.634
    1C        C  653   2.458   3.502   3.760
    1C        C  654   2.479   3.286   3.888
    1C        C  655   2.457   3.430   3.887
    1C        C  656   2.497   3.216   4.015
    1C        C  657   2.483   3.288   4.141
    1C        C  658   2.551   3.082   4.269
    1C        C  659   2.498   3.218   4.268
    1C        C  660   2.584   3.017   4.395
    1C        C  661   2.553   3.084   4.521
    1C        C  662   2.667   2.898   4.649
    1C        C  663   2.581   3.017   4.647
    1C        C  664   2.712   2.843   4.776
    1C        C  665   2.665   2.902   4.903
    1C        C  666   2.737   2.866   5.022
    1C        C  667   2.615   4.029   1.988
    1C        C  668   2.647   4.100   2.109
    1C        C  669   2.533   3.912   2.239
    1C        C  670   2.604   4.041   2.237
    1C        C  671   2.507   3.846   2.366
    1C        C  672   2.539   3.914   2.492
    1C        C  673   2.470   3.708   2.621
    1C        C  674   2.510   3.849   2.619
    1C        C  675   2.458   3.638   2.749
    1C        C  676   2.475   3.710   2.874
    1C        C  677   2.450   3.494   3.002
    1C        C  678   2.459   3.640   3.001
    1C        C  679   2.452   3.422   3.129
    1C        C  680   2.454   3.497   3.255
    1C        C  681   2.475   3.280   3.383
    1C        C  682   2.453   3.425   3.382
    1C        C  683   2.492   3.210   3.510
    1C        C  684   2.478   3.283   3.636
    1C        C  685   2.547   3.077   3.764
    1C        C  686   2.493   3.213   3.763
    1C        C  687   2.581   3.013   3.890
    1C        C  688   2.550   3.080   4.016
    1C        C  689   2.665   2.895   4.144
    1C        C  690   2.581   3.014   4.143
    1C        C  691   2.713   2.840   4.270
    1C        C  692   2.669   2.898   4.396
    1C        C  693   2.713   2.841   4.523
    1C        C  694   2.545   3.906   1.990
    1C        C  695   2.456   3.703   2.116
    1C        C  696   2.502   3.843   2.112
    1C        C  697   2.449   3.633   2.244
    1C        C  698   2.469   3.706   2.369
    1C        C  699   2.442   3.490   2.498
    1C        C  700   2.453   3.636   2.496
    1C        C  701   2.446   3.418   2.625
    1C        C  702   2.448   3.492   2.750
    1C        C  703   2.471   3.276   2.878
    1C        C  704   2.449   3.420   2.877
    1C        C  705   2.489   3.205   3.004
    1C        C  706   2.474   3.278   3.130
    1C        C  707   2.543   3.072   3.258
    1C        C  708   2.489   3.207   3.257
    1C        C  709   2.577   3.007   3.385
    1C        C  710   2.546   3.075   3.511
    1C        C  711   2.661   2.890   3.638
    1C        C  712   2.577   3.009   3.638
    1C        C  713   2.709   2.835   3.765
    1C        C  714   2.665   2.893   3.891
    1C        C  715   2.710   2.837   4.017
    1C        C  716   2.377   3.493   2.002
    1C        C  717   2.403   3.633   2.001
    1C        C  718   2.411   3.414   2.121
    1C        C  719   2.432   3.487   2.246
    1C        C  720   2.465   3.272   2.373
    1C        C  721   2.437   3.416   2.373
    1C        C  722   2.485   3.202   2.499
    1C        C  723   2.470   3.274   2.625
    1C        C  724   2.541   3.068   2.752
    1C        C  725   2.486   3.203   2.752
    1C        C  726   2.574   3.003   2.879
    1C        C  727   2.543   3.070   3.005
    1C        C  728   2.658   2.885   3.132
    1C        C  729   2.574   3.004   3.132
    1C        C  730   2.705   2.830   3.259
    1C        C  731   2.661   2.888   3.385
    1C        C  732   2.706   2.832   3.512
    1C        C  733   2.506   3.211   1.999
    1C        C  734   2.462   3.274   2.119
    1C        C  735   2.542   3.067   2.246
    1C        C  736   2.482   3.202   2.246
    1C        C  737   2.576   3.002   2.372
    1C        C  738   2.542   3.068   2.499
    1C        C  739   2.657   2.882   2.626
    1C        C  740   2.573   3.002   2.626
    1C        C  741   2.704   2.826   2.753
    1C        C  742   2.659   2.884   2.879
    1C        C  743   2.703   2.827   3.006
    1C        C  744   2.554   3.079   1.997
    1C        C  745   2.667   2.887   2.119
    1C        C  746   2.582   3.006   2.118
    1C        C  747   2.708   2.827   2.247
    1C        C  748   2.661   2.884   2.373
    1C        C  749   2.704   2.825   2.500
    1C        C  750   2.716   2.826   1.998
    1C        C  751   3.655   2.291   1.900
    1C        O  752   3.706   2.181   1.933
    1C        O  753   3.677   2.338   1.769
    1C        C  754   4.605   3.035   1.885
    1C        O  755   4.565   3.044   1.766
    1C        O  756   4.722   2.963   1.912
    1C        C  757   4.437   4.220   1.872
    1C        O  758   4.527   4.305   1.895
    1C        O  759   4.417   4.182   1.738
    1C        C  760   3.577   4.671   1.872
    1C        O  761   3.584   4.795   1.897
    1C        O  762   3.588   4.633   1.738
    1C        C  763   2.858   4.495   1.883
    1C        O  764   2.872   4.462   1.762
    1C        O  765   2.774   4.604   1.908
    1C        C  766   2.287   3.444   1.893
    1C        O  767   2.168   3.412   1.917
    1C        O  768   2.332   3.443   1.761
    1C        C  769   4.708   3.560   5.106
    1C        O  770   4.666   3.541   5.224
    1C        O  771   4.842   3.528   5.077
    1C        C  772   4.282   4.431   5.101
    1C        O  773   4.257   4.403   5.221
    1C        O  774   4.377   4.530   5.075
    1C        C  775   4.147   2.492   5.118
    1C        O  776   4.239   2.410   5.091
    1C        O  777   4.145   2.549   5.247
    1C        C  778   2.880   4.536   5.104
    1C        O  779   2.935   4.518   5.216
    1C        O  780   2.857   4.669   5.066
    1C        C  781   2.436   2.992   5.125
    1C        O  782   2.338   2.918   5.096
    1C        O  783   2.479   2.998   5.257
    1C        C  784   2.405   3.968   5.115
    1C        O  785   2.284   3.985   5.084
    1C        O  786   2.435   3.924   5.245
    1C        C  787   2.928   2.422   1.904
    1C        O  788   2.920   2.473   1.789
    1C        O  789   2.827   2.332   1.941
    1C        C  790   3.182   2.363   5.125
    1C        O  791   3.173   2.240   5.098
    1C        O  792   3.209   2.401   5.257
    1C        H  793   4.387   2.923   5.105
    1C        H  794   4.194   2.773   5.105
    1C        H  795   4.492   3.119   5.102
    1C        H  796   4.512   3.363   5.099
    1C        H  797   4.595   3.798   5.086
    1C        H  798   4.410   3.937   5.092
    1C        H  799   4.298   4.152   5.093
    1C        H  800   4.032   4.510   5.083
    1C        H  801   3.801   4.480   5.089
    1C        H  802   3.589   4.615   5.086
    1C        H  803   3.375   4.534   5.098
    1C        H  804   3.148   4.456   5.097
    1C        H  805   3.883   2.477   5.107
    1C        H  806   3.665   2.515   5.115
    1C        H  807   2.992   2.548   5.113
    1C        H  808   3.424   2.514   5.113
    1C        H  809   2.863   2.725   5.120
    1C        H  810   2.711   2.913   5.115
    1C        H  811   2.446   3.257   5.111
    1C        H  812   2.504   3.470   5.115
    1C        H  813   2.524   3.710   5.109
    1C        H  814   2.638   4.112   5.103
    1C        H  815   2.749   4.298   5.099
    1C        H  816   2.662   2.840   1.906
    1C        H  817   2.851   2.688   1.907
    1C        H  818   3.199   2.445   1.909
    1C        H  819   3.413   2.418   1.908
    1C        H  820   3.810   2.537   1.906
    1C        H  821   4.051   2.585   1.901
    1C        H  822   4.215   2.734   1.896
    1C        H  823   4.343   2.941   1.896
    1C        H  824   4.602   3.299   1.899
    1C        H  825   4.494   3.504   1.892
    1C        H  826   4.485   3.744   1.885
    1C        H  827   3.806   4.548   1.891
    1C        H  828   3.956   4.378   1.881
    1C        H  829   4.150   4.233   1.886
    1C        H  830   4.490   3.963   1.890
    1C        H  831   2.534   3.854   1.897
    1C        H  832   2.663   4.057   1.897
    1C        H  833   2.698   4.292   1.906
    1C        H  834   3.372   4.463   1.890
    1C        H  835   3.135   4.418   1.888
    1C        H  836   2.539   3.024   1.906
    1C        H  837   2.513   3.269   1.909
    1C        H  838   2.400   3.682   1.906
    2V3OU   H29  839   2.804   3.628   0.669
    2V3OU   C27  840   2.775   3.529   0.712
    2V3OU   H27  841   2.697   3.538   0.792
    2V3OU   H28  842   2.752   3.452   0.634
    2V3OU   O11  843   2.894   3.483   0.778
    2V3OU   C15  844   2.897   3.373   0.864
    2V3OU   C13  845   3.020   3.349   0.932
    2V3OU   C14  846   3.037   3.227   1.003
    2V3OU   C16  847   2.934   3.134   1.007
    2V3OU    H6  848   2.946   3.041   1.065
    2V3OU   C12  849   3.168   3.192   1.070
    2V3OU    O2  850   3.181   3.088   1.139
    2V3OU   C10  851   3.285   3.277   1.039
    2V3OU    C8  852   3.413   3.235   1.072
    2V3OU   O10  853   3.436   3.121   1.144
    2V3OU   H26  854   3.346   3.082   1.166
    2V3OU    C6  855   3.529   3.312   1.031
    2V3OU    C5  856   3.509   3.430   0.960
    2V3OU    C4  857   3.666   3.255   1.049
    2V3OU    H4  858   3.675   3.214   1.154
    2V3OU    H5  859   3.675   3.166   0.980
    2V3OU    C2  860   3.784   3.347   1.025
    2V3OU    O6  861   3.794   3.433   1.138
    2V3OU   H21  862   3.733   3.508   1.115
    2V3OU    C3  863   3.753   3.436   0.906
    2V3OU    H2  864   3.837   3.508   0.891
    2V3OU    H3  865   3.744   3.371   0.815
    2V3OU   C25  866   3.915   3.265   1.004
    2V3OU    O7  867   3.954   3.227   0.892
    2V3OU   C26  868   3.999   3.233   1.128
    2V3OU   H22  869   4.056   3.325   1.155
    2V3OU   H23  870   4.070   3.149   1.105
    2V3OU    O8  871   3.924   3.184   1.238
    2V3OU   H24  872   3.886   3.260   1.288
    2V3OU    C1  873   3.625   3.515   0.920
    2V3OU    H1  874   3.604   3.565   0.821
    2V3OU    O3  875   3.647   3.612   1.023
    2V3OU   C19  876   3.625   3.749   0.991
    2V3OU    H9  877   3.531   3.764   0.929
    2V3OU    O4  878   3.730   3.783   0.903
    2V3OU   C20  879   3.861   3.803   0.959
    2V3OU   H10  880   3.897   3.703   0.996
    2V3OU   C24  881   3.619   3.832   1.119
    2V3OU   H16  882   3.547   3.785   1.190
    2V3OU   H17  883   3.581   3.934   1.091
    2V3OU   C23  884   3.757   3.847   1.182
    2V3OU   H15  885   3.792   3.743   1.213
    2V3OU    N1  886   3.747   3.937   1.295
    2V3OU   H19  887   3.814   3.909   1.365
    2V3OU   H20  888   3.656   3.929   1.335
    2V3OU   C21  889   3.863   3.901   1.079
    2V3OU   H11  890   3.965   3.889   1.126
    2V3OU    O5  891   3.842   4.044   1.050
    2V3OU   H18  892   3.812   4.085   1.136
    2V3OU   C22  893   3.949   3.848   0.843
    2V3OU   H12  894   3.910   3.944   0.801
    2V3OU   H13  895   3.948   3.770   0.763
    2V3OU   H14  896   4.053   3.863   0.879
    2V3OU   C11  897   3.130   3.447   0.931
    2V3OU    O1  898   3.115   3.566   0.895
    2V3OU    C9  899   3.267   3.400   0.967
    2V3OU    C7  900   3.378   3.474   0.930
    2V3OU    O9  901   3.370   3.591   0.859
    2V3OU   H25  902   3.271   3.611   0.856
    2V3OU   C17  903   2.796   3.276   0.871
    2V3OU    H7  904   2.701   3.294   0.821
    2V3OU   C18  905   2.814   3.158   0.942
    2V3OU    H8  906   2.733   3.083   0.947
    3SOL     OW  907   0.230   0.628   0.113
    3SOL    HW1  908   0.137   0.626   0.150
    3SOL    HW2  909   0.231   0.589   0.021
    4SOL     OW  910   0.225   0.275   0.996
    4SOL    HW1  911   0.260   0.258   1.088
    4SOL    HW2  912   0.137   0.230   0.984
    5SOL     OW  913   0.019   0.368   0.647
    5SOL    HW1  914  -0.063   0.411   0.686
    5SOL    HW2  915  -0.009   0.295   0.584
    6SOL     OW  916   0.569   1.275   1.165
    6SOL    HW1  917   0.476   1.268   1.128
    6SOL    HW2  918   0.580   1.364   1.209
    7SOL     OW  919   1.555   1.511   0.703
    7SOL    HW1  920   1.498   1.495   0.784
    7SOL    HW2  921   1.496   1.521   0.623
    8SOL     OW  922   1.135   0.703   0.717
    8SOL    HW1  923   1.192   0.781   0.692
    8SOL    HW2  924   1.075   0.729   0.793
    9SOL     OW  925   1.755   0.607   0.231
    9SOL    HW1  926   1.743   0.594   0.132
    9SOL    HW2  927   1.725   0.526   0.280
   10SOL     OW  928   0.768   1.144   1.023
   10SOL    HW1  929   0.690   1.161   1.083
   10SOL    HW2  930   0.802   1.231   0.987
   11SOL     OW  931   0.850   0.798   1.823
   11SOL    HW1  932   0.846   0.874   1.888
   11SOL    HW2  933   0.872   0.834   1.732
   12SOL     OW  934   0.685   1.012   0.665
   12SOL    HW1  935   0.754   0.996   0.735
   12SOL    HW2  936   0.612   1.069   0.703
   13SOL     OW  937   0.686   1.161   1.803
   13SOL    HW1  938   0.746   1.240   1.817
   13SOL    HW2  939   0.600   1.192   1.762
   14SOL     OW  940   0.335   1.435   1.061
   14SOL    HW1  941   0.257   1.404   1.008
   14SOL    HW2  942   0.393   1.493   1.004
   15SOL     OW  943   1.460   1.505   1.339
   15SOL    HW1  944   1.484   1.599   1.365
   15SOL    HW2  945   1.444   1.451   1.421
   16SOL     OW  946   0.438   0.392   1.499
   16SOL    HW1  947   0.520   0.336   1.508
   16SOL    HW2  948   0.357   0.334   1.503
   17SOL     OW  949   1.603   0.447   0.737
   17SOL    HW1  950   1.529   0.493   0.687
   17SOL    HW2  951   1.654   0.515   0.790
   18SOL     OW  952   0.231   1.713   0.483
   18SOL    HW1  953   0.265   1.790   0.537
   18SOL    HW2  954   0.275   1.713   0.393
   19SOL     OW  955   1.127   1.341   1.690
   19SOL    HW1  956   1.174   1.341   1.778
   19SOL    HW2  957   1.079   1.254   1.679
   20SOL     OW  958   0.230   1.434   0.538
   20SOL    HW1  959   0.204   1.530   0.538
   20SOL    HW2  960   0.159   1.380   0.583
   21SOL     OW  961   0.240   1.091   0.886
   21SOL    HW1  962   0.254   1.007   0.938
   21SOL    HW2  963   0.185   1.155   0.941
   22SOL     OW  964   0.620   1.786   1.439
   22SOL    HW1  965   0.528   1.769   1.474
   22SOL    HW2  966   0.648   1.878   1.465
   23SOL     OW  967   0.606   0.964   0.123
   23SOL    HW1  968   0.613   1.048   0.069
   23SOL    HW2  969   0.652   0.977   0.211
   24SOL     OW  970   1.594   0.114   1.480
   24SOL    HW1  971   1.576   0.181   1.408
   24SOL    HW2  972   1.591   0.160   1.569
   25SOL     OW  973   0.122   0.643   0.563
   25SOL    HW1  974   0.077   0.555   0.580
   25SOL    HW2  975   0.121   0.697   0.647
   26SOL     OW  976   1.842   1.767   0.359
   26SOL    HW1  977   1.896   1.738   0.439
   26SOL    HW2  978   1.872   1.857   0.330
   27SOL     OW  979   0.027   1.596   0.117
   27SOL    HW1  980   0.008   1.500   0.138
   27SOL    HW2  981  -0.006   1.654   0.192
   28SOL     OW  982   1.689   0.922   0.612
   28SOL    HW1  983   1.784   0.893   0.620
   28SOL    HW2  984   1.681   0.987   0.537
   29SOL     OW  985   1.641   1.108   0.432
   29SOL    HW1  986   1.727   1.110   0.380
   29SOL    HW2  987   1.655   1.155   0.520
   30SOL     OW  988   0.113   0.737   1.597
   30SOL    HW1  989   0.201   0.724   1.642
   30SOL    HW2  990   0.100   0.834   1.575
   31SOL     OW  991   0.613   1.365   0.726
   31SOL    HW1  992   0.564   1.278   0.735
   31SOL    HW2  993   0.590   1.408   0.639
   32SOL     OW  994   1.293   1.228   1.423
   32SOL    HW1  995   1.330   1.155   1.365
   32SOL    HW2  996   1.345   1.233   1.508
   33SOL     OW  997   0.809   0.004   0.502
   33SOL    HW1  998   0.849   0.095   0.493
   33SOL    HW2  999   0.709   0.012   0.508
   34SOL     OW 1000   0.197   0.976   1.264
   34SOL    HW1 1001   0.286   0.931   1.250
   34SOL    HW2 1002   0.124   0.911   1.245
   35SOL     OW 1003   1.525   0.999   0.190
   35SOL    HW1 1004   1.462   0.923   0.203
   35SOL    HW2 1005   1.573   1.017   0.276
   36SOL     OW 1006   1.187   1.792   1.616
   36SOL    HW1 1007   1.211   1.852   1.540
   36SOL    HW2 1008   1.194   1.697   1.586
   37SOL     OW 1009   0.317   0.251   1.801
   37SOL    HW1 1010   0.388   0.322   1.807
   37SOL    HW2 1011   0.229   0.290   1.829
   38SOL     OW 1012   1.466   1.417   0.953
   38SOL    HW1 1013   1.407   1.423   1.033
   38SOL    HW2 1014   1.451   1.329   0.907
   39SOL     OW 1015   1.667   1.714   0.572
   39SOL    HW1 1016   1.626   1.691   0.484
   39SOL    HW2 1017   1.649   1.640   0.637
   40SOL     OW 1018   0.598   0.729   0.270
   40SOL    HW1 1019   0.622   0.798   0.202
   40SOL    HW2 1020   0.520   0.762   0.324
   41SOL     OW 1021   1.281   0.345   0.944
   41SOL    HW1 1022   1.195   0.295   0.931
   41SOL    HW2 1023   1.343   0.291   1.000
   42SOL     OW 1024   1.576   1.662   0.307
   42SOL    HW1 1025   1.665   1.708   0.310
   42SOL    HW2 1026   1.555   1.638   0.212
   43SOL     OW 1027   0.807   0.605   1.465
   43SOL    HW1 1028   0.760   0.602   1.554
   43SOL    HW2 1029   0.756   0.550   1.399
   44SOL     OW 1030   1.394   0.469   1.674
   44SOL    HW1 1031   1.374   0.512   1.762
   44SOL    HW2 1032   1.472   0.407   1.683
   45SOL     OW 1033   0.973   0.890   1.572
   45SOL    HW1 1034   1.019   0.806   1.543
   45SOL    HW2 1035   0.917   0.924   1.497
   46SOL     OW 1036   0.991   0.410   1.242
   46SOL    HW1 1037   0.914   0.444   1.296
   46SOL    HW2 1038   0.957   0.359   1.163
   47SOL     OW 1039   1.041   0.701   0.429
   47SOL    HW1 1040   1.067   0.697   0.525
   47SOL    HW2 1041   0.956   0.650   0.415
   48SOL     OW 1042   0.076   0.811   0.789
   48SOL    HW1 1043   0.175   0.799   0.798
   48SOL    HW2 1044   0.052   0.906   0.810
   49SOL     OW 1045   0.130   1.821   1.571
   49SOL    HW1 1046   0.120   1.806   1.670
   49SOL    HW2 1047   0.044   1.857   1.535
   50SOL     OW 1048   0.865   0.348   0.195
   50SOL    HW1 1049   0.924   0.411   0.146
   50SOL    HW2 1050   0.884   0.254   0.166
   51SOL     OW 1051   1.719   0.585   1.831
   51SOL    HW1 1052   1.693   0.674   1.795
   51SOL    HW2 1053   1.717   0.517   1.758
   52SOL     OW 1054   1.362   1.144   0.545
   52SOL    HW1 1055   1.445   1.115   0.497
   52SOL    HW2 1056   1.313   1.211   0.489
   53SOL     OW 1057   0.550   0.196   0.885
   53SOL    HW1 1058   0.545   0.191   0.985
   53SOL    HW2 1059   0.552   0.292   0.856
   54SOL     OW 1060   1.008   1.456   0.477
   54SOL    HW1 1061   0.962   1.528   0.425
   54SOL    HW2 1062   1.004   1.476   0.575
   55SOL     OW 1063   0.351   1.801   0.853
   55SOL    HW1 1064   0.401   1.715   0.859
   55SOL    HW2 1065   0.416   1.878   0.850
   56SOL     OW 1066   1.795   1.066   0.873
   56SOL    HW1 1067   1.733   1.051   0.797
   56SOL    HW2 1068   1.743   1.077   0.958
   57SOL     OW 1069   1.227   1.550   1.506
   57SOL    HW1 1070   1.233   1.473   1.570
   57SOL    HW2 1071   1.175   1.524   1.426
   58SOL     OW 1072   0.321   0.943   0.242
   58SOL    HW1 1073   0.403   0.982   0.200
   58SOL    HW2 1074   0.294   0.861   0.193
   59SOL     OW 1075   1.458   0.735   0.728
   59SOL    HW1 1076   1.453   0.670   0.803
   59SOL    HW2 1077   1.538   0.794   0.741
   60SOL     OW 1078   0.461   1.266   1.727
   60SOL    HW1 1079   0.411   1.267   1.641
   60SOL    HW2 1080   0.398   1.248   1.803
   61SOL     OW 1081   1.111   1.776   0.237
   61SOL    HW1 1082   1.051   1.714   0.287
   61SOL    HW2 1083   1.142   1.732   0.152
   62SOL     OW 1084   0.202   0.285   1.498
   62SOL    HW1 1085   0.122   0.345   1.485
   62SOL    HW2 1086   0.192   0.236   1.584
   63SOL     OW 1087   1.632   1.377   0.081
   63SOL    HW1 1088   1.600   1.471   0.071
   63SOL    HW2 1089   1.556   1.314   0.069
   64SOL     OW 1090   0.464   1.743   0.323
   64SOL    HW1 1091   0.497   1.782   0.409
   64SOL    HW2 1092   0.540   1.736   0.258
   65SOL     OW 1093   1.400   0.107   0.426
   65SOL    HW1 1094   1.376   0.070   0.336
   65SOL    HW2 1095   1.499   0.123   0.430
   66SOL     OW 1096   0.249   1.785   1.241
   66SOL    HW1 1097   0.306   1.720   1.291
   66SOL    HW2 1098   0.233   1.752   1.148
   67SOL     OW 1099   0.940   1.698   0.904
   67SOL    HW1 1100   1.020   1.641   0.925
   67SOL    HW2 1101   0.891   1.658   0.827
   68SOL     OW 1102   0.382   0.700   0.480
   68SOL    HW1 1103   0.427   0.610   0.477
   68SOL    HW2 1104   0.288   0.689   0.513
   69SOL     OW 1105   1.547   0.222   1.729
   69SOL    HW1 1106   1.542   0.259   1.821
   69SOL    HW2 1107   1.475   0.153   1.717
   70SOL     OW 1108   0.614   0.122   0.117
   70SOL    HW1 1109   0.712   0.100   0.124
   70SOL    HW2 1110   0.583   0.105   0.024
   71SOL     OW 1111   0.781   0.264   1.749
   71SOL    HW1 1112   0.848   0.203   1.792
   71SOL    HW2 1113   0.708   0.283   1.814
   72SOL     OW 1114   0.888   1.514   1.195
   72SOL    HW1 1115   0.865   1.489   1.101
   72SOL    HW2 1116   0.949   1.445   1.234
   73SOL     OW 1117   1.351   0.590   1.433
   73SOL    HW1 1118   1.379   0.547   1.518
   73SOL    HW2 1119   1.376   0.686   1.434
   74SOL     OW 1120   0.803   1.402   0.924
   74SOL    HW1 1121   0.893   1.416   0.882
   74SOL    HW2 1122   0.732   1.404   0.853
   75SOL     OW 1123   0.922   0.503   0.899
   75SOL    HW1 1124   0.897   0.494   0.803
   75SOL    HW2 1125   0.970   0.421   0.930
   76SOL     OW 1126   0.539   0.064   0.512
   76SOL    HW1 1127   0.458   0.065   0.570
   76SOL    HW2 1128   0.542   0.147   0.457
   77SOL     OW 1129   1.434   1.188   0.041
   77SOL    HW1 1130   1.466   1.112   0.098
   77SOL    HW2 1131   1.342   1.215   0.071
   78SOL     OW 1132   0.297   0.035   0.171
   78SOL    HW1 1133   0.346   0.119   0.150
   78SOL    HW2 1134   0.359  -0.030   0.216
   79SOL     OW 1135   0.935   0.236   0.480
   79SOL    HW1 1136   0.887   0.277   0.402
   79SOL    HW2 1137   1.034   0.234   0.461
   80SOL     OW 1138   1.076   0.683   1.464
   80SOL    HW1 1139   0.996   0.622   1.467
   80SOL    HW2 1140   1.157   0.630   1.440
   81SOL     OW 1141   1.227   1.570   0.793
   81SOL    HW1 1142   1.248   1.644   0.728
   81SOL    HW2 1143   1.295   1.570   0.866
   82SOL     OW 1144   0.459   1.152   0.741
   82SOL    HW1 1145   0.388   1.125   0.806
   82SOL    HW2 1146   0.433   1.124   0.648
   83SOL     OW 1147   1.271   1.797   0.591
   83SOL    HW1 1148   1.315   1.861   0.527
   83SOL    HW2 1149   1.221   1.849   0.661
   84SOL     OW 1150   1.032   0.549   0.016
   84SOL    HW1 1151   0.991   0.631  -0.023
   84SOL    HW2 1152   1.096   0.575   0.089
   85SOL     OW 1153   0.078   0.556   1.386
   85SOL    HW1 1154   0.170   0.555   1.345
   85SOL    HW2 1155   0.072   0.630   1.453
   86SOL     OW 1156   0.561   0.222   1.147
   86SOL    HW1 1157   0.599   0.138   1.184
   86SOL    HW2 1158   0.473   0.241   1.191
   87SOL     OW 1159   0.866   0.454   0.642
   87SOL    HW1 1160   0.834   0.526   0.580
   87SOL    HW2 1161   0.890   0.373   0.589
   88SOL     OW 1162   1.017   0.039   0.753
   88SOL    HW1 1163   0.945   0.044   0.684
   88SOL    HW2 1164   0.993  -0.030   0.822
   89SOL     OW 1165   1.429   1.173   0.867
   89SOL    HW1 1166   1.374   1.089   0.860
   89SOL    HW2 1167   1.455   1.202   0.775
   90SOL     OW 1168   1.466   0.590   0.992
   90SOL    HW1 1169   1.436   0.495   0.999
   90SOL    HW2 1170   1.539   0.606   1.058
   91SOL     OW 1171   1.857   0.833   0.377
   91SOL    HW1 1172   1.899   0.769   0.441
   91SOL    HW2 1173   1.819   0.782   0.299
   92SOL     OW 1174   0.488   1.385   0.174
   92SOL    HW1 1175   0.401   1.370   0.221
   92SOL    HW2 1176   0.471   1.411   0.079
   93SOL     OW 1177   1.664   1.280   0.657
   93SOL    HW1 1178   1.763   1.288   0.671
   93SOL    HW2 1179   1.619   1.364   0.688
   94SOL     OW 1180   1.390   0.575   0.078
   94SOL    HW1 1181   1.336   0.554   0.159
   94SOL    HW2 1182   1.481   0.534   0.087
   95SOL     OW 1183   0.527   0.256   0.328
   95SOL    HW1 1184   0.554   0.197   0.253
   95SOL    HW2 1185   0.527   0.351   0.297
   96SOL     OW 1186   1.754   1.223   1.588
   96SOL    HW1 1187   1.845   1.184   1.575
   96SOL    HW2 1188   1.762   1.319   1.612
   97SOL     OW 1189   1.064   1.347   1.340
   97SOL    HW1 1190   0.984   1.324   1.395
   97SOL    HW2 1191   1.147   1.321   1.389
   98SOL     OW 1192   1.592   1.629   1.625
   98SOL    HW1 1193   1.619   1.663   1.535
   98SOL    HW2 1194   1.671   1.591   1.671
   99SOL     OW 1195   1.111   1.195   1.100
   99SOL    HW1 1196   1.071   1.239   1.181
   99SOL    HW2 1197   1.070   1.232   1.017
  100SOL     OW 1198   1.638   1.099   1.079
  100SOL    HW1 1199   1.643   1.180   1.138
  100SOL    HW2 1200   1.552   1.101   1.028
  101SOL     OW 1201   0.915   0.089   1.402
  101SOL    HW1 1202   0.940   0.069   1.307
  101SOL    HW2 1203   0.987   0.145   1.444
  102SOL     OW 1204   0.980   1.116   1.719
  102SOL    HW1 1205   0.881   1.122   1.729
  102SOL    HW2 1206   1.003   1.036   1.663
  103SOL     OW 1207   0.705   1.050   0.368
  103SOL    HW1 1208   0.691   1.057   0.467
  103SOL    HW2 1209   0.789   0.999   0.350
  104SOL     OW 1210   0.410   0.813   1.251
  104SOL    HW1 1211   0.496   0.825   1.301
  104SOL    HW2 1212   0.368   0.726   1.278
  105SOL     OW 1213   1.274   0.386   1.262
  105SOL    HW1 1214   1.295   0.460   1.326
  105SOL    HW2 1215   1.185   0.403   1.219
  106SOL     OW 1216   0.064   1.564   1.331
  106SOL    HW1 1217   0.018   1.646   1.297
  106SOL    HW2 1218   0.162   1.583   1.340
  107SOL     OW 1219   0.367   1.100   0.501
  107SOL    HW1 1220   0.360   1.183   0.445
  107SOL    HW2 1221   0.371   1.020   0.441
  108SOL     OW 1222   0.566   0.537   0.865
  108SOL    HW1 1223   0.578   0.603   0.791
  108SOL    HW2 1224   0.612   0.571   0.948
  109SOL     OW 1225   1.252   1.348   0.388
  109SOL    HW1 1226   1.302   1.425   0.428
  109SOL    HW2 1227   1.157   1.350   0.420
  110SOL     OW 1228   1.272   1.445   1.142
  110SOL    HW1 1229   1.319   1.458   1.229
  110SOL    HW2 1230   1.206   1.371   1.151
  111SOL     OW 1231   1.582   0.639   0.472
  111SOL    HW1 1232   1.551   0.700   0.545
  111SOL    HW2 1233   1.632   0.691   0.403
  112SOL     OW 1234   0.354   1.510   1.329
  112SOL    HW1 1235   0.333   1.466   1.242
  112SOL    HW2 1236   0.451   1.536   1.332
  113SOL     OW 1237   0.402   0.751   1.598
  113SOL    HW1 1238   0.470   0.806   1.551
  113SOL    HW2 1239   0.442   0.663   1.625
  114SOL     OW 1240   1.587   0.779   1.670
  114SOL    HW1 1241   1.495   0.817   1.665
  114SOL    HW2 1242   1.647   0.826   1.605
  115SOL     OW 1243   1.013   0.105   1.770
  115SOL    HW1 1244   1.019   0.190   1.718
  115SOL    HW2 1245   1.045   0.029   1.713
  116SOL     OW 1246   0.504   0.050   1.740
  116SOL    HW1 1247   0.462  -0.007   1.670
  116SOL    HW2 1248   0.438   0.119   1.772
  117SOL     OW 1249   0.573   0.870   1.029
  117SOL    HW1 1250   0.617   0.959   1.020
  117SOL    HW2 1251   0.510   0.870   1.106
  118SOL     OW 1252   1.360   0.862   1.045
  118SOL    HW1 1253   1.285   0.862   0.979
  118SOL    HW2 1254   1.397   0.770   1.054
  119SOL     OW 1255   1.209   0.525   0.275
  119SOL    HW1 1256   1.222   0.441   0.329
  119SOL    HW2 1257   1.180   0.599   0.335
  120SOL     OW 1258   0.307   0.213   1.231
  120SOL    HW1 1259   0.284   0.250   1.321
  120SOL    HW2 1260   0.277   0.118   1.225
  121SOL     OW 1261   0.037   1.310   1.282
  121SOL    HW1 1262   0.090   1.261   1.350
  121SOL    HW2 1263   0.059   1.408   1.287
  122SOL     OW 1264   0.732   0.634   1.064
  122SOL    HW1 1265   0.791   0.608   0.988
  122SOL    HW2 1266   0.704   0.730   1.053
  123SOL     OW 1267   1.728   0.935   1.854
  123SOL    HW1 1268   1.682   0.928   1.765
  123SOL    HW2 1269   1.666   0.979   1.920
  124SOL     OW 1270   0.307   0.063   0.618
  124SOL    HW1 1271   0.296   0.157   0.651
  124SOL    HW2 1272   0.302   0.000   0.695
  125SOL     OW 1273   1.622   0.367   0.374
  125SOL    HW1 1274   1.624   0.291   0.438
  125SOL    HW2 1275   1.574   0.444   0.414
  126SOL     OW 1276   1.023   0.766   0.966
  126SOL    HW1 1277   1.038   0.787   1.062
  126SOL    HW2 1278   0.993   0.671   0.957
  127SOL     OW 1279   0.980   1.573   1.700
  127SOL    HW1 1280   0.960   1.617   1.612
  127SOL    HW2 1281   1.019   1.482   1.684
  128SOL     OW 1282   1.859   1.518   1.605
  128SOL    HW1 1283   1.873   1.545   1.510
  128SOL    HW2 1284   1.942   1.540   1.658
  129SOL     OW 1285   0.350   0.898   1.804
  129SOL    HW1 1286   0.426   0.942   1.852
  129SOL    HW2 1287   0.385   0.851   1.722
  130SOL     OW 1288   1.540   0.274   0.125
  130SOL    HW1 1289   1.479   0.199   0.148
  130SOL    HW2 1290   1.562   0.326   0.208
  131SOL     OW 1291   1.303   0.838   0.042
  131SOL    HW1 1292   1.337   0.745   0.057
  131SOL    HW2 1293   1.321   0.865  -0.053
  132SOL     OW 1294   1.068   1.333   0.849
  132SOL    HW1 1295   1.075   1.249   0.794
  132SOL    HW2 1296   1.130   1.402   0.813
  133SOL     OW 1297   0.319   0.810   0.949
  133SOL    HW1 1298   0.412   0.846   0.954
  133SOL    HW2 1299   0.313   0.725   1.001
  134SOL     OW 1300   0.339   0.509   1.006
  134SOL    HW1 1301   0.287   0.426   0.989
  134SOL    HW2 1302   0.416   0.514   0.942
  135SOL     OW 1303   1.138   0.380   1.678
  135SOL    HW1 1304   1.093   0.443   1.742
  135SOL    HW2 1305   1.231   0.411   1.661
  136SOL     OW 1306   1.160   0.207   1.477
  136SOL    HW1 1307   1.160   0.271   1.554
  136SOL    HW2 1308   1.188   0.255   1.394
  137SOL     OW 1309   0.008   1.326   0.200
  137SOL    HW1 1310  -0.085   1.347   0.169
  137SOL    HW2 1311   0.018   1.227   0.213
  138SOL     OW 1312   0.088   1.801   0.927
  138SOL    HW1 1313   0.046   1.715   0.900
  138SOL    HW2 1314   0.182   1.804   0.893
  139SOL     OW 1315   0.504   1.568   0.910
  139SOL    HW1 1316   0.570   1.642   0.919
  139SOL    HW2 1317   0.548   1.489   0.868
  140SOL     OW 1318   1.002   0.796   1.238
  140SOL    HW1 1319   1.043   0.764   1.324
  140SOL    HW2 1320   0.906   0.769   1.235
  141SOL     OW 1321   0.040   0.544   1.114
  141SOL    HW1 1322   0.125   0.511   1.073
  141SOL    HW2 1323   0.053   0.559   1.212
  142SOL     OW 1324   0.189   0.520   1.722
  142SOL    HW1 1325   0.248   0.480   1.652
  142SOL    HW2 1326   0.131   0.591   1.681
  143SOL     OW 1327   1.369   0.950   1.660
  143SOL    HW1 1328   1.408   1.039   1.680
  143SOL    HW2 1329   1.379   0.930   1.563
  144SOL     OW 1330   0.815   0.572   0.325
  144SOL    HW1 1331   0.822   0.483   0.279
  144SOL    HW2 1332   0.721   0.606   0.317
  145SOL     OW 1333   1.657   0.604   1.206
  145SOL    HW1 1334   1.619   0.535   1.268
  145SOL    HW2 1335   1.739   0.568   1.162
  146SOL     OW 1336   0.252   1.564   1.744
  146SOL    HW1 1337   0.222   1.621   1.820
  146SOL    HW2 1338   0.245   1.467   1.770
  147SOL     OW 1339   0.671   0.464   1.269
  147SOL    HW1 1340   0.637   0.375   1.239
  147SOL    HW2 1341   0.697   0.518   1.189
  148SOL     OW 1342   0.930   1.678   1.465
  148SOL    HW1 1343   0.906   1.660   1.370
  148SOL    HW2 1344   0.960   1.772   1.475
  149SOL     OW 1345   0.473   0.500   0.191
  149SOL    HW1 1346   0.534   0.580   0.195
  149SOL    HW2 1347   0.378   0.531   0.198
  150SOL     OW 1348   0.159   1.137   1.466
  150SOL    HW1 1349   0.181   1.076   1.542
  150SOL    HW2 1350   0.169   1.088   1.380
  151SOL     OW 1351   1.347   1.059   1.234
  151SOL    HW1 1352   1.371   0.996   1.160
  151SOL    HW2 1353   1.257   1.099   1.216
  152SOL     OW 1354   1.302   0.855   0.309
  152SOL    HW1 1355   1.216   0.824   0.351
  152SOL    HW2 1356   1.298   0.841   0.210
  153SOL     OW 1357   1.759   1.747   1.154
  153SOL    HW1 1358   1.820   1.777   1.081
  153SOL    HW2 1359   1.721   1.658   1.132
  154SOL     OW 1360   1.252   1.731   1.128
  154SOL    HW1 1361   1.336   1.736   1.074
  154SOL    HW2 1362   1.229   1.635   1.146
  155SOL     OW 1363   0.083   1.258   1.022
  155SOL    HW1 1364   0.078   1.257   1.122
  155SOL    HW2 1365   0.000   1.217   0.984
  156SOL     OW 1366   0.688   1.662   1.716
  156SOL    HW1 1367   0.632   1.743   1.725
  156SOL    HW2 1368   0.740   1.666   1.630
  157SOL     OW 1369   0.903   0.086   0.133
  157SOL    HW1 1370   0.954   0.087   0.047
  157SOL    HW2 1371   0.959   0.044   0.204
  158SOL     OW 1372   1.726   0.135   0.523
  158SOL    HW1 1373   1.799   0.118   0.456
  158SOL    HW2 1374   1.695   0.048   0.561
  159SOL     OW 1375   1.388   1.573   0.477
  159SOL    HW1 1376   1.455   1.585   0.403
  159SOL    HW2 1377   1.348   1.662   0.500
  160SOL     OW 1378   0.130   1.794   1.851
  160SOL    HW1 1379   0.089   1.720   1.904
  160SOL    HW2 1380   0.194   1.845   1.909
  161SOL     OW 1381   1.280   0.927   0.672
  161SOL    HW1 1382   1.340   0.846   0.674
  161SOL    HW2 1383   1.320   0.996   0.612
  162SOL     OW 1384   0.830   1.273   1.422
  162SOL    HW1 1385   0.825   1.306   1.517
  162SOL    HW2 1386   0.744   1.292   1.376
  163SOL     OW 1387   0.672   1.616   0.154
  163SOL    HW1 1388   0.681   1.626   0.055
  163SOL    HW2 1389   0.632   1.527   0.175
  164SOL     OW 1390   1.650   1.720   1.394
  164SOL    HW1 1391   1.703   1.730   1.310
  164SOL    HW2 1392   1.623   1.810   1.428
  165SOL     OW 1393   1.841   0.175   0.963
  165SOL    HW1 1394   1.880   0.090   0.927
  165SOL    HW2 1395   1.743   0.177   0.944
  166SOL     OW 1396   0.263   0.326   0.720
  166SOL    HW1 1397   0.184   0.377   0.686
  166SOL    HW2 1398   0.254   0.311   0.818
  167SOL     OW 1399   1.194   1.612   0.031
  167SOL    HW1 1400   1.200   1.519   0.068
  167SOL    HW2 1401   1.135   1.612  -0.049
  168SOL     OW 1402   0.822   1.002   1.372
  168SOL    HW1 1403   0.862   1.001   1.280
  168SOL    HW2 1404   0.832   1.094   1.412
  169SOL     OW 1405   0.916   0.910   0.291
  169SOL    HW1 1406   0.979   0.948   0.223
  169SOL    HW2 1407   0.956   0.827   0.330
  170SOL     OW 1408   1.504   1.607   0.044
  170SOL    HW1 1409   1.412   1.644   0.051
  170SOL    HW2 1410   1.542   1.627  -0.046
  171SOL     OW 1411   0.372   1.288   1.490
  171SOL    HW1 1412   0.359   1.381   1.456
  171SOL    HW2 1413   0.288   1.236   1.477
  172SOL     OW 1414   1.614   1.292   1.289
  172SOL    HW1 1415   1.674   1.295   1.369
  172SOL    HW2 1416   1.539   1.356   1.302
  173SOL     OW 1417   1.039   1.098   0.696
  173SOL    HW1 1418   0.969   1.051   0.750
  173SOL    HW2 1419   1.098   1.030   0.653
  174SOL     OW 1420   1.014   0.236   0.971
  174SOL    HW1 1421   1.006   0.200   0.878
  174SOL    HW2 1422   1.012   0.160   1.036
  175SOL     OW 1423   0.590   1.487   0.491
  175SOL    HW1 1424   0.632   1.429   0.421
  175SOL    HW2 1425   0.546   1.566   0.447
  176SOL     OW 1426   1.709   0.385   1.381
  176SOL    HW1 1427   1.782   0.454   1.385
  176SOL    HW2 1428   1.737   0.310   1.322
  177SOL     OW 1429   0.255   1.348   0.290
  177SOL    HW1 1430   0.159   1.349   0.263
  177SOL    HW2 1431   0.267   1.401   0.374
  178SOL     OW 1432   0.105   1.013   1.726
  178SOL    HW1 1433   0.028   0.980   1.780
  178SOL    HW2 1434   0.190   0.983   1.768
  179SOL     OW 1435   0.672   0.203   1.489
  179SOL    HW1 1436   0.762   0.187   1.449
  179SOL    HW2 1437   0.680   0.208   1.588
  180SOL     OW 1438   0.075   0.345   0.033
  180SOL    HW1 1439  -0.017   0.317   0.004
  180SOL    HW2 1440   0.106   0.422  -0.023
  181SOL     OW 1441   1.440   0.856   1.398
  181SOL    HW1 1442   1.383   0.908   1.335
  181SOL    HW2 1443   1.536   0.868   1.374
  182SOL     OW 1444   0.072   0.166   0.318
  182SOL    HW1 1445   0.055   0.249   0.264
  182SOL    HW2 1446   0.162   0.129   0.296
  183SOL     OW 1447   1.183   1.335   0.119
  183SOL    HW1 1448   1.084   1.324   0.121
  183SOL    HW2 1449   1.217   1.350   0.212
  184SOL     OW 1450   0.613   0.842   1.431
  184SOL    HW1 1451   0.669   0.923   1.414
  184SOL    HW2 1452   0.672   0.762   1.434
  185SOL     OW 1453   1.493   1.767   0.959
  185SOL    HW1 1454   1.526   1.831   0.890
  185SOL    HW2 1455   1.559   1.761   1.034
  186SOL     OW 1456   0.716   0.565   1.708
  186SOL    HW1 1457   0.735   0.630   1.782
  186SOL    HW2 1458   0.776   0.485   1.717
  187SOL     OW 1459   1.450   1.220   1.633
  187SOL    HW1 1460   1.441   1.210   1.732
  187SOL    HW2 1461   1.546   1.213   1.607
  188SOL     OW 1462   0.390   1.741   1.560
  188SOL    HW1 1463   0.299   1.782   1.558
  188SOL    HW2 1464   0.383   1.647   1.592
  189SOL     OW 1465   1.674   0.883   1.254
  189SOL    HW1 1466   1.647   0.794   1.217
  189SOL    HW2 1467   1.675   0.951   1.181
  190SOL     OW 1468   1.225   0.325   0.449
  190SOL    HW1 1469   1.290   0.251   0.438
  190SOL    HW2 1470   1.245   0.375   0.533
  191SOL     OW 1471   0.594   0.745   0.652
  191SOL    HW1 1472   0.644   0.830   0.633
  191SOL    HW2 1473   0.506   0.747   0.604
  192SOL     OW 1474   1.777   0.342   1.642
  192SOL    HW1 1475   1.760   0.373   1.548
  192SOL    HW2 1476   1.693   0.305   1.680
  193SOL     OW 1477   1.730   0.934   1.517
  193SOL    HW1 1478   1.768   1.025   1.532
  193SOL    HW2 1479   1.722   0.917   1.418
  194SOL     OW 1480   0.859   1.374   0.016
  194SOL    HW1 1481   0.813   1.389   0.104
  194SOL    HW2 1482   0.903   1.459  -0.014
  195SOL     OW 1483   0.661   1.790   0.953
  195SOL    HW1 1484   0.615   1.878   0.940
  195SOL    HW2 1485   0.760   1.802   0.946
  196SOL     OW 1486   0.859   0.956   0.861
  196SOL    HW1 1487   0.913   0.887   0.909
  196SOL    HW2 1488   0.827   1.025   0.927
  197SOL     OW 1489   1.083   0.984   0.087
  197SOL    HW1 1490   1.060   1.037   0.005
  197SOL    HW2 1491   1.164   0.928   0.068
  198SOL     OW 1492   1.861   1.569   0.851
  198SOL    HW1 1493   1.790   1.557   0.781
  198SOL    HW2 1494   1.862   1.490   0.911
  199SOL     OW 1495   0.221   1.314   1.844
  199SOL    HW1 1496   0.156   1.241   1.823
  199SOL    HW2 1497   0.225   1.328   1.942
  200SOL     OW 1498   0.079   1.240   0.653
  200SOL    HW1 1499   0.078   1.193   0.741
  200SOL    HW2 1500   0.161   1.212   0.602
  201SOL     OW 1501   0.672   1.391   1.624
  201SOL    HW1 1502   0.594   1.341   1.662
  201SOL    HW2 1503   0.669   1.486   1.655
  202SOL     OW 1504   1.824   0.192   1.227
  202SOL    HW1 1505   1.820   0.102   1.271
  202SOL    HW2 1506   1.827   0.181   1.128
  203SOL     OW 1507   0.428   0.424   0.520
  203SOL    HW1 1508   0.458   0.352   0.458
  203SOL    HW2 1509   0.389   0.384   0.603
  204SOL     OW 1510   1.705   1.487   1.104
  204SOL    HW1 1511   1.612   1.462   1.077
  204SOL    HW2 1512   1.731   1.437   1.186
  205SOL     OW 1513   0.317   0.547   1.280
  205SOL    HW1 1514   0.355   0.488   1.352
  205SOL    HW2 1515   0.357   0.521   1.192
  206SOL     OW 1516   0.812   1.586   0.687
  206SOL    HW1 1517   0.844   1.596   0.593
  206SOL    HW2 1518   0.733   1.524   0.689
  207SOL     OW 1519   1.424   0.214   1.112
  207SOL    HW1 1520   1.476   0.149   1.167
  207SOL    HW2 1521   1.375   0.277   1.173
  208SOL     OW 1522   1.001   0.034   1.154
  208SOL    HW1 1523   0.938  -0.038   1.123
  208SOL    HW2 1524   1.094  -0.002   1.154
  209SOL     OW 1525   0.770   1.330   0.301
  209SOL    HW1 1526   0.724   1.243   0.318
  209SOL    HW2 1527   0.861   1.327   0.342
  210SOL     OW 1528   0.618   1.567   1.284
  210SOL    HW1 1529   0.613   1.649   1.341
  210SOL    HW2 1530   0.707   1.564   1.239
  211SOL     OW 1531   1.352   0.052   0.168
  211SOL    HW1 1532   1.387   0.011   0.084
  211SOL    HW2 1533   1.262   0.014   0.188
  212SOL     OW 1534   1.300   0.453   0.691
  212SOL    HW1 1535   1.241   0.533   0.695
  212SOL    HW2 1536   1.315   0.418   0.784
  213SOL     OW 1537   1.593   0.221   0.882
  213SOL    HW1 1538   1.509   0.220   0.936
  213SOL    HW2 1539   1.595   0.304   0.826
  214SOL     OW 1540   0.039   1.077   0.300
  214SOL    HW1 1541   0.138   1.066   0.291
  214SOL    HW2 1542  -0.001   0.991   0.332
  215SOL     OW 1543   0.875   1.646   0.337
  215SOL    HW1 1544   0.798   1.611   0.283
  215SOL    HW2 1545   0.843   1.717   0.399
  216SOL     OW 1546   0.230   0.628   1.975
  216SOL    HW1 1547   0.137   0.626   2.012
  216SOL    HW2 1548   0.231   0.589   1.883
  217SOL     OW 1549   0.225   0.275   2.858
  217SOL    HW1 1550   0.260   0.258   2.950
  217SOL    HW2 1551   0.137   0.230   2.846
  218SOL     OW 1552   0.019   0.368   2.509
  218SOL    HW1 1553  -0.063   0.411   2.548
  218SOL    HW2 1554  -0.009   0.295   2.446
  219SOL     OW 1555   0.569   1.275   3.027
  219SOL    HW1 1556   0.476   1.268   2.990
  219SOL    HW2 1557   0.580   1.364   3.071
  220SOL     OW 1558   1.555   1.511   2.565
  220SOL    HW1 1559   1.498   1.495   2.646
  220SOL    HW2 1560   1.496   1.521   2.485
  221SOL     OW 1561   1.135   0.703   2.579
  221SOL    HW1 1562   1.192   0.781   2.554
  221SOL    HW2 1563   1.075   0.729   2.655
  222SOL     OW 1564   1.755   0.607   2.093
  222SOL    HW1 1565   1.743   0.594   1.994
  222SOL    HW2 1566   1.725   0.526   2.142
  223SOL     OW 1567   0.768   1.144   2.885
  223SOL    HW1 1568   0.690   1.161   2.945
  223SOL    HW2 1569   0.802   1.231   2.849
  224SOL     OW 1570   0.850   0.798   3.685
  224SOL    HW1 1571   0.846   0.874   3.750
  224SOL    HW2 1572   0.872   0.834   3.594
  225SOL     OW 1573   0.685   1.012   2.527
  225SOL    HW1 1574   0.754   0.996   2.597
  225SOL    HW2 1575   0.612   1.069   2.565
  226SOL     OW 1576   0.686   1.161   3.665
  226SOL    HW1 1577   0.746   1.240   3.679
  226SOL    HW2 1578   0.600   1.192   3.624
  227SOL     OW 1579   0.335   1.435   2.923
  227SOL    HW1 1580   0.257   1.404   2.870
  227SOL    HW2 1581   0.393   1.493   2.866
  228SOL     OW 1582   1.460   1.505   3.201
  228SOL    HW1 1583   1.484   1.599   3.227
  228SOL    HW2 1584   1.444   1.451   3.283
  229SOL     OW 1585   0.438   0.392   3.361
  229SOL    HW1 1586   0.520   0.336   3.370
  229SOL    HW2 1587   0.357   0.334   3.365
  230SOL     OW 1588   1.603   0.447   2.599
  230SOL    HW1 1589   1.529   0.493   2.549
  230SOL    HW2 1590   1.654   0.515   2.652
  231SOL     OW 1591   0.231   1.713   2.345
  231SOL    HW1 1592   0.265   1.790   2.399
  231SOL    HW2 1593   0.275   1.713   2.255
  232SOL     OW 1594   1.127   1.341   3.552
  232SOL    HW1 1595   1.174   1.341   3.640
  232SOL    HW2 1596   1.079   1.254   3.541
  233SOL     OW 1597   0.230   1.434   2.400
  233SOL    HW1 1598   0.204   1.530   2.400
  233SOL    HW2 1599   0.159   1.380   2.445
  234SOL     OW 1600   0.240   1.091   2.748
  234SOL    HW1 1601   0.254   1.007   2.800
  234SOL    HW2 1602   0.185   1.155   2.803
  235SOL     OW 1603   0.620   1.786   3.301
  235SOL    HW1 1604   0.528   1.769   3.336
  235SOL    HW2 1605   0.648   1.878   3.327
  236SOL     OW 1606   0.606   0.964   1.985
  236SOL    HW1 1607   0.613   1.048   1.931
  236SOL    HW2 1608   0.652   0.977   2.073
  237SOL     OW 1609   1.594   0.114   3.342
  237SOL    HW1 1610   1.576   0.181   3.270
  237SOL    HW2 1611   1.591   0.160   3.431
  238SOL     OW 1612   0.122   0.643   2.425
  238SOL    HW1 1613   0.077   0.555   2.442
  238SOL    HW2 1614   0.121   0.697   2.509
  239SOL     OW 1615   1.842   1.767   2.221
  239SOL    HW1 1616   1.896   1.738   2.301
  239SOL    HW2 1617   1.872   1.857   2.192
  240SOL     OW 1618   0.027   1.596   1.979
  240SOL    HW1 1619   0.008   1.500   2.000
  240SOL    HW2 1620  -0.006   1.654   2.054
  241SOL     OW 1621   1.689   0.922   2.474
  241SOL    HW1 1622   1.784   0.893   2.482
  241SOL    HW2 1623   1.681   0.987   2.399
  242SOL     OW 1624   1.641   1.108   2.294
  242SOL    HW1 1625   1.727   1.110   2.242
  242SOL    HW2 1626   1.655   1.155   2.382
  243SOL     OW 1627   0.113   0.737   3.459
  243SOL    HW1 1628   0.201   0.724   3.504
  243SOL    HW2 1629   0.100   0.834   3.437
  244SOL     OW 1630   0.613   1.365   2.588
  244SOL    HW1 1631   0.564   1.278   2.597
  244SOL    HW2 1632   0.590   1.408   2.501
  245SOL     OW 1633   1.293   1.228   3.285
  245SOL    HW1 1634   1.330   1.155   3.227
  245SOL    HW2 1635   1.345   1.233   3.370
  246SOL     OW 1636   0.809   0.004   2.364
  246SOL    HW1 1637   0.849   0.095   2.355
  246SOL    HW2 1638   0.709   0.012   2.370
  247SOL     OW 1639   0.197   0.976   3.126
  247SOL    HW1 1640   0.286   0.931   3.112
  247SOL    HW2 1641   0.124   0.911   3.107
  248SOL     OW 1642   1.525   0.999   2.052
  248SOL    HW1 1643   1.462   0.923   2.065
  248SOL    HW2 1644   1.573   1.017   2.138
  249SOL     OW 1645   1.187   1.792   3.478
  249SOL    HW1 1646   1.211   1.852   3.402
  249SOL    HW2 1647   1.194   1.697   3.448
  250SOL     OW 1648   0.317   0.251   3.663
  250SOL    HW1 1649   0.388   0.322   3.669
  250SOL    HW2 1650   0.229   0.290   3.691
  251SOL     OW 1651   1.466   1.417   2.815
  251SOL    HW1 1652   1.407   1.423   2.895
  251SOL    HW2 1653   1.451   1.329   2.769
  252SOL     OW 1654   1.667   1.714   2.434
  252SOL    HW1 1655   1.626   1.691   2.346
  252SOL    HW2 1656   1.649   1.640   2.499
  253SOL     OW 1657   0.598   0.729   2.132
  253SOL    HW1 1658   0.622   0.798   2.064
  253SOL    HW2 1659   0.520   0.762   2.186
  254SOL     OW 1660   1.281   0.345   2.806
  254SOL    HW1 1661   1.195   0.295   2.793
  254SOL    HW2 1662   1.343   0.291   2.862
  255SOL     OW 1663   1.576   1.662   2.169
  255SOL    HW1 1664   1.665   1.708   2.172
  255SOL    HW2 1665   1.555   1.638   2.074
  256SOL     OW 1666   0.807   0.605   3.327
  256SOL    HW1 1667   0.760   0.602   3.416
  256SOL    HW2 1668   0.756   0.550   3.261
  257SOL     OW 1669   1.394   0.469   3.536
  257SOL    HW1 1670   1.374   0.512   3.624
  257SOL    HW2 1671   1.472   0.407   3.545
  258SOL     OW 1672   0.973   0.890   3.434
  258SOL    HW1 1673   1.019   0.806   3.405
  258SOL    HW2 1674   0.917   0.924   3.359
  259SOL     OW 1675   0.991   0.410   3.104
  259SOL    HW1 1676   0.914   0.444   3.158
  259SOL    HW2 1677   0.957   0.359   3.025
  260SOL     OW 1678   1.041   0.701   2.291
  260SOL    HW1 1679   1.067   0.697   2.387
  260SOL    HW2 1680   0.956   0.650   2.277
  261SOL     OW 1681   0.076   0.811   2.651
  261SOL    HW1 1682   0.175   0.799   2.660
  261SOL    HW2 1683   0.052   0.906   2.672
  262SOL     OW 1684   0.130   1.821   3.433
  262SOL    HW1 1685   0.120   1.806   3.532
  262SOL    HW2 1686   0.044   1.857   3.397
  263SOL     OW 1687   0.865   0.348   2.057
  263SOL    HW1 1688   0.924   0.411   2.008
  263SOL    HW2 1689   0.884   0.254   2.028
  264SOL     OW 1690   1.719   0.585   3.693
  264SOL    HW1 1691   1.693   0.674   3.657
  264SOL    HW2 1692   1.717   0.517   3.620
  265SOL     OW 1693   1.362   1.144   2.407
  265SOL    HW1 1694   1.445   1.115   2.359
  265SOL    HW2 1695   1.313   1.211   2.351
  266SOL     OW 1696   0.550   0.196   2.747
  266SOL    HW1 1697   0.545   0.191   2.847
  266SOL    HW2 1698   0.552   0.292   2.718
  267SOL     OW 1699   1.008   1.456   2.339
  267SOL    HW1 1700   0.962   1.528   2.287
  267SOL    HW2 1701   1.004   1.476   2.437
  268SOL     OW 1702   0.351   1.801   2.715
  268SOL    HW1 1703   0.401   1.715   2.721
  268SOL    HW2 1704   0.416   1.878   2.712
  269SOL     OW 1705   1.795   1.066   2.735
  269SOL    HW1 1706   1.733   1.051   2.659
  269SOL    HW2 1707   1.743   1.077   2.820
  270SOL     OW 1708   1.227   1.550   3.368
  270SOL    HW1 1709   1.233   1.473   3.432
  270SOL    HW2 1710   1.175   1.524   3.288
  271SOL     OW 1711   0.321   0.943   2.104
  271SOL    HW1 1712   0.403   0.982   2.062
  271SOL    HW2 1713   0.294   0.861   2.055
  272SOL     OW 1714   1.458   0.735   2.590
  272SOL    HW1 1715   1.453   0.670   2.665
  272SOL    HW2 1716   1.538   0.794   2.603
  273SOL     OW 1717   0.461   1.266   3.589
  273SOL    HW1 1718   0.411   1.267   3.503
  273SOL    HW2 1719   0.398   1.248   3.665
  274SOL     OW 1720   1.111   1.776   2.099
  274SOL    HW1 1721   1.051   1.714   2.149
  274SOL    HW2 1722   1.142   1.732   2.014
  275SOL     OW 1723   0.202   0.285   3.360
  275SOL    HW1 1724   0.122   0.345   3.347
  275SOL    HW2 1725   0.192   0.236   3.446
  276SOL     OW 1726   1.632   1.377   1.943
  276SOL    HW1 1727   1.600   1.471   1.933
  276SOL    HW2 1728   1.556   1.314   1.931
  277SOL     OW 1729   0.464   1.743   2.185
  277SOL    HW1 1730   0.497   1.782   2.271
  277SOL    HW2 1731   0.540   1.736   2.120
  278SOL     OW 1732   1.400   0.107   2.288
  278SOL    HW1 1733   1.376   0.070   2.198
  278SOL    HW2 1734   1.499   0.123   2.292
  279SOL     OW 1735   0.249   1.785   3.103
  279SOL    HW1 1736   0.306   1.720   3.153
  279SOL    HW2 1737   0.233   1.752   3.010
  280SOL     OW 1738   0.940   1.698   2.766
  280SOL    HW1 1739   1.020   1.641   2.787
  280SOL    HW2 1740   0.891   1.658   2.689
  281SOL     OW 1741   0.382   0.700   2.342
  281SOL    HW1 1742   0.427   0.610   2.339
  281SOL    HW2 1743   0.288   0.689   2.375
  282SOL     OW 1744   1.547   0.222   3.591
  282SOL    HW1 1745   1.542   0.259   3.683
  282SOL    HW2 1746   1.475   0.153   3.579
  283SOL     OW 1747   0.614   0.122   1.979
  283SOL    HW1 1748   0.712   0.100   1.986
  283SOL    HW2 1749   0.583   0.105   1.886
  284SOL     OW 1750   0.781   0.264   3.611
  284SOL    HW1 1751   0.848   0.203   3.654
  284SOL    HW2 1752   0.708   0.283   3.676
  285SOL     OW 1753   0.888   1.514   3.057
  285SOL    HW1 1754   0.865   1.489   2.963
  285SOL    HW2 1755   0.949   1.445   3.096
  286SOL     OW 1756   1.351   0.590   3.295
  286SOL    HW1 1757   1.379   0.547   3.380
  286SOL    HW2 1758   1.376   0.686   3.296
  287SOL     OW 1759   0.803   1.402   2.786
  287SOL    HW1 1760   0.893   1.416   2.744
  287SOL    HW2 1761   0.732   1.404   2.715
  288SOL     OW 1762   0.922   0.503   2.761
  288SOL    HW1 1763   0.897   0.494   2.665
  288SOL    HW2 1764   0.970   0.421   2.792
  289SOL     OW 1765   0.539   0.064   2.374
  289SOL    HW1 1766   0.458   0.065   2.432
  289SOL    HW2 1767   0.542   0.147   2.319
  290SOL     OW 1768   1.434   1.188   1.903
  290SOL    HW1 1769   1.466   1.112   1.960
  290SOL    HW2 1770   1.342   1.215   1.933
  291SOL     OW 1771   0.297   0.035   2.033
  291SOL    HW1 1772   0.346   0.119   2.012
  291SOL    HW2 1773   0.359  -0.030   2.078
  292SOL     OW 1774   0.935   0.236   2.342
  292SOL    HW1 1775   0.887   0.277   2.264
  292SOL    HW2 1776   1.034   0.234   2.323
  293SOL     OW 1777   1.076   0.683   3.326
  293SOL    HW1 1778   0.996   0.622   3.329
  293SOL    HW2 1779   1.157   0.630   3.302
  294SOL     OW 1780   1.227   1.570   2.655
  294SOL    HW1 1781   1.248   1.644   2.590
  294SOL    HW2 1782   1.295   1.570   2.728
  295SOL     OW 1783   0.459   1.152   2.603
  295SOL    HW1 1784   0.388   1.125   2.668
  295SOL    HW2 1785   0.433   1.124   2.510
  296SOL     OW 1786   1.271   1.797   2.453
  296SOL    HW1 1787   1.315   1.861   2.389
  296SOL    HW2 1788   1.221   1.849   2.523
  297SOL     OW 1789   1.032   0.549   1.878
  297SOL    HW1 1790   0.991   0.631   1.839
  297SOL    HW2 1791   1.096   0.575   1.951
  298SOL     OW 1792   0.078   0.556   3.248
  298SOL    HW1 1793   0.170   0.555   3.207
  298SOL    HW2 1794   0.072   0.630   3.315
  299SOL     OW 1795   0.561   0.222   3.009
  299SOL    HW1 1796   0.599   0.138   3.046
  299SOL    HW2 1797   0.473   0.241   3.053
  300SOL     OW 1798   0.866   0.454   2.504
  300SOL    HW1 1799   0.834   0.526   2.442
  300SOL    HW2 1800   0.890   0.373   2.451
  301SOL     OW 1801   1.017   0.039   2.615
  301SOL    HW1 1802   0.945   0.044   2.546
  301SOL    HW2 1803   0.993  -0.030   2.684
  302SOL     OW 1804   1.429   1.173   2.729
  302SOL    HW1 1805   1.374   1.089   2.722
  302SOL    HW2 1806   1.455   1.202   2.637
  303SOL     OW 1807   1.466   0.590   2.854
  303SOL    HW1 1808   1.436   0.495   2.861
  303SOL    HW2 1809   1.539   0.606   2.920
  304SOL     OW 1810   1.857   0.833   2.239
  304SOL    HW1 1811   1.899   0.769   2.303
  304SOL    HW2 1812   1.819   0.782   2.161
  305SOL     OW 1813   0.488   1.385   2.036
  305SOL    HW1 1814   0.401   1.370   2.083
  305SOL    HW2 1815   0.471   1.411   1.941
  306SOL     OW 1816   1.664   1.280   2.519
  306SOL    HW1 1817   1.763   1.288   2.533
  306SOL    HW2 1818   1.619   1.364   2.550
  307SOL     OW 1819   1.390   0.575   1.940
  307SOL    HW1 1820   1.336   0.554   2.021
  307SOL    HW2 1821   1.481   0.534   1.949
  308SOL     OW 1822   0.527   0.256   2.190
  308SOL    HW1 1823   0.554   0.197   2.115
  308SOL    HW2 1824   0.527   0.351   2.159
  309SOL     OW 1825   1.754   1.223   3.450
  309SOL    HW1 1826   1.845   1.184   3.437
  309SOL    HW2 1827   1.762   1.319   3.474
  310SOL     OW 1828   1.064   1.347   3.202
  310SOL    HW1 1829   0.984   1.324   3.257
  310SOL    HW2 1830   1.147   1.321   3.251
  311SOL     OW 1831   1.592   1.629   3.487
  311SOL    HW1 1832   1.619   1.663   3.397
  311SOL    HW2 1833   1.671   1.591   3.533
  312SOL     OW 1834   1.111   1.195   2.962
  312SOL    HW1 1835   1.071   1.239   3.043
  312SOL    HW2 1836   1.070   1.232   2.879
  313SOL     OW 1837   1.638   1.099   2.941
  313SOL    HW1 1838   1.643   1.180   3.000
  313SOL    HW2 1839   1.552   1.101   2.890
  314SOL     OW 1840   0.915   0.089   3.264
  314SOL    HW1 1841   0.940   0.069   3.169
  314SOL    HW2 1842   0.987   0.145   3.306
  315SOL     OW 1843   0.980   1.116   3.581
  315SOL    HW1 1844   0.881   1.122   3.591
  315SOL    HW2 1845   1.003   1.036   3.525
  316SOL     OW 1846   0.705   1.050   2.230
  316SOL    HW1 1847   0.691   1.057   2.329
  316SOL    HW2 1848   0.789   0.999   2.212
  317SOL     OW 1849   0.410   0.813   3.113
  317SOL    HW1 1850   0.496   0.825   3.163
  317SOL    HW2 1851   0.368   0.726   3.140
  318SOL     OW 1852   1.274   0.386   3.124
  318SOL    HW1 1853   1.295   0.460   3.188
  318SOL    HW2 1854   1.185   0.403   3.081
  319SOL     OW 1855   0.064   1.564   3.193
  319SOL    HW1 1856   0.018   1.646   3.159
  319SOL    HW2 1857   0.162   1.583   3.202
  320SOL     OW 1858   0.367   1.100   2.363
  320SOL    HW1 1859   0.360   1.183   2.307
  320SOL    HW2 1860   0.371   1.020   2.303
  321SOL     OW 1861   0.566   0.537   2.727
  321SOL    HW1 1862   0.578   0.603   2.653
  321SOL    HW2 1863   0.612   0.571   2.810
  322SOL     OW 1864   1.252   1.348   2.250
  322SOL    HW1 1865   1.302   1.425   2.290
  322SOL    HW2 1866   1.157   1.350   2.282
  323SOL     OW 1867   1.272   1.445   3.004
  323SOL    HW1 1868   1.319   1.458   3.091
  323SOL    HW2 1869   1.206   1.371   3.013
  324SOL     OW 1870   1.582   0.639   2.334
  324SOL    HW1 1871   1.551   0.700   2.407
  324SOL    HW2 1872   1.632   0.691   2.265
  325SOL     OW 1873   0.354   1.510   3.191
  325SOL    HW1 1874   0.333   1.466   3.104
  325SOL    HW2 1875   0.451   1.536   3.194
  326SOL     OW 1876   0.402   0.751   3.460
  326SOL    HW1 1877   0.470   0.806   3.413
  326SOL    HW2 1878   0.442   0.663   3.487
  327SOL     OW 1879   1.587   0.779   3.532
  327SOL    HW1 1880   1.495   0.817   3.527
  327SOL    HW2 1881   1.647   0.826   3.467
  328SOL     OW 1882   1.013   0.105   3.632
  328SOL    HW1 1883   1.019   0.190   3.580
  328SOL    HW2 1884   1.045   0.029   3.575
  329SOL     OW 1885   0.504   0.050   3.602
  329SOL    HW1 1886   0.462  -0.007   3.532
  329SOL    HW2 1887   0.438   0.119   3.634
  330SOL     OW 1888   0.573   0.870   2.891
  330SOL    HW1 1889   0.617   0.959   2.882
  330SOL    HW2 1890   0.510   0.870   2.968
  331SOL     OW 1891   1.360   0.862   2.907
  331SOL    HW1 1892   1.285   0.862   2.841
  331SOL    HW2 1893   1.397   0.770   2.916
  332SOL     OW 1894   1.209   0.525   2.137
  332SOL    HW1 1895   1.222   0.441   2.191
  332SOL    HW2 1896   1.180   0.599   2.197
  333SOL     OW 1897   0.307   0.213   3.093
  333SOL    HW1 1898   0.284   0.250   3.183
  333SOL    HW2 1899   0.277   0.118   3.087
  334SOL     OW 1900   0.037   1.310   3.144
  334SOL    HW1 1901   0.090   1.261   3.212
  334SOL    HW2 1902   0.059   1.408   3.149
  335SOL     OW 1903   0.732   0.634   2.926
  335SOL    HW1 1904   0.791   0.608   2.850
  335SOL    HW2 1905   0.704   0.730   2.915
  336SOL     OW 1906   1.728   0.935   3.716
  336SOL    HW1 1907   1.682   0.928   3.627
  336SOL    HW2 1908   1.666   0.979   3.782
  337SOL     OW 1909   0.307   0.063   2.480
  337SOL    HW1 1910   0.296   0.157   2.513
  337SOL    HW2 1911   0.302   0.000   2.557
  338SOL     OW 1912   1.622   0.367   2.236
  338SOL    HW1 1913   1.624   0.291   2.300
  338SOL    HW2 1914   1.574   0.444   2.276
  339SOL     OW 1915   1.023   0.766   2.828
  339SOL    HW1 1916   1.038   0.787   2.924
  339SOL    HW2 1917   0.993   0.671   2.819
  340SOL     OW 1918   0.980   1.573   3.562
  340SOL    HW1 1919   0.960   1.617   3.474
  340SOL    HW2 1920   1.019   1.482   3.546
  341SOL     OW 1921   1.859   1.518   3.467
  341SOL    HW1 1922   1.873   1.545   3.372
  341SOL    HW2 1923   1.942   1.540   3.520
  342SOL     OW 1924   0.350   0.898   3.666
  342SOL    HW1 1925   0.426   0.942   3.714
  342SOL    HW2 1926   0.385   0.851   3.584
  343SOL     OW 1927   1.540   0.274   1.987
  343SOL    HW1 1928   1.479   0.199   2.010
  343SOL    HW2 1929   1.562   0.326   2.070
  344SOL     OW 1930   1.303   0.838   1.904
  344SOL    HW1 1931   1.337   0.745   1.919
  344SOL    HW2 1932   1.321   0.865   1.809
  345SOL     OW 1933   1.068   1.333   2.711
  345SOL    HW1 1934   1.075   1.249   2.656
  345SOL    HW2 1935   1.130   1.402   2.675
  346SOL     OW 1936   0.319   0.810   2.811
  346SOL    HW1 1937   0.412   0.846   2.816
  346SOL    HW2 1938   0.313   0.725   2.863
  347SOL     OW 1939   0.339   0.509   2.868
  347SOL    HW1 1940   0.287   0.426   2.851
  347SOL    HW2 1941   0.416   0.514   2.804
  348SOL     OW 1942   1.138   0.380   3.540
  348SOL    HW1 1943   1.093   0.443   3.604
  348SOL    HW2 1944   1.231   0.411   3.523
  349SOL     OW 1945   1.160   0.207   3.339
  349SOL    HW1 1946   1.160   0.271   3.416
  349SOL    HW2 1947   1.188   0.255   3.256
  350SOL     OW 1948   0.008   1.326   2.062
  350SOL    HW1 1949  -0.085   1.347   2.031
  350SOL    HW2 1950   0.018   1.227   2.075
  351SOL     OW 1951   0.088   1.801   2.789
  351SOL    HW1 1952   0.046   1.715   2.762
  351SOL    HW2 1953   0.182   1.804   2.755
  352SOL     OW 1954   0.504   1.568   2.772
  352SOL    HW1 1955   0.570   1.642   2.781
  352SOL    HW2 1956   0.548   1.489   2.730
  353SOL     OW 1957   1.002   0.796   3.100
  353SOL    HW1 1958   1.043   0.764   3.186
  353SOL    HW2 1959   0.906   0.769   3.097
  354SOL     OW 1960   0.040   0.544   2.976
  354SOL    HW1 1961   0.125   0.511   2.935
  354SOL    HW2 1962   0.053   0.559   3.074
  355SOL     OW 1963   0.189   0.520   3.584
  355SOL    HW1 1964   0.248   0.480   3.514
  355SOL    HW2 1965   0.131   0.591   3.543
  356SOL     OW 1966   1.369   0.950   3.522
  356SOL    HW1 1967   1.408   1.039   3.542
  356SOL    HW2 1968   1.379   0.930   3.425
  357SOL     OW 1969   0.815   0.572   2.187
  357SOL    HW1 1970   0.822   0.483   2.141
  357SOL    HW2 1971   0.721   0.606   2.179
  358SOL     OW 1972   1.657   0.604   3.068
  358SOL    HW1 1973   1.619   0.535   3.130
  358SOL    HW2 1974   1.739   0.568   3.024
  359SOL     OW 1975   0.252   1.564   3.606
  359SOL    HW1 1976   0.222   1.621   3.682
  359SOL    HW2 1977   0.245   1.467   3.632
  360SOL     OW 1978   0.671   0.464   3.131
  360SOL    HW1 1979   0.637   0.375   3.101
  360SOL    HW2 1980   0.697   0.518   3.051
  361SOL     OW 1981   0.930   1.678   3.327
  361SOL    HW1 1982   0.906   1.660   3.232
  361SOL    HW2 1983   0.960   1.772   3.337
  362SOL     OW 1984   0.473   0.500   2.053
  362SOL    HW1 1985   0.534   0.580   2.057
  362SOL    HW2 1986   0.378   0.531   2.060
  363SOL     OW 1987   0.159   1.137   3.328
  363SOL    HW1 1988   0.181   1.076   3.404
  363SOL    HW2 1989   0.169   1.088   3.242
  364SOL     OW 1990   1.347   1.059   3.096
  364SOL    HW1 1991   1.371   0.996   3.022
  364SOL    HW2 1992   1.257   1.099   3.078
  365SOL     OW 1993   1.302   0.855   2.171
  365SOL    HW1 1994   1.216   0.824   2.213
  365SOL    HW2 1995   1.298   0.841   2.072
  366SOL     OW 1996   1.759   1.747   3.016
  366SOL    HW1 1997   1.820   1.777   2.943
  366SOL    HW2 1998   1.721   1.658   2.994
  367SOL     OW 1999   1.252   1.731   2.990
  367SOL    HW1 2000   1.336   1.736   2.936
  367SOL    HW2 2001   1.229   1.635   3.008
  368SOL     OW 2002   0.083   1.258   2.884
  368SOL    HW1 2003   0.078   1.257   2.984
  368SOL    HW2 2004   0.000   1.217   2.846
  369SOL     OW 2005   0.688   1.662   3.578
  369SOL    HW1 2006   0.632   1.743   3.587
  369SOL    HW2 2007   0.740   1.666   3.492
  370SOL     OW 2008   1.726   0.135   2.385
  370SOL    HW1 2009   1.799   0.118   2.318
  370SOL    HW2 2010   1.695   0.048   2.423
  371SOL     OW 2011   1.388   1.573   2.339
  371SOL    HW1 2012   1.455   1.585   2.265
  371SOL    HW2 2013   1.348   1.662   2.362
  372SOL     OW 2014   0.130   1.794   3.713
  372SOL    HW1 2015   0.089   1.720   3.766
  372SOL    HW2 2016   0.194   1.845   3.771
  373SOL     OW 2017   1.280   0.927   2.534
  373SOL    HW1 2018   1.340   0.846   2.536
  373SOL    HW2 2019   1.320   0.996   2.474
  374SOL     OW 2020   0.830   1.273   3.284
  374SOL    HW1 2021   0.825   1.306   3.379
  374SOL    HW2 2022   0.744   1.292   3.238
  375SOL     OW 2023   0.672   1.616   2.016
  375SOL    HW1 2024   0.681   1.626   1.917
  375SOL    HW2 2025   0.632   1.527   2.037
  376SOL     OW 2026   1.650   1.720   3.256
  376SOL    HW1 2027   1.703   1.730   3.172
  376SOL    HW2 2028   1.623   1.810   3.290
  377SOL     OW 2029   1.841   0.175   2.825
  377SOL    HW1 2030   1.880   0.090   2.789
  377SOL    HW2 2031   1.743   0.177   2.806
  378SOL     OW 2032   0.263   0.326   2.582
  378SOL    HW1 2033   0.184   0.377   2.548
  378SOL    HW2 2034   0.254   0.311   2.680
  379SOL     OW 2035   1.194   1.612   1.893
  379SOL    HW1 2036   1.200   1.519   1.930
  379SOL    HW2 2037   1.135   1.612   1.813
  380SOL     OW 2038   0.822   1.002   3.234
  380SOL    HW1 2039   0.862   1.001   3.142
  380SOL    HW2 2040   0.832   1.094   3.274
  381SOL     OW 2041   0.916   0.910   2.153
  381SOL    HW1 2042   0.979   0.948   2.085
  381SOL    HW2 2043   0.956   0.827   2.192
  382SOL     OW 2044   1.504   1.607   1.906
  382SOL    HW1 2045   1.412   1.644   1.913
  382SOL    HW2 2046   1.542   1.627   1.816
  383SOL     OW 2047   0.372   1.288   3.352
  383SOL    HW1 2048   0.359   1.381   3.318
  383SOL    HW2 2049   0.288   1.236   3.339
  384SOL     OW 2050   1.614   1.292   3.151
  384SOL    HW1 2051   1.674   1.295   3.231
  384SOL    HW2 2052   1.539   1.356   3.164
  385SOL     OW 2053   1.039   1.098   2.558
  385SOL    HW1 2054   0.969   1.051   2.612
  385SOL    HW2 2055   1.098   1.030   2.515
  386SOL     OW 2056   1.014   0.236   2.833
  386SOL    HW1 2057   1.006   0.200   2.740
  386SOL    HW2 2058   1.012   0.160   2.898
  387SOL     OW 2059   0.590   1.487   2.353
  387SOL    HW1 2060   0.632   1.429   2.283
  387SOL    HW2 2061   0.546   1.566   2.309
  388SOL     OW 2062   1.709   0.385   3.243
  388SOL    HW1 2063   1.782   0.454   3.247
  388SOL    HW2 2064   1.737   0.310   3.184
  389SOL     OW 2065   0.255   1.348   2.152
  389SOL    HW1 2066   0.159   1.349   2.125
  389SOL    HW2 2067   0.267   1.401   2.236
  390SOL     OW 2068   0.105   1.013   3.588
  390SOL    HW1 2069   0.028   0.980   3.642
  390SOL    HW2 2070   0.190   0.983   3.630
  391SOL     OW 2071   0.672   0.203   3.351
  391SOL    HW1 2072   0.762   0.187   3.311
  391SOL    HW2 2073   0.680   0.208   3.450
  392SOL     OW 2074   0.075   0.345   1.895
  392SOL    HW1 2075  -0.017   0.317   1.866
  392SOL    HW2 2076   0.106   0.422   1.839
  393SOL     OW 2077   1.440   0.856   3.260
  393SOL    HW1 2078   1.383   0.908   3.197
  393SOL    HW2 2079   1.536   0.868   3.236
  394SOL     OW 2080   0.072   0.166   2.180
  394SOL    HW1 2081   0.055   0.249   2.126
  394SOL    HW2 2082   0.162   0.129   2.158
  395SOL     OW 2083   1.183   1.335   1.981
  395SOL    HW1 2084   1.084   1.324   1.983
  395SOL    HW2 2085   1.217   1.350   2.074
  396SOL     OW 2086   0.613   0.842   3.293
  396SOL    HW1 2087   0.669   0.923   3.276
  396SOL    HW2 2088   0.672   0.762   3.296
  397SOL     OW 2089   1.493   1.767   2.821
  397SOL    HW1 2090   1.526   1.831   2.752
  397SOL    HW2 2091   1.559   1.761   2.896
  398SOL     OW 2092   0.716   0.565   3.570
  398SOL    HW1 2093   0.735   0.630   3.644
  398SOL    HW2 2094   0.776   0.485   3.579
  399SOL     OW 2095   1.450   1.220   3.495
  399SOL    HW1 2096   1.441   1.210   3.594
  399SOL    HW2 2097   1.546   1.213   3.469
  400SOL     OW 2098   0.390   1.741   3.422
  400SOL    HW1 2099   0.299   1.782   3.420
  400SOL    HW2 2100   0.383   1.647   3.454
  401SOL     OW 2101   1.674   0.883   3.116
  401SOL    HW1 2102   1.647   0.794   3.079
  401SOL    HW2 2103   1.675   0.951   3.043
  402SOL     OW 2104   1.225   0.325   2.311
  402SOL    HW1 2105   1.290   0.251   2.300
  402SOL    HW2 2106   1.245   0.375   2.395
  403SOL     OW 2107   0.594   0.745   2.514
  403SOL    HW1 2108   0.644   0.830   2.495
  403SOL    HW2 2109   0.506   0.747   2.466
  404SOL     OW 2110   1.777   0.342   3.504
  404SOL    HW1 2111   1.760   0.373   3.410
  404SOL    HW2 2112   1.693   0.305   3.542
  405SOL     OW 2113   1.730   0.934   3.379
  405SOL    HW1 2114   1.768   1.025   3.394
  405SOL    HW2 2115   1.722   0.917   3.280
  406SOL     OW 2116   0.859   1.374   1.878
  406SOL    HW1 2117   0.813   1.389   1.966
  406SOL    HW2 2118   0.903   1.459   1.848
  407SOL     OW 2119   0.661   1.790   2.815
  407SOL    HW1 2120   0.615   1.878   2.802
  407SOL    HW2 2121   0.760   1.802   2.808
  408SOL     OW 2122   0.859   0.956   2.723
  408SOL    HW1 2123   0.913   0.887   2.771
  408SOL    HW2 2124   0.827   1.025   2.789
  409SOL     OW 2125   1.083   0.984   1.949
  409SOL    HW1 2126   1.060   1.037   1.867
  409SOL    HW2 2127   1.164   0.928   1.930
  410SOL     OW 2128   1.861   1.569   2.713
  410SOL    HW1 2129   1.790   1.557   2.643
  410SOL    HW2 2130   1.862   1.490   2.773
  411SOL     OW 2131   0.221   1.314   3.706
  411SOL    HW1 2132   0.156   1.241   3.685
  411SOL    HW2 2133   0.225   1.328   3.804
  412SOL     OW 2134   0.079   1.240   2.515
  412SOL    HW1 2135   0.078   1.193   2.603
  412SOL    HW2 2136   0.161   1.212   2.464
  413SOL     OW 2137   0.672   1.391   3.486
  413SOL    HW1 2138   0.594   1.341   3.524
  413SOL    HW2 2139   0.669   1.486   3.517
  414SOL     OW 2140   1.824   0.192   3.089
  414SOL    HW1 2141   1.820   0.102   3.133
  414SOL    HW2 2142   1.827   0.181   2.990
  415SOL     OW 2143   0.428   0.424   2.382
  415SOL    HW1 2144   0.458   0.352   2.320
  415SOL    HW2 2145   0.389   0.384   2.465
  416SOL     OW 2146   1.705   1.487   2.966
  416SOL    HW1 2147   1.612   1.462   2.939
  416SOL    HW2 2148   1.731   1.437   3.048
  417SOL     OW 2149   0.317   0.547   3.142
  417SOL    HW1 2150   0.355   0.488   3.214
  417SOL    HW2 2151   0.357   0.521   3.054
  418SOL     OW 2152   0.812   1.586   2.549
  418SOL    HW1 2153   0.844   1.596   2.455
  418SOL    HW2 2154   0.733   1.524   2.551
  419SOL     OW 2155   1.424   0.214   2.974
  419SOL    HW1 2156   1.476   0.149   3.029
  419SOL    HW2 2157   1.375   0.277   3.035
  420SOL     OW 2158   1.001   0.034   3.016
  420SOL    HW1 2159   0.938  -0.038   2.985
  420SOL    HW2 2160   1.094  -0.002   3.016
  421SOL     OW 2161   0.770   1.330   2.163
  421SOL    HW1 2162   0.724   1.243   2.180
  421SOL    HW2 2163   0.861   1.327   2.204
  422SOL     OW 2164   0.618   1.567   3.146
  422SOL    HW1 2165   0.613   1.649   3.203
  422SOL    HW2 2166   0.707   1.564   3.101
  423SOL     OW 2167   1.352   0.052   2.030
  423SOL    HW1 2168   1.387   0.011   1.946
  423SOL    HW2 2169   1.262   0.014   2.050
  424SOL     OW 2170   1.300   0.453   2.553
  424SOL    HW1 2171   1.241   0.533   2.557
  424SOL    HW2 2172   1.315   0.418   2.646
  425SOL     OW 2173   1.593   0.221   2.744
  425SOL    HW1 2174   1.509   0.220   2.798
  425SOL    HW2 2175   1.595   0.304   2.688
  426SOL     OW 2176   0.039   1.077   2.162
  426SOL    HW1 2177   0.138   1.066   2.153
  426SOL    HW2 2178  -0.001   0.991   2.194
  427SOL     OW 2179   0.875   1.646   2.199
  427SOL    HW1 2180   0.798   1.611   2.145
  427SOL    HW2 2181   0.843   1.717   2.261
  428SOL     OW 2182   0.230   0.628   3.837
  428SOL    HW1 2183   0.137   0.626   3.874
  428SOL    HW2 2184   0.231   0.589   3.745
  429SOL     OW 2185   0.225   0.275   4.720
  429SOL    HW1 2186   0.260   0.258   4.812
  429SOL    HW2 2187   0.137   0.230   4.708
  430SOL     OW 2188   0.019   0.368   4.371
  430SOL    HW1 2189  -0.063   0.411   4.410
  430SOL    HW2 2190  -0.009   0.295   4.308
  431SOL     OW 2191   0.569   1.275   4.889
  431SOL    HW1 2192   0.476   1.268   4.852
  431SOL    HW2 2193   0.580   1.364   4.933
  432SOL     OW 2194   1.555   1.511   4.427
  432SOL    HW1 2195   1.498   1.495   4.508
  432SOL    HW2 2196   1.496   1.521   4.347
  433SOL     OW 2197   1.135   0.703   4.441
  433SOL    HW1 2198   1.192   0.781   4.416
  433SOL    HW2 2199   1.075   0.729   4.517
  434SOL     OW 2200   1.755   0.607   3.955
  434SOL    HW1 2201   1.743   0.594   3.856
  434SOL    HW2 2202   1.725   0.526   4.004
  435SOL     OW 2203   0.768   1.144   4.747
  435SOL    HW1 2204   0.690   1.161   4.807
  435SOL    HW2 2205   0.802   1.231   4.711
  436SOL     OW 2206   0.850   0.798   5.547
  436SOL    HW1 2207   0.846   0.874   5.612
  436SOL    HW2 2208   0.872   0.834   5.456
  437SOL     OW 2209   0.685   1.012   4.389
  437SOL    HW1 2210   0.754   0.996   4.459
  437SOL    HW2 2211   0.612   1.069   4.427
  438SOL     OW 2212   0.686   1.161   5.527
  438SOL    HW1 2213   0.746   1.240   5.541
  438SOL    HW2 2214   0.600   1.192   5.486
  439SOL     OW 2215   0.335   1.435   4.785
  439SOL    HW1 2216   0.257   1.404   4.732
  439SOL    HW2 2217   0.393   1.493   4.728
  440SOL     OW 2218   1.460   1.505   5.063
  440SOL    HW1 2219   1.484   1.599   5.089
  440SOL    HW2 2220   1.444   1.451   5.145
  441SOL     OW 2221   0.438   0.392   5.223
  441SOL    HW1 2222   0.520   0.336   5.232
  441SOL    HW2 2223   0.357   0.334   5.227
  442SOL     OW 2224   1.603   0.447   4.461
  442SOL    HW1 2225   1.529   0.493   4.411
  442SOL    HW2 2226   1.654   0.515   4.514
  443SOL     OW 2227   0.231   1.713   4.207
  443SOL    HW1 2228   0.265   1.790   4.261
  443SOL    HW2 2229   0.275   1.713   4.117
  444SOL     OW 2230   1.127   1.341   5.414
  444SOL    HW1 2231   1.174   1.341   5.502
  444SOL    HW2 2232   1.079   1.254   5.403
  445SOL     OW 2233   0.230   1.434   4.262
  445SOL    HW1 2234   0.204   1.530   4.262
  445SOL    HW2 2235   0.159   1.380   4.307
  446SOL     OW 2236   0.240   1.091   4.610
  446SOL    HW1 2237   0.254   1.007   4.662
  446SOL    HW2 2238   0.185   1.155   4.665
  447SOL     OW 2239   0.620   1.786   5.163
  447SOL    HW1 2240   0.528   1.769   5.198
  447SOL    HW2 2241   0.648   1.878   5.189
  448SOL     OW 2242   0.606   0.964   3.847
  448SOL    HW1 2243   0.613   1.048   3.793
  448SOL    HW2 2244   0.652   0.977   3.935
  449SOL     OW 2245   1.594   0.114   5.204
  449SOL    HW1 2246   1.576   0.181   5.132
  449SOL    HW2 2247   1.591   0.160   5.293
  450SOL     OW 2248   0.122   0.643   4.287
  450SOL    HW1 2249   0.077   0.555   4.304
  450SOL    HW2 2250   0.121   0.697   4.371
  451SOL     OW 2251   1.842   1.767   4.083
  451SOL    HW1 2252   1.896   1.738   4.163
  451SOL    HW2 2253   1.872   1.857   4.054
  452SOL     OW 2254   0.027   1.596   3.841
  452SOL    HW1 2255   0.008   1.500   3.862
  452SOL    HW2 2256  -0.006   1.654   3.916
  453SOL     OW 2257   1.689   0.922   4.336
  453SOL    HW1 2258   1.784   0.893   4.344
  453SOL    HW2 2259   1.681   0.987   4.261
  454SOL     OW 2260   1.641   1.108   4.156
  454SOL    HW1 2261   1.727   1.110   4.104
  454SOL    HW2 2262   1.655   1.155   4.244
  455SOL     OW 2263   0.113   0.737   5.321
  455SOL    HW1 2264   0.201   0.724   5.366
  455SOL    HW2 2265   0.100   0.834   5.299
  456SOL     OW 2266   0.613   1.365   4.450
  456SOL    HW1 2267   0.564   1.278   4.459
  456SOL    HW2 2268   0.590   1.408   4.363
  457SOL     OW 2269   1.293   1.228   5.147
  457SOL    HW1 2270   1.330   1.155   5.089
  457SOL    HW2 2271   1.345   1.233   5.232
  458SOL     OW 2272   0.809   0.004   4.226
  458SOL    HW1 2273   0.849   0.095   4.217
  458SOL    HW2 2274   0.709   0.012   4.232
  459SOL     OW 2275   0.197   0.976   4.988
  459SOL    HW1 2276   0.286   0.931   4.974
  459SOL    HW2 2277   0.124   0.911   4.969
  460SOL     OW 2278   1.525   0.999   3.914
  460SOL    HW1 2279   1.462   0.923   3.927
  460SOL    HW2 2280   1.573   1.017   4.000
  461SOL     OW 2281   1.187   1.792   5.340
  461SOL    HW1 2282   1.211   1.852   5.264
  461SOL    HW2 2283   1.194   1.697   5.310
  462SOL     OW 2284   0.317   0.251   5.525
  462SOL    HW1 2285   0.388   0.322   5.531
  462SOL    HW2 2286   0.229   0.290   5.553
  463SOL     OW 2287   1.466   1.417   4.677
  463SOL    HW1 2288   1.407   1.423   4.757
  463SOL    HW2 2289   1.451   1.329   4.631
  464SOL     OW 2290   1.667   1.714   4.296
  464SOL    HW1 2291   1.626   1.691   4.208
  464SOL    HW2 2292   1.649   1.640   4.361
  465SOL     OW 2293   0.598   0.729   3.994
  465SOL    HW1 2294   0.622   0.798   3.926
  465SOL    HW2 2295   0.520   0.762   4.048
  466SOL     OW 2296   1.281   0.345   4.668
  466SOL    HW1 2297   1.195   0.295   4.655
  466SOL    HW2 2298   1.343   0.291   4.724
  467SOL     OW 2299   1.576   1.662   4.031
  467SOL    HW1 2300   1.665   1.708   4.034
  467SOL    HW2 2301   1.555   1.638   3.936
  468SOL     OW 2302   0.807   0.605   5.189
  468SOL    HW1 2303   0.760   0.602   5.278
  468SOL    HW2 2304   0.756   0.550   5.123
  469SOL     OW 2305   1.394   0.469   5.398
  469SOL    HW1 2306   1.374   0.512   5.486
  469SOL    HW2 2307   1.472   0.407   5.407
  470SOL     OW 2308   0.973   0.890   5.296
  470SOL    HW1 2309   1.019   0.806   5.267
  470SOL    HW2 2310   0.917   0.924   5.221
  471SOL     OW 2311   0.991   0.410   4.966
  471SOL    HW1 2312   0.914   0.444   5.020
  471SOL    HW2 2313   0.957   0.359   4.887
  472SOL     OW 2314   1.041   0.701   4.153
  472SOL    HW1 2315   1.067   0.697   4.249
  472SOL    HW2 2316   0.956   0.650   4.139
  473SOL     OW 2317   0.076   0.811   4.513
  473SOL    HW1 2318   0.175   0.799   4.522
  473SOL    HW2 2319   0.052   0.906   4.534
  474SOL     OW 2320   0.130   1.821   5.295
  474SOL    HW1 2321   0.120   1.806   5.394
  474SOL    HW2 2322   0.044   1.857   5.259
  475SOL     OW 2323   0.865   0.348   3.919
  475SOL    HW1 2324   0.924   0.411   3.870
  475SOL    HW2 2325   0.884   0.254   3.890
  476SOL     OW 2326   1.719   0.585   5.555
  476SOL    HW1 2327   1.693   0.674   5.519
  476SOL    HW2 2328   1.717   0.517   5.482
  477SOL     OW 2329   1.362   1.144   4.269
  477SOL    HW1 2330   1.445   1.115   4.221
  477SOL    HW2 2331   1.313   1.211   4.213
  478SOL     OW 2332   0.550   0.196   4.609
  478SOL    HW1 2333   0.545   0.191   4.709
  478SOL    HW2 2334   0.552   0.292   4.580
  479SOL     OW 2335   1.008   1.456   4.201
  479SOL    HW1 2336   0.962   1.528   4.149
  479SOL    HW2 2337   1.004   1.476   4.299
  480SOL     OW 2338   1.795   1.066   4.597
  480SOL    HW1 2339   1.733   1.051   4.521
  480SOL    HW2 2340   1.743   1.077   4.682
  481SOL     OW 2341   1.227   1.550   5.230
  481SOL    HW1 2342   1.233   1.473   5.294
  481SOL    HW2 2343   1.175   1.524   5.150
  482SOL     OW 2344   0.321   0.943   3.966
  482SOL    HW1 2345   0.403   0.982   3.924
  482SOL    HW2 2346   0.294   0.861   3.917
  483SOL     OW 2347   1.458   0.735   4.452
  483SOL    HW1 2348   1.453   0.670   4.527
  483SOL    HW2 2349   1.538   0.794   4.465
  484SOL     OW 2350   0.461   1.266   5.451
  484SOL    HW1 2351   0.411   1.267   5.365
  484SOL    HW2 2352   0.398   1.248   5.527
  485SOL     OW 2353   1.111   1.776   3.961
  485SOL    HW1 2354   1.051   1.714   4.011
  485SOL    HW2 2355   1.142   1.732   3.876
  486SOL     OW 2356   0.202   0.285   5.222
  486SOL    HW1 2357   0.122   0.345   5.209
  486SOL    HW2 2358   0.192   0.236   5.308
  487SOL     OW 2359   1.632   1.377   3.805
  487SOL    HW1 2360   1.600   1.471   3.795
  487SOL    HW2 2361   1.556   1.314   3.793
  488SOL     OW 2362   0.464   1.743   4.047
  488SOL    HW1 2363   0.497   1.782   4.133
  488SOL    HW2 2364   0.540   1.736   3.982
  489SOL     OW 2365   1.400   0.107   4.150
  489SOL    HW1 2366   1.376   0.070   4.060
  489SOL    HW2 2367   1.499   0.123   4.154
  490SOL     OW 2368   0.249   1.785   4.965
  490SOL    HW1 2369   0.306   1.720   5.015
  490SOL    HW2 2370   0.233   1.752   4.872
  491SOL     OW 2371   0.940   1.698   4.628
  491SOL    HW1 2372   1.020   1.641   4.649
  491SOL    HW2 2373   0.891   1.658   4.551
  492SOL     OW 2374   0.382   0.700   4.204
  492SOL    HW1 2375   0.427   0.610   4.201
  492SOL    HW2 2376   0.288   0.689   4.237
  493SOL     OW 2377   1.547   0.222   5.453
  493SOL    HW1 2378   1.542   0.259   5.545
  493SOL    HW2 2379   1.475   0.153   5.441
  494SOL     OW 2380   0.614   0.122   3.841
  494SOL    HW1 2381   0.712   0.100   3.848
  494SOL    HW2 2382   0.583   0.105   3.748
  495SOL     OW 2383   0.781   0.264   5.473
  495SOL    HW1 2384   0.848   0.203   5.516
  495SOL    HW2 2385   0.708   0.283   5.538
  496SOL     OW 2386   0.888   1.514   4.919
  496SOL    HW1 2387   0.865   1.489   4.825
  496SOL    HW2 2388   0.949   1.445   4.958
  497SOL     OW 2389   1.351   0.590   5.157
  497SOL    HW1 2390   1.379   0.547   5.242
  497SOL    HW2 2391   1.376   0.686   5.158
  498SOL     OW 2392   0.803   1.402   4.648
  498SOL    HW1 2393   0.893   1.416   4.606
  498SOL    HW2 2394   0.732   1.404   4.577
  499SOL     OW 2395   0.922   0.503   4.623
  499SOL    HW1 2396   0.897   0.494   4.527
  499SOL    HW2 2397   0.970   0.421   4.654
  500SOL     OW 2398   0.539   0.064   4.236
  500SOL    HW1 2399   0.458   0.065   4.294
  500SOL    HW2 2400   0.542   0.147   4.181
  501SOL     OW 2401   1.434   1.188   3.765
  501SOL    HW1 2402   1.466   1.112   3.822
  501SOL    HW2 2403   1.342   1.215   3.795
  502SOL     OW 2404   0.297   0.035   3.895
  502SOL    HW1 2405   0.346   0.119   3.874
  502SOL    HW2 2406   0.359  -0.030   3.940
  503SOL     OW 2407   0.935   0.236   4.204
  503SOL    HW1 2408   0.887   0.277   4.126
  503SOL    HW2 2409   1.034   0.234   4.185
  504SOL     OW 2410   1.076   0.683   5.188
  504SOL    HW1 2411   0.996   0.622   5.191
  504SOL    HW2 2412   1.157   0.630   5.164
  505SOL     OW 2413   1.227   1.570   4.517
  505SOL    HW1 2414   1.248   1.644   4.452
  505SOL    HW2 2415   1.295   1.570   4.590
  506SOL     OW 2416   0.459   1.152   4.465
  506SOL    HW1 2417   0.388   1.125   4.530
  506SOL    HW2 2418   0.433   1.124   4.372
  507SOL     OW 2419   1.271   1.797   4.315
  507SOL    HW1 2420   1.315   1.861   4.251
  507SOL    HW2 2421   1.221   1.849   4.385
  508SOL     OW 2422   1.032   0.549   3.740
  508SOL    HW1 2423   0.991   0.631   3.701
  508SOL    HW2 2424   1.096   0.575   3.813
  509SOL     OW 2425   0.078   0.556   5.110
  509SOL    HW1 2426   0.170   0.555   5.069
  509SOL    HW2 2427   0.072   0.630   5.177
  510SOL     OW 2428   0.561   0.222   4.871
  510SOL    HW1 2429   0.599   0.138   4.908
  510SOL    HW2 2430   0.473   0.241   4.915
  511SOL     OW 2431   0.866   0.454   4.366
  511SOL    HW1 2432   0.834   0.526   4.304
  511SOL    HW2 2433   0.890   0.373   4.313
  512SOL     OW 2434   1.017   0.039   4.477
  512SOL    HW1 2435   0.945   0.044   4.408
  512SOL    HW2 2436   0.993  -0.030   4.546
  513SOL     OW 2437   1.429   1.173   4.591
  513SOL    HW1 2438   1.374   1.089   4.584
  513SOL    HW2 2439   1.455   1.202   4.499
  514SOL     OW 2440   1.466   0.590   4.716
  514SOL    HW1 2441   1.436   0.495   4.723
  514SOL    HW2 2442   1.539   0.606   4.782
  515SOL     OW 2443   1.857   0.833   4.101
  515SOL    HW1 2444   1.899   0.769   4.165
  515SOL    HW2 2445   1.819   0.782   4.023
  516SOL     OW 2446   0.488   1.385   3.898
  516SOL    HW1 2447   0.401   1.370   3.945
  516SOL    HW2 2448   0.471   1.411   3.803
  517SOL     OW 2449   1.664   1.280   4.381
  517SOL    HW1 2450   1.763   1.288   4.395
  517SOL    HW2 2451   1.619   1.364   4.412
  518SOL     OW 2452   1.390   0.575   3.802
  518SOL    HW1 2453   1.336   0.554   3.883
  518SOL    HW2 2454   1.481   0.534   3.811
  519SOL     OW 2455   0.527   0.256   4.052
  519SOL    HW1 2456   0.554   0.197   3.977
  519SOL    HW2 2457   0.527   0.351   4.021
  520SOL     OW 2458   1.754   1.223   5.312
  520SOL    HW1 2459   1.845   1.184   5.299
  520SOL    HW2 2460   1.762   1.319   5.336
  521SOL     OW 2461   1.064   1.347   5.064
  521SOL    HW1 2462   0.984   1.324   5.119
  521SOL    HW2 2463   1.147   1.321   5.113
  522SOL     OW 2464   1.592   1.629   5.349
  522SOL    HW1 2465   1.619   1.663   5.259
  522SOL    HW2 2466   1.671   1.591   5.395
  523SOL     OW 2467   1.111   1.195   4.824
  523SOL    HW1 2468   1.071   1.239   4.905
  523SOL    HW2 2469   1.070   1.232   4.741
  524SOL     OW 2470   1.638   1.099   4.803
  524SOL    HW1 2471   1.643   1.180   4.862
  524SOL    HW2 2472   1.552   1.101   4.752
  525SOL     OW 2473   0.915   0.089   5.126
  525SOL    HW1 2474   0.940   0.069   5.031
  525SOL    HW2 2475   0.987   0.145   5.168
  526SOL     OW 2476   0.980   1.116   5.443
  526SOL    HW1 2477   0.881   1.122   5.453
  526SOL    HW2 2478   1.003   1.036   5.387
  527SOL     OW 2479   0.705   1.050   4.092
  527SOL    HW1 2480   0.691   1.057   4.191
  527SOL    HW2 2481   0.789   0.999   4.074
  528SOL     OW 2482   0.410   0.813   4.975
  528SOL    HW1 2483   0.496   0.825   5.025
  528SOL    HW2 2484   0.368   0.726   5.002
  529SOL     OW 2485   1.274   0.386   4.986
  529SOL    HW1 2486   1.295   0.460   5.050
  529SOL    HW2 2487   1.185   0.403   4.943
  530SOL     OW 2488   0.064   1.564   5.055
  530SOL    HW1 2489   0.018   1.646   5.021
  530SOL    HW2 2490   0.162   1.583   5.064
  531SOL     OW 2491   0.367   1.100   4.225
  531SOL    HW1 2492   0.360   1.183   4.169
  531SOL    HW2 2493   0.371   1.020   4.165
  532SOL     OW 2494   0.566   0.537   4.589
  532SOL    HW1 2495   0.578   0.603   4.515
  532SOL    HW2 2496   0.612   0.571   4.672
  533SOL     OW 2497   1.252   1.348   4.112
  533SOL    HW1 2498   1.302   1.425   4.152
  533SOL    HW2 2499   1.157   1.350   4.144
  534SOL     OW 2500   1.272   1.445   4.866
  534SOL    HW1 2501   1.319   1.458   4.953
  534SOL    HW2 2502   1.206   1.371   4.875
  535SOL     OW 2503   1.582   0.639   4.196
  535SOL    HW1 2504   1.551   0.700   4.269
  535SOL    HW2 2505   1.632   0.691   4.127
  536SOL     OW 2506   0.354   1.510   5.053
  536SOL    HW1 2507   0.333   1.466   4.966
  536SOL    HW2 2508   0.451   1.536   5.056
  537SOL     OW 2509   0.402   0.751   5.322
  537SOL    HW1 2510   0.470   0.806   5.275
  537SOL    HW2 2511   0.442   0.663   5.349
  538SOL     OW 2512   1.587   0.779   5.394
  538SOL    HW1 2513   1.495   0.817   5.389
  538SOL    HW2 2514   1.647   0.826   5.329
  539SOL     OW 2515   1.013   0.105   5.494
  539SOL    HW1 2516   1.019   0.190   5.442
  539SOL    HW2 2517   1.045   0.029   5.437
  540SOL     OW 2518   0.504   0.050   5.464
  540SOL    HW1 2519   0.462  -0.007   5.394
  540SOL    HW2 2520   0.438   0.119   5.496
  541SOL     OW 2521   0.573   0.870   4.753
  541SOL    HW1 2522   0.617   0.959   4.744
  541SOL    HW2 2523   0.510   0.870   4.830
  542SOL     OW 2524   1.360   0.862   4.769
  542SOL    HW1 2525   1.285   0.862   4.703
  542SOL    HW2 2526   1.397   0.770   4.778
  543SOL     OW 2527   1.209   0.525   3.999
  543SOL    HW1 2528   1.222   0.441   4.053
  543SOL    HW2 2529   1.180   0.599   4.059
  544SOL     OW 2530   0.307   0.213   4.955
  544SOL    HW1 2531   0.284   0.250   5.045
  544SOL    HW2 2532   0.277   0.118   4.949
  545SOL     OW 2533   0.037   1.310   5.006
  545SOL    HW1 2534   0.090   1.261   5.074
  545SOL    HW2 2535   0.059   1.408   5.011
  546SOL     OW 2536   0.732   0.634   4.788
  546SOL    HW1 2537   0.791   0.608   4.712
  546SOL    HW2 2538   0.704   0.730   4.777
  547SOL     OW 2539   1.728   0.935   5.578
  547SOL    HW1 2540   1.682   0.928   5.489
  547SOL    HW2 2541   1.666   0.979   5.644
  548SOL     OW 2542   0.307   0.063   4.342
  548SOL    HW1 2543   0.296   0.157   4.375
  548SOL    HW2 2544   0.302   0.000   4.419
  549SOL     OW 2545   1.622   0.367   4.098
  549SOL    HW1 2546   1.624   0.291   4.162
  549SOL    HW2 2547   1.574   0.444   4.138
  550SOL     OW 2548   1.023   0.766   4.690
  550SOL    HW1 2549   1.038   0.787   4.786
  550SOL    HW2 2550   0.993   0.671   4.681
  551SOL     OW 2551   0.980   1.573   5.424
  551SOL    HW1 2552   0.960   1.617   5.336
  551SOL    HW2 2553   1.019   1.482   5.408
  552SOL     OW 2554   1.859   1.518   5.329
  552SOL    HW1 2555   1.873   1.545   5.234
  552SOL    HW2 2556   1.942   1.540   5.382
  553SOL     OW 2557   0.350   0.898   5.528
  553SOL    HW1 2558   0.426   0.942   5.576
  553SOL    HW2 2559   0.385   0.851   5.446
  554SOL     OW 2560   1.540   0.274   3.849
  554SOL    HW1 2561   1.479   0.199   3.872
  554SOL    HW2 2562   1.562   0.326   3.932
  555SOL     OW 2563   1.303   0.838   3.766
  555SOL    HW1 2564   1.337   0.745   3.781
  555SOL    HW2 2565   1.321   0.865   3.671
  556SOL     OW 2566   1.068   1.333   4.573
  556SOL    HW1 2567   1.075   1.249   4.518
  556SOL    HW2 2568   1.130   1.402   4.537
  557SOL     OW 2569   0.319   0.810   4.673
  557SOL    HW1 2570   0.412   0.846   4.678
  557SOL    HW2 2571   0.313   0.725   4.725
  558SOL     OW 2572   0.339   0.509   4.730
  558SOL    HW1 2573   0.287   0.426   4.713
  558SOL    HW2 2574   0.416   0.514   4.666
  559SOL     OW 2575   1.138   0.380   5.402
  559SOL    HW1 2576   1.093   0.443   5.466
  559SOL    HW2 2577   1.231   0.411   5.385
  560SOL     OW 2578   1.160   0.207   5.201
  560SOL    HW1 2579   1.160   0.271   5.278
  560SOL    HW2 2580   1.188   0.255   5.118
  561SOL     OW 2581   0.008   1.326   3.924
  561SOL    HW1 2582  -0.085   1.347   3.893
  561SOL    HW2 2583   0.018   1.227   3.937
  562SOL     OW 2584   0.088   1.801   4.651
  562SOL    HW1 2585   0.046   1.715   4.624
  562SOL    HW2 2586   0.182   1.804   4.617
  563SOL     OW 2587   0.504   1.568   4.634
  563SOL    HW1 2588   0.570   1.642   4.643
  563SOL    HW2 2589   0.548   1.489   4.592
  564SOL     OW 2590   1.002   0.796   4.962
  564SOL    HW1 2591   1.043   0.764   5.048
  564SOL    HW2 2592   0.906   0.769   4.959
  565SOL     OW 2593   0.040   0.544   4.838
  565SOL    HW1 2594   0.125   0.511   4.797
  565SOL    HW2 2595   0.053   0.559   4.936
  566SOL     OW 2596   0.189   0.520   5.446
  566SOL    HW1 2597   0.248   0.480   5.376
  566SOL    HW2 2598   0.131   0.591   5.405
  567SOL     OW 2599   1.369   0.950   5.384
  567SOL    HW1 2600   1.408   1.039   5.404
  567SOL    HW2 2601   1.379   0.930   5.287
  568SOL     OW 2602   0.815   0.572   4.049
  568SOL    HW1 2603   0.822   0.483   4.003
  568SOL    HW2 2604   0.721   0.606   4.041
  569SOL     OW 2605   1.657   0.604   4.930
  569SOL    HW1 2606   1.619   0.535   4.992
  569SOL    HW2 2607   1.739   0.568   4.886
  570SOL     OW 2608   0.252   1.564   5.468
  570SOL    HW1 2609   0.222   1.621   5.544
  570SOL    HW2 2610   0.245   1.467   5.494
  571SOL     OW 2611   0.671   0.464   4.993
  571SOL    HW1 2612   0.637   0.375   4.963
  571SOL    HW2 2613   0.697   0.518   4.913
  572SOL     OW 2614   0.930   1.678   5.189
  572SOL    HW1 2615   0.906   1.660   5.094
  572SOL    HW2 2616   0.960   1.772   5.199
  573SOL     OW 2617   0.473   0.500   3.915
  573SOL    HW1 2618   0.534   0.580   3.919
  573SOL    HW2 2619   0.378   0.531   3.922
  574SOL     OW 2620   0.159   1.137   5.190
  574SOL    HW1 2621   0.181   1.076   5.266
  574SOL    HW2 2622   0.169   1.088   5.104
  575SOL     OW 2623   1.347   1.059   4.958
  575SOL    HW1 2624   1.371   0.996   4.884
  575SOL    HW2 2625   1.257   1.099   4.940
  576SOL     OW 2626   1.302   0.855   4.033
  576SOL    HW1 2627   1.216   0.824   4.075
  576SOL    HW2 2628   1.298   0.841   3.934
  577SOL     OW 2629   1.759   1.747   4.878
  577SOL    HW1 2630   1.820   1.777   4.805
  577SOL    HW2 2631   1.721   1.658   4.856
  578SOL     OW 2632   1.252   1.731   4.852
  578SOL    HW1 2633   1.336   1.736   4.798
  578SOL    HW2 2634   1.229   1.635   4.870
  579SOL     OW 2635   0.083   1.258   4.746
  579SOL    HW1 2636   0.078   1.257   4.846
  579SOL    HW2 2637   0.000   1.217   4.708
  580SOL     OW 2638   0.688   1.662   5.440
  580SOL    HW1 2639   0.632   1.743   5.449
  580SOL    HW2 2640   0.740   1.666   5.354
  581SOL     OW 2641   1.726   0.135   4.247
  581SOL    HW1 2642   1.799   0.118   4.180
  581SOL    HW2 2643   1.695   0.048   4.285
  582SOL     OW 2644   1.388   1.573   4.201
  582SOL    HW1 2645   1.455   1.585   4.127
  582SOL    HW2 2646   1.348   1.662   4.224
  583SOL     OW 2647   0.130   1.794   5.575
  583SOL    HW1 2648   0.089   1.720   5.628
  583SOL    HW2 2649   0.194   1.845   5.633
  584SOL     OW 2650   1.280   0.927   4.396
  584SOL    HW1 2651   1.340   0.846   4.398
  584SOL    HW2 2652   1.320   0.996   4.336
  585SOL     OW 2653   0.830   1.273   5.146
  585SOL    HW1 2654   0.825   1.306   5.241
  585SOL    HW2 2655   0.744   1.292   5.100
  586SOL     OW 2656   0.672   1.616   3.878
  586SOL    HW1 2657   0.681   1.626   3.779
  586SOL    HW2 2658   0.632   1.527   3.899
  587SOL     OW 2659   1.650   1.720   5.118
  587SOL    HW1 2660   1.703   1.730   5.034
  587SOL    HW2 2661   1.623   1.810   5.152
  588SOL     OW 2662   1.841   0.175   4.687
  588SOL    HW1 2663   1.880   0.090   4.651
  588SOL    HW2 2664   1.743   0.177   4.668
  589SOL     OW 2665   0.263   0.326   4.444
  589SOL    HW1 2666   0.184   0.377   4.410
  589SOL    HW2 2667   0.254   0.311   4.542
  590SOL     OW 2668   1.194   1.612   3.755
  590SOL    HW1 2669   1.200   1.519   3.792
  590SOL    HW2 2670   1.135   1.612   3.675
  591SOL     OW 2671   0.822   1.002   5.096
  591SOL    HW1 2672   0.862   1.001   5.004
  591SOL    HW2 2673   0.832   1.094   5.136
  592SOL     OW 2674   0.916   0.910   4.015
  592SOL    HW1 2675   0.979   0.948   3.947
  592SOL    HW2 2676   0.956   0.827   4.054
  593SOL     OW 2677   1.504   1.607   3.768
  593SOL    HW1 2678   1.412   1.644   3.775
  593SOL    HW2 2679   1.542   1.627   3.678
  594SOL     OW 2680   0.372   1.288   5.214
  594SOL    HW1 2681   0.359   1.381   5.180
  594SOL    HW2 2682   0.288   1.236   5.201
  595SOL     OW 2683   1.614   1.292   5.013
  595SOL    HW1 2684   1.674   1.295   5.093
  595SOL    HW2 2685   1.539   1.356   5.026
  596SOL     OW 2686   1.039   1.098   4.420
  596SOL    HW1 2687   0.969   1.051   4.474
  596SOL    HW2 2688   1.098   1.030   4.377
  597SOL     OW 2689   1.014   0.236   4.695
  597SOL    HW1 2690   1.006   0.200   4.602
  597SOL    HW2 2691   1.012   0.160   4.760
  598SOL     OW 2692   0.590   1.487   4.215
  598SOL    HW1 2693   0.632   1.429   4.145
  598SOL    HW2 2694   0.546   1.566   4.171
  599SOL     OW 2695   1.709   0.385   5.105
  599SOL    HW1 2696   1.782   0.454   5.109
  599SOL    HW2 2697   1.737   0.310   5.046
  600SOL     OW 2698   0.255   1.348   4.014
  600SOL    HW1 2699   0.159   1.349   3.987
  600SOL    HW2 2700   0.267   1.401   4.098
  601SOL     OW 2701   0.105   1.013   5.450
  601SOL    HW1 2702   0.028   0.980   5.504
  601SOL    HW2 2703   0.190   0.983   5.492
  602SOL     OW 2704   0.672   0.203   5.213
  602SOL    HW1 2705   0.762   0.187   5.173
  602SOL    HW2 2706   0.680   0.208   5.312
  603SOL     OW 2707   0.075   0.345   3.757
  603SOL    HW1 2708  -0.017   0.317   3.728
  603SOL    HW2 2709   0.106   0.422   3.701
  604SOL     OW 2710   1.440   0.856   5.122
  604SOL    HW1 2711   1.383   0.908   5.059
  604SOL    HW2 2712   1.536   0.868   5.098
  605SOL     OW 2713   0.072   0.166   4.042
  605SOL    HW1 2714   0.055   0.249   3.988
  605SOL    HW2 2715   0.162   0.129   4.020
  606SOL     OW 2716   1.183   1.335   3.843
  606SOL    HW1 2717   1.084   1.324   3.845
  606SOL    HW2 2718   1.217   1.350   3.936
  607SOL     OW 2719   0.613   0.842   5.155
  607SOL    HW1 2720   0.669   0.923   5.138
  607SOL    HW2 2721   0.672   0.762   5.158
  608SOL     OW 2722   1.493   1.767   4.683
  608SOL    HW1 2723   1.526   1.831   4.614
  608SOL    HW2 2724   1.559   1.761   4.758
  609SOL     OW 2725   0.716   0.565   5.432
  609SOL    HW1 2726   0.735   0.630   5.506
  609SOL    HW2 2727   0.776   0.485   5.441
  610SOL     OW 2728   1.450   1.220   5.357
  610SOL    HW1 2729   1.441   1.210   5.456
  610SOL    HW2 2730   1.546   1.213   5.331
  611SOL     OW 2731   0.390   1.741   5.284
  611SOL    HW1 2732   0.299   1.782   5.282
  611SOL    HW2 2733   0.383   1.647   5.316
  612SOL     OW 2734   1.674   0.883   4.978
  612SOL    HW1 2735   1.647   0.794   4.941
  612SOL    HW2 2736   1.675   0.951   4.905
  613SOL     OW 2737   1.225   0.325   4.173
  613SOL    HW1 2738   1.290   0.251   4.162
  613SOL    HW2 2739   1.245   0.375   4.257
  614SOL     OW 2740   0.594   0.745   4.376
  614SOL    HW1 2741   0.644   0.830   4.357
  614SOL    HW2 2742   0.506   0.747   4.328
  615SOL     OW 2743   1.777   0.342   5.366
  615SOL    HW1 2744   1.760   0.373   5.272
  615SOL    HW2 2745   1.693   0.305   5.404
  616SOL     OW 2746   1.730   0.934   5.241
  616SOL    HW1 2747   1.768   1.025   5.256
  616SOL    HW2 2748   1.722   0.917   5.142
  617SOL     OW 2749   0.859   1.374   3.740
  617SOL    HW1 2750   0.813   1.389   3.828
  617SOL    HW2 2751   0.903   1.459   3.710
  618SOL     OW 2752   0.661   1.790   4.677
  618SOL    HW1 2753   0.615   1.878   4.664
  618SOL    HW2 2754   0.760   1.802   4.670
  619SOL     OW 2755   0.859   0.956   4.585
  619SOL    HW1 2756   0.913   0.887   4.633
  619SOL    HW2 2757   0.827   1.025   4.651
  620SOL     OW 2758   1.083   0.984   3.811
  620SOL    HW1 2759   1.060   1.037   3.729
  620SOL    HW2 2760   1.164   0.928   3.792
  621SOL     OW 2761   1.861   1.569   4.575
  621SOL    HW1 2762   1.790   1.557   4.505
  621SOL    HW2 2763   1.862   1.490   4.635
  622SOL     OW 2764   0.221   1.314   5.568
  622SOL    HW1 2765   0.156   1.241   5.547
  622SOL    HW2 2766   0.225   1.328   5.666
  623SOL     OW 2767   0.079   1.240   4.377
  623SOL    HW1 2768   0.078   1.193   4.465
  623SOL    HW2 2769   0.161   1.212   4.326
  624SOL     OW 2770   0.672   1.391   5.348
  624SOL    HW1 2771   0.594   1.341   5.386
  624SOL    HW2 2772   0.669   1.486   5.379
  625SOL     OW 2773   1.824   0.192   4.951
  625SOL    HW1 2774   1.820   0.102   4.995
  625SOL    HW2 2775   1.827   0.181   4.852
  626SOL     OW 2776   0.428   0.424   4.244
  626SOL    HW1 2777   0.458   0.352   4.182
  626SOL    HW2 2778   0.389   0.384   4.327
  627SOL     OW 2779   1.705   1.487   4.828
  627SOL    HW1 2780   1.612   1.462   4.801
  627SOL    HW2 2781   1.731   1.437   4.910
  628SOL     OW 2782   0.317   0.547   5.004
  628SOL    HW1 2783   0.355   0.488   5.076
  628SOL    HW2 2784   0.357   0.521   4.916
  629SOL     OW 2785   0.812   1.586   4.411
  629SOL    HW1 2786   0.844   1.596   4.317
  629SOL    HW2 2787   0.733   1.524   4.413
  630SOL     OW 2788   1.424   0.214   4.836
  630SOL    HW1 2789   1.476   0.149   4.891
  630SOL    HW2 2790   1.375   0.277   4.897
  631SOL     OW 2791   1.001   0.034   4.878
  631SOL    HW1 2792   0.938  -0.038   4.847
  631SOL    HW2 2793   1.094  -0.002   4.878
  632SOL     OW 2794   0.770   1.330   4.025
  632SOL    HW1 2795   0.724   1.243   4.042
  632SOL    HW2 2796   0.861   1.327   4.066
  633SOL     OW 2797   0.618   1.567   5.008
  633SOL    HW1 2798   0.613   1.649   5.065
  633SOL    HW2 2799   0.707   1.564   4.963
  634SOL     OW 2800   1.352   0.052   3.892
  634SOL    HW1 2801   1.387   0.011   3.808
  634SOL    HW2 2802   1.262   0.014   3.912
  635SOL     OW 2803   1.300   0.453   4.415
  635SOL    HW1 2804   1.241   0.533   4.419
  635SOL    HW2 2805   1.315   0.418   4.508
  636SOL     OW 2806   1.593   0.221   4.606
  636SOL    HW1 2807   1.509   0.220   4.660
  636SOL    HW2 2808   1.595   0.304   4.550
  637SOL     OW 2809   0.039   1.077   4.024
  637SOL    HW1 2810   0.138   1.066   4.015
  637SOL    HW2 2811  -0.001   0.991   4.056
  638SOL     OW 2812   0.875   1.646   4.061
  638SOL    HW1 2813   0.798   1.611   4.007
  638SOL    HW2 2814   0.843   1.717   4.123
  639SOL     OW 2815   0.230   0.628   5.699
  639SOL    HW1 2816   0.137   0.626   5.736
  639SOL    HW2 2817   0.231   0.589   5.607
  640SOL     OW 2818   0.225   0.275   6.582
  640SOL    HW1 2819   0.260   0.258   6.674
  640SOL    HW2 2820   0.137   0.230   6.570
  641SOL     OW 2821   0.019   0.368   6.233
  641SOL    HW1 2822  -0.063   0.411   6.272
  641SOL    HW2 2823  -0.009   0.295   6.170
  642SOL     OW 2824   0.569   1.275   6.751
  642SOL    HW1 2825   0.476   1.268   6.714
  642SOL    HW2 2826   0.580   1.364   6.795
  643SOL     OW 2827   1.555   1.511   6.289
  643SOL    HW1 2828   1.498   1.495   6.370
  643SOL    HW2 2829   1.496   1.521   6.209
  644SOL     OW 2830   1.135   0.703   6.303
  644SOL    HW1 2831   1.192   0.781   6.278
  644SOL    HW2 2832   1.075   0.729   6.379
  645SOL     OW 2833   1.755   0.607   5.817
  645SOL    HW1 2834   1.743   0.594   5.718
  645SOL    HW2 2835   1.725   0.526   5.866
  646SOL     OW 2836   0.768   1.144   6.609
  646SOL    HW1 2837   0.690   1.161   6.669
  646SOL    HW2 2838   0.802   1.231   6.573
  647SOL     OW 2839   0.685   1.012   6.251
  647SOL    HW1 2840   0.754   0.996   6.321
  647SOL    HW2 2841   0.612   1.069   6.289
  648SOL     OW 2842   0.335   1.435   6.647
  648SOL    HW1 2843   0.257   1.404   6.594
  648SOL    HW2 2844   0.393   1.493   6.590
  649SOL     OW 2845   1.603   0.447   6.323
  649SOL    HW1 2846   1.529   0.493   6.273
  649SOL    HW2 2847   1.654   0.515   6.376
  650SOL     OW 2848   0.231   1.713   6.069
  650SOL    HW1 2849   0.265   1.790   6.123
  650SOL    HW2 2850   0.275   1.713   5.979
  651SOL     OW 2851   0.230   1.434   6.124
  651SOL    HW1 2852   0.204   1.530   6.124
  651SOL    HW2 2853   0.159   1.380   6.169
  652SOL     OW 2854   0.240   1.091   6.472
  652SOL    HW1 2855   0.254   1.007   6.524
  652SOL    HW2 2856   0.185   1.155   6.527
  653SOL     OW 2857   0.620   1.786   7.025
  653SOL    HW1 2858   0.528   1.769   7.060
  653SOL    HW2 2859   0.648   1.878   7.051
  654SOL     OW 2860   0.606   0.964   5.709
  654SOL    HW1 2861   0.613   1.048   5.655
  654SOL    HW2 2862   0.652   0.977   5.797
  655SOL     OW 2863   0.122   0.643   6.149
  655SOL    HW1 2864   0.077   0.555   6.166
  655SOL    HW2 2865   0.121   0.697   6.233
  656SOL     OW 2866   1.842   1.767   5.945
  656SOL    HW1 2867   1.896   1.738   6.025
  656SOL    HW2 2868   1.872   1.857   5.916
  657SOL     OW 2869   0.027   1.596   5.703
  657SOL    HW1 2870   0.008   1.500   5.724
  657SOL    HW2 2871  -0.006   1.654   5.778
  658SOL     OW 2872   1.689   0.922   6.198
  658SOL    HW1 2873   1.784   0.893   6.206
  658SOL    HW2 2874   1.681   0.987   6.123
  659SOL     OW 2875   1.641   1.108   6.018
  659SOL    HW1 2876   1.727   1.110   5.966
  659SOL    HW2 2877   1.655   1.155   6.106
  660SOL     OW 2878   0.613   1.365   6.312
  660SOL    HW1 2879   0.564   1.278   6.321
  660SOL    HW2 2880   0.590   1.408   6.225
  661SOL     OW 2881   0.809   0.004   6.088
  661SOL    HW1 2882   0.849   0.095   6.079
  661SOL    HW2 2883   0.709   0.012   6.094
  662SOL     OW 2884   0.197   0.976   6.850
  662SOL    HW1 2885   0.286   0.931   6.836
  662SOL    HW2 2886   0.124   0.911   6.831
  663SOL     OW 2887   1.525   0.999   5.776
  663SOL    HW1 2888   1.462   0.923   5.789
  663SOL    HW2 2889   1.573   1.017   5.862
  664SOL     OW 2890   1.466   1.417   6.539
  664SOL    HW1 2891   1.407   1.423   6.619
  664SOL    HW2 2892   1.451   1.329   6.493
  665SOL     OW 2893   1.667   1.714   6.158
  665SOL    HW1 2894   1.626   1.691   6.070
  665SOL    HW2 2895   1.649   1.640   6.223
  666SOL     OW 2896   0.598   0.729   5.856
  666SOL    HW1 2897   0.622   0.798   5.788
  666SOL    HW2 2898   0.520   0.762   5.910
  667SOL     OW 2899   1.281   0.345   6.530
  667SOL    HW1 2900   1.195   0.295   6.517
  667SOL    HW2 2901   1.343   0.291   6.586
  668SOL     OW 2902   1.576   1.662   5.893
  668SOL    HW1 2903   1.665   1.708   5.896
  668SOL    HW2 2904   1.555   1.638   5.798
  669SOL     OW 2905   0.807   0.605   7.051
  669SOL    HW1 2906   0.760   0.602   7.140
  669SOL    HW2 2907   0.756   0.550   6.985
  670SOL     OW 2908   0.991   0.410   6.828
  670SOL    HW1 2909   0.914   0.444   6.882
  670SOL    HW2 2910   0.957   0.359   6.749
  671SOL     OW 2911   1.041   0.701   6.015
  671SOL    HW1 2912   1.067   0.697   6.111
  671SOL    HW2 2913   0.956   0.650   6.001
  672SOL     OW 2914   0.076   0.811   6.375
  672SOL    HW1 2915   0.175   0.799   6.384
  672SOL    HW2 2916   0.052   0.906   6.396
  673SOL     OW 2917   0.130   1.821   7.157
  673SOL    HW1 2918   0.120   1.806   7.256
  673SOL    HW2 2919   0.044   1.857   7.121
  674SOL     OW 2920   0.865   0.348   5.781
  674SOL    HW1 2921   0.924   0.411   5.732
  674SOL    HW2 2922   0.884   0.254   5.752
  675SOL     OW 2923   1.362   1.144   6.131
  675SOL    HW1 2924   1.445   1.115   6.083
  675SOL    HW2 2925   1.313   1.211   6.075
  676SOL     OW 2926   0.550   0.196   6.471
  676SOL    HW1 2927   0.545   0.191   6.571
  676SOL    HW2 2928   0.552   0.292   6.442
  677SOL     OW 2929   1.008   1.456   6.063
  677SOL    HW1 2930   0.962   1.528   6.011
  677SOL    HW2 2931   1.004   1.476   6.161
  678SOL     OW 2932   0.351   1.801   6.439
  678SOL    HW1 2933   0.401   1.715   6.445
  678SOL    HW2 2934   0.416   1.878   6.436
  679SOL     OW 2935   1.795   1.066   6.459
  679SOL    HW1 2936   1.733   1.051   6.383
  679SOL    HW2 2937   1.743   1.077   6.544
  680SOL     OW 2938   0.321   0.943   5.828
  680SOL    HW1 2939   0.403   0.982   5.786
  680SOL    HW2 2940   0.294   0.861   5.779
  681SOL     OW 2941   1.458   0.735   6.314
  681SOL    HW1 2942   1.453   0.670   6.389
  681SOL    HW2 2943   1.538   0.794   6.327
  682SOL     OW 2944   1.111   1.776   5.823
  682SOL    HW1 2945   1.051   1.714   5.873
  682SOL    HW2 2946   1.142   1.732   5.738
  683SOL     OW 2947   1.632   1.377   5.667
  683SOL    HW1 2948   1.600   1.471   5.657
  683SOL    HW2 2949   1.556   1.314   5.655
  684SOL     OW 2950   0.464   1.743   5.909
  684SOL    HW1 2951   0.497   1.782   5.995
  684SOL    HW2 2952   0.540   1.736   5.844
  685SOL     OW 2953   1.400   0.107   6.012
  685SOL    HW1 2954   1.376   0.070   5.922
  685SOL    HW2 2955   1.499   0.123   6.016
  686SOL     OW 2956   0.249   1.785   6.827
  686SOL    HW1 2957   0.306   1.720   6.877
  686SOL    HW2 2958   0.233   1.752   6.734
  687SOL     OW 2959   0.940   1.698   6.490
  687SOL    HW1 2960   1.020   1.641   6.511
  687SOL    HW2 2961   0.891   1.658   6.413
  688SOL     OW 2962   0.382   0.700   6.066
  688SOL    HW1 2963   0.427   0.610   6.063
  688SOL    HW2 2964   0.288   0.689   6.099
  689SOL     OW 2965   0.614   0.122   5.703
  689SOL    HW1 2966   0.712   0.100   5.710
  689SOL    HW2 2967   0.583   0.105   5.610
  690SOL     OW 2968   0.888   1.514   6.781
  690SOL    HW1 2969   0.865   1.489   6.687
  690SOL    HW2 2970   0.949   1.445   6.820
  691SOL     OW 2971   0.803   1.402   6.510
  691SOL    HW1 2972   0.893   1.416   6.468
  691SOL    HW2 2973   0.732   1.404   6.439
  692SOL     OW 2974   0.922   0.503   6.485
  692SOL    HW1 2975   0.897   0.494   6.389
  692SOL    HW2 2976   0.970   0.421   6.516
  693SOL     OW 2977   0.539   0.064   6.098
  693SOL    HW1 2978   0.458   0.065   6.156
  693SOL    HW2 2979   0.542   0.147   6.043
  694SOL     OW 2980   1.434   1.188   5.627
  694SOL    HW1 2981   1.466   1.112   5.684
  694SOL    HW2 2982   1.342   1.215   5.657
  695SOL     OW 2983   0.297   0.035   5.757
  695SOL    HW1 2984   0.346   0.119   5.736
  695SOL    HW2 2985   0.359  -0.030   5.802
  696SOL     OW 2986   0.935   0.236   6.066
  696SOL    HW1 2987   0.887   0.277   5.988
  696SOL    HW2 2988   1.034   0.234   6.047
  697SOL     OW 2989   1.227   1.570   6.379
  697SOL    HW1 2990   1.248   1.644   6.314
  697SOL    HW2 2991   1.295   1.570   6.452
  698SOL     OW 2992   0.459   1.152   6.327
  698SOL    HW1 2993   0.388   1.125   6.392
  698SOL    HW2 2994   0.433   1.124   6.234
  699SOL     OW 2995   1.271   1.797   6.177
  699SOL    HW1 2996   1.315   1.861   6.113
  699SOL    HW2 2997   1.221   1.849   6.247
  700SOL     OW 2998   1.032   0.549   5.602
  700SOL    HW1 2999   0.991   0.631   5.563
  700SOL    HW2 3000   1.096   0.575   5.675
  701SOL     OW 3001   0.561   0.222   6.733
  701SOL    HW1 3002   0.599   0.138   6.770
  701SOL    HW2 3003   0.473   0.241   6.777
  702SOL     OW 3004   0.866   0.454   6.228
  702SOL    HW1 3005   0.834   0.526   6.166
  702SOL    HW2 3006   0.890   0.373   6.175
  703SOL     OW 3007   1.017   0.039   6.339
  703SOL    HW1 3008   0.945   0.044   6.270
  703SOL    HW2 3009   0.993  -0.030   6.408
  704SOL     OW 3010   1.429   1.173   6.453
  704SOL    HW1 3011   1.374   1.089   6.446
  704SOL    HW2 3012   1.455   1.202   6.361
  705SOL     OW 3013   1.466   0.590   6.578
  705SOL    HW1 3014   1.436   0.495   6.585
  705SOL    HW2 3015   1.539   0.606   6.644
  706SOL     OW 3016   1.857   0.833   5.963
  706SOL    HW1 3017   1.899   0.769   6.027
  706SOL    HW2 3018   1.819   0.782   5.885
  707SOL     OW 3019   0.488   1.385   5.760
  707SOL    HW1 3020   0.401   1.370   5.807
  707SOL    HW2 3021   0.471   1.411   5.665
  708SOL     OW 3022   1.664   1.280   6.243
  708SOL    HW1 3023   1.763   1.288   6.257
  708SOL    HW2 3024   1.619   1.364   6.274
  709SOL     OW 3025   1.390   0.575   5.664
  709SOL    HW1 3026   1.336   0.554   5.745
  709SOL    HW2 3027   1.481   0.534   5.673
  710SOL     OW 3028   0.527   0.256   5.914
  710SOL    HW1 3029   0.554   0.197   5.839
  710SOL    HW2 3030   0.527   0.351   5.883
  711SOL     OW 3031   1.754   1.223   7.174
  711SOL    HW1 3032   1.845   1.184   7.161
  711SOL    HW2 3033   1.762   1.319   7.198
  712SOL     OW 3034   1.111   1.195   6.686
  712SOL    HW1 3035   1.071   1.239   6.767
  712SOL    HW2 3036   1.070   1.232   6.603
  713SOL     OW 3037   1.638   1.099   6.665
  713SOL    HW1 3038   1.643   1.180   6.724
  713SOL    HW2 3039   1.552   1.101   6.614
  714SOL     OW 3040   0.705   1.050   5.954
  714SOL    HW1 3041   0.691   1.057   6.053
  714SOL    HW2 3042   0.789   0.999   5.936
  715SOL     OW 3043   0.410   0.813   6.837
  715SOL    HW1 3044   0.496   0.825   6.887
  715SOL    HW2 3045   0.368   0.726   6.864
  716SOL     OW 3046   1.274   0.386   6.848
  716SOL    HW1 3047   1.295   0.460   6.912
  716SOL    HW2 3048   1.185   0.403   6.805
  717SOL     OW 3049   0.064   1.564   6.917
  717SOL    HW1 3050   0.018   1.646   6.883
  717SOL    HW2 3051   0.162   1.583   6.926
  718SOL     OW 3052   0.367   1.100   6.087
  718SOL    HW1 3053   0.360   1.183   6.031
  718SOL    HW2 3054   0.371   1.020   6.027
  719SOL     OW 3055   0.566   0.537   6.451
  719SOL    HW1 3056   0.578   0.603   6.377
  719SOL    HW2 3057   0.612   0.571   6.534
  720SOL     OW 3058   1.252   1.348   5.974
  720SOL    HW1 3059   1.302   1.425   6.014
  720SOL    HW2 3060   1.157   1.350   6.006
  721SOL     OW 3061   1.272   1.445   6.728
  721SOL    HW1 3062   1.319   1.458   6.815
  721SOL    HW2 3063   1.206   1.371   6.737
  722SOL     OW 3064   1.582   0.639   6.058
  722SOL    HW1 3065   1.551   0.700   6.131
  722SOL    HW2 3066   1.632   0.691   5.989
  723SOL     OW 3067   0.354   1.510   6.915
  723SOL    HW1 3068   0.333   1.466   6.828
  723SOL    HW2 3069   0.451   1.536   6.918
  724SOL     OW 3070   0.573   0.870   6.615
  724SOL    HW1 3071   0.617   0.959   6.606
  724SOL    HW2 3072   0.510   0.870   6.692
  725SOL     OW 3073   1.360   0.862   6.631
  725SOL    HW1 3074   1.285   0.862   6.565
  725SOL    HW2 3075   1.397   0.770   6.640
  726SOL     OW 3076   1.209   0.525   5.861
  726SOL    HW1 3077   1.222   0.441   5.915
  726SOL    HW2 3078   1.180   0.599   5.921
  727SOL     OW 3079   0.307   0.213   6.817
  727SOL    HW1 3080   0.284   0.250   6.907
  727SOL    HW2 3081   0.277   0.118   6.811
  728SOL     OW 3082   0.037   1.310   6.868
  728SOL    HW1 3083   0.090   1.261   6.936
  728SOL    HW2 3084   0.059   1.408   6.873
  729SOL     OW 3085   0.732   0.634   6.650
  729SOL    HW1 3086   0.791   0.608   6.574
  729SOL    HW2 3087   0.704   0.730   6.639
  730SOL     OW 3088   0.307   0.063   6.204
  730SOL    HW1 3089   0.296   0.157   6.237
  730SOL    HW2 3090   0.302   0.000   6.281
  731SOL     OW 3091   1.622   0.367   5.960
  731SOL    HW1 3092   1.624   0.291   6.024
  731SOL    HW2 3093   1.574   0.444   6.000
  732SOL     OW 3094   1.023   0.766   6.552
  732SOL    HW1 3095   1.038   0.787   6.648
  732SOL    HW2 3096   0.993   0.671   6.543
  733SOL     OW 3097   1.859   1.518   7.191
  733SOL    HW1 3098   1.873   1.545   7.096
  733SOL    HW2 3099   1.942   1.540   7.244
  734SOL     OW 3100   1.540   0.274   5.711
  734SOL    HW1 3101   1.479   0.199   5.734
  734SOL    HW2 3102   1.562   0.326   5.794
  735SOL     OW 3103   1.303   0.838   5.628
  735SOL    HW1 3104   1.337   0.745   5.643
  735SOL    HW2 3105   1.321   0.865   5.533
  736SOL     OW 3106   1.068   1.333   6.435
  736SOL    HW1 3107   1.075   1.249   6.380
  736SOL    HW2 3108   1.130   1.402   6.399
  737SOL     OW 3109   0.319   0.810   6.535
  737SOL    HW1 3110   0.412   0.846   6.540
  737SOL    HW2 3111   0.313   0.725   6.587
  738SOL     OW 3112   0.339   0.509   6.592
  738SOL    HW1 3113   0.287   0.426   6.575
  738SOL    HW2 3114   0.416   0.514   6.528
  739SOL     OW 3115   1.160   0.207   7.063
  739SOL    HW1 3116   1.160   0.271   7.140
  739SOL    HW2 3117   1.188   0.255   6.980
  740SOL     OW 3118   0.008   1.326   5.786
  740SOL    HW1 3119  -0.085   1.347   5.755
  740SOL    HW2 3120   0.018   1.227   5.799
  741SOL     OW 3121   0.088   1.801   6.513
  741SOL    HW1 3122   0.046   1.715   6.486
  741SOL    HW2 3123   0.182   1.804   6.479
  742SOL     OW 3124   0.504   1.568   6.496
  742SOL    HW1 3125   0.570   1.642   6.505
  742SOL    HW2 3126   0.548   1.489   6.454
  743SOL     OW 3127   1.002   0.796   6.824
  743SOL    HW1 3128   1.043   0.764   6.910
  743SOL    HW2 3129   0.906   0.769   6.821
  744SOL     OW 3130   0.040   0.544   6.700
  744SOL    HW1 3131   0.125   0.511   6.659
  744SOL    HW2 3132   0.053   0.559   6.798
  745SOL     OW 3133   0.815   0.572   5.911
  745SOL    HW1 3134   0.822   0.483   5.865
  745SOL    HW2 3135   0.721   0.606   5.903
  746SOL     OW 3136   1.657   0.604   6.792
  746SOL    HW1 3137   1.619   0.535   6.854
  746SOL    HW2 3138   1.739   0.568   6.748
  747SOL     OW 3139   0.671   0.464   6.855
  747SOL    HW1 3140   0.637   0.375   6.825
  747SOL    HW2 3141   0.697   0.518   6.775
  748SOL     OW 3142   0.930   1.678   7.051
  748SOL    HW1 3143   0.906   1.660   6.956
  748SOL    HW2 3144   0.960   1.772   7.061
  749SOL     OW 3145   0.473   0.500   5.777
  749SOL    HW1 3146   0.534   0.580   5.781
  749SOL    HW2 3147   0.378   0.531   5.784
  750SOL     OW 3148   0.159   1.137   7.052
  750SOL    HW1 3149   0.181   1.076   7.128
  750SOL    HW2 3150   0.169   1.088   6.966
  751SOL     OW 3151   1.347   1.059   6.820
  751SOL    HW1 3152   1.371   0.996   6.746
  751SOL    HW2 3153   1.257   1.099   6.802
  752SOL     OW 3154   1.302   0.855   5.895
  752SOL    HW1 3155   1.216   0.824   5.937
  752SOL    HW2 3156   1.298   0.841   5.796
  753SOL     OW 3157   1.759   1.747   6.740
  753SOL    HW1 3158   1.820   1.777   6.667
  753SOL    HW2 3159   1.721   1.658   6.718
  754SOL     OW 3160   1.252   1.731   6.714
  754SOL    HW1 3161   1.336   1.736   6.660
  754SOL    HW2 3162   1.229   1.635   6.732
  755SOL     OW 3163   0.083   1.258   6.608
  755SOL    HW1 3164   0.078   1.257   6.708
  755SOL    HW2 3165   0.000   1.217   6.570
  756SOL     OW 3166   1.726   0.135   6.109
  756SOL    HW1 3167   1.799   0.118   6.042
  756SOL    HW2 3168   1.695   0.048   6.147
  757SOL     OW 3169   1.388   1.573   6.063
  757SOL    HW1 3170   1.455   1.585   5.989
  757SOL    HW2 3171   1.348   1.662   6.086
  758SOL     OW 3172   1.280   0.927   6.258
  758SOL    HW1 3173   1.340   0.846   6.260
  758SOL    HW2 3174   1.320   0.996   6.198
  759SOL     OW 3175   0.672   1.616   5.740
  759SOL    HW1 3176   0.681   1.626   5.641
  759SOL    HW2 3177   0.632   1.527   5.761
  760SOL     OW 3178   1.841   0.175   6.549
  760SOL    HW1 3179   1.880   0.090   6.513
  760SOL    HW2 3180   1.743   0.177   6.530
  761SOL     OW 3181   0.263   0.326   6.306
  761SOL    HW1 3182   0.184   0.377   6.272
  761SOL    HW2 3183   0.254   0.311   6.404
  762SOL     OW 3184   1.194   1.612   5.617
  762SOL    HW1 3185   1.200   1.519   5.654
  762SOL    HW2 3186   1.135   1.612   5.537
  763SOL     OW 3187   0.822   1.002   6.958
  763SOL    HW1 3188   0.862   1.001   6.866
  763SOL    HW2 3189   0.832   1.094   6.998
  764SOL     OW 3190   0.916   0.910   5.877
  764SOL    HW1 3191   0.979   0.948   5.809
  764SOL    HW2 3192   0.956   0.827   5.916
  765SOL     OW 3193   1.504   1.607   5.630
  765SOL    HW1 3194   1.412   1.644   5.637
  765SOL    HW2 3195   1.542   1.627   5.540
  766SOL     OW 3196   1.614   1.292   6.875
  766SOL    HW1 3197   1.674   1.295   6.955
  766SOL    HW2 3198   1.539   1.356   6.888
  767SOL     OW 3199   1.039   1.098   6.282
  767SOL    HW1 3200   0.969   1.051   6.336
  767SOL    HW2 3201   1.098   1.030   6.239
  768SOL     OW 3202   1.014   0.236   6.557
  768SOL    HW1 3203   1.006   0.200   6.464
  768SOL    HW2 3204   1.012   0.160   6.622
  769SOL     OW 3205   0.590   1.487   6.077
  769SOL    HW1 3206   0.632   1.429   6.007
  769SOL    HW2 3207   0.546   1.566   6.033
  770SOL     OW 3208   1.709   0.385   6.967
  770SOL    HW1 3209   1.782   0.454   6.971
  770SOL    HW2 3210   1.737   0.310   6.908
  771SOL     OW 3211   0.255   1.348   5.876
  771SOL    HW1 3212   0.159   1.349   5.849
  771SOL    HW2 3213   0.267   1.401   5.960
  772SOL     OW 3214   0.075   0.345   5.619
  772SOL    HW1 3215  -0.017   0.317   5.590
  772SOL    HW2 3216   0.106   0.422   5.563
  773SOL     OW 3217   0.072   0.166   5.904
  773SOL    HW1 3218   0.055   0.249   5.850
  773SOL    HW2 3219   0.162   0.129   5.882
  774SOL     OW 3220   1.183   1.335   5.705
  774SOL    HW1 3221   1.084   1.324   5.707
  774SOL    HW2 3222   1.217   1.350   5.798
  775SOL     OW 3223   1.493   1.767   6.545
  775SOL    HW1 3224   1.526   1.831   6.476
  775SOL    HW2 3225   1.559   1.761   6.620
  776SOL     OW 3226   1.450   1.220   7.219
  776SOL    HW1 3227   1.441   1.210   7.318
  776SOL    HW2 3228   1.546   1.213   7.193
  777SOL     OW 3229   0.390   1.741   7.146
  777SOL    HW1 3230   0.299   1.782   7.144
  777SOL    HW2 3231   0.383   1.647   7.178
  778SOL     OW 3232   1.674   0.883   6.840
  778SOL    HW1 3233   1.647   0.794   6.803
  778SOL    HW2 3234   1.675   0.951   6.767
  779SOL     OW 3235   1.225   0.325   6.035
  779SOL    HW1 3236   1.290   0.251   6.024
  779SOL    HW2 3237   1.245   0.375   6.119
  780SOL     OW 3238   0.594   0.745   6.238
  780SOL    HW1 3239   0.644   0.830   6.219
  780SOL    HW2 3240   0.506   0.747   6.190
  781SOL     OW 3241   1.730   0.934   7.103
  781SOL    HW1 3242   1.768   1.025   7.118
  781SOL    HW2 3243   1.722   0.917   7.004
  782SOL     OW 3244   0.859   1.374   5.602
  782SOL    HW1 3245   0.813   1.389   5.690
  782SOL    HW2 3246   0.903   1.459   5.572
  783SOL     OW 3247   0.661   1.790   6.539
  783SOL    HW1 3248   0.615   1.878   6.526
  783SOL    HW2 3249   0.760   1.802   6.532
  784SOL     OW 3250   0.859   0.956   6.447
  784SOL    HW1 3251   0.913   0.887   6.495
  784SOL    HW2 3252   0.827   1.025   6.513
  785SOL     OW 3253   1.083   0.984   5.673
  785SOL    HW1 3254   1.060   1.037   5.591
  785SOL    HW2 3255   1.164   0.928   5.654
  786SOL     OW 3256   1.861   1.569   6.437
  786SOL    HW1 3257   1.790   1.557   6.367
  786SOL    HW2 3258   1.862   1.490   6.497
  787SOL     OW 3259   0.079   1.240   6.239
  787SOL    HW1 3260   0.078   1.193   6.327
  787SOL    HW2 3261   0.161   1.212   6.188
  788SOL     OW 3262   1.824   0.192   6.813
  788SOL    HW1 3263   1.820   0.102   6.857
  788SOL    HW2 3264   1.827   0.181   6.714
  789SOL     OW 3265   0.428   0.424   6.106
  789SOL    HW1 3266   0.458   0.352   6.044
  789SOL    HW2 3267   0.389   0.384   6.189
  790SOL     OW 3268   1.705   1.487   6.690
  790SOL    HW1 3269   1.612   1.462   6.663
  790SOL    HW2 3270   1.731   1.437   6.772
  791SOL     OW 3271   0.317   0.547   6.866
  791SOL    HW1 3272   0.355   0.488   6.938
  791SOL    HW2 3273   0.357   0.521   6.778
  792SOL     OW 3274   0.812   1.586   6.273
  792SOL    HW1 3275   0.844   1.596   6.179
  792SOL    HW2 3276   0.733   1.524   6.275
  793SOL     OW 3277   1.424   0.214   6.698
  793SOL    HW1 3278   1.476   0.149   6.753
  793SOL    HW2 3279   1.375   0.277   6.759
  794SOL     OW 3280   1.001   0.034   6.740
  794SOL    HW1 3281   0.938  -0.038   6.709
  794SOL    HW2 3282   1.094  -0.002   6.740
  795SOL     OW 3283   0.770   1.330   5.887
  795SOL    HW1 3284   0.724   1.243   5.904
  795SOL    HW2 3285   0.861   1.327   5.928
  796SOL     OW 3286   0.618   1.567   6.870
  796SOL    HW1 3287   0.613   1.649   6.927
  796SOL    HW2 3288   0.707   1.564   6.825
  797SOL     OW 3289   1.352   0.052   5.754
  797SOL    HW1 3290   1.387   0.011   5.670
  797SOL    HW2 3291   1.262   0.014   5.774
  798SOL     OW 3292   1.300   0.453   6.277
  798SOL    HW1 3293   1.241   0.533   6.281
  798SOL    HW2 3294   1.315   0.418   6.370
  799SOL     OW 3295   1.593   0.221   6.468
  799SOL    HW1 3296   1.509   0.220   6.522
  799SOL    HW2 3297   1.595   0.304   6.412
  800SOL     OW 3298   0.039   1.077   5.886
  800SOL    HW1 3299   0.138   1.066   5.877
  800SOL    HW2 3300  -0.001   0.991   5.918
  801SOL     OW 3301   0.875   1.646   5.923
  801SOL    HW1 3302   0.798   1.611   5.869
  801SOL    HW2 3303   0.843   1.717   5.985
  802SOL     OW 3304   0.230   2.490   0.113
  802SOL    HW1 3305   0.137   2.488   0.150
  802SOL    HW2 3306   0.231   2.451   0.021
  803SOL     OW 3307   0.225   2.137   0.996
  803SOL    HW1 3308   0.260   2.120   1.088
  803SOL    HW2 3309   0.137   2.092   0.984
  804SOL     OW 3310   0.019   2.230   0.647
  804SOL    HW1 3311  -0.063   2.273   0.686
  804SOL    HW2 3312  -0.009   2.157   0.584
  805SOL     OW 3313   0.569   3.137   1.165
  805SOL    HW1 3314   0.476   3.130   1.128
  805SOL    HW2 3315   0.580   3.226   1.209
  806SOL     OW 3316   1.555   3.373   0.703
  806SOL    HW1 3317   1.498   3.357   0.784
  806SOL    HW2 3318   1.496   3.383   0.623
  807SOL     OW 3319   1.135   2.565   0.717
  807SOL    HW1 3320   1.192   2.643   0.692
  807SOL    HW2 3321   1.075   2.591   0.793
  808SOL     OW 3322   1.755   2.469   0.231
  808SOL    HW1 3323   1.743   2.456   0.132
  808SOL    HW2 3324   1.725   2.388   0.280
  809SOL     OW 3325   0.768   3.006   1.023
  809SOL    HW1 3326   0.690   3.023   1.083
  809SOL    HW2 3327   0.802   3.093   0.987
  810SOL     OW 3328   0.850   2.660   1.823
  810SOL    HW1 3329   0.846   2.736   1.888
  810SOL    HW2 3330   0.872   2.696   1.732
  811SOL     OW 3331   0.685   2.874   0.665
  811SOL    HW1 3332   0.754   2.858   0.735
  811SOL    HW2 3333   0.612   2.931   0.703
  812SOL     OW 3334   0.686   3.023   1.803
  812SOL    HW1 3335   0.746   3.102   1.817
  812SOL    HW2 3336   0.600   3.054   1.762
  813SOL     OW 3337   0.335   3.297   1.061
  813SOL    HW1 3338   0.257   3.266   1.008
  813SOL    HW2 3339   0.393   3.355   1.004
  814SOL     OW 3340   1.460   3.367   1.339
  814SOL    HW1 3341   1.484   3.461   1.365
  814SOL    HW2 3342   1.444   3.313   1.421
  815SOL     OW 3343   0.438   2.254   1.499
  815SOL    HW1 3344   0.520   2.198   1.508
  815SOL    HW2 3345   0.357   2.196   1.503
  816SOL     OW 3346   1.603   2.309   0.737
  816SOL    HW1 3347   1.529   2.355   0.687
  816SOL    HW2 3348   1.654   2.377   0.790
  817SOL     OW 3349   0.231   3.575   0.483
  817SOL    HW1 3350   0.265   3.652   0.537
  817SOL    HW2 3351   0.275   3.575   0.393
  818SOL     OW 3352   1.127   3.203   1.690
  818SOL    HW1 3353   1.174   3.203   1.778
  818SOL    HW2 3354   1.079   3.116   1.679
  819SOL     OW 3355   0.230   3.296   0.538
  819SOL    HW1 3356   0.204   3.392   0.538
  819SOL    HW2 3357   0.159   3.242   0.583
  820SOL     OW 3358   0.240   2.953   0.886
  820SOL    HW1 3359   0.254   2.869   0.938
  820SOL    HW2 3360   0.185   3.017   0.941
  821SOL     OW 3361   0.620   3.648   1.439
  821SOL    HW1 3362   0.528   3.631   1.474
  821SOL    HW2 3363   0.648   3.740   1.465
  822SOL     OW 3364   0.606   2.826   0.123
  822SOL    HW1 3365   0.613   2.910   0.069
  822SOL    HW2 3366   0.652   2.839   0.211
  823SOL     OW 3367   1.594   1.976   1.480
  823SOL    HW1 3368   1.576   2.043   1.408
  823SOL    HW2 3369   1.591   2.022   1.569
  824SOL     OW 3370   0.122   2.505   0.563
  824SOL    HW1 3371   0.077   2.417   0.580
  824SOL    HW2 3372   0.121   2.559   0.647
  825SOL     OW 3373   1.842   3.629   0.359
  825SOL    HW1 3374   1.896   3.600   0.439
  825SOL    HW2 3375   1.872   3.719   0.330
  826SOL     OW 3376   0.027   3.458   0.117
  826SOL    HW1 3377   0.008   3.362   0.138
  826SOL    HW2 3378  -0.006   3.516   0.192
  827SOL     OW 3379   1.689   2.784   0.612
  827SOL    HW1 3380   1.784   2.755   0.620
  827SOL    HW2 3381   1.681   2.849   0.537
  828SOL     OW 3382   1.641   2.970   0.432
  828SOL    HW1 3383   1.727   2.972   0.380
  828SOL    HW2 3384   1.655   3.017   0.520
  829SOL     OW 3385   0.113   2.599   1.597
  829SOL    HW1 3386   0.201   2.586   1.642
  829SOL    HW2 3387   0.100   2.696   1.575
  830SOL     OW 3388   0.613   3.227   0.726
  830SOL    HW1 3389   0.564   3.140   0.735
  830SOL    HW2 3390   0.590   3.270   0.639
  831SOL     OW 3391   1.293   3.090   1.423
  831SOL    HW1 3392   1.330   3.017   1.365
  831SOL    HW2 3393   1.345   3.095   1.508
  832SOL     OW 3394   0.809   1.866   0.502
  832SOL    HW1 3395   0.849   1.957   0.493
  832SOL    HW2 3396   0.709   1.874   0.508
  833SOL     OW 3397   0.197   2.838   1.264
  833SOL    HW1 3398   0.286   2.793   1.250
  833SOL    HW2 3399   0.124   2.773   1.245
  834SOL     OW 3400   1.525   2.861   0.190
  834SOL    HW1 3401   1.462   2.785   0.203
  834SOL    HW2 3402   1.573   2.879   0.276
  835SOL     OW 3403   1.187   3.654   1.616
  835SOL    HW1 3404   1.211   3.714   1.540
  835SOL    HW2 3405   1.194   3.559   1.586
  836SOL     OW 3406   0.317   2.113   1.801
  836SOL    HW1 3407   0.388   2.184   1.807
  836SOL    HW2 3408   0.229   2.152   1.829
  837SOL     OW 3409   1.466   3.279   0.953
  837SOL    HW1 3410   1.407   3.285   1.033
  837SOL    HW2 3411   1.451   3.191   0.907
  838SOL     OW 3412   1.667   3.576   0.572
  838SOL    HW1 3413   1.626   3.553   0.484
  838SOL    HW2 3414   1.649   3.502   0.637
  839SOL     OW 3415   0.598   2.591   0.270
  839SOL    HW1 3416   0.622   2.660   0.202
  839SOL    HW2 3417   0.520   2.624   0.324
  840SOL     OW 3418   1.281   2.207   0.944
  840SOL    HW1 3419   1.195   2.157   0.931
  840SOL    HW2 3420   1.343   2.153   1.000
  841SOL     OW 3421   1.576   3.524   0.307
  841SOL    HW1 3422   1.665   3.570   0.310
  841SOL    HW2 3423   1.555   3.500   0.212
  842SOL     OW 3424   0.807   2.467   1.465
  842SOL    HW1 3425   0.760   2.464   1.554
  842SOL    HW2 3426   0.756   2.412   1.399
  843SOL     OW 3427   1.394   2.331   1.674
  843SOL    HW1 3428   1.374   2.374   1.762
  843SOL    HW2 3429   1.472   2.269   1.683
  844SOL     OW 3430   0.973   2.752   1.572
  844SOL    HW1 3431   1.019   2.668   1.543
  844SOL    HW2 3432   0.917   2.786   1.497
  845SOL     OW 3433   0.991   2.272   1.242
  845SOL    HW1 3434   0.914   2.306   1.296
  845SOL    HW2 3435   0.957   2.221   1.163
  846SOL     OW 3436   1.041   2.563   0.429
  846SOL    HW1 3437   1.067   2.559   0.525
  846SOL    HW2 3438   0.956   2.512   0.415
  847SOL     OW 3439   0.076   2.673   0.789
  847SOL    HW1 3440   0.175   2.661   0.798
  847SOL    HW2 3441   0.052   2.768   0.810
  848SOL     OW 3442   0.130   3.683   1.571
  848SOL    HW1 3443   0.120   3.668   1.670
  848SOL    HW2 3444   0.044   3.719   1.535
  849SOL     OW 3445   0.865   2.210   0.195
  849SOL    HW1 3446   0.924   2.273   0.146
  849SOL    HW2 3447   0.884   2.116   0.166
  850SOL     OW 3448   1.719   2.447   1.831
  850SOL    HW1 3449   1.693   2.536   1.795
  850SOL    HW2 3450   1.717   2.379   1.758
  851SOL     OW 3451   1.362   3.006   0.545
  851SOL    HW1 3452   1.445   2.977   0.497
  851SOL    HW2 3453   1.313   3.073   0.489
  852SOL     OW 3454   0.550   2.058   0.885
  852SOL    HW1 3455   0.545   2.053   0.985
  852SOL    HW2 3456   0.552   2.154   0.856
  853SOL     OW 3457   1.008   3.318   0.477
  853SOL    HW1 3458   0.962   3.390   0.425
  853SOL    HW2 3459   1.004   3.338   0.575
  854SOL     OW 3460   0.351   3.663   0.853
  854SOL    HW1 3461   0.401   3.577   0.859
  854SOL    HW2 3462   0.416   3.740   0.850
  855SOL     OW 3463   1.795   2.928   0.873
  855SOL    HW1 3464   1.733   2.913   0.797
  855SOL    HW2 3465   1.743   2.939   0.958
  856SOL     OW 3466   1.227   3.412   1.506
  856SOL    HW1 3467   1.233   3.335   1.570
  856SOL    HW2 3468   1.175   3.386   1.426
  857SOL     OW 3469   0.321   2.805   0.242
  857SOL    HW1 3470   0.403   2.844   0.200
  857SOL    HW2 3471   0.294   2.723   0.193
  858SOL     OW 3472   1.458   2.597   0.728
  858SOL    HW1 3473   1.453   2.532   0.803
  858SOL    HW2 3474   1.538   2.656   0.741
  859SOL     OW 3475   0.461   3.128   1.727
  859SOL    HW1 3476   0.411   3.129   1.641
  859SOL    HW2 3477   0.398   3.110   1.803
  860SOL     OW 3478   1.111   3.638   0.237
  860SOL    HW1 3479   1.051   3.576   0.287
  860SOL    HW2 3480   1.142   3.594   0.152
  861SOL     OW 3481   0.202   2.147   1.498
  861SOL    HW1 3482   0.122   2.207   1.485
  861SOL    HW2 3483   0.192   2.098   1.584
  862SOL     OW 3484   1.632   3.239   0.081
  862SOL    HW1 3485   1.600   3.333   0.071
  862SOL    HW2 3486   1.556   3.176   0.069
  863SOL     OW 3487   0.464   3.605   0.323
  863SOL    HW1 3488   0.497   3.644   0.409
  863SOL    HW2 3489   0.540   3.598   0.258
  864SOL     OW 3490   1.400   1.969   0.426
  864SOL    HW1 3491   1.376   1.932   0.336
  864SOL    HW2 3492   1.499   1.985   0.430
  865SOL     OW 3493   0.249   3.647   1.241
  865SOL    HW1 3494   0.306   3.582   1.291
  865SOL    HW2 3495   0.233   3.614   1.148
  866SOL     OW 3496   0.940   3.560   0.904
  866SOL    HW1 3497   1.020   3.503   0.925
  866SOL    HW2 3498   0.891   3.520   0.827
  867SOL     OW 3499   0.382   2.562   0.480
  867SOL    HW1 3500   0.427   2.472   0.477
  867SOL    HW2 3501   0.288   2.551   0.513
  868SOL     OW 3502   1.547   2.084   1.729
  868SOL    HW1 3503   1.542   2.121   1.821
  868SOL    HW2 3504   1.475   2.015   1.717
  869SOL     OW 3505   0.781   2.126   1.749
  869SOL    HW1 3506   0.848   2.065   1.792
  869SOL    HW2 3507   0.708   2.145   1.814
  870SOL     OW 3508   0.888   3.376   1.195
  870SOL    HW1 3509   0.865   3.351   1.101
  870SOL    HW2 3510   0.949   3.307   1.234
  871SOL     OW 3511   1.351   2.452   1.433
  871SOL    HW1 3512   1.379   2.409   1.518
  871SOL    HW2 3513   1.376   2.548   1.434
  872SOL     OW 3514   0.803   3.264   0.924
  872SOL    HW1 3515   0.893   3.278   0.882
  872SOL    HW2 3516   0.732   3.266   0.853
  873SOL     OW 3517   0.922   2.365   0.899
  873SOL    HW1 3518   0.897   2.356   0.803
  873SOL    HW2 3519   0.970   2.283   0.930
  874SOL     OW 3520   0.539   1.926   0.512
  874SOL    HW1 3521   0.458   1.927   0.570
  874SOL    HW2 3522   0.542   2.009   0.457
  875SOL     OW 3523   1.434   3.050   0.041
  875SOL    HW1 3524   1.466   2.974   0.098
  875SOL    HW2 3525   1.342   3.077   0.071
  876SOL     OW 3526   0.935   2.098   0.480
  876SOL    HW1 3527   0.887   2.139   0.402
  876SOL    HW2 3528   1.034   2.096   0.461
  877SOL     OW 3529   1.076   2.545   1.464
  877SOL    HW1 3530   0.996   2.484   1.467
  877SOL    HW2 3531   1.157   2.492   1.440
  878SOL     OW 3532   1.227   3.432   0.793
  878SOL    HW1 3533   1.248   3.506   0.728
  878SOL    HW2 3534   1.295   3.432   0.866
  879SOL     OW 3535   0.459   3.014   0.741
  879SOL    HW1 3536   0.388   2.987   0.806
  879SOL    HW2 3537   0.433   2.986   0.648
  880SOL     OW 3538   1.271   3.659   0.591
  880SOL    HW1 3539   1.315   3.723   0.527
  880SOL    HW2 3540   1.221   3.711   0.661
  881SOL     OW 3541   1.032   2.411   0.016
  881SOL    HW1 3542   0.991   2.493  -0.023
  881SOL    HW2 3543   1.096   2.437   0.089
  882SOL     OW 3544   0.078   2.418   1.386
  882SOL    HW1 3545   0.170   2.417   1.345
  882SOL    HW2 3546   0.072   2.492   1.453
  883SOL     OW 3547   0.561   2.084   1.147
  883SOL    HW1 3548   0.599   2.000   1.184
  883SOL    HW2 3549   0.473   2.103   1.191
  884SOL     OW 3550   0.866   2.316   0.642
  884SOL    HW1 3551   0.834   2.388   0.580
  884SOL    HW2 3552   0.890   2.235   0.589
  885SOL     OW 3553   1.017   1.901   0.753
  885SOL    HW1 3554   0.945   1.906   0.684
  885SOL    HW2 3555   0.993   1.832   0.822
  886SOL     OW 3556   1.429   3.035   0.867
  886SOL    HW1 3557   1.374   2.951   0.860
  886SOL    HW2 3558   1.455   3.064   0.775
  887SOL     OW 3559   1.466   2.452   0.992
  887SOL    HW1 3560   1.436   2.357   0.999
  887SOL    HW2 3561   1.539   2.468   1.058
  888SOL     OW 3562   1.857   2.695   0.377
  888SOL    HW1 3563   1.899   2.631   0.441
  888SOL    HW2 3564   1.819   2.644   0.299
  889SOL     OW 3565   0.488   3.247   0.174
  889SOL    HW1 3566   0.401   3.232   0.221
  889SOL    HW2 3567   0.471   3.273   0.079
  890SOL     OW 3568   1.664   3.142   0.657
  890SOL    HW1 3569   1.763   3.150   0.671
  890SOL    HW2 3570   1.619   3.226   0.688
  891SOL     OW 3571   1.390   2.437   0.078
  891SOL    HW1 3572   1.336   2.416   0.159
  891SOL    HW2 3573   1.481   2.396   0.087
  892SOL     OW 3574   0.527   2.118   0.328
  892SOL    HW1 3575   0.554   2.059   0.253
  892SOL    HW2 3576   0.527   2.213   0.297
  893SOL     OW 3577   1.754   3.085   1.588
  893SOL    HW1 3578   1.845   3.046   1.575
  893SOL    HW2 3579   1.762   3.181   1.612
  894SOL     OW 3580   1.064   3.209   1.340
  894SOL    HW1 3581   0.984   3.186   1.395
  894SOL    HW2 3582   1.147   3.183   1.389
  895SOL     OW 3583   1.592   3.491   1.625
  895SOL    HW1 3584   1.619   3.525   1.535
  895SOL    HW2 3585   1.671   3.453   1.671
  896SOL     OW 3586   1.111   3.057   1.100
  896SOL    HW1 3587   1.071   3.101   1.181
  896SOL    HW2 3588   1.070   3.094   1.017
  897SOL     OW 3589   1.638   2.961   1.079
  897SOL    HW1 3590   1.643   3.042   1.138
  897SOL    HW2 3591   1.552   2.963   1.028
  898SOL     OW 3592   0.915   1.951   1.402
  898SOL    HW1 3593   0.940   1.931   1.307
  898SOL    HW2 3594   0.987   2.007   1.444
  899SOL     OW 3595   0.980   2.978   1.719
  899SOL    HW1 3596   0.881   2.984   1.729
  899SOL    HW2 3597   1.003   2.898   1.663
  900SOL     OW 3598   0.705   2.912   0.368
  900SOL    HW1 3599   0.691   2.919   0.467
  900SOL    HW2 3600   0.789   2.861   0.350
  901SOL     OW 3601   0.410   2.675   1.251
  901SOL    HW1 3602   0.496   2.687   1.301
  901SOL    HW2 3603   0.368   2.588   1.278
  902SOL     OW 3604   1.274   2.248   1.262
  902SOL    HW1 3605   1.295   2.322   1.326
  902SOL    HW2 3606   1.185   2.265   1.219
  903SOL     OW 3607   0.064   3.426   1.331
  903SOL    HW1 3608   0.018   3.508   1.297
  903SOL    HW2 3609   0.162   3.445   1.340
  904SOL     OW 3610   0.367   2.962   0.501
  904SOL    HW1 3611   0.360   3.045   0.445
  904SOL    HW2 3612   0.371   2.882   0.441
  905SOL     OW 3613   0.566   2.399   0.865
  905SOL    HW1 3614   0.578   2.465   0.791
  905SOL    HW2 3615   0.612   2.433   0.948
  906SOL     OW 3616   1.252   3.210   0.388
  906SOL    HW1 3617   1.302   3.287   0.428
  906SOL    HW2 3618   1.157   3.212   0.420
  907SOL     OW 3619   1.272   3.307   1.142
  907SOL    HW1 3620   1.319   3.320   1.229
  907SOL    HW2 3621   1.206   3.233   1.151
  908SOL     OW 3622   1.582   2.501   0.472
  908SOL    HW1 3623   1.551   2.562   0.545
  908SOL    HW2 3624   1.632   2.553   0.403
  909SOL     OW 3625   0.354   3.372   1.329
  909SOL    HW1 3626   0.333   3.328   1.242
  909SOL    HW2 3627   0.451   3.398   1.332
  910SOL     OW 3628   0.402   2.613   1.598
  910SOL    HW1 3629   0.470   2.668   1.551
  910SOL    HW2 3630   0.442   2.525   1.625
  911SOL     OW 3631   1.587   2.641   1.670
  911SOL    HW1 3632   1.495   2.679   1.665
  911SOL    HW2 3633   1.647   2.688   1.605
  912SOL     OW 3634   1.013   1.967   1.770
  912SOL    HW1 3635   1.019   2.052   1.718
  912SOL    HW2 3636   1.045   1.891   1.713
  913SOL     OW 3637   0.504   1.912   1.740
  913SOL    HW1 3638   0.462   1.855   1.670
  913SOL    HW2 3639   0.438   1.981   1.772
  914SOL     OW 3640   0.573   2.732   1.029
  914SOL    HW1 3641   0.617   2.821   1.020
  914SOL    HW2 3642   0.510   2.732   1.106
  915SOL     OW 3643   1.360   2.724   1.045
  915SOL    HW1 3644   1.285   2.724   0.979
  915SOL    HW2 3645   1.397   2.632   1.054
  916SOL     OW 3646   1.209   2.387   0.275
  916SOL    HW1 3647   1.222   2.303   0.329
  916SOL    HW2 3648   1.180   2.461   0.335
  917SOL     OW 3649   0.307   2.075   1.231
  917SOL    HW1 3650   0.284   2.112   1.321
  917SOL    HW2 3651   0.277   1.980   1.225
  918SOL     OW 3652   0.037   3.172   1.282
  918SOL    HW1 3653   0.090   3.123   1.350
  918SOL    HW2 3654   0.059   3.270   1.287
  919SOL     OW 3655   0.732   2.496   1.064
  919SOL    HW1 3656   0.791   2.470   0.988
  919SOL    HW2 3657   0.704   2.592   1.053
  920SOL     OW 3658   1.728   2.797   1.854
  920SOL    HW1 3659   1.682   2.790   1.765
  920SOL    HW2 3660   1.666   2.841   1.920
  921SOL     OW 3661   0.307   1.925   0.618
  921SOL    HW1 3662   0.296   2.019   0.651
  921SOL    HW2 3663   0.302   1.862   0.695
  922SOL     OW 3664   1.622   2.229   0.374
  922SOL    HW1 3665   1.624   2.153   0.438
  922SOL    HW2 3666   1.574   2.306   0.414
  923SOL     OW 3667   1.023   2.628   0.966
  923SOL    HW1 3668   1.038   2.649   1.062
  923SOL    HW2 3669   0.993   2.533   0.957
  924SOL     OW 3670   0.980   3.435   1.700
  924SOL    HW1 3671   0.960   3.479   1.612
  924SOL    HW2 3672   1.019   3.344   1.684
  925SOL     OW 3673   1.859   3.380   1.605
  925SOL    HW1 3674   1.873   3.407   1.510
  925SOL    HW2 3675   1.942   3.402   1.658
  926SOL     OW 3676   0.350   2.760   1.804
  926SOL    HW1 3677   0.426   2.804   1.852
  926SOL    HW2 3678   0.385   2.713   1.722
  927SOL     OW 3679   1.540   2.136   0.125
  927SOL    HW1 3680   1.479   2.061   0.148
  927SOL    HW2 3681   1.562   2.188   0.208
  928SOL     OW 3682   1.303   2.700   0.042
  928SOL    HW1 3683   1.337   2.607   0.057
  928SOL    HW2 3684   1.321   2.727  -0.053
  929SOL     OW 3685   1.068   3.195   0.849
  929SOL    HW1 3686   1.075   3.111   0.794
  929SOL    HW2 3687   1.130   3.264   0.813
  930SOL     OW 3688   0.319   2.672   0.949
  930SOL    HW1 3689   0.412   2.708   0.954
  930SOL    HW2 3690   0.313   2.587   1.001
  931SOL     OW 3691   0.339   2.371   1.006
  931SOL    HW1 3692   0.287   2.288   0.989
  931SOL    HW2 3693   0.416   2.376   0.942
  932SOL     OW 3694   1.138   2.242   1.678
  932SOL    HW1 3695   1.093   2.305   1.742
  932SOL    HW2 3696   1.231   2.273   1.661
  933SOL     OW 3697   1.160   2.069   1.477
  933SOL    HW1 3698   1.160   2.133   1.554
  933SOL    HW2 3699   1.188   2.117   1.394
  934SOL     OW 3700   0.008   3.188   0.200
  934SOL    HW1 3701  -0.085   3.209   0.169
  934SOL    HW2 3702   0.018   3.089   0.213
  935SOL     OW 3703   0.088   3.663   0.927
  935SOL    HW1 3704   0.046   3.577   0.900
  935SOL    HW2 3705   0.182   3.666   0.893
  936SOL     OW 3706   0.504   3.430   0.910
  936SOL    HW1 3707   0.570   3.504   0.919
  936SOL    HW2 3708   0.548   3.351   0.868
  937SOL     OW 3709   1.002   2.658   1.238
  937SOL    HW1 3710   1.043   2.626   1.324
  937SOL    HW2 3711   0.906   2.631   1.235
  938SOL     OW 3712   0.040   2.406   1.114
  938SOL    HW1 3713   0.125   2.373   1.073
  938SOL    HW2 3714   0.053   2.421   1.212
  939SOL     OW 3715   0.189   2.382   1.722
  939SOL    HW1 3716   0.248   2.342   1.652
  939SOL    HW2 3717   0.131   2.453   1.681
  940SOL     OW 3718   1.369   2.812   1.660
  940SOL    HW1 3719   1.408   2.901   1.680
  940SOL    HW2 3720   1.379   2.792   1.563
  941SOL     OW 3721   0.815   2.434   0.325
  941SOL    HW1 3722   0.822   2.345   0.279
  941SOL    HW2 3723   0.721   2.468   0.317
  942SOL     OW 3724   1.657   2.466   1.206
  942SOL    HW1 3725   1.619   2.397   1.268
  942SOL    HW2 3726   1.739   2.430   1.162
  943SOL     OW 3727   0.252   3.426   1.744
  943SOL    HW1 3728   0.222   3.483   1.820
  943SOL    HW2 3729   0.245   3.329   1.770
  944SOL     OW 3730   0.671   2.326   1.269
  944SOL    HW1 3731   0.637   2.237   1.239
  944SOL    HW2 3732   0.697   2.380   1.189
  945SOL     OW 3733   0.930   3.540   1.465
  945SOL    HW1 3734   0.906   3.522   1.370
  945SOL    HW2 3735   0.960   3.634   1.475
  946SOL     OW 3736   0.473   2.362   0.191
  946SOL    HW1 3737   0.534   2.442   0.195
  946SOL    HW2 3738   0.378   2.393   0.198
  947SOL     OW 3739   0.159   2.999   1.466
  947SOL    HW1 3740   0.181   2.938   1.542
  947SOL    HW2 3741   0.169   2.950   1.380
  948SOL     OW 3742   1.347   2.921   1.234
  948SOL    HW1 3743   1.371   2.858   1.160
  948SOL    HW2 3744   1.257   2.961   1.216
  949SOL     OW 3745   1.302   2.717   0.309
  949SOL    HW1 3746   1.216   2.686   0.351
  949SOL    HW2 3747   1.298   2.703   0.210
  950SOL     OW 3748   1.759   3.609   1.154
  950SOL    HW1 3749   1.820   3.639   1.081
  950SOL    HW2 3750   1.721   3.520   1.132
  951SOL     OW 3751   1.252   3.593   1.128
  951SOL    HW1 3752   1.336   3.598   1.074
  951SOL    HW2 3753   1.229   3.497   1.146
  952SOL     OW 3754   0.083   3.120   1.022
  952SOL    HW1 3755   0.078   3.119   1.122
  952SOL    HW2 3756   0.000   3.079   0.984
  953SOL     OW 3757   0.688   3.524   1.716
  953SOL    HW1 3758   0.632   3.605   1.725
  953SOL    HW2 3759   0.740   3.528   1.630
  954SOL     OW 3760   0.903   1.948   0.133
  954SOL    HW1 3761   0.954   1.949   0.047
  954SOL    HW2 3762   0.959   1.906   0.204
  955SOL     OW 3763   1.726   1.997   0.523
  955SOL    HW1 3764   1.799   1.980   0.456
  955SOL    HW2 3765   1.695   1.910   0.561
  956SOL     OW 3766   1.388   3.435   0.477
  956SOL    HW1 3767   1.455   3.447   0.403
  956SOL    HW2 3768   1.348   3.524   0.500
  957SOL     OW 3769   0.130   3.656   1.851
  957SOL    HW1 3770   0.089   3.582   1.904
  957SOL    HW2 3771   0.194   3.707   1.909
  958SOL     OW 3772   1.280   2.789   0.672
  958SOL    HW1 3773   1.340   2.708   0.674
  958SOL    HW2 3774   1.320   2.858   0.612
  959SOL     OW 3775   0.830   3.135   1.422
  959SOL    HW1 3776   0.825   3.168   1.517
  959SOL    HW2 3777   0.744   3.154   1.376
  960SOL     OW 3778   0.672   3.478   0.154
  960SOL    HW1 3779   0.681   3.488   0.055
  960SOL    HW2 3780   0.632   3.389   0.175
  961SOL     OW 3781   1.650   3.582   1.394
  961SOL    HW1 3782   1.703   3.592   1.310
  961SOL    HW2 3783   1.623   3.672   1.428
  962SOL     OW 3784   1.841   2.037   0.963
  962SOL    HW1 3785   1.880   1.952   0.927
  962SOL    HW2 3786   1.743   2.039   0.944
  963SOL     OW 3787   0.263   2.188   0.720
  963SOL    HW1 3788   0.184   2.239   0.686
  963SOL    HW2 3789   0.254   2.173   0.818
  964SOL     OW 3790   1.194   3.474   0.031
  964SOL    HW1 3791   1.200   3.381   0.068
  964SOL    HW2 3792   1.135   3.474  -0.049
  965SOL     OW 3793   0.822   2.864   1.372
  965SOL    HW1 3794   0.862   2.863   1.280
  965SOL    HW2 3795   0.832   2.956   1.412
  966SOL     OW 3796   0.916   2.772   0.291
  966SOL    HW1 3797   0.979   2.810   0.223
  966SOL    HW2 3798   0.956   2.689   0.330
  967SOL     OW 3799   1.504   3.469   0.044
  967SOL    HW1 3800   1.412   3.506   0.051
  967SOL    HW2 3801   1.542   3.489  -0.046
  968SOL     OW 3802   0.372   3.150   1.490
  968SOL    HW1 3803   0.359   3.243   1.456
  968SOL    HW2 3804   0.288   3.098   1.477
  969SOL     OW 3805   1.614   3.154   1.289
  969SOL    HW1 3806   1.674   3.157   1.369
  969SOL    HW2 3807   1.539   3.218   1.302
  970SOL     OW 3808   1.039   2.960   0.696
  970SOL    HW1 3809   0.969   2.913   0.750
  970SOL    HW2 3810   1.098   2.892   0.653
  971SOL     OW 3811   1.014   2.098   0.971
  971SOL    HW1 3812   1.006   2.062   0.878
  971SOL    HW2 3813   1.012   2.022   1.036
  972SOL     OW 3814   0.590   3.349   0.491
  972SOL    HW1 3815   0.632   3.291   0.421
  972SOL    HW2 3816   0.546   3.428   0.447
  973SOL     OW 3817   1.709   2.247   1.381
  973SOL    HW1 3818   1.782   2.316   1.385
  973SOL    HW2 3819   1.737   2.172   1.322
  974SOL     OW 3820   0.255   3.210   0.290
  974SOL    HW1 3821   0.159   3.211   0.263
  974SOL    HW2 3822   0.267   3.263   0.374
  975SOL     OW 3823   0.105   2.875   1.726
  975SOL    HW1 3824   0.028   2.842   1.780
  975SOL    HW2 3825   0.190   2.845   1.768
  976SOL     OW 3826   0.672   2.065   1.489
  976SOL    HW1 3827   0.762   2.049   1.449
  976SOL    HW2 3828   0.680   2.070   1.588
  977SOL     OW 3829   0.075   2.207   0.033
  977SOL    HW1 3830  -0.017   2.179   0.004
  977SOL    HW2 3831   0.106   2.284  -0.023
  978SOL     OW 3832   1.440   2.718   1.398
  978SOL    HW1 3833   1.383   2.770   1.335
  978SOL    HW2 3834   1.536   2.730   1.374
  979SOL     OW 3835   0.072   2.028   0.318
  979SOL    HW1 3836   0.055   2.111   0.264
  979SOL    HW2 3837   0.162   1.991   0.296
  980SOL     OW 3838   1.183   3.197   0.119
  980SOL    HW1 3839   1.084   3.186   0.121
  980SOL    HW2 3840   1.217   3.212   0.212
  981SOL     OW 3841   0.613   2.704   1.431
  981SOL    HW1 3842   0.669   2.785   1.414
  981SOL    HW2 3843   0.672   2.624   1.434
  982SOL     OW 3844   1.493   3.629   0.959
  982SOL    HW1 3845   1.526   3.693   0.890
  982SOL    HW2 3846   1.559   3.623   1.034
  983SOL     OW 3847   0.716   2.427   1.708
  983SOL    HW1 3848   0.735   2.492   1.782
  983SOL    HW2 3849   0.776   2.347   1.717
  984SOL     OW 3850   1.450   3.082   1.633
  984SOL    HW1 3851   1.441   3.072   1.732
  984SOL    HW2 3852   1.546   3.075   1.607
  985SOL     OW 3853   0.390   3.603   1.560
  985SOL    HW1 3854   0.299   3.644   1.558
  985SOL    HW2 3855   0.383   3.509   1.592
  986SOL     OW 3856   1.674   2.745   1.254
  986SOL    HW1 3857   1.647   2.656   1.217
  986SOL    HW2 3858   1.675   2.813   1.181
  987SOL     OW 3859   1.225   2.187   0.449
  987SOL    HW1 3860   1.290   2.113   0.438
  987SOL    HW2 3861   1.245   2.237   0.533
  988SOL     OW 3862   0.594   2.607   0.652
  988SOL    HW1 3863   0.644   2.692   0.633
  988SOL    HW2 3864   0.506   2.609   0.604
  989SOL     OW 3865   1.777   2.204   1.642
  989SOL    HW1 3866   1.760   2.235   1.548
  989SOL    HW2 3867   1.693   2.167   1.680
  990SOL     OW 3868   1.730   2.796   1.517
  990SOL    HW1 3869   1.768   2.887   1.532
  990SOL    HW2 3870   1.722   2.779   1.418
  991SOL     OW 3871   0.859   3.236   0.016
  991SOL    HW1 3872   0.813   3.251   0.104
  991SOL    HW2 3873   0.903   3.321  -0.014
  992SOL     OW 3874   0.661   3.652   0.953
  992SOL    HW1 3875   0.615   3.740   0.940
  992SOL    HW2 3876   0.760   3.664   0.946
  993SOL     OW 3877   0.859   2.818   0.861
  993SOL    HW1 3878   0.913   2.749   0.909
  993SOL    HW2 3879   0.827   2.887   0.927
  994SOL     OW 3880   1.083   2.846   0.087
  994SOL    HW1 3881   1.060   2.899   0.005
  994SOL    HW2 3882   1.164   2.790   0.068
  995SOL     OW 3883   1.861   3.431   0.851
  995SOL    HW1 3884   1.790   3.419   0.781
  995SOL    HW2 3885   1.862   3.352   0.911
  996SOL     OW 3886   0.221   3.176   1.844
  996SOL    HW1 3887   0.156   3.103   1.823
  996SOL    HW2 3888   0.225   3.190   1.942
  997SOL     OW 3889   0.079   3.102   0.653
  997SOL    HW1 3890   0.078   3.055   0.741
  997SOL    HW2 3891   0.161   3.074   0.602
  998SOL     OW 3892   0.672   3.253   1.624
  998SOL    HW1 3893   0.594   3.203   1.662
  998SOL    HW2 3894   0.669   3.348   1.655
  999SOL     OW 3895   1.824   2.054   1.227
  999SOL    HW1 3896   1.820   1.964   1.271
  999SOL    HW2 3897   1.827   2.043   1.128
 1000SOL     OW 3898   0.428   2.286   0.520
 1000SOL    HW1 3899   0.458   2.214   0.458
 1000SOL    HW2 3900   0.389   2.246   0.603
 1001SOL     OW 3901   1.705   3.349   1.104
 1001SOL    HW1 3902   1.612   3.324   1.077
 1001SOL    HW2 3903   1.731   3.299   1.186
 1002SOL     OW 3904   0.317   2.409   1.280
 1002SOL    HW1 3905   0.355   2.350   1.352
 1002SOL    HW2 3906   0.357   2.383   1.192
 1003SOL     OW 3907   0.812   3.448   0.687
 1003SOL    HW1 3908   0.844   3.458   0.593
 1003SOL    HW2 3909   0.733   3.386   0.689
 1004SOL     OW 3910   1.424   2.076   1.112
 1004SOL    HW1 3911   1.476   2.011   1.167
 1004SOL    HW2 3912   1.375   2.139   1.173
 1005SOL     OW 3913   1.001   1.896   1.154
 1005SOL    HW1 3914   0.938   1.824   1.123
 1005SOL    HW2 3915   1.094   1.860   1.154
 1006SOL     OW 3916   0.770   3.192   0.301
 1006SOL    HW1 3917   0.724   3.105   0.318
 1006SOL    HW2 3918   0.861   3.189   0.342
 1007SOL     OW 3919   0.618   3.429   1.284
 1007SOL    HW1 3920   0.613   3.511   1.341
 1007SOL    HW2 3921   0.707   3.426   1.239
 1008SOL     OW 3922   1.352   1.914   0.168
 1008SOL    HW1 3923   1.387   1.873   0.084
 1008SOL    HW2 3924   1.262   1.876   0.188
 1009SOL     OW 3925   1.300   2.315   0.691
 1009SOL    HW1 3926   1.241   2.395   0.695
 1009SOL    HW2 3927   1.315   2.280   0.784
 1010SOL     OW 3928   1.593   2.083   0.882
 1010SOL    HW1 3929   1.509   2.082   0.936
 1010SOL    HW2 3930   1.595   2.166   0.826
 1011SOL     OW 3931   0.039   2.939   0.300
 1011SOL    HW1 3932   0.138   2.928   0.291
 1011SOL    HW2 3933  -0.001   2.853   0.332
 1012SOL     OW 3934   0.875   3.508   0.337
 1012SOL    HW1 3935   0.798   3.473   0.283
 1012SOL    HW2 3936   0.843   3.579   0.399
 1013SOL     OW 3937   0.230   2.490   1.975
 1013SOL    HW1 3938   0.137   2.488   2.012
 1013SOL    HW2 3939   0.231   2.451   1.883
 1014SOL     OW 3940   0.225   2.137   2.858
 1014SOL    HW1 3941   0.260   2.120   2.950
 1014SOL    HW2 3942   0.137   2.092   2.846
 1015SOL     OW 3943   0.019   2.230   2.509
 1015SOL    HW1 3944  -0.063   2.273   2.548
 1015SOL    HW2 3945  -0.009   2.157   2.446
 1016SOL     OW 3946   0.569   3.137   3.027
 1016SOL    HW1 3947   0.476   3.130   2.990
 1016SOL    HW2 3948   0.580   3.226   3.071
 1017SOL     OW 3949   1.555   3.373   2.565
 1017SOL    HW1 3950   1.498   3.357   2.646
 1017SOL    HW2 3951   1.496   3.383   2.485
 1018SOL     OW 3952   1.135   2.565   2.579
 1018SOL    HW1 3953   1.192   2.643   2.554
 1018SOL    HW2 3954   1.075   2.591   2.655
 1019SOL     OW 3955   1.755   2.469   2.093
 1019SOL    HW1 3956   1.743   2.456   1.994
 1019SOL    HW2 3957   1.725   2.388   2.142
 1020SOL     OW 3958   0.768   3.006   2.885
 1020SOL    HW1 3959   0.690   3.023   2.945
 1020SOL    HW2 3960   0.802   3.093   2.849
 1021SOL     OW 3961   0.850   2.660   3.685
 1021SOL    HW1 3962   0.846   2.736   3.750
 1021SOL    HW2 3963   0.872   2.696   3.594
 1022SOL     OW 3964   0.685   2.874   2.527
 1022SOL    HW1 3965   0.754   2.858   2.597
 1022SOL    HW2 3966   0.612   2.931   2.565
 1023SOL     OW 3967   0.686   3.023   3.665
 1023SOL    HW1 3968   0.746   3.102   3.679
 1023SOL    HW2 3969   0.600   3.054   3.624
 1024SOL     OW 3970   0.335   3.297   2.923
 1024SOL    HW1 3971   0.257   3.266   2.870
 1024SOL    HW2 3972   0.393   3.355   2.866
 1025SOL     OW 3973   1.460   3.367   3.201
 1025SOL    HW1 3974   1.484   3.461   3.227
 1025SOL    HW2 3975   1.444   3.313   3.283
 1026SOL     OW 3976   0.438   2.254   3.361
 1026SOL    HW1 3977   0.520   2.198   3.370
 1026SOL    HW2 3978   0.357   2.196   3.365
 1027SOL     OW 3979   1.603   2.309   2.599
 1027SOL    HW1 3980   1.529   2.355   2.549
 1027SOL    HW2 3981   1.654   2.377   2.652
 1028SOL     OW 3982   0.231   3.575   2.345
 1028SOL    HW1 3983   0.265   3.652   2.399
 1028SOL    HW2 3984   0.275   3.575   2.255
 1029SOL     OW 3985   1.127   3.203   3.552
 1029SOL    HW1 3986   1.174   3.203   3.640
 1029SOL    HW2 3987   1.079   3.116   3.541
 1030SOL     OW 3988   0.230   3.296   2.400
 1030SOL    HW1 3989   0.204   3.392   2.400
 1030SOL    HW2 3990   0.159   3.242   2.445
 1031SOL     OW 3991   0.240   2.953   2.748
 1031SOL    HW1 3992   0.254   2.869   2.800
 1031SOL    HW2 3993   0.185   3.017   2.803
 1032SOL     OW 3994   0.620   3.648   3.301
 1032SOL    HW1 3995   0.528   3.631   3.336
 1032SOL    HW2 3996   0.648   3.740   3.327
 1033SOL     OW 3997   0.606   2.826   1.985
 1033SOL    HW1 3998   0.613   2.910   1.931
 1033SOL    HW2 3999   0.652   2.839   2.073
 1034SOL     OW 4000   1.594   1.976   3.342
 1034SOL    HW1 4001   1.576   2.043   3.270
 1034SOL    HW2 4002   1.591   2.022   3.431
 1035SOL     OW 4003   0.122   2.505   2.425
 1035SOL    HW1 4004   0.077   2.417   2.442
 1035SOL    HW2 4005   0.121   2.559   2.509
 1036SOL     OW 4006   1.842   3.629   2.221
 1036SOL    HW1 4007   1.896   3.600   2.301
 1036SOL    HW2 4008   1.872   3.719   2.192
 1037SOL     OW 4009   0.027   3.458   1.979
 1037SOL    HW1 4010   0.008   3.362   2.000
 1037SOL    HW2 4011  -0.006   3.516   2.054
 1038SOL     OW 4012   1.689   2.784   2.474
 1038SOL    HW1 4013   1.784   2.755   2.482
 1038SOL    HW2 4014   1.681   2.849   2.399
 1039SOL     OW 4015   1.641   2.970   2.294
 1039SOL    HW1 4016   1.727   2.972   2.242
 1039SOL    HW2 4017   1.655   3.017   2.382
 1040SOL     OW 4018   0.113   2.599   3.459
 1040SOL    HW1 4019   0.201   2.586   3.504
 1040SOL    HW2 4020   0.100   2.696   3.437
 1041SOL     OW 4021   0.613   3.227   2.588
 1041SOL    HW1 4022   0.564   3.140   2.597
 1041SOL    HW2 4023   0.590   3.270   2.501
 1042SOL     OW 4024   1.293   3.090   3.285
 1042SOL    HW1 4025   1.330   3.017   3.227
 1042SOL    HW2 4026   1.345   3.095   3.370
 1043SOL     OW 4027   0.809   1.866   2.364
 1043SOL    HW1 4028   0.849   1.957   2.355
 1043SOL    HW2 4029   0.709   1.874   2.370
 1044SOL     OW 4030   0.197   2.838   3.126
 1044SOL    HW1 4031   0.286   2.793   3.112
 1044SOL    HW2 4032   0.124   2.773   3.107
 1045SOL     OW 4033   1.525   2.861   2.052
 1045SOL    HW1 4034   1.462   2.785   2.065
 1045SOL    HW2 4035   1.573   2.879   2.138
 1046SOL     OW 4036   1.187   3.654   3.478
 1046SOL    HW1 4037   1.211   3.714   3.402
 1046SOL    HW2 4038   1.194   3.559   3.448
 1047SOL     OW 4039   0.317   2.113   3.663
 1047SOL    HW1 4040   0.388   2.184   3.669
 1047SOL    HW2 4041   0.229   2.152   3.691
 1048SOL     OW 4042   1.466   3.279   2.815
 1048SOL    HW1 4043   1.407   3.285   2.895
 1048SOL    HW2 4044   1.451   3.191   2.769
 1049SOL     OW 4045   1.667   3.576   2.434
 1049SOL    HW1 4046   1.626   3.553   2.346
 1049SOL    HW2 4047   1.649   3.502   2.499
 1050SOL     OW 4048   0.598   2.591   2.132
 1050SOL    HW1 4049   0.622   2.660   2.064
 1050SOL    HW2 4050   0.520   2.624   2.186
 1051SOL     OW 4051   1.281   2.207   2.806
 1051SOL    HW1 4052   1.195   2.157   2.793
 1051SOL    HW2 4053   1.343   2.153   2.862
 1052SOL     OW 4054   1.576   3.524   2.169
 1052SOL    HW1 4055   1.665   3.570   2.172
 1052SOL    HW2 4056   1.555   3.500   2.074
 1053SOL     OW 4057   0.807   2.467   3.327
 1053SOL    HW1 4058   0.760   2.464   3.416
 1053SOL    HW2 4059   0.756   2.412   3.261
 1054SOL     OW 4060   1.394   2.331   3.536
 1054SOL    HW1 4061   1.374   2.374   3.624
 1054SOL    HW2 4062   1.472   2.269   3.545
 1055SOL     OW 4063   0.973   2.752   3.434
 1055SOL    HW1 4064   1.019   2.668   3.405
 1055SOL    HW2 4065   0.917   2.786   3.359
 1056SOL     OW 4066   0.991   2.272   3.104
 1056SOL    HW1 4067   0.914   2.306   3.158
 1056SOL    HW2 4068   0.957   2.221   3.025
 1057SOL     OW 4069   1.041   2.563   2.291
 1057SOL    HW1 4070   1.067   2.559   2.387
 1057SOL    HW2 4071   0.956   2.512   2.277
 1058SOL     OW 4072   0.076   2.673   2.651
 1058SOL    HW1 4073   0.175   2.661   2.660
 1058SOL    HW2 4074   0.052   2.768   2.672
 1059SOL     OW 4075   0.130   3.683   3.433
 1059SOL    HW1 4076   0.120   3.668   3.532
 1059SOL    HW2 4077   0.044   3.719   3.397
 1060SOL     OW 4078   0.865   2.210   2.057
 1060SOL    HW1 4079   0.924   2.273   2.008
 1060SOL    HW2 4080   0.884   2.116   2.028
 1061SOL     OW 4081   1.719   2.447   3.693
 1061SOL    HW1 4082   1.693   2.536   3.657
 1061SOL    HW2 4083   1.717   2.379   3.620
 1062SOL     OW 4084   1.362   3.006   2.407
 1062SOL    HW1 4085   1.445   2.977   2.359
 1062SOL    HW2 4086   1.313   3.073   2.351
 1063SOL     OW 4087   0.550   2.058   2.747
 1063SOL    HW1 4088   0.545   2.053   2.847
 1063SOL    HW2 4089   0.552   2.154   2.718
 1064SOL     OW 4090   1.008   3.318   2.339
 1064SOL    HW1 4091   0.962   3.390   2.287
 1064SOL    HW2 4092   1.004   3.338   2.437
 1065SOL     OW 4093   0.351   3.663   2.715
 1065SOL    HW1 4094   0.401   3.577   2.721
 1065SOL    HW2 4095   0.416   3.740   2.712
 1066SOL     OW 4096   1.795   2.928   2.735
 1066SOL    HW1 4097   1.733   2.913   2.659
 1066SOL    HW2 4098   1.743   2.939   2.820
 1067SOL     OW 4099   1.227   3.412   3.368
 1067SOL    HW1 4100   1.233   3.335   3.432
 1067SOL    HW2 4101   1.175   3.386   3.288
 1068SOL     OW 4102   0.321   2.805   2.104
 1068SOL    HW1 4103   0.403   2.844   2.062
 1068SOL    HW2 4104   0.294   2.723   2.055
 1069SOL     OW 4105   1.458   2.597   2.590
 1069SOL    HW1 4106   1.453   2.532   2.665
 1069SOL    HW2 4107   1.538   2.656   2.603
 1070SOL     OW 4108   0.461   3.128   3.589
 1070SOL    HW1 4109   0.411   3.129   3.503
 1070SOL    HW2 4110   0.398   3.110   3.665
 1071SOL     OW 4111   1.111   3.638   2.099
 1071SOL    HW1 4112   1.051   3.576   2.149
 1071SOL    HW2 4113   1.142   3.594   2.014
 1072SOL     OW 4114   0.202   2.147   3.360
 1072SOL    HW1 4115   0.122   2.207   3.347
 1072SOL    HW2 4116   0.192   2.098   3.446
 1073SOL     OW 4117   1.632   3.239   1.943
 1073SOL    HW1 4118   1.600   3.333   1.933
 1073SOL    HW2 4119   1.556   3.176   1.931
 1074SOL     OW 4120   0.464   3.605   2.185
 1074SOL    HW1 4121   0.497   3.644   2.271
 1074SOL    HW2 4122   0.540   3.598   2.120
 1075SOL     OW 4123   1.400   1.969   2.288
 1075SOL    HW1 4124   1.376   1.932   2.198
 1075SOL    HW2 4125   1.499   1.985   2.292
 1076SOL     OW 4126   0.249   3.647   3.103
 1076SOL    HW1 4127   0.306   3.582   3.153
 1076SOL    HW2 4128   0.233   3.614   3.010
 1077SOL     OW 4129   0.940   3.560   2.766
 1077SOL    HW1 4130   1.020   3.503   2.787
 1077SOL    HW2 4131   0.891   3.520   2.689
 1078SOL     OW 4132   0.382   2.562   2.342
 1078SOL    HW1 4133   0.427   2.472   2.339
 1078SOL    HW2 4134   0.288   2.551   2.375
 1079SOL     OW 4135   1.547   2.084   3.591
 1079SOL    HW1 4136   1.542   2.121   3.683
 1079SOL    HW2 4137   1.475   2.015   3.579
 1080SOL     OW 4138   0.614   1.984   1.979
 1080SOL    HW1 4139   0.712   1.962   1.986
 1080SOL    HW2 4140   0.583   1.967   1.886
 1081SOL     OW 4141   0.781   2.126   3.611
 1081SOL    HW1 4142   0.848   2.065   3.654
 1081SOL    HW2 4143   0.708   2.145   3.676
 1082SOL     OW 4144   0.888   3.376   3.057
 1082SOL    HW1 4145   0.865   3.351   2.963
 1082SOL    HW2 4146   0.949   3.307   3.096
 1083SOL     OW 4147   1.351   2.452   3.295
 1083SOL    HW1 4148   1.379   2.409   3.380
 1083SOL    HW2 4149   1.376   2.548   3.296
 1084SOL     OW 4150   0.803   3.264   2.786
 1084SOL    HW1 4151   0.893   3.278   2.744
 1084SOL    HW2 4152   0.732   3.266   2.715
 1085SOL     OW 4153   0.922   2.365   2.761
 1085SOL    HW1 4154   0.897   2.356   2.665
 1085SOL    HW2 4155   0.970   2.283   2.792
 1086SOL     OW 4156   0.539   1.926   2.374
 1086SOL    HW1 4157   0.458   1.927   2.432
 1086SOL    HW2 4158   0.542   2.009   2.319
 1087SOL     OW 4159   1.434   3.050   1.903
 1087SOL    HW1 4160   1.466   2.974   1.960
 1087SOL    HW2 4161   1.342   3.077   1.933
 1088SOL     OW 4162   0.297   1.897   2.033
 1088SOL    HW1 4163   0.346   1.981   2.012
 1088SOL    HW2 4164   0.359   1.832   2.078
 1089SOL     OW 4165   0.935   2.098   2.342
 1089SOL    HW1 4166   0.887   2.139   2.264
 1089SOL    HW2 4167   1.034   2.096   2.323
 1090SOL     OW 4168   1.076   2.545   3.326
 1090SOL    HW1 4169   0.996   2.484   3.329
 1090SOL    HW2 4170   1.157   2.492   3.302
 1091SOL     OW 4171   1.227   3.432   2.655
 1091SOL    HW1 4172   1.248   3.506   2.590
 1091SOL    HW2 4173   1.295   3.432   2.728
 1092SOL     OW 4174   0.459   3.014   2.603
 1092SOL    HW1 4175   0.388   2.987   2.668
 1092SOL    HW2 4176   0.433   2.986   2.510
 1093SOL     OW 4177   1.271   3.659   2.453
 1093SOL    HW1 4178   1.315   3.723   2.389
 1093SOL    HW2 4179   1.221   3.711   2.523
 1094SOL     OW 4180   0.078   2.418   3.248
 1094SOL    HW1 4181   0.170   2.417   3.207
 1094SOL    HW2 4182   0.072   2.492   3.315
 1095SOL     OW 4183   0.561   2.084   3.009
 1095SOL    HW1 4184   0.599   2.000   3.046
 1095SOL    HW2 4185   0.473   2.103   3.053
 1096SOL     OW 4186   0.866   2.316   2.504
 1096SOL    HW1 4187   0.834   2.388   2.442
 1096SOL    HW2 4188   0.890   2.235   2.451
 1097SOL     OW 4189   1.017   1.901   2.615
 1097SOL    HW1 4190   0.945   1.906   2.546
 1097SOL    HW2 4191   0.993   1.832   2.684
 1098SOL     OW 4192   1.429   3.035   2.729
 1098SOL    HW1 4193   1.374   2.951   2.722
 1098SOL    HW2 4194   1.455   3.064   2.637
 1099SOL     OW 4195   1.466   2.452   2.854
 1099SOL    HW1 4196   1.436   2.357   2.861
 1099SOL    HW2 4197   1.539   2.468   2.920
 1100SOL     OW 4198   1.857   2.695   2.239
 1100SOL    HW1 4199   1.899   2.631   2.303
 1100SOL    HW2 4200   1.819   2.644   2.161
 1101SOL     OW 4201   0.488   3.247   2.036
 1101SOL    HW1 4202   0.401   3.232   2.083
 1101SOL    HW2 4203   0.471   3.273   1.941
 1102SOL     OW 4204   1.664   3.142   2.519
 1102SOL    HW1 4205   1.763   3.150   2.533
 1102SOL    HW2 4206   1.619   3.226   2.550
 1103SOL     OW 4207   1.390   2.437   1.940
 1103SOL    HW1 4208   1.336   2.416   2.021
 1103SOL    HW2 4209   1.481   2.396   1.949
 1104SOL     OW 4210   0.527   2.118   2.190
 1104SOL    HW1 4211   0.554   2.059   2.115
 1104SOL    HW2 4212   0.527   2.213   2.159
 1105SOL     OW 4213   1.754   3.085   3.450
 1105SOL    HW1 4214   1.845   3.046   3.437
 1105SOL    HW2 4215   1.762   3.181   3.474
 1106SOL     OW 4216   1.064   3.209   3.202
 1106SOL    HW1 4217   0.984   3.186   3.257
 1106SOL    HW2 4218   1.147   3.183   3.251
 1107SOL     OW 4219   1.592   3.491   3.487
 1107SOL    HW1 4220   1.619   3.525   3.397
 1107SOL    HW2 4221   1.671   3.453   3.533
 1108SOL     OW 4222   1.111   3.057   2.962
 1108SOL    HW1 4223   1.071   3.101   3.043
 1108SOL    HW2 4224   1.070   3.094   2.879
 1109SOL     OW 4225   1.638   2.961   2.941
 1109SOL    HW1 4226   1.643   3.042   3.000
 1109SOL    HW2 4227   1.552   2.963   2.890
 1110SOL     OW 4228   0.915   1.951   3.264
 1110SOL    HW1 4229   0.940   1.931   3.169
 1110SOL    HW2 4230   0.987   2.007   3.306
 1111SOL     OW 4231   0.980   2.978   3.581
 1111SOL    HW1 4232   0.881   2.984   3.591
 1111SOL    HW2 4233   1.003   2.898   3.525
 1112SOL     OW 4234   0.705   2.912   2.230
 1112SOL    HW1 4235   0.691   2.919   2.329
 1112SOL    HW2 4236   0.789   2.861   2.212
 1113SOL     OW 4237   0.410   2.675   3.113
 1113SOL    HW1 4238   0.496   2.687   3.163
 1113SOL    HW2 4239   0.368   2.588   3.140
 1114SOL     OW 4240   1.274   2.248   3.124
 1114SOL    HW1 4241   1.295   2.322   3.188
 1114SOL    HW2 4242   1.185   2.265   3.081
 1115SOL     OW 4243   0.064   3.426   3.193
 1115SOL    HW1 4244   0.018   3.508   3.159
 1115SOL    HW2 4245   0.162   3.445   3.202
 1116SOL     OW 4246   0.367   2.962   2.363
 1116SOL    HW1 4247   0.360   3.045   2.307
 1116SOL    HW2 4248   0.371   2.882   2.303
 1117SOL     OW 4249   0.566   2.399   2.727
 1117SOL    HW1 4250   0.578   2.465   2.653
 1117SOL    HW2 4251   0.612   2.433   2.810
 1118SOL     OW 4252   1.252   3.210   2.250
 1118SOL    HW1 4253   1.302   3.287   2.290
 1118SOL    HW2 4254   1.157   3.212   2.282
 1119SOL     OW 4255   1.272   3.307   3.004
 1119SOL    HW1 4256   1.319   3.320   3.091
 1119SOL    HW2 4257   1.206   3.233   3.013
 1120SOL     OW 4258   1.582   2.501   2.334
 1120SOL    HW1 4259   1.551   2.562   2.407
 1120SOL    HW2 4260   1.632   2.553   2.265
 1121SOL     OW 4261   0.354   3.372   3.191
 1121SOL    HW1 4262   0.333   3.328   3.104
 1121SOL    HW2 4263   0.451   3.398   3.194
 1122SOL     OW 4264   0.402   2.613   3.460
 1122SOL    HW1 4265   0.470   2.668   3.413
 1122SOL    HW2 4266   0.442   2.525   3.487
 1123SOL     OW 4267   1.587   2.641   3.532
 1123SOL    HW1 4268   1.495   2.679   3.527
 1123SOL    HW2 4269   1.647   2.688   3.467
 1124SOL     OW 4270   1.013   1.967   3.632
 1124SOL    HW1 4271   1.019   2.052   3.580
 1124SOL    HW2 4272   1.045   1.891   3.575
 1125SOL     OW 4273   0.504   1.912   3.602
 1125SOL    HW1 4274   0.462   1.855   3.532
 1125SOL    HW2 4275   0.438   1.981   3.634
 1126SOL     OW 4276   0.573   2.732   2.891
 1126SOL    HW1 4277   0.617   2.821   2.882
 1126SOL    HW2 4278   0.510   2.732   2.968
 1127SOL     OW 4279   1.360   2.724   2.907
 1127SOL    HW1 4280   1.285   2.724   2.841
 1127SOL    HW2 4281   1.397   2.632   2.916
 1128SOL     OW 4282   1.209   2.387   2.137
 1128SOL    HW1 4283   1.222   2.303   2.191
 1128SOL    HW2 4284   1.180   2.461   2.197
 1129SOL     OW 4285   0.307   2.075   3.093
 1129SOL    HW1 4286   0.284   2.112   3.183
 1129SOL    HW2 4287   0.277   1.980   3.087
 1130SOL     OW 4288   0.037   3.172   3.144
 1130SOL    HW1 4289   0.090   3.123   3.212
 1130SOL    HW2 4290   0.059   3.270   3.149
 1131SOL     OW 4291   0.732   2.496   2.926
 1131SOL    HW1 4292   0.791   2.470   2.850
 1131SOL    HW2 4293   0.704   2.592   2.915
 1132SOL     OW 4294   1.728   2.797   3.716
 1132SOL    HW1 4295   1.682   2.790   3.627
 1132SOL    HW2 4296   1.666   2.841   3.782
 1133SOL     OW 4297   0.307   1.925   2.480
 1133SOL    HW1 4298   0.296   2.019   2.513
 1133SOL    HW2 4299   0.302   1.862   2.557
 1134SOL     OW 4300   1.622   2.229   2.236
 1134SOL    HW1 4301   1.624   2.153   2.300
 1134SOL    HW2 4302   1.574   2.306   2.276
 1135SOL     OW 4303   1.023   2.628   2.828
 1135SOL    HW1 4304   1.038   2.649   2.924
 1135SOL    HW2 4305   0.993   2.533   2.819
 1136SOL     OW 4306   0.980   3.435   3.562
 1136SOL    HW1 4307   0.960   3.479   3.474
 1136SOL    HW2 4308   1.019   3.344   3.546
 1137SOL     OW 4309   1.859   3.380   3.467
 1137SOL    HW1 4310   1.873   3.407   3.372
 1137SOL    HW2 4311   1.942   3.402   3.520
 1138SOL     OW 4312   0.350   2.760   3.666
 1138SOL    HW1 4313   0.426   2.804   3.714
 1138SOL    HW2 4314   0.385   2.713   3.584
 1139SOL     OW 4315   1.540   2.136   1.987
 1139SOL    HW1 4316   1.479   2.061   2.010
 1139SOL    HW2 4317   1.562   2.188   2.070
 1140SOL     OW 4318   1.303   2.700   1.904
 1140SOL    HW1 4319   1.337   2.607   1.919
 1140SOL    HW2 4320   1.321   2.727   1.809
 1141SOL     OW 4321   1.068   3.195   2.711
 1141SOL    HW1 4322   1.075   3.111   2.656
 1141SOL    HW2 4323   1.130   3.264   2.675
 1142SOL     OW 4324   0.319   2.672   2.811
 1142SOL    HW1 4325   0.412   2.708   2.816
 1142SOL    HW2 4326   0.313   2.587   2.863
 1143SOL     OW 4327   0.339   2.371   2.868
 1143SOL    HW1 4328   0.287   2.288   2.851
 1143SOL    HW2 4329   0.416   2.376   2.804
 1144SOL     OW 4330   1.138   2.242   3.540
 1144SOL    HW1 4331   1.093   2.305   3.604
 1144SOL    HW2 4332   1.231   2.273   3.523
 1145SOL     OW 4333   1.160   2.069   3.339
 1145SOL    HW1 4334   1.160   2.133   3.416
 1145SOL    HW2 4335   1.188   2.117   3.256
 1146SOL     OW 4336   0.008   3.188   2.062
 1146SOL    HW1 4337  -0.085   3.209   2.031
 1146SOL    HW2 4338   0.018   3.089   2.075
 1147SOL     OW 4339   0.088   3.663   2.789
 1147SOL    HW1 4340   0.046   3.577   2.762
 1147SOL    HW2 4341   0.182   3.666   2.755
 1148SOL     OW 4342   0.504   3.430   2.772
 1148SOL    HW1 4343   0.570   3.504   2.781
 1148SOL    HW2 4344   0.548   3.351   2.730
 1149SOL     OW 4345   1.002   2.658   3.100
 1149SOL    HW1 4346   1.043   2.626   3.186
 1149SOL    HW2 4347   0.906   2.631   3.097
 1150SOL     OW 4348   0.040   2.406   2.976
 1150SOL    HW1 4349   0.125   2.373   2.935
 1150SOL    HW2 4350   0.053   2.421   3.074
 1151SOL     OW 4351   0.189   2.382   3.584
 1151SOL    HW1 4352   0.248   2.342   3.514
 1151SOL    HW2 4353   0.131   2.453   3.543
 1152SOL     OW 4354   1.369   2.812   3.522
 1152SOL    HW1 4355   1.408   2.901   3.542
 1152SOL    HW2 4356   1.379   2.792   3.425
 1153SOL     OW 4357   0.815   2.434   2.187
 1153SOL    HW1 4358   0.822   2.345   2.141
 1153SOL    HW2 4359   0.721   2.468   2.179
 1154SOL     OW 4360   1.657   2.466   3.068
 1154SOL    HW1 4361   1.619   2.397   3.130
 1154SOL    HW2 4362   1.739   2.430   3.024
 1155SOL     OW 4363   0.252   3.426   3.606
 1155SOL    HW1 4364   0.222   3.483   3.682
 1155SOL    HW2 4365   0.245   3.329   3.632
 1156SOL     OW 4366   0.671   2.326   3.131
 1156SOL    HW1 4367   0.637   2.237   3.101
 1156SOL    HW2 4368   0.697   2.380   3.051
 1157SOL     OW 4369   0.930   3.540   3.327
 1157SOL    HW1 4370   0.906   3.522   3.232
 1157SOL    HW2 4371   0.960   3.634   3.337
 1158SOL     OW 4372   0.473   2.362   2.053
 1158SOL    HW1 4373   0.534   2.442   2.057
 1158SOL    HW2 4374   0.378   2.393   2.060
 1159SOL     OW 4375   0.159   2.999   3.328
 1159SOL    HW1 4376   0.181   2.938   3.404
 1159SOL    HW2 4377   0.169   2.950   3.242
 1160SOL     OW 4378   1.347   2.921   3.096
 1160SOL    HW1 4379   1.371   2.858   3.022
 1160SOL    HW2 4380   1.257   2.961   3.078
 1161SOL     OW 4381   1.302   2.717   2.171
 1161SOL    HW1 4382   1.216   2.686   2.213
 1161SOL    HW2 4383   1.298   2.703   2.072
 1162SOL     OW 4384   1.759   3.609   3.016
 1162SOL    HW1 4385   1.820   3.639   2.943
 1162SOL    HW2 4386   1.721   3.520   2.994
 1163SOL     OW 4387   1.252   3.593   2.990
 1163SOL    HW1 4388   1.336   3.598   2.936
 1163SOL    HW2 4389   1.229   3.497   3.008
 1164SOL     OW 4390   0.083   3.120   2.884
 1164SOL    HW1 4391   0.078   3.119   2.984
 1164SOL    HW2 4392   0.000   3.079   2.846
 1165SOL     OW 4393   0.688   3.524   3.578
 1165SOL    HW1 4394   0.632   3.605   3.587
 1165SOL    HW2 4395   0.740   3.528   3.492
 1166SOL     OW 4396   1.726   1.997   2.385
 1166SOL    HW1 4397   1.799   1.980   2.318
 1166SOL    HW2 4398   1.695   1.910   2.423
 1167SOL     OW 4399   1.388   3.435   2.339
 1167SOL    HW1 4400   1.455   3.447   2.265
 1167SOL    HW2 4401   1.348   3.524   2.362
 1168SOL     OW 4402   0.130   3.656   3.713
 1168SOL    HW1 4403   0.089   3.582   3.766
 1168SOL    HW2 4404   0.194   3.707   3.771
 1169SOL     OW 4405   1.280   2.789   2.534
 1169SOL    HW1 4406   1.340   2.708   2.536
 1169SOL    HW2 4407   1.320   2.858   2.474
 1170SOL     OW 4408   0.830   3.135   3.284
 1170SOL    HW1 4409   0.825   3.168   3.379
 1170SOL    HW2 4410   0.744   3.154   3.238
 1171SOL     OW 4411   0.672   3.478   2.016
 1171SOL    HW1 4412   0.681   3.488   1.917
 1171SOL    HW2 4413   0.632   3.389   2.037
 1172SOL     OW 4414   1.650   3.582   3.256
 1172SOL    HW1 4415   1.703   3.592   3.172
 1172SOL    HW2 4416   1.623   3.672   3.290
 1173SOL     OW 4417   1.841   2.037   2.825
 1173SOL    HW1 4418   1.880   1.952   2.789
 1173SOL    HW2 4419   1.743   2.039   2.806
 1174SOL     OW 4420   0.263   2.188   2.582
 1174SOL    HW1 4421   0.184   2.239   2.548
 1174SOL    HW2 4422   0.254   2.173   2.680
 1175SOL     OW 4423   1.194   3.474   1.893
 1175SOL    HW1 4424   1.200   3.381   1.930
 1175SOL    HW2 4425   1.135   3.474   1.813
 1176SOL     OW 4426   0.822   2.864   3.234
 1176SOL    HW1 4427   0.862   2.863   3.142
 1176SOL    HW2 4428   0.832   2.956   3.274
 1177SOL     OW 4429   0.916   2.772   2.153
 1177SOL    HW1 4430   0.979   2.810   2.085
 1177SOL    HW2 4431   0.956   2.689   2.192
 1178SOL     OW 4432   1.504   3.469   1.906
 1178SOL    HW1 4433   1.412   3.506   1.913
 1178SOL    HW2 4434   1.542   3.489   1.816
 1179SOL     OW 4435   0.372   3.150   3.352
 1179SOL    HW1 4436   0.359   3.243   3.318
 1179SOL    HW2 4437   0.288   3.098   3.339
 1180SOL     OW 4438   1.614   3.154   3.151
 1180SOL    HW1 4439   1.674   3.157   3.231
 1180SOL    HW2 4440   1.539   3.218   3.164
 1181SOL     OW 4441   1.039   2.960   2.558
 1181SOL    HW1 4442   0.969   2.913   2.612
 1181SOL    HW2 4443   1.098   2.892   2.515
 1182SOL     OW 4444   1.014   2.098   2.833
 1182SOL    HW1 4445   1.006   2.062   2.740
 1182SOL    HW2 4446   1.012   2.022   2.898
 1183SOL     OW 4447   0.590   3.349   2.353
 1183SOL    HW1 4448   0.632   3.291   2.283
 1183SOL    HW2 4449   0.546   3.428   2.309
 1184SOL     OW 4450   1.709   2.247   3.243
 1184SOL    HW1 4451   1.782   2.316   3.247
 1184SOL    HW2 4452   1.737   2.172   3.184
 1185SOL     OW 4453   0.255   3.210   2.152
 1185SOL    HW1 4454   0.159   3.211   2.125
 1185SOL    HW2 4455   0.267   3.263   2.236
 1186SOL     OW 4456   0.105   2.875   3.588
 1186SOL    HW1 4457   0.028   2.842   3.642
 1186SOL    HW2 4458   0.190   2.845   3.630
 1187SOL     OW 4459   0.672   2.065   3.351
 1187SOL    HW1 4460   0.762   2.049   3.311
 1187SOL    HW2 4461   0.680   2.070   3.450
 1188SOL     OW 4462   0.075   2.207   1.895
 1188SOL    HW1 4463  -0.017   2.179   1.866
 1188SOL    HW2 4464   0.106   2.284   1.839
 1189SOL     OW 4465   1.440   2.718   3.260
 1189SOL    HW1 4466   1.383   2.770   3.197
 1189SOL    HW2 4467   1.536   2.730   3.236
 1190SOL     OW 4468   0.072   2.028   2.180
 1190SOL    HW1 4469   0.055   2.111   2.126
 1190SOL    HW2 4470   0.162   1.991   2.158
 1191SOL     OW 4471   1.183   3.197   1.981
 1191SOL    HW1 4472   1.084   3.186   1.983
 1191SOL    HW2 4473   1.217   3.212   2.074
 1192SOL     OW 4474   0.613   2.704   3.293
 1192SOL    HW1 4475   0.669   2.785   3.276
 1192SOL    HW2 4476   0.672   2.624   3.296
 1193SOL     OW 4477   1.493   3.629   2.821
 1193SOL    HW1 4478   1.526   3.693   2.752
 1193SOL    HW2 4479   1.559   3.623   2.896
 1194SOL     OW 4480   0.716   2.427   3.570
 1194SOL    HW1 4481   0.735   2.492   3.644
 1194SOL    HW2 4482   0.776   2.347   3.579
 1195SOL     OW 4483   1.450   3.082   3.495
 1195SOL    HW1 4484   1.441   3.072   3.594
 1195SOL    HW2 4485   1.546   3.075   3.469
 1196SOL     OW 4486   0.390   3.603   3.422
 1196SOL    HW1 4487   0.299   3.644   3.420
 1196SOL    HW2 4488   0.383   3.509   3.454
 1197SOL     OW 4489   1.674   2.745   3.116
 1197SOL    HW1 4490   1.647   2.656   3.079
 1197SOL    HW2 4491   1.675   2.813   3.043
 1198SOL     OW 4492   1.225   2.187   2.311
 1198SOL    HW1 4493   1.290   2.113   2.300
 1198SOL    HW2 4494   1.245   2.237   2.395
 1199SOL     OW 4495   0.594   2.607   2.514
 1199SOL    HW1 4496   0.644   2.692   2.495
 1199SOL    HW2 4497   0.506   2.609   2.466
 1200SOL     OW 4498   1.777   2.204   3.504
 1200SOL    HW1 4499   1.760   2.235   3.410
 1200SOL    HW2 4500   1.693   2.167   3.542
 1201SOL     OW 4501   1.730   2.796   3.379
 1201SOL    HW1 4502   1.768   2.887   3.394
 1201SOL    HW2 4503   1.722   2.779   3.280
 1202SOL     OW 4504   0.859   3.236   1.878
 1202SOL    HW1 4505   0.813   3.251   1.966
 1202SOL    HW2 4506   0.903   3.321   1.848
 1203SOL     OW 4507   0.661   3.652   2.815
 1203SOL    HW1 4508   0.615   3.740   2.802
 1203SOL    HW2 4509   0.760   3.664   2.808
 1204SOL     OW 4510   0.859   2.818   2.723
 1204SOL    HW1 4511   0.913   2.749   2.771
 1204SOL    HW2 4512   0.827   2.887   2.789
 1205SOL     OW 4513   1.083   2.846   1.949
 1205SOL    HW1 4514   1.060   2.899   1.867
 1205SOL    HW2 4515   1.164   2.790   1.930
 1206SOL     OW 4516   1.861   3.431   2.713
 1206SOL    HW1 4517   1.790   3.419   2.643
 1206SOL    HW2 4518   1.862   3.352   2.773
 1207SOL     OW 4519   0.221   3.176   3.706
 1207SOL    HW1 4520   0.156   3.103   3.685
 1207SOL    HW2 4521   0.225   3.190   3.804
 1208SOL     OW 4522   0.079   3.102   2.515
 1208SOL    HW1 4523   0.078   3.055   2.603
 1208SOL    HW2 4524   0.161   3.074   2.464
 1209SOL     OW 4525   0.672   3.253   3.486
 1209SOL    HW1 4526   0.594   3.203   3.524
 1209SOL    HW2 4527   0.669   3.348   3.517
 1210SOL     OW 4528   1.824   2.054   3.089
 1210SOL    HW1 4529   1.820   1.964   3.133
 1210SOL    HW2 4530   1.827   2.043   2.990
 1211SOL     OW 4531   0.428   2.286   2.382
 1211SOL    HW1 4532   0.458   2.214   2.320
 1211SOL    HW2 4533   0.389   2.246   2.465
 1212SOL     OW 4534   1.705   3.349   2.966
 1212SOL    HW1 4535   1.612   3.324   2.939
 1212SOL    HW2 4536   1.731   3.299   3.048
 1213SOL     OW 4537   0.317   2.409   3.142
 1213SOL    HW1 4538   0.355   2.350   3.214
 1213SOL    HW2 4539   0.357   2.383   3.054
 1214SOL     OW 4540   0.812   3.448   2.549
 1214SOL    HW1 4541   0.844   3.458   2.455
 1214SOL    HW2 4542   0.733   3.386   2.551
 1215SOL     OW 4543   1.424   2.076   2.974
 1215SOL    HW1 4544   1.476   2.011   3.029
 1215SOL    HW2 4545   1.375   2.139   3.035
 1216SOL     OW 4546   1.001   1.896   3.016
 1216SOL    HW1 4547   0.938   1.824   2.985
 1216SOL    HW2 4548   1.094   1.860   3.016
 1217SOL     OW 4549   0.770   3.192   2.163
 1217SOL    HW1 4550   0.724   3.105   2.180
 1217SOL    HW2 4551   0.861   3.189   2.204
 1218SOL     OW 4552   0.618   3.429   3.146
 1218SOL    HW1 4553   0.613   3.511   3.203
 1218SOL    HW2 4554   0.707   3.426   3.101
 1219SOL     OW 4555   1.352   1.914   2.030
 1219SOL    HW1 4556   1.387   1.873   1.946
 1219SOL    HW2 4557   1.262   1.876   2.050
 1220SOL     OW 4558   1.300   2.315   2.553
 1220SOL    HW1 4559   1.241   2.395   2.557
 1220SOL    HW2 4560   1.315   2.280   2.646
 1221SOL     OW 4561   1.593   2.083   2.744
 1221SOL    HW1 4562   1.509   2.082   2.798
 1221SOL    HW2 4563   1.595   2.166   2.688
 1222SOL     OW 4564   0.039   2.939   2.162
 1222SOL    HW1 4565   0.138   2.928   2.153
 1222SOL    HW2 4566  -0.001   2.853   2.194
 1223SOL     OW 4567   0.875   3.508   2.199
 1223SOL    HW1 4568   0.798   3.473   2.145
 1223SOL    HW2 4569   0.843   3.579   2.261
 1224SOL     OW 4570   0.230   2.490   3.837
 1224SOL    HW1 4571   0.137   2.488   3.874
 1224SOL    HW2 4572   0.231   2.451   3.745
 1225SOL     OW 4573   0.225   2.137   4.720
 1225SOL    HW1 4574   0.260   2.120   4.812
 1225SOL    HW2 4575   0.137   2.092   4.708
 1226SOL     OW 4576   0.019   2.230   4.371
 1226SOL    HW1 4577  -0.063   2.273   4.410
 1226SOL    HW2 4578  -0.009   2.157   4.308
 1227SOL     OW 4579   0.569   3.137   4.889
 1227SOL    HW1 4580   0.476   3.130   4.852
 1227SOL    HW2 4581   0.580   3.226   4.933
 1228SOL     OW 4582   1.555   3.373   4.427
 1228SOL    HW1 4583   1.498   3.357   4.508
 1228SOL    HW2 4584   1.496   3.383   4.347
 1229SOL     OW 4585   1.135   2.565   4.441
 1229SOL    HW1 4586   1.192   2.643   4.416
 1229SOL    HW2 4587   1.075   2.591   4.517
 1230SOL     OW 4588   1.755   2.469   3.955
 1230SOL    HW1 4589   1.743   2.456   3.856
 1230SOL    HW2 4590   1.725   2.388   4.004
 1231SOL     OW 4591   0.768   3.006   4.747
 1231SOL    HW1 4592   0.690   3.023   4.807
 1231SOL    HW2 4593   0.802   3.093   4.711
 1232SOL     OW 4594   0.850   2.660   5.547
 1232SOL    HW1 4595   0.846   2.736   5.612
 1232SOL    HW2 4596   0.872   2.696   5.456
 1233SOL     OW 4597   0.685   2.874   4.389
 1233SOL    HW1 4598   0.754   2.858   4.459
 1233SOL    HW2 4599   0.612   2.931   4.427
 1234SOL     OW 4600   0.686   3.023   5.527
 1234SOL    HW1 4601   0.746   3.102   5.541
 1234SOL    HW2 4602   0.600   3.054   5.486
 1235SOL     OW 4603   0.335   3.297   4.785
 1235SOL    HW1 4604   0.257   3.266   4.732
 1235SOL    HW2 4605   0.393   3.355   4.728
 1236SOL     OW 4606   1.460   3.367   5.063
 1236SOL    HW1 4607   1.484   3.461   5.089
 1236SOL    HW2 4608   1.444   3.313   5.145
 1237SOL     OW 4609   0.438   2.254   5.223
 1237SOL    HW1 4610   0.520   2.198   5.232
 1237SOL    HW2 4611   0.357   2.196   5.227
 1238SOL     OW 4612   1.603   2.309   4.461
 1238SOL    HW1 4613   1.529   2.355   4.411
 1238SOL    HW2 4614   1.654   2.377   4.514
 1239SOL     OW 4615   0.231   3.575   4.207
 1239SOL    HW1 4616   0.265   3.652   4.261
 1239SOL    HW2 4617   0.275   3.575   4.117
 1240SOL     OW 4618   1.127   3.203   5.414
 1240SOL    HW1 4619   1.174   3.203   5.502
 1240SOL    HW2 4620   1.079   3.116   5.403
 1241SOL     OW 4621   0.230   3.296   4.262
 1241SOL    HW1 4622   0.204   3.392   4.262
 1241SOL    HW2 4623   0.159   3.242   4.307
 1242SOL     OW 4624   0.240   2.953   4.610
 1242SOL    HW1 4625   0.254   2.869   4.662
 1242SOL    HW2 4626   0.185   3.017   4.665
 1243SOL     OW 4627   0.620   3.648   5.163
 1243SOL    HW1 4628   0.528   3.631   5.198
 1243SOL    HW2 4629   0.648   3.740   5.189
 1244SOL     OW 4630   0.606   2.826   3.847
 1244SOL    HW1 4631   0.613   2.910   3.793
 1244SOL    HW2 4632   0.652   2.839   3.935
 1245SOL     OW 4633   1.594   1.976   5.204
 1245SOL    HW1 4634   1.576   2.043   5.132
 1245SOL    HW2 4635   1.591   2.022   5.293
 1246SOL     OW 4636   0.122   2.505   4.287
 1246SOL    HW1 4637   0.077   2.417   4.304
 1246SOL    HW2 4638   0.121   2.559   4.371
 1247SOL     OW 4639   1.842   3.629   4.083
 1247SOL    HW1 4640   1.896   3.600   4.163
 1247SOL    HW2 4641   1.872   3.719   4.054
 1248SOL     OW 4642   0.027   3.458   3.841
 1248SOL    HW1 4643   0.008   3.362   3.862
 1248SOL    HW2 4644  -0.006   3.516   3.916
 1249SOL     OW 4645   1.689   2.784   4.336
 1249SOL    HW1 4646   1.784   2.755   4.344
 1249SOL    HW2 4647   1.681   2.849   4.261
 1250SOL     OW 4648   1.641   2.970   4.156
 1250SOL    HW1 4649   1.727   2.972   4.104
 1250SOL    HW2 4650   1.655   3.017   4.244
 1251SOL     OW 4651   0.113   2.599   5.321
 1251SOL    HW1 4652   0.201   2.586   5.366
 1251SOL    HW2 4653   0.100   2.696   5.299
 1252SOL     OW 4654   0.613   3.227   4.450
 1252SOL    HW1 4655   0.564   3.140   4.459
 1252SOL    HW2 4656   0.590   3.270   4.363
 1253SOL     OW 4657   1.293   3.090   5.147
 1253SOL    HW1 4658   1.330   3.017   5.089
 1253SOL    HW2 4659   1.345   3.095   5.232
 1254SOL     OW 4660   0.809   1.866   4.226
 1254SOL    HW1 4661   0.849   1.957   4.217
 1254SOL    HW2 4662   0.709   1.874   4.232
 1255SOL     OW 4663   0.197   2.838   4.988
 1255SOL    HW1 4664   0.286   2.793   4.974
 1255SOL    HW2 4665   0.124   2.773   4.969
 1256SOL     OW 4666   1.525   2.861   3.914
 1256SOL    HW1 4667   1.462   2.785   3.927
 1256SOL    HW2 4668   1.573   2.879   4.000
 1257SOL     OW 4669   1.187   3.654   5.340
 1257SOL    HW1 4670   1.211   3.714   5.264
 1257SOL    HW2 4671   1.194   3.559   5.310
 1258SOL     OW 4672   0.317   2.113   5.525
 1258SOL    HW1 4673   0.388   2.184   5.531
 1258SOL    HW2 4674   0.229   2.152   5.553
 1259SOL     OW 4675   1.466   3.279   4.677
 1259SOL    HW1 4676   1.407   3.285   4.757
 1259SOL    HW2 4677   1.451   3.191   4.631
 1260SOL     OW 4678   1.667   3.576   4.296
 1260SOL    HW1 4679   1.626   3.553   4.208
 1260SOL    HW2 4680   1.649   3.502   4.361
 1261SOL     OW 4681   0.598   2.591   3.994
 1261SOL    HW1 4682   0.622   2.660   3.926
 1261SOL    HW2 4683   0.520   2.624   4.048
 1262SOL     OW 4684   1.281   2.207   4.668
 1262SOL    HW1 4685   1.195   2.157   4.655
 1262SOL    HW2 4686   1.343   2.153   4.724
 1263SOL     OW 4687   1.576   3.524   4.031
 1263SOL    HW1 4688   1.665   3.570   4.034
 1263SOL    HW2 4689   1.555   3.500   3.936
 1264SOL     OW 4690   0.807   2.467   5.189
 1264SOL    HW1 4691   0.760   2.464   5.278
 1264SOL    HW2 4692   0.756   2.412   5.123
 1265SOL     OW 4693   1.394   2.331   5.398
 1265SOL    HW1 4694   1.374   2.374   5.486
 1265SOL    HW2 4695   1.472   2.269   5.407
 1266SOL     OW 4696   0.973   2.752   5.296
 1266SOL    HW1 4697   1.019   2.668   5.267
 1266SOL    HW2 4698   0.917   2.786   5.221
 1267SOL     OW 4699   0.991   2.272   4.966
 1267SOL    HW1 4700   0.914   2.306   5.020
 1267SOL    HW2 4701   0.957   2.221   4.887
 1268SOL     OW 4702   1.041   2.563   4.153
 1268SOL    HW1 4703   1.067   2.559   4.249
 1268SOL    HW2 4704   0.956   2.512   4.139
 1269SOL     OW 4705   0.076   2.673   4.513
 1269SOL    HW1 4706   0.175   2.661   4.522
 1269SOL    HW2 4707   0.052   2.768   4.534
 1270SOL     OW 4708   0.130   3.683   5.295
 1270SOL    HW1 4709   0.120   3.668   5.394
 1270SOL    HW2 4710   0.044   3.719   5.259
 1271SOL     OW 4711   0.865   2.210   3.919
 1271SOL    HW1 4712   0.924   2.273   3.870
 1271SOL    HW2 4713   0.884   2.116   3.890
 1272SOL     OW 4714   1.719   2.447   5.555
 1272SOL    HW1 4715   1.693   2.536   5.519
 1272SOL    HW2 4716   1.717   2.379   5.482
 1273SOL     OW 4717   1.362   3.006   4.269
 1273SOL    HW1 4718   1.445   2.977   4.221
 1273SOL    HW2 4719   1.313   3.073   4.213
 1274SOL     OW 4720   0.550   2.058   4.609
 1274SOL    HW1 4721   0.545   2.053   4.709
 1274SOL    HW2 4722   0.552   2.154   4.580
 1275SOL     OW 4723   1.008   3.318   4.201
 1275SOL    HW1 4724   0.962   3.390   4.149
 1275SOL    HW2 4725   1.004   3.338   4.299
 1276SOL     OW 4726   0.351   3.663   4.577
 1276SOL    HW1 4727   0.401   3.577   4.583
 1276SOL    HW2 4728   0.416   3.740   4.574
 1277SOL     OW 4729   1.795   2.928   4.597
 1277SOL    HW1 4730   1.733   2.913   4.521
 1277SOL    HW2 4731   1.743   2.939   4.682
 1278SOL     OW 4732   1.227   3.412   5.230
 1278SOL    HW1 4733   1.233   3.335   5.294
 1278SOL    HW2 4734   1.175   3.386   5.150
 1279SOL     OW 4735   0.321   2.805   3.966
 1279SOL    HW1 4736   0.403   2.844   3.924
 1279SOL    HW2 4737   0.294   2.723   3.917
 1280SOL     OW 4738   1.458   2.597   4.452
 1280SOL    HW1 4739   1.453   2.532   4.527
 1280SOL    HW2 4740   1.538   2.656   4.465
 1281SOL     OW 4741   0.461   3.128   5.451
 1281SOL    HW1 4742   0.411   3.129   5.365
 1281SOL    HW2 4743   0.398   3.110   5.527
 1282SOL     OW 4744   1.111   3.638   3.961
 1282SOL    HW1 4745   1.051   3.576   4.011
 1282SOL    HW2 4746   1.142   3.594   3.876
 1283SOL     OW 4747   0.202   2.147   5.222
 1283SOL    HW1 4748   0.122   2.207   5.209
 1283SOL    HW2 4749   0.192   2.098   5.308
 1284SOL     OW 4750   1.632   3.239   3.805
 1284SOL    HW1 4751   1.600   3.333   3.795
 1284SOL    HW2 4752   1.556   3.176   3.793
 1285SOL     OW 4753   0.464   3.605   4.047
 1285SOL    HW1 4754   0.497   3.644   4.133
 1285SOL    HW2 4755   0.540   3.598   3.982
 1286SOL     OW 4756   1.400   1.969   4.150
 1286SOL    HW1 4757   1.376   1.932   4.060
 1286SOL    HW2 4758   1.499   1.985   4.154
 1287SOL     OW 4759   0.249   3.647   4.965
 1287SOL    HW1 4760   0.306   3.582   5.015
 1287SOL    HW2 4761   0.233   3.614   4.872
 1288SOL     OW 4762   0.940   3.560   4.628
 1288SOL    HW1 4763   1.020   3.503   4.649
 1288SOL    HW2 4764   0.891   3.520   4.551
 1289SOL     OW 4765   0.382   2.562   4.204
 1289SOL    HW1 4766   0.427   2.472   4.201
 1289SOL    HW2 4767   0.288   2.551   4.237
 1290SOL     OW 4768   1.547   2.084   5.453
 1290SOL    HW1 4769   1.542   2.121   5.545
 1290SOL    HW2 4770   1.475   2.015   5.441
 1291SOL     OW 4771   0.614   1.984   3.841
 1291SOL    HW1 4772   0.712   1.962   3.848
 1291SOL    HW2 4773   0.583   1.967   3.748
 1292SOL     OW 4774   0.781   2.126   5.473
 1292SOL    HW1 4775   0.848   2.065   5.516
 1292SOL    HW2 4776   0.708   2.145   5.538
 1293SOL     OW 4777   0.888   3.376   4.919
 1293SOL    HW1 4778   0.865   3.351   4.825
 1293SOL    HW2 4779   0.949   3.307   4.958
 1294SOL     OW 4780   1.351   2.452   5.157
 1294SOL    HW1 4781   1.379   2.409   5.242
 1294SOL    HW2 4782   1.376   2.548   5.158
 1295SOL     OW 4783   0.803   3.264   4.648
 1295SOL    HW1 4784   0.893   3.278   4.606
 1295SOL    HW2 4785   0.732   3.266   4.577
 1296SOL     OW 4786   0.922   2.365   4.623
 1296SOL    HW1 4787   0.897   2.356   4.527
 1296SOL    HW2 4788   0.970   2.283   4.654
 1297SOL     OW 4789   0.539   1.926   4.236
 1297SOL    HW1 4790   0.458   1.927   4.294
 1297SOL    HW2 4791   0.542   2.009   4.181
 1298SOL     OW 4792   1.434   3.050   3.765
 1298SOL    HW1 4793   1.466   2.974   3.822
 1298SOL    HW2 4794   1.342   3.077   3.795
 1299SOL     OW 4795   0.297   1.897   3.895
 1299SOL    HW1 4796   0.346   1.981   3.874
 1299SOL    HW2 4797   0.359   1.832   3.940
 1300SOL     OW 4798   0.935   2.098   4.204
 1300SOL    HW1 4799   0.887   2.139   4.126
 1300SOL    HW2 4800   1.034   2.096   4.185
 1301SOL     OW 4801   1.076   2.545   5.188
 1301SOL    HW1 4802   0.996   2.484   5.191
 1301SOL    HW2 4803   1.157   2.492   5.164
 1302SOL     OW 4804   1.227   3.432   4.517
 1302SOL    HW1 4805   1.248   3.506   4.452
 1302SOL    HW2 4806   1.295   3.432   4.590
 1303SOL     OW 4807   0.459   3.014   4.465
 1303SOL    HW1 4808   0.388   2.987   4.530
 1303SOL    HW2 4809   0.433   2.986   4.372
 1304SOL     OW 4810   1.271   3.659   4.315
 1304SOL    HW1 4811   1.315   3.723   4.251
 1304SOL    HW2 4812   1.221   3.711   4.385
 1305SOL     OW 4813   1.032   2.411   3.740
 1305SOL    HW1 4814   0.991   2.493   3.701
 1305SOL    HW2 4815   1.096   2.437   3.813
 1306SOL     OW 4816   0.078   2.418   5.110
 1306SOL    HW1 4817   0.170   2.417   5.069
 1306SOL    HW2 4818   0.072   2.492   5.177
 1307SOL     OW 4819   0.561   2.084   4.871
 1307SOL    HW1 4820   0.599   2.000   4.908
 1307SOL    HW2 4821   0.473   2.103   4.915
 1308SOL     OW 4822   0.866   2.316   4.366
 1308SOL    HW1 4823   0.834   2.388   4.304
 1308SOL    HW2 4824   0.890   2.235   4.313
 1309SOL     OW 4825   1.017   1.901   4.477
 1309SOL    HW1 4826   0.945   1.906   4.408
 1309SOL    HW2 4827   0.993   1.832   4.546
 1310SOL     OW 4828   1.429   3.035   4.591
 1310SOL    HW1 4829   1.374   2.951   4.584
 1310SOL    HW2 4830   1.455   3.064   4.499
 1311SOL     OW 4831   1.466   2.452   4.716
 1311SOL    HW1 4832   1.436   2.357   4.723
 1311SOL    HW2 4833   1.539   2.468   4.782
 1312SOL     OW 4834   1.857   2.695   4.101
 1312SOL    HW1 4835   1.899   2.631   4.165
 1312SOL    HW2 4836   1.819   2.644   4.023
 1313SOL     OW 4837   0.488   3.247   3.898
 1313SOL    HW1 4838   0.401   3.232   3.945
 1313SOL    HW2 4839   0.471   3.273   3.803
 1314SOL     OW 4840   1.664   3.142   4.381
 1314SOL    HW1 4841   1.763   3.150   4.395
 1314SOL    HW2 4842   1.619   3.226   4.412
 1315SOL     OW 4843   1.390   2.437   3.802
 1315SOL    HW1 4844   1.336   2.416   3.883
 1315SOL    HW2 4845   1.481   2.396   3.811
 1316SOL     OW 4846   0.527   2.118   4.052
 1316SOL    HW1 4847   0.554   2.059   3.977
 1316SOL    HW2 4848   0.527   2.213   4.021
 1317SOL     OW 4849   1.754   3.085   5.312
 1317SOL    HW1 4850   1.845   3.046   5.299
 1317SOL    HW2 4851   1.762   3.181   5.336
 1318SOL     OW 4852   1.064   3.209   5.064
 1318SOL    HW1 4853   0.984   3.186   5.119
 1318SOL    HW2 4854   1.147   3.183   5.113
 1319SOL     OW 4855   1.592   3.491   5.349
 1319SOL    HW1 4856   1.619   3.525   5.259
 1319SOL    HW2 4857   1.671   3.453   5.395
 1320SOL     OW 4858   1.111   3.057   4.824
 1320SOL    HW1 4859   1.071   3.101   4.905
 1320SOL    HW2 4860   1.070   3.094   4.741
 1321SOL     OW 4861   1.638   2.961   4.803
 1321SOL    HW1 4862   1.643   3.042   4.862
 1321SOL    HW2 4863   1.552   2.963   4.752
 1322SOL     OW 4864   0.915   1.951   5.126
 1322SOL    HW1 4865   0.940   1.931   5.031
 1322SOL    HW2 4866   0.987   2.007   5.168
 1323SOL     OW 4867   0.980   2.978   5.443
 1323SOL    HW1 4868   0.881   2.984   5.453
 1323SOL    HW2 4869   1.003   2.898   5.387
 1324SOL     OW 4870   0.705   2.912   4.092
 1324SOL    HW1 4871   0.691   2.919   4.191
 1324SOL    HW2 4872   0.789   2.861   4.074
 1325SOL     OW 4873   0.410   2.675   4.975
 1325SOL    HW1 4874   0.496   2.687   5.025
 1325SOL    HW2 4875   0.368   2.588   5.002
 1326SOL     OW 4876   1.274   2.248   4.986
 1326SOL    HW1 4877   1.295   2.322   5.050
 1326SOL    HW2 4878   1.185   2.265   4.943
 1327SOL     OW 4879   0.064   3.426   5.055
 1327SOL    HW1 4880   0.018   3.508   5.021
 1327SOL    HW2 4881   0.162   3.445   5.064
 1328SOL     OW 4882   0.367   2.962   4.225
 1328SOL    HW1 4883   0.360   3.045   4.169
 1328SOL    HW2 4884   0.371   2.882   4.165
 1329SOL     OW 4885   0.566   2.399   4.589
 1329SOL    HW1 4886   0.578   2.465   4.515
 1329SOL    HW2 4887   0.612   2.433   4.672
 1330SOL     OW 4888   1.252   3.210   4.112
 1330SOL    HW1 4889   1.302   3.287   4.152
 1330SOL    HW2 4890   1.157   3.212   4.144
 1331SOL     OW 4891   1.272   3.307   4.866
 1331SOL    HW1 4892   1.319   3.320   4.953
 1331SOL    HW2 4893   1.206   3.233   4.875
 1332SOL     OW 4894   1.582   2.501   4.196
 1332SOL    HW1 4895   1.551   2.562   4.269
 1332SOL    HW2 4896   1.632   2.553   4.127
 1333SOL     OW 4897   0.354   3.372   5.053
 1333SOL    HW1 4898   0.333   3.328   4.966
 1333SOL    HW2 4899   0.451   3.398   5.056
 1334SOL     OW 4900   0.402   2.613   5.322
 1334SOL    HW1 4901   0.470   2.668   5.275
 1334SOL    HW2 4902   0.442   2.525   5.349
 1335SOL     OW 4903   1.587   2.641   5.394
 1335SOL    HW1 4904   1.495   2.679   5.389
 1335SOL    HW2 4905   1.647   2.688   5.329
 1336SOL     OW 4906   1.013   1.967   5.494
 1336SOL    HW1 4907   1.019   2.052   5.442
 1336SOL    HW2 4908   1.045   1.891   5.437
 1337SOL     OW 4909   0.504   1.912   5.464
 1337SOL    HW1 4910   0.462   1.855   5.394
 1337SOL    HW2 4911   0.438   1.981   5.496
 1338SOL     OW 4912   0.573   2.732   4.753
 1338SOL    HW1 4913   0.617   2.821   4.744
 1338SOL    HW2 4914   0.510   2.732   4.830
 1339SOL     OW 4915   1.360   2.724   4.769
 1339SOL    HW1 4916   1.285   2.724   4.703
 1339SOL    HW2 4917   1.397   2.632   4.778
 1340SOL     OW 4918   1.209   2.387   3.999
 1340SOL    HW1 4919   1.222   2.303   4.053
 1340SOL    HW2 4920   1.180   2.461   4.059
 1341SOL     OW 4921   0.307   2.075   4.955
 1341SOL    HW1 4922   0.284   2.112   5.045
 1341SOL    HW2 4923   0.277   1.980   4.949
 1342SOL     OW 4924   0.037   3.172   5.006
 1342SOL    HW1 4925   0.090   3.123   5.074
 1342SOL    HW2 4926   0.059   3.270   5.011
 1343SOL     OW 4927   0.732   2.496   4.788
 1343SOL    HW1 4928   0.791   2.470   4.712
 1343SOL    HW2 4929   0.704   2.592   4.777
 1344SOL     OW 4930   1.728   2.797   5.578
 1344SOL    HW1 4931   1.682   2.790   5.489
 1344SOL    HW2 4932   1.666   2.841   5.644
 1345SOL     OW 4933   0.307   1.925   4.342
 1345SOL    HW1 4934   0.296   2.019   4.375
 1345SOL    HW2 4935   0.302   1.862   4.419
 1346SOL     OW 4936   1.622   2.229   4.098
 1346SOL    HW1 4937   1.624   2.153   4.162
 1346SOL    HW2 4938   1.574   2.306   4.138
 1347SOL     OW 4939   1.023   2.628   4.690
 1347SOL    HW1 4940   1.038   2.649   4.786
 1347SOL    HW2 4941   0.993   2.533   4.681
 1348SOL     OW 4942   0.980   3.435   5.424
 1348SOL    HW1 4943   0.960   3.479   5.336
 1348SOL    HW2 4944   1.019   3.344   5.408
 1349SOL     OW 4945   1.859   3.380   5.329
 1349SOL    HW1 4946   1.873   3.407   5.234
 1349SOL    HW2 4947   1.942   3.402   5.382
 1350SOL     OW 4948   0.350   2.760   5.528
 1350SOL    HW1 4949   0.426   2.804   5.576
 1350SOL    HW2 4950   0.385   2.713   5.446
 1351SOL     OW 4951   1.540   2.136   3.849
 1351SOL    HW1 4952   1.479   2.061   3.872
 1351SOL    HW2 4953   1.562   2.188   3.932
 1352SOL     OW 4954   1.303   2.700   3.766
 1352SOL    HW1 4955   1.337   2.607   3.781
 1352SOL    HW2 4956   1.321   2.727   3.671
 1353SOL     OW 4957   1.068   3.195   4.573
 1353SOL    HW1 4958   1.075   3.111   4.518
 1353SOL    HW2 4959   1.130   3.264   4.537
 1354SOL     OW 4960   0.319   2.672   4.673
 1354SOL    HW1 4961   0.412   2.708   4.678
 1354SOL    HW2 4962   0.313   2.587   4.725
 1355SOL     OW 4963   0.339   2.371   4.730
 1355SOL    HW1 4964   0.287   2.288   4.713
 1355SOL    HW2 4965   0.416   2.376   4.666
 1356SOL     OW 4966   1.138   2.242   5.402
 1356SOL    HW1 4967   1.093   2.305   5.466
 1356SOL    HW2 4968   1.231   2.273   5.385
 1357SOL     OW 4969   1.160   2.069   5.201
 1357SOL    HW1 4970   1.160   2.133   5.278
 1357SOL    HW2 4971   1.188   2.117   5.118
 1358SOL     OW 4972   0.008   3.188   3.924
 1358SOL    HW1 4973  -0.085   3.209   3.893
 1358SOL    HW2 4974   0.018   3.089   3.937
 1359SOL     OW 4975   0.088   3.663   4.651
 1359SOL    HW1 4976   0.046   3.577   4.624
 1359SOL    HW2 4977   0.182   3.666   4.617
 1360SOL     OW 4978   0.504   3.430   4.634
 1360SOL    HW1 4979   0.570   3.504   4.643
 1360SOL    HW2 4980   0.548   3.351   4.592
 1361SOL     OW 4981   1.002   2.658   4.962
 1361SOL    HW1 4982   1.043   2.626   5.048
 1361SOL    HW2 4983   0.906   2.631   4.959
 1362SOL     OW 4984   0.040   2.406   4.838
 1362SOL    HW1 4985   0.125   2.373   4.797
 1362SOL    HW2 4986   0.053   2.421   4.936
 1363SOL     OW 4987   0.189   2.382   5.446
 1363SOL    HW1 4988   0.248   2.342   5.376
 1363SOL    HW2 4989   0.131   2.453   5.405
 1364SOL     OW 4990   1.369   2.812   5.384
 1364SOL    HW1 4991   1.408   2.901   5.404
 1364SOL    HW2 4992   1.379   2.792   5.287
 1365SOL     OW 4993   0.815   2.434   4.049
 1365SOL    HW1 4994   0.822   2.345   4.003
 1365SOL    HW2 4995   0.721   2.468   4.041
 1366SOL     OW 4996   1.657   2.466   4.930
 1366SOL    HW1 4997   1.619   2.397   4.992
 1366SOL    HW2 4998   1.739   2.430   4.886
 1367SOL     OW 4999   0.252   3.426   5.468
 1367SOL    HW1 5000   0.222   3.483   5.544
 1367SOL    HW2 5001   0.245   3.329   5.494
 1368SOL     OW 5002   0.671   2.326   4.993
 1368SOL    HW1 5003   0.637   2.237   4.963
 1368SOL    HW2 5004   0.697   2.380   4.913
 1369SOL     OW 5005   0.930   3.540   5.189
 1369SOL    HW1 5006   0.906   3.522   5.094
 1369SOL    HW2 5007   0.960   3.634   5.199
 1370SOL     OW 5008   0.473   2.362   3.915
 1370SOL    HW1 5009   0.534   2.442   3.919
 1370SOL    HW2 5010   0.378   2.393   3.922
 1371SOL     OW 5011   0.159   2.999   5.190
 1371SOL    HW1 5012   0.181   2.938   5.266
 1371SOL    HW2 5013   0.169   2.950   5.104
 1372SOL     OW 5014   1.347   2.921   4.958
 1372SOL    HW1 5015   1.371   2.858   4.884
 1372SOL    HW2 5016   1.257   2.961   4.940
 1373SOL     OW 5017   1.302   2.717   4.033
 1373SOL    HW1 5018   1.216   2.686   4.075
 1373SOL    HW2 5019   1.298   2.703   3.934
 1374SOL     OW 5020   1.759   3.609   4.878
 1374SOL    HW1 5021   1.820   3.639   4.805
 1374SOL    HW2 5022   1.721   3.520   4.856
 1375SOL     OW 5023   1.252   3.593   4.852
 1375SOL    HW1 5024   1.336   3.598   4.798
 1375SOL    HW2 5025   1.229   3.497   4.870
 1376SOL     OW 5026   0.083   3.120   4.746
 1376SOL    HW1 5027   0.078   3.119   4.846
 1376SOL    HW2 5028   0.000   3.079   4.708
 1377SOL     OW 5029   0.688   3.524   5.440
 1377SOL    HW1 5030   0.632   3.605   5.449
 1377SOL    HW2 5031   0.740   3.528   5.354
 1378SOL     OW 5032   1.726   1.997   4.247
 1378SOL    HW1 5033   1.799   1.980   4.180
 1378SOL    HW2 5034   1.695   1.910   4.285
 1379SOL     OW 5035   1.388   3.435   4.201
 1379SOL    HW1 5036   1.455   3.447   4.127
 1379SOL    HW2 5037   1.348   3.524   4.224
 1380SOL     OW 5038   0.130   3.656   5.575
 1380SOL    HW1 5039   0.089   3.582   5.628
 1380SOL    HW2 5040   0.194   3.707   5.633
 1381SOL     OW 5041   1.280   2.789   4.396
 1381SOL    HW1 5042   1.340   2.708   4.398
 1381SOL    HW2 5043   1.320   2.858   4.336
 1382SOL     OW 5044   0.830   3.135   5.146
 1382SOL    HW1 5045   0.825   3.168   5.241
 1382SOL    HW2 5046   0.744   3.154   5.100
 1383SOL     OW 5047   0.672   3.478   3.878
 1383SOL    HW1 5048   0.681   3.488   3.779
 1383SOL    HW2 5049   0.632   3.389   3.899
 1384SOL     OW 5050   1.650   3.582   5.118
 1384SOL    HW1 5051   1.703   3.592   5.034
 1384SOL    HW2 5052   1.623   3.672   5.152
 1385SOL     OW 5053   1.841   2.037   4.687
 1385SOL    HW1 5054   1.880   1.952   4.651
 1385SOL    HW2 5055   1.743   2.039   4.668
 1386SOL     OW 5056   0.263   2.188   4.444
 1386SOL    HW1 5057   0.184   2.239   4.410
 1386SOL    HW2 5058   0.254   2.173   4.542
 1387SOL     OW 5059   1.194   3.474   3.755
 1387SOL    HW1 5060   1.200   3.381   3.792
 1387SOL    HW2 5061   1.135   3.474   3.675
 1388SOL     OW 5062   0.822   2.864   5.096
 1388SOL    HW1 5063   0.862   2.863   5.004
 1388SOL    HW2 5064   0.832   2.956   5.136
 1389SOL     OW 5065   0.916   2.772   4.015
 1389SOL    HW1 5066   0.979   2.810   3.947
 1389SOL    HW2 5067   0.956   2.689   4.054
 1390SOL     OW 5068   1.504   3.469   3.768
 1390SOL    HW1 5069   1.412   3.506   3.775
 1390SOL    HW2 5070   1.542   3.489   3.678
 1391SOL     OW 5071   0.372   3.150   5.214
 1391SOL    HW1 5072   0.359   3.243   5.180
 1391SOL    HW2 5073   0.288   3.098   5.201
 1392SOL     OW 5074   1.614   3.154   5.013
 1392SOL    HW1 5075   1.674   3.157   5.093
 1392SOL    HW2 5076   1.539   3.218   5.026
 1393SOL     OW 5077   1.039   2.960   4.420
 1393SOL    HW1 5078   0.969   2.913   4.474
 1393SOL    HW2 5079   1.098   2.892   4.377
 1394SOL     OW 5080   1.014   2.098   4.695
 1394SOL    HW1 5081   1.006   2.062   4.602
 1394SOL    HW2 5082   1.012   2.022   4.760
 1395SOL     OW 5083   0.590   3.349   4.215
 1395SOL    HW1 5084   0.632   3.291   4.145
 1395SOL    HW2 5085   0.546   3.428   4.171
 1396SOL     OW 5086   1.709   2.247   5.105
 1396SOL    HW1 5087   1.782   2.316   5.109
 1396SOL    HW2 5088   1.737   2.172   5.046
 1397SOL     OW 5089   0.255   3.210   4.014
 1397SOL    HW1 5090   0.159   3.211   3.987
 1397SOL    HW2 5091   0.267   3.263   4.098
 1398SOL     OW 5092   0.105   2.875   5.450
 1398SOL    HW1 5093   0.028   2.842   5.504
 1398SOL    HW2 5094   0.190   2.845   5.492
 1399SOL     OW 5095   0.672   2.065   5.213
 1399SOL    HW1 5096   0.762   2.049   5.173
 1399SOL    HW2 5097   0.680   2.070   5.312
 1400SOL     OW 5098   0.075   2.207   3.757
 1400SOL    HW1 5099  -0.017   2.179   3.728
 1400SOL    HW2 5100   0.106   2.284   3.701
 1401SOL     OW 5101   1.440   2.718   5.122
 1401SOL    HW1 5102   1.383   2.770   5.059
 1401SOL    HW2 5103   1.536   2.730   5.098
 1402SOL     OW 5104   0.072   2.028   4.042
 1402SOL    HW1 5105   0.055   2.111   3.988
 1402SOL    HW2 5106   0.162   1.991   4.020
 1403SOL     OW 5107   1.183   3.197   3.843
 1403SOL    HW1 5108   1.084   3.186   3.845
 1403SOL    HW2 5109   1.217   3.212   3.936
 1404SOL     OW 5110   0.613   2.704   5.155
 1404SOL    HW1 5111   0.669   2.785   5.138
 1404SOL    HW2 5112   0.672   2.624   5.158
 1405SOL     OW 5113   1.493   3.629   4.683
 1405SOL    HW1 5114   1.526   3.693   4.614
 1405SOL    HW2 5115   1.559   3.623   4.758
 1406SOL     OW 5116   0.716   2.427   5.432
 1406SOL    HW1 5117   0.735   2.492   5.506
 1406SOL    HW2 5118   0.776   2.347   5.441
 1407SOL     OW 5119   1.450   3.082   5.357
 1407SOL    HW1 5120   1.441   3.072   5.456
 1407SOL    HW2 5121   1.546   3.075   5.331
 1408SOL     OW 5122   0.390   3.603   5.284
 1408SOL    HW1 5123   0.299   3.644   5.282
 1408SOL    HW2 5124   0.383   3.509   5.316
 1409SOL     OW 5125   1.674   2.745   4.978
 1409SOL    HW1 5126   1.647   2.656   4.941
 1409SOL    HW2 5127   1.675   2.813   4.905
 1410SOL     OW 5128   1.225   2.187   4.173
 1410SOL    HW1 5129   1.290   2.113   4.162
 1410SOL    HW2 5130   1.245   2.237   4.257
 1411SOL     OW 5131   0.594   2.607   4.376
 1411SOL    HW1 5132   0.644   2.692   4.357
 1411SOL    HW2 5133   0.506   2.609   4.328
 1412SOL     OW 5134   1.777   2.204   5.366
 1412SOL    HW1 5135   1.760   2.235   5.272
 1412SOL    HW2 5136   1.693   2.167   5.404
 1413SOL     OW 5137   1.730   2.796   5.241
 1413SOL    HW1 5138   1.768   2.887   5.256
 1413SOL    HW2 5139   1.722   2.779   5.142
 1414SOL     OW 5140   0.859   3.236   3.740
 1414SOL    HW1 5141   0.813   3.251   3.828
 1414SOL    HW2 5142   0.903   3.321   3.710
 1415SOL     OW 5143   0.661   3.652   4.677
 1415SOL    HW1 5144   0.615   3.740   4.664
 1415SOL    HW2 5145   0.760   3.664   4.670
 1416SOL     OW 5146   0.859   2.818   4.585
 1416SOL    HW1 5147   0.913   2.749   4.633
 1416SOL    HW2 5148   0.827   2.887   4.651
 1417SOL     OW 5149   1.083   2.846   3.811
 1417SOL    HW1 5150   1.060   2.899   3.729
 1417SOL    HW2 5151   1.164   2.790   3.792
 1418SOL     OW 5152   1.861   3.431   4.575
 1418SOL    HW1 5153   1.790   3.419   4.505
 1418SOL    HW2 5154   1.862   3.352   4.635
 1419SOL     OW 5155   0.221   3.176   5.568
 1419SOL    HW1 5156   0.156   3.103   5.547
 1419SOL    HW2 5157   0.225   3.190   5.666
 1420SOL     OW 5158   0.079   3.102   4.377
 1420SOL    HW1 5159   0.078   3.055   4.465
 1420SOL    HW2 5160   0.161   3.074   4.326
 1421SOL     OW 5161   0.672   3.253   5.348
 1421SOL    HW1 5162   0.594   3.203   5.386
 1421SOL    HW2 5163   0.669   3.348   5.379
 1422SOL     OW 5164   1.824   2.054   4.951
 1422SOL    HW1 5165   1.820   1.964   4.995
 1422SOL    HW2 5166   1.827   2.043   4.852
 1423SOL     OW 5167   0.428   2.286   4.244
 1423SOL    HW1 5168   0.458   2.214   4.182
 1423SOL    HW2 5169   0.389   2.246   4.327
 1424SOL     OW 5170   1.705   3.349   4.828
 1424SOL    HW1 5171   1.612   3.324   4.801
 1424SOL    HW2 5172   1.731   3.299   4.910
 1425SOL     OW 5173   0.317   2.409   5.004
 1425SOL    HW1 5174   0.355   2.350   5.076
 1425SOL    HW2 5175   0.357   2.383   4.916
 1426SOL     OW 5176   0.812   3.448   4.411
 1426SOL    HW1 5177   0.844   3.458   4.317
 1426SOL    HW2 5178   0.733   3.386   4.413
 1427SOL     OW 5179   1.424   2.076   4.836
 1427SOL    HW1 5180   1.476   2.011   4.891
 1427SOL    HW2 5181   1.375   2.139   4.897
 1428SOL     OW 5182   1.001   1.896   4.878
 1428SOL    HW1 5183   0.938   1.824   4.847
 1428SOL    HW2 5184   1.094   1.860   4.878
 1429SOL     OW 5185   0.770   3.192   4.025
 1429SOL    HW1 5186   0.724   3.105   4.042
 1429SOL    HW2 5187   0.861   3.189   4.066
 1430SOL     OW 5188   0.618   3.429   5.008
 1430SOL    HW1 5189   0.613   3.511   5.065
 1430SOL    HW2 5190   0.707   3.426   4.963
 1431SOL     OW 5191   1.352   1.914   3.892
 1431SOL    HW1 5192   1.387   1.873   3.808
 1431SOL    HW2 5193   1.262   1.876   3.912
 1432SOL     OW 5194   1.300   2.315   4.415
 1432SOL    HW1 5195   1.241   2.395   4.419
 1432SOL    HW2 5196   1.315   2.280   4.508
 1433SOL     OW 5197   1.593   2.083   4.606
 1433SOL    HW1 5198   1.509   2.082   4.660
 1433SOL    HW2 5199   1.595   2.166   4.550
 1434SOL     OW 5200   0.039   2.939   4.024
 1434SOL    HW1 5201   0.138   2.928   4.015
 1434SOL    HW2 5202  -0.001   2.853   4.056
 1435SOL     OW 5203   0.875   3.508   4.061
 1435SOL    HW1 5204   0.798   3.473   4.007
 1435SOL    HW2 5205   0.843   3.579   4.123
 1436SOL     OW 5206   0.230   2.490   5.699
 1436SOL    HW1 5207   0.137   2.488   5.736
 1436SOL    HW2 5208   0.231   2.451   5.607
 1437SOL     OW 5209   0.225   2.137   6.582
 1437SOL    HW1 5210   0.260   2.120   6.674
 1437SOL    HW2 5211   0.137   2.092   6.570
 1438SOL     OW 5212   0.019   2.230   6.233
 1438SOL    HW1 5213  -0.063   2.273   6.272
 1438SOL    HW2 5214  -0.009   2.157   6.170
 1439SOL     OW 5215   0.569   3.137   6.751
 1439SOL    HW1 5216   0.476   3.130   6.714
 1439SOL    HW2 5217   0.580   3.226   6.795
 1440SOL     OW 5218   1.555   3.373   6.289
 1440SOL    HW1 5219   1.498   3.357   6.370
 1440SOL    HW2 5220   1.496   3.383   6.209
 1441SOL     OW 5221   1.135   2.565   6.303
 1441SOL    HW1 5222   1.192   2.643   6.278
 1441SOL    HW2 5223   1.075   2.591   6.379
 1442SOL     OW 5224   1.755   2.469   5.817
 1442SOL    HW1 5225   1.743   2.456   5.718
 1442SOL    HW2 5226   1.725   2.388   5.866
 1443SOL     OW 5227   0.768   3.006   6.609
 1443SOL    HW1 5228   0.690   3.023   6.669
 1443SOL    HW2 5229   0.802   3.093   6.573
 1444SOL     OW 5230   0.685   2.874   6.251
 1444SOL    HW1 5231   0.754   2.858   6.321
 1444SOL    HW2 5232   0.612   2.931   6.289
 1445SOL     OW 5233   0.335   3.297   6.647
 1445SOL    HW1 5234   0.257   3.266   6.594
 1445SOL    HW2 5235   0.393   3.355   6.590
 1446SOL     OW 5236   1.603   2.309   6.323
 1446SOL    HW1 5237   1.529   2.355   6.273
 1446SOL    HW2 5238   1.654   2.377   6.376
 1447SOL     OW 5239   0.231   3.575   6.069
 1447SOL    HW1 5240   0.265   3.652   6.123
 1447SOL    HW2 5241   0.275   3.575   5.979
 1448SOL     OW 5242   0.230   3.296   6.124
 1448SOL    HW1 5243   0.204   3.392   6.124
 1448SOL    HW2 5244   0.159   3.242   6.169
 1449SOL     OW 5245   0.240   2.953   6.472
 1449SOL    HW1 5246   0.254   2.869   6.524
 1449SOL    HW2 5247   0.185   3.017   6.527
 1450SOL     OW 5248   0.620   3.648   7.025
 1450SOL    HW1 5249   0.528   3.631   7.060
 1450SOL    HW2 5250   0.648   3.740   7.051
 1451SOL     OW 5251   0.606   2.826   5.709
 1451SOL    HW1 5252   0.613   2.910   5.655
 1451SOL    HW2 5253   0.652   2.839   5.797
 1452SOL     OW 5254   0.122   2.505   6.149
 1452SOL    HW1 5255   0.077   2.417   6.166
 1452SOL    HW2 5256   0.121   2.559   6.233
 1453SOL     OW 5257   1.842   3.629   5.945
 1453SOL    HW1 5258   1.896   3.600   6.025
 1453SOL    HW2 5259   1.872   3.719   5.916
 1454SOL     OW 5260   0.027   3.458   5.703
 1454SOL    HW1 5261   0.008   3.362   5.724
 1454SOL    HW2 5262  -0.006   3.516   5.778
 1455SOL     OW 5263   1.689   2.784   6.198
 1455SOL    HW1 5264   1.784   2.755   6.206
 1455SOL    HW2 5265   1.681   2.849   6.123
 1456SOL     OW 5266   1.641   2.970   6.018
 1456SOL    HW1 5267   1.727   2.972   5.966
 1456SOL    HW2 5268   1.655   3.017   6.106
 1457SOL     OW 5269   0.613   3.227   6.312
 1457SOL    HW1 5270   0.564   3.140   6.321
 1457SOL    HW2 5271   0.590   3.270   6.225
 1458SOL     OW 5272   0.809   1.866   6.088
 1458SOL    HW1 5273   0.849   1.957   6.079
 1458SOL    HW2 5274   0.709   1.874   6.094
 1459SOL     OW 5275   0.197   2.838   6.850
 1459SOL    HW1 5276   0.286   2.793   6.836
 1459SOL    HW2 5277   0.124   2.773   6.831
 1460SOL     OW 5278   1.525   2.861   5.776
 1460SOL    HW1 5279   1.462   2.785   5.789
 1460SOL    HW2 5280   1.573   2.879   5.862
 1461SOL     OW 5281   1.466   3.279   6.539
 1461SOL    HW1 5282   1.407   3.285   6.619
 1461SOL    HW2 5283   1.451   3.191   6.493
 1462SOL     OW 5284   1.667   3.576   6.158
 1462SOL    HW1 5285   1.626   3.553   6.070
 1462SOL    HW2 5286   1.649   3.502   6.223
 1463SOL     OW 5287   0.598   2.591   5.856
 1463SOL    HW1 5288   0.622   2.660   5.788
 1463SOL    HW2 5289   0.520   2.624   5.910
 1464SOL     OW 5290   1.281   2.207   6.530
 1464SOL    HW1 5291   1.195   2.157   6.517
 1464SOL    HW2 5292   1.343   2.153   6.586
 1465SOL     OW 5293   1.576   3.524   5.893
 1465SOL    HW1 5294   1.665   3.570   5.896
 1465SOL    HW2 5295   1.555   3.500   5.798
 1466SOL     OW 5296   0.807   2.467   7.051
 1466SOL    HW1 5297   0.760   2.464   7.140
 1466SOL    HW2 5298   0.756   2.412   6.985
 1467SOL     OW 5299   0.991   2.272   6.828
 1467SOL    HW1 5300   0.914   2.306   6.882
 1467SOL    HW2 5301   0.957   2.221   6.749
 1468SOL     OW 5302   1.041   2.563   6.015
 1468SOL    HW1 5303   1.067   2.559   6.111
 1468SOL    HW2 5304   0.956   2.512   6.001
 1469SOL     OW 5305   0.076   2.673   6.375
 1469SOL    HW1 5306   0.175   2.661   6.384
 1469SOL    HW2 5307   0.052   2.768   6.396
 1470SOL     OW 5308   0.130   3.683   7.157
 1470SOL    HW1 5309   0.120   3.668   7.256
 1470SOL    HW2 5310   0.044   3.719   7.121
 1471SOL     OW 5311   0.865   2.210   5.781
 1471SOL    HW1 5312   0.924   2.273   5.732
 1471SOL    HW2 5313   0.884   2.116   5.752
 1472SOL     OW 5314   1.362   3.006   6.131
 1472SOL    HW1 5315   1.445   2.977   6.083
 1472SOL    HW2 5316   1.313   3.073   6.075
 1473SOL     OW 5317   0.550   2.058   6.471
 1473SOL    HW1 5318   0.545   2.053   6.571
 1473SOL    HW2 5319   0.552   2.154   6.442
 1474SOL     OW 5320   1.008   3.318   6.063
 1474SOL    HW1 5321   0.962   3.390   6.011
 1474SOL    HW2 5322   1.004   3.338   6.161
 1475SOL     OW 5323   0.351   3.663   6.439
 1475SOL    HW1 5324   0.401   3.577   6.445
 1475SOL    HW2 5325   0.416   3.740   6.436
 1476SOL     OW 5326   1.795   2.928   6.459
 1476SOL    HW1 5327   1.733   2.913   6.383
 1476SOL    HW2 5328   1.743   2.939   6.544
 1477SOL     OW 5329   0.321   2.805   5.828
 1477SOL    HW1 5330   0.403   2.844   5.786
 1477SOL    HW2 5331   0.294   2.723   5.779
 1478SOL     OW 5332   1.458   2.597   6.314
 1478SOL    HW1 5333   1.453   2.532   6.389
 1478SOL    HW2 5334   1.538   2.656   6.327
 1479SOL     OW 5335   1.111   3.638   5.823
 1479SOL    HW1 5336   1.051   3.576   5.873
 1479SOL    HW2 5337   1.142   3.594   5.738
 1480SOL     OW 5338   1.632   3.239   5.667
 1480SOL    HW1 5339   1.600   3.333   5.657
 1480SOL    HW2 5340   1.556   3.176   5.655
 1481SOL     OW 5341   0.464   3.605   5.909
 1481SOL    HW1 5342   0.497   3.644   5.995
 1481SOL    HW2 5343   0.540   3.598   5.844
 1482SOL     OW 5344   1.400   1.969   6.012
 1482SOL    HW1 5345   1.376   1.932   5.922
 1482SOL    HW2 5346   1.499   1.985   6.016
 1483SOL     OW 5347   0.249   3.647   6.827
 1483SOL    HW1 5348   0.306   3.582   6.877
 1483SOL    HW2 5349   0.233   3.614   6.734
 1484SOL     OW 5350   0.940   3.560   6.490
 1484SOL    HW1 5351   1.020   3.503   6.511
 1484SOL    HW2 5352   0.891   3.520   6.413
 1485SOL     OW 5353   0.382   2.562   6.066
 1485SOL    HW1 5354   0.427   2.472   6.063
 1485SOL    HW2 5355   0.288   2.551   6.099
 1486SOL     OW 5356   0.614   1.984   5.703
 1486SOL    HW1 5357   0.712   1.962   5.710
 1486SOL    HW2 5358   0.583   1.967   5.610
 1487SOL     OW 5359   0.888   3.376   6.781
 1487SOL    HW1 5360   0.865   3.351   6.687
 1487SOL    HW2 5361   0.949   3.307   6.820
 1488SOL     OW 5362   0.803   3.264   6.510
 1488SOL    HW1 5363   0.893   3.278   6.468
 1488SOL    HW2 5364   0.732   3.266   6.439
 1489SOL     OW 5365   0.922   2.365   6.485
 1489SOL    HW1 5366   0.897   2.356   6.389
 1489SOL    HW2 5367   0.970   2.283   6.516
 1490SOL     OW 5368   0.539   1.926   6.098
 1490SOL    HW1 5369   0.458   1.927   6.156
 1490SOL    HW2 5370   0.542   2.009   6.043
 1491SOL     OW 5371   1.434   3.050   5.627
 1491SOL    HW1 5372   1.466   2.974   5.684
 1491SOL    HW2 5373   1.342   3.077   5.657
 1492SOL     OW 5374   0.297   1.897   5.757
 1492SOL    HW1 5375   0.346   1.981   5.736
 1492SOL    HW2 5376   0.359   1.832   5.802
 1493SOL     OW 5377   0.935   2.098   6.066
 1493SOL    HW1 5378   0.887   2.139   5.988
 1493SOL    HW2 5379   1.034   2.096   6.047
 1494SOL     OW 5380   1.227   3.432   6.379
 1494SOL    HW1 5381   1.248   3.506   6.314
 1494SOL    HW2 5382   1.295   3.432   6.452
 1495SOL     OW 5383   0.459   3.014   6.327
 1495SOL    HW1 5384   0.388   2.987   6.392
 1495SOL    HW2 5385   0.433   2.986   6.234
 1496SOL     OW 5386   1.271   3.659   6.177
 1496SOL    HW1 5387   1.315   3.723   6.113
 1496SOL    HW2 5388   1.221   3.711   6.247
 1497SOL     OW 5389   1.032   2.411   5.602
 1497SOL    HW1 5390   0.991   2.493   5.563
 1497SOL    HW2 5391   1.096   2.437   5.675
 1498SOL     OW 5392   0.561   2.084   6.733
 1498SOL    HW1 5393   0.599   2.000   6.770
 1498SOL    HW2 5394   0.473   2.103   6.777
 1499SOL     OW 5395   0.866   2.316   6.228
 1499SOL    HW1 5396   0.834   2.388   6.166
 1499SOL    HW2 5397   0.890   2.235   6.175
 1500SOL     OW 5398   1.017   1.901   6.339
 1500SOL    HW1 5399   0.945   1.906   6.270
 1500SOL    HW2 5400   0.993   1.832   6.408
 1501SOL     OW 5401   1.429   3.035   6.453
 1501SOL    HW1 5402   1.374   2.951   6.446
 1501SOL    HW2 5403   1.455   3.064   6.361
 1502SOL     OW 5404   1.466   2.452   6.578
 1502SOL    HW1 5405   1.436   2.357   6.585
 1502SOL    HW2 5406   1.539   2.468   6.644
 1503SOL     OW 5407   1.857   2.695   5.963
 1503SOL    HW1 5408   1.899   2.631   6.027
 1503SOL    HW2 5409   1.819   2.644   5.885
 1504SOL     OW 5410   0.488   3.247   5.760
 1504SOL    HW1 5411   0.401   3.232   5.807
 1504SOL    HW2 5412   0.471   3.273   5.665
 1505SOL     OW 5413   1.664   3.142   6.243
 1505SOL    HW1 5414   1.763   3.150   6.257
 1505SOL    HW2 5415   1.619   3.226   6.274
 1506SOL     OW 5416   1.390   2.437   5.664
 1506SOL    HW1 5417   1.336   2.416   5.745
 1506SOL    HW2 5418   1.481   2.396   5.673
 1507SOL     OW 5419   0.527   2.118   5.914
 1507SOL    HW1 5420   0.554   2.059   5.839
 1507SOL    HW2 5421   0.527   2.213   5.883
 1508SOL     OW 5422   1.754   3.085   7.174
 1508SOL    HW1 5423   1.845   3.046   7.161
 1508SOL    HW2 5424   1.762   3.181   7.198
 1509SOL     OW 5425   1.111   3.057   6.686
 1509SOL    HW1 5426   1.071   3.101   6.767
 1509SOL    HW2 5427   1.070   3.094   6.603
 1510SOL     OW 5428   1.638   2.961   6.665
 1510SOL    HW1 5429   1.643   3.042   6.724
 1510SOL    HW2 5430   1.552   2.963   6.614
 1511SOL     OW 5431   0.705   2.912   5.954
 1511SOL    HW1 5432   0.691   2.919   6.053
 1511SOL    HW2 5433   0.789   2.861   5.936
 1512SOL     OW 5434   0.410   2.675   6.837
 1512SOL    HW1 5435   0.496   2.687   6.887
 1512SOL    HW2 5436   0.368   2.588   6.864
 1513SOL     OW 5437   1.274   2.248   6.848
 1513SOL    HW1 5438   1.295   2.322   6.912
 1513SOL    HW2 5439   1.185   2.265   6.805
 1514SOL     OW 5440   0.064   3.426   6.917
 1514SOL    HW1 5441   0.018   3.508   6.883
 1514SOL    HW2 5442   0.162   3.445   6.926
 1515SOL     OW 5443   0.367   2.962   6.087
 1515SOL    HW1 5444   0.360   3.045   6.031
 1515SOL    HW2 5445   0.371   2.882   6.027
 1516SOL     OW 5446   0.566   2.399   6.451
 1516SOL    HW1 5447   0.578   2.465   6.377
 1516SOL    HW2 5448   0.612   2.433   6.534
 1517SOL     OW 5449   1.252   3.210   5.974
 1517SOL    HW1 5450   1.302   3.287   6.014
 1517SOL    HW2 5451   1.157   3.212   6.006
 1518SOL     OW 5452   1.272   3.307   6.728
 1518SOL    HW1 5453   1.319   3.320   6.815
 1518SOL    HW2 5454   1.206   3.233   6.737
 1519SOL     OW 5455   1.582   2.501   6.058
 1519SOL    HW1 5456   1.551   2.562   6.131
 1519SOL    HW2 5457   1.632   2.553   5.989
 1520SOL     OW 5458   0.354   3.372   6.915
 1520SOL    HW1 5459   0.333   3.328   6.828
 1520SOL    HW2 5460   0.451   3.398   6.918
 1521SOL     OW 5461   0.573   2.732   6.615
 1521SOL    HW1 5462   0.617   2.821   6.606
 1521SOL    HW2 5463   0.510   2.732   6.692
 1522SOL     OW 5464   1.360   2.724   6.631
 1522SOL    HW1 5465   1.285   2.724   6.565
 1522SOL    HW2 5466   1.397   2.632   6.640
 1523SOL     OW 5467   1.209   2.387   5.861
 1523SOL    HW1 5468   1.222   2.303   5.915
 1523SOL    HW2 5469   1.180   2.461   5.921
 1524SOL     OW 5470   0.307   2.075   6.817
 1524SOL    HW1 5471   0.284   2.112   6.907
 1524SOL    HW2 5472   0.277   1.980   6.811
 1525SOL     OW 5473   0.037   3.172   6.868
 1525SOL    HW1 5474   0.090   3.123   6.936
 1525SOL    HW2 5475   0.059   3.270   6.873
 1526SOL     OW 5476   0.732   2.496   6.650
 1526SOL    HW1 5477   0.791   2.470   6.574
 1526SOL    HW2 5478   0.704   2.592   6.639
 1527SOL     OW 5479   0.307   1.925   6.204
 1527SOL    HW1 5480   0.296   2.019   6.237
 1527SOL    HW2 5481   0.302   1.862   6.281
 1528SOL     OW 5482   1.622   2.229   5.960
 1528SOL    HW1 5483   1.624   2.153   6.024
 1528SOL    HW2 5484   1.574   2.306   6.000
 1529SOL     OW 5485   1.023   2.628   6.552
 1529SOL    HW1 5486   1.038   2.649   6.648
 1529SOL    HW2 5487   0.993   2.533   6.543
 1530SOL     OW 5488   1.859   3.380   7.191
 1530SOL    HW1 5489   1.873   3.407   7.096
 1530SOL    HW2 5490   1.942   3.402   7.244
 1531SOL     OW 5491   1.540   2.136   5.711
 1531SOL    HW1 5492   1.479   2.061   5.734
 1531SOL    HW2 5493   1.562   2.188   5.794
 1532SOL     OW 5494   1.303   2.700   5.628
 1532SOL    HW1 5495   1.337   2.607   5.643
 1532SOL    HW2 5496   1.321   2.727   5.533
 1533SOL     OW 5497   1.068   3.195   6.435
 1533SOL    HW1 5498   1.075   3.111   6.380
 1533SOL    HW2 5499   1.130   3.264   6.399
 1534SOL     OW 5500   0.319   2.672   6.535
 1534SOL    HW1 5501   0.412   2.708   6.540
 1534SOL    HW2 5502   0.313   2.587   6.587
 1535SOL     OW 5503   0.339   2.371   6.592
 1535SOL    HW1 5504   0.287   2.288   6.575
 1535SOL    HW2 5505   0.416   2.376   6.528
 1536SOL     OW 5506   1.160   2.069   7.063
 1536SOL    HW1 5507   1.160   2.133   7.140
 1536SOL    HW2 5508   1.188   2.117   6.980
 1537SOL     OW 5509   0.008   3.188   5.786
 1537SOL    HW1 5510  -0.085   3.209   5.755
 1537SOL    HW2 5511   0.018   3.089   5.799
 1538SOL     OW 5512   0.088   3.663   6.513
 1538SOL    HW1 5513   0.046   3.577   6.486
 1538SOL    HW2 5514   0.182   3.666   6.479
 1539SOL     OW 5515   0.504   3.430   6.496
 1539SOL    HW1 5516   0.570   3.504   6.505
 1539SOL    HW2 5517   0.548   3.351   6.454
 1540SOL     OW 5518   1.002   2.658   6.824
 1540SOL    HW1 5519   1.043   2.626   6.910
 1540SOL    HW2 5520   0.906   2.631   6.821
 1541SOL     OW 5521   0.040   2.406   6.700
 1541SOL    HW1 5522   0.125   2.373   6.659
 1541SOL    HW2 5523   0.053   2.421   6.798
 1542SOL     OW 5524   0.815   2.434   5.911
 1542SOL    HW1 5525   0.822   2.345   5.865
 1542SOL    HW2 5526   0.721   2.468   5.903
 1543SOL     OW 5527   1.657   2.466   6.792
 1543SOL    HW1 5528   1.619   2.397   6.854
 1543SOL    HW2 5529   1.739   2.430   6.748
 1544SOL     OW 5530   0.671   2.326   6.855
 1544SOL    HW1 5531   0.637   2.237   6.825
 1544SOL    HW2 5532   0.697   2.380   6.775
 1545SOL     OW 5533   0.930   3.540   7.051
 1545SOL    HW1 5534   0.906   3.522   6.956
 1545SOL    HW2 5535   0.960   3.634   7.061
 1546SOL     OW 5536   0.473   2.362   5.777
 1546SOL    HW1 5537   0.534   2.442   5.781
 1546SOL    HW2 5538   0.378   2.393   5.784
 1547SOL     OW 5539   0.159   2.999   7.052
 1547SOL    HW1 5540   0.181   2.938   7.128
 1547SOL    HW2 5541   0.169   2.950   6.966
 1548SOL     OW 5542   1.347   2.921   6.820
 1548SOL    HW1 5543   1.371   2.858   6.746
 1548SOL    HW2 5544   1.257   2.961   6.802
 1549SOL     OW 5545   1.302   2.717   5.895
 1549SOL    HW1 5546   1.216   2.686   5.937
 1549SOL    HW2 5547   1.298   2.703   5.796
 1550SOL     OW 5548   1.759   3.609   6.740
 1550SOL    HW1 5549   1.820   3.639   6.667
 1550SOL    HW2 5550   1.721   3.520   6.718
 1551SOL     OW 5551   1.252   3.593   6.714
 1551SOL    HW1 5552   1.336   3.598   6.660
 1551SOL    HW2 5553   1.229   3.497   6.732
 1552SOL     OW 5554   0.083   3.120   6.608
 1552SOL    HW1 5555   0.078   3.119   6.708
 1552SOL    HW2 5556   0.000   3.079   6.570
 1553SOL     OW 5557   1.726   1.997   6.109
 1553SOL    HW1 5558   1.799   1.980   6.042
 1553SOL    HW2 5559   1.695   1.910   6.147
 1554SOL     OW 5560   1.388   3.435   6.063
 1554SOL    HW1 5561   1.455   3.447   5.989
 1554SOL    HW2 5562   1.348   3.524   6.086
 1555SOL     OW 5563   1.280   2.789   6.258
 1555SOL    HW1 5564   1.340   2.708   6.260
 1555SOL    HW2 5565   1.320   2.858   6.198
 1556SOL     OW 5566   0.672   3.478   5.740
 1556SOL    HW1 5567   0.681   3.488   5.641
 1556SOL    HW2 5568   0.632   3.389   5.761
 1557SOL     OW 5569   1.841   2.037   6.549
 1557SOL    HW1 5570   1.880   1.952   6.513
 1557SOL    HW2 5571   1.743   2.039   6.530
 1558SOL     OW 5572   0.263   2.188   6.306
 1558SOL    HW1 5573   0.184   2.239   6.272
 1558SOL    HW2 5574   0.254   2.173   6.404
 1559SOL     OW 5575   1.194   3.474   5.617
 1559SOL    HW1 5576   1.200   3.381   5.654
 1559SOL    HW2 5577   1.135   3.474   5.537
 1560SOL     OW 5578   0.822   2.864   6.958
 1560SOL    HW1 5579   0.862   2.863   6.866
 1560SOL    HW2 5580   0.832   2.956   6.998
 1561SOL     OW 5581   0.916   2.772   5.877
 1561SOL    HW1 5582   0.979   2.810   5.809
 1561SOL    HW2 5583   0.956   2.689   5.916
 1562SOL     OW 5584   1.504   3.469   5.630
 1562SOL    HW1 5585   1.412   3.506   5.637
 1562SOL    HW2 5586   1.542   3.489   5.540
 1563SOL     OW 5587   1.614   3.154   6.875
 1563SOL    HW1 5588   1.674   3.157   6.955
 1563SOL    HW2 5589   1.539   3.218   6.888
 1564SOL     OW 5590   1.039   2.960   6.282
 1564SOL    HW1 5591   0.969   2.913   6.336
 1564SOL    HW2 5592   1.098   2.892   6.239
 1565SOL     OW 5593   1.014   2.098   6.557
 1565SOL    HW1 5594   1.006   2.062   6.464
 1565SOL    HW2 5595   1.012   2.022   6.622
 1566SOL     OW 5596   0.590   3.349   6.077
 1566SOL    HW1 5597   0.632   3.291   6.007
 1566SOL    HW2 5598   0.546   3.428   6.033
 1567SOL     OW 5599   1.709   2.247   6.967
 1567SOL    HW1 5600   1.782   2.316   6.971
 1567SOL    HW2 5601   1.737   2.172   6.908
 1568SOL     OW 5602   0.255   3.210   5.876
 1568SOL    HW1 5603   0.159   3.211   5.849
 1568SOL    HW2 5604   0.267   3.263   5.960
 1569SOL     OW 5605   0.672   2.065   7.075
 1569SOL    HW1 5606   0.762   2.049   7.035
 1569SOL    HW2 5607   0.680   2.070   7.174
 1570SOL     OW 5608   0.075   2.207   5.619
 1570SOL    HW1 5609  -0.017   2.179   5.590
 1570SOL    HW2 5610   0.106   2.284   5.563
 1571SOL     OW 5611   0.072   2.028   5.904
 1571SOL    HW1 5612   0.055   2.111   5.850
 1571SOL    HW2 5613   0.162   1.991   5.882
 1572SOL     OW 5614   1.183   3.197   5.705
 1572SOL    HW1 5615   1.084   3.186   5.707
 1572SOL    HW2 5616   1.217   3.212   5.798
 1573SOL     OW 5617   1.493   3.629   6.545
 1573SOL    HW1 5618   1.526   3.693   6.476
 1573SOL    HW2 5619   1.559   3.623   6.620
 1574SOL     OW 5620   1.450   3.082   7.219
 1574SOL    HW1 5621   1.441   3.072   7.318
 1574SOL    HW2 5622   1.546   3.075   7.193
 1575SOL     OW 5623   0.390   3.603   7.146
 1575SOL    HW1 5624   0.299   3.644   7.144
 1575SOL    HW2 5625   0.383   3.509   7.178
 1576SOL     OW 5626   1.674   2.745   6.840
 1576SOL    HW1 5627   1.647   2.656   6.803
 1576SOL    HW2 5628   1.675   2.813   6.767
 1577SOL     OW 5629   1.225   2.187   6.035
 1577SOL    HW1 5630   1.290   2.113   6.024
 1577SOL    HW2 5631   1.245   2.237   6.119
 1578SOL     OW 5632   0.594   2.607   6.238
 1578SOL    HW1 5633   0.644   2.692   6.219
 1578SOL    HW2 5634   0.506   2.609   6.190
 1579SOL     OW 5635   1.730   2.796   7.103
 1579SOL    HW1 5636   1.768   2.887   7.118
 1579SOL    HW2 5637   1.722   2.779   7.004
 1580SOL     OW 5638   0.859   3.236   5.602
 1580SOL    HW1 5639   0.813   3.251   5.690
 1580SOL    HW2 5640   0.903   3.321   5.572
 1581SOL     OW 5641   0.661   3.652   6.539
 1581SOL    HW1 5642   0.615   3.740   6.526
 1581SOL    HW2 5643   0.760   3.664   6.532
 1582SOL     OW 5644   0.859   2.818   6.447
 1582SOL    HW1 5645   0.913   2.749   6.495
 1582SOL    HW2 5646   0.827   2.887   6.513
 1583SOL     OW 5647   1.083   2.846   5.673
 1583SOL    HW1 5648   1.060   2.899   5.591
 1583SOL    HW2 5649   1.164   2.790   5.654
 1584SOL     OW 5650   1.861   3.431   6.437
 1584SOL    HW1 5651   1.790   3.419   6.367
 1584SOL    HW2 5652   1.862   3.352   6.497
 1585SOL     OW 5653   0.079   3.102   6.239
 1585SOL    HW1 5654   0.078   3.055   6.327
 1585SOL    HW2 5655   0.161   3.074   6.188
 1586SOL     OW 5656   1.824   2.054   6.813
 1586SOL    HW1 5657   1.820   1.964   6.857
 1586SOL    HW2 5658   1.827   2.043   6.714
 1587SOL     OW 5659   0.428   2.286   6.106
 1587SOL    HW1 5660   0.458   2.214   6.044
 1587SOL    HW2 5661   0.389   2.246   6.189
 1588SOL     OW 5662   1.705   3.349   6.690
 1588SOL    HW1 5663   1.612   3.324   6.663
 1588SOL    HW2 5664   1.731   3.299   6.772
 1589SOL     OW 5665   0.317   2.409   6.866
 1589SOL    HW1 5666   0.355   2.350   6.938
 1589SOL    HW2 5667   0.357   2.383   6.778
 1590SOL     OW 5668   0.812   3.448   6.273
 1590SOL    HW1 5669   0.844   3.458   6.179
 1590SOL    HW2 5670   0.733   3.386   6.275
 1591SOL     OW 5671   1.424   2.076   6.698
 1591SOL    HW1 5672   1.476   2.011   6.753
 1591SOL    HW2 5673   1.375   2.139   6.759
 1592SOL     OW 5674   1.001   1.896   6.740
 1592SOL    HW1 5675   0.938   1.824   6.709
 1592SOL    HW2 5676   1.094   1.860   6.740
 1593SOL     OW 5677   0.770   3.192   5.887
 1593SOL    HW1 5678   0.724   3.105   5.904
 1593SOL    HW2 5679   0.861   3.189   5.928
 1594SOL     OW 5680   0.618   3.429   6.870
 1594SOL    HW1 5681   0.613   3.511   6.927
 1594SOL    HW2 5682   0.707   3.426   6.825
 1595SOL     OW 5683   1.352   1.914   5.754
 1595SOL    HW1 5684   1.387   1.873   5.670
 1595SOL    HW2 5685   1.262   1.876   5.774
 1596SOL     OW 5686   1.300   2.315   6.277
 1596SOL    HW1 5687   1.241   2.395   6.281
 1596SOL    HW2 5688   1.315   2.280   6.370
 1597SOL     OW 5689   1.593   2.083   6.468
 1597SOL    HW1 5690   1.509   2.082   6.522
 1597SOL    HW2 5691   1.595   2.166   6.412
 1598SOL     OW 5692   0.039   2.939   5.886
 1598SOL    HW1 5693   0.138   2.928   5.877
 1598SOL    HW2 5694  -0.001   2.853   5.918
 1599SOL     OW 5695   0.875   3.508   5.923
 1599SOL    HW1 5696   0.798   3.473   5.869
 1599SOL    HW2 5697   0.843   3.579   5.985
 1600SOL     OW 5698   0.230   4.352   0.113
 1600SOL    HW1 5699   0.137   4.350   0.150
 1600SOL    HW2 5700   0.231   4.313   0.021
 1601SOL     OW 5701   0.225   3.999   0.996
 1601SOL    HW1 5702   0.260   3.982   1.088
 1601SOL    HW2 5703   0.137   3.954   0.984
 1602SOL     OW 5704   0.019   4.092   0.647
 1602SOL    HW1 5705  -0.063   4.135   0.686
 1602SOL    HW2 5706  -0.009   4.019   0.584
 1603SOL     OW 5707   0.569   4.999   1.165
 1603SOL    HW1 5708   0.476   4.992   1.128
 1603SOL    HW2 5709   0.580   5.088   1.209
 1604SOL     OW 5710   1.555   5.235   0.703
 1604SOL    HW1 5711   1.498   5.219   0.784
 1604SOL    HW2 5712   1.496   5.245   0.623
 1605SOL     OW 5713   1.135   4.427   0.717
 1605SOL    HW1 5714   1.192   4.505   0.692
 1605SOL    HW2 5715   1.075   4.453   0.793
 1606SOL     OW 5716   1.755   4.331   0.231
 1606SOL    HW1 5717   1.743   4.318   0.132
 1606SOL    HW2 5718   1.725   4.250   0.280
 1607SOL     OW 5719   0.768   4.868   1.023
 1607SOL    HW1 5720   0.690   4.885   1.083
 1607SOL    HW2 5721   0.802   4.955   0.987
 1608SOL     OW 5722   0.850   4.522   1.823
 1608SOL    HW1 5723   0.846   4.598   1.888
 1608SOL    HW2 5724   0.872   4.558   1.732
 1609SOL     OW 5725   0.685   4.736   0.665
 1609SOL    HW1 5726   0.754   4.720   0.735
 1609SOL    HW2 5727   0.612   4.793   0.703
 1610SOL     OW 5728   0.686   4.885   1.803
 1610SOL    HW1 5729   0.746   4.964   1.817
 1610SOL    HW2 5730   0.600   4.916   1.762
 1611SOL     OW 5731   0.335   5.159   1.061
 1611SOL    HW1 5732   0.257   5.128   1.008
 1611SOL    HW2 5733   0.393   5.217   1.004
 1612SOL     OW 5734   1.460   5.229   1.339
 1612SOL    HW1 5735   1.484   5.323   1.365
 1612SOL    HW2 5736   1.444   5.175   1.421
 1613SOL     OW 5737   0.438   4.116   1.499
 1613SOL    HW1 5738   0.520   4.060   1.508
 1613SOL    HW2 5739   0.357   4.058   1.503
 1614SOL     OW 5740   1.603   4.171   0.737
 1614SOL    HW1 5741   1.529   4.217   0.687
 1614SOL    HW2 5742   1.654   4.239   0.790
 1615SOL     OW 5743   0.231   5.437   0.483
 1615SOL    HW1 5744   0.265   5.514   0.537
 1615SOL    HW2 5745   0.275   5.437   0.393
 1616SOL     OW 5746   1.127   5.065   1.690
 1616SOL    HW1 5747   1.174   5.065   1.778
 1616SOL    HW2 5748   1.079   4.978   1.679
 1617SOL     OW 5749   0.230   5.158   0.538
 1617SOL    HW1 5750   0.204   5.254   0.538
 1617SOL    HW2 5751   0.159   5.104   0.583
 1618SOL     OW 5752   0.240   4.815   0.886
 1618SOL    HW1 5753   0.254   4.731   0.938
 1618SOL    HW2 5754   0.185   4.879   0.941
 1619SOL     OW 5755   0.620   5.510   1.439
 1619SOL    HW1 5756   0.528   5.493   1.474
 1619SOL    HW2 5757   0.648   5.602   1.465
 1620SOL     OW 5758   0.606   4.688   0.123
 1620SOL    HW1 5759   0.613   4.772   0.069
 1620SOL    HW2 5760   0.652   4.701   0.211
 1621SOL     OW 5761   1.594   3.838   1.480
 1621SOL    HW1 5762   1.576   3.905   1.408
 1621SOL    HW2 5763   1.591   3.884   1.569
 1622SOL     OW 5764   0.122   4.367   0.563
 1622SOL    HW1 5765   0.077   4.279   0.580
 1622SOL    HW2 5766   0.121   4.421   0.647
 1623SOL     OW 5767   1.842   5.491   0.359
 1623SOL    HW1 5768   1.896   5.462   0.439
 1623SOL    HW2 5769   1.872   5.581   0.330
 1624SOL     OW 5770   0.027   5.320   0.117
 1624SOL    HW1 5771   0.008   5.224   0.138
 1624SOL    HW2 5772  -0.006   5.378   0.192
 1625SOL     OW 5773   1.689   4.646   0.612
 1625SOL    HW1 5774   1.784   4.617   0.620
 1625SOL    HW2 5775   1.681   4.711   0.537
 1626SOL     OW 5776   1.641   4.832   0.432
 1626SOL    HW1 5777   1.727   4.834   0.380
 1626SOL    HW2 5778   1.655   4.879   0.520
 1627SOL     OW 5779   0.113   4.461   1.597
 1627SOL    HW1 5780   0.201   4.448   1.642
 1627SOL    HW2 5781   0.100   4.558   1.575
 1628SOL     OW 5782   0.613   5.089   0.726
 1628SOL    HW1 5783   0.564   5.002   0.735
 1628SOL    HW2 5784   0.590   5.132   0.639
 1629SOL     OW 5785   1.293   4.952   1.423
 1629SOL    HW1 5786   1.330   4.879   1.365
 1629SOL    HW2 5787   1.345   4.957   1.508
 1630SOL     OW 5788   0.809   3.728   0.502
 1630SOL    HW1 5789   0.849   3.819   0.493
 1630SOL    HW2 5790   0.709   3.736   0.508
 1631SOL     OW 5791   0.197   4.700   1.264
 1631SOL    HW1 5792   0.286   4.655   1.250
 1631SOL    HW2 5793   0.124   4.635   1.245
 1632SOL     OW 5794   1.525   4.723   0.190
 1632SOL    HW1 5795   1.462   4.647   0.203
 1632SOL    HW2 5796   1.573   4.741   0.276
 1633SOL     OW 5797   1.187   5.516   1.616
 1633SOL    HW1 5798   1.211   5.576   1.540
 1633SOL    HW2 5799   1.194   5.421   1.586
 1634SOL     OW 5800   0.317   3.975   1.801
 1634SOL    HW1 5801   0.388   4.046   1.807
 1634SOL    HW2 5802   0.229   4.014   1.829
 1635SOL     OW 5803   1.466   5.141   0.953
 1635SOL    HW1 5804   1.407   5.147   1.033
 1635SOL    HW2 5805   1.451   5.053   0.907
 1636SOL     OW 5806   1.667   5.438   0.572
 1636SOL    HW1 5807   1.626   5.415   0.484
 1636SOL    HW2 5808   1.649   5.364   0.637
 1637SOL     OW 5809   0.598   4.453   0.270
 1637SOL    HW1 5810   0.622   4.522   0.202
 1637SOL    HW2 5811   0.520   4.486   0.324
 1638SOL     OW 5812   1.281   4.069   0.944
 1638SOL    HW1 5813   1.195   4.019   0.931
 1638SOL    HW2 5814   1.343   4.015   1.000
 1639SOL     OW 5815   1.576   5.386   0.307
 1639SOL    HW1 5816   1.665   5.432   0.310
 1639SOL    HW2 5817   1.555   5.362   0.212
 1640SOL     OW 5818   0.807   4.329   1.465
 1640SOL    HW1 5819   0.760   4.326   1.554
 1640SOL    HW2 5820   0.756   4.274   1.399
 1641SOL     OW 5821   1.394   4.193   1.674
 1641SOL    HW1 5822   1.374   4.236   1.762
 1641SOL    HW2 5823   1.472   4.131   1.683
 1642SOL     OW 5824   0.973   4.614   1.572
 1642SOL    HW1 5825   1.019   4.530   1.543
 1642SOL    HW2 5826   0.917   4.648   1.497
 1643SOL     OW 5827   0.991   4.134   1.242
 1643SOL    HW1 5828   0.914   4.168   1.296
 1643SOL    HW2 5829   0.957   4.083   1.163
 1644SOL     OW 5830   1.041   4.425   0.429
 1644SOL    HW1 5831   1.067   4.421   0.525
 1644SOL    HW2 5832   0.956   4.374   0.415
 1645SOL     OW 5833   0.076   4.535   0.789
 1645SOL    HW1 5834   0.175   4.523   0.798
 1645SOL    HW2 5835   0.052   4.630   0.810
 1646SOL     OW 5836   0.130   5.545   1.571
 1646SOL    HW1 5837   0.120   5.530   1.670
 1646SOL    HW2 5838   0.044   5.581   1.535
 1647SOL     OW 5839   0.865   4.072   0.195
 1647SOL    HW1 5840   0.924   4.135   0.146
 1647SOL    HW2 5841   0.884   3.978   0.166
 1648SOL     OW 5842   1.719   4.309   1.831
 1648SOL    HW1 5843   1.693   4.398   1.795
 1648SOL    HW2 5844   1.717   4.241   1.758
 1649SOL     OW 5845   1.362   4.868   0.545
 1649SOL    HW1 5846   1.445   4.839   0.497
 1649SOL    HW2 5847   1.313   4.935   0.489
 1650SOL     OW 5848   0.550   3.920   0.885
 1650SOL    HW1 5849   0.545   3.915   0.985
 1650SOL    HW2 5850   0.552   4.016   0.856
 1651SOL     OW 5851   1.008   5.180   0.477
 1651SOL    HW1 5852   0.962   5.252   0.425
 1651SOL    HW2 5853   1.004   5.200   0.575
 1652SOL     OW 5854   0.351   5.525   0.853
 1652SOL    HW1 5855   0.401   5.439   0.859
 1652SOL    HW2 5856   0.416   5.602   0.850
 1653SOL     OW 5857   1.795   4.790   0.873
 1653SOL    HW1 5858   1.733   4.775   0.797
 1653SOL    HW2 5859   1.743   4.801   0.958
 1654SOL     OW 5860   1.227   5.274   1.506
 1654SOL    HW1 5861   1.233   5.197   1.570
 1654SOL    HW2 5862   1.175   5.248   1.426
 1655SOL     OW 5863   0.321   4.667   0.242
 1655SOL    HW1 5864   0.403   4.706   0.200
 1655SOL    HW2 5865   0.294   4.585   0.193
 1656SOL     OW 5866   1.458   4.459   0.728
 1656SOL    HW1 5867   1.453   4.394   0.803
 1656SOL    HW2 5868   1.538   4.518   0.741
 1657SOL     OW 5869   0.461   4.990   1.727
 1657SOL    HW1 5870   0.411   4.991   1.641
 1657SOL    HW2 5871   0.398   4.972   1.803
 1658SOL     OW 5872   1.111   5.500   0.237
 1658SOL    HW1 5873   1.051   5.438   0.287
 1658SOL    HW2 5874   1.142   5.456   0.152
 1659SOL     OW 5875   0.202   4.009   1.498
 1659SOL    HW1 5876   0.122   4.069   1.485
 1659SOL    HW2 5877   0.192   3.960   1.584
 1660SOL     OW 5878   1.632   5.101   0.081
 1660SOL    HW1 5879   1.600   5.195   0.071
 1660SOL    HW2 5880   1.556   5.038   0.069
 1661SOL     OW 5881   0.464   5.467   0.323
 1661SOL    HW1 5882   0.497   5.506   0.409
 1661SOL    HW2 5883   0.540   5.460   0.258
 1662SOL     OW 5884   1.400   3.831   0.426
 1662SOL    HW1 5885   1.376   3.794   0.336
 1662SOL    HW2 5886   1.499   3.847   0.430
 1663SOL     OW 5887   0.249   5.509   1.241
 1663SOL    HW1 5888   0.306   5.444   1.291
 1663SOL    HW2 5889   0.233   5.476   1.148
 1664SOL     OW 5890   0.940   5.422   0.904
 1664SOL    HW1 5891   1.020   5.365   0.925
 1664SOL    HW2 5892   0.891   5.382   0.827
 1665SOL     OW 5893   0.382   4.424   0.480
 1665SOL    HW1 5894   0.427   4.334   0.477
 1665SOL    HW2 5895   0.288   4.413   0.513
 1666SOL     OW 5896   1.547   3.946   1.729
 1666SOL    HW1 5897   1.542   3.983   1.821
 1666SOL    HW2 5898   1.475   3.877   1.717
 1667SOL     OW 5899   0.781   3.988   1.749
 1667SOL    HW1 5900   0.848   3.927   1.792
 1667SOL    HW2 5901   0.708   4.007   1.814
 1668SOL     OW 5902   0.888   5.238   1.195
 1668SOL    HW1 5903   0.865   5.213   1.101
 1668SOL    HW2 5904   0.949   5.169   1.234
 1669SOL     OW 5905   1.351   4.314   1.433
 1669SOL    HW1 5906   1.379   4.271   1.518
 1669SOL    HW2 5907   1.376   4.410   1.434
 1670SOL     OW 5908   0.803   5.126   0.924
 1670SOL    HW1 5909   0.893   5.140   0.882
 1670SOL    HW2 5910   0.732   5.128   0.853
 1671SOL     OW 5911   0.922   4.227   0.899
 1671SOL    HW1 5912   0.897   4.218   0.803
 1671SOL    HW2 5913   0.970   4.145   0.930
 1672SOL     OW 5914   0.539   3.788   0.512
 1672SOL    HW1 5915   0.458   3.789   0.570
 1672SOL    HW2 5916   0.542   3.871   0.457
 1673SOL     OW 5917   1.434   4.912   0.041
 1673SOL    HW1 5918   1.466   4.836   0.098
 1673SOL    HW2 5919   1.342   4.939   0.071
 1674SOL     OW 5920   0.935   3.960   0.480
 1674SOL    HW1 5921   0.887   4.001   0.402
 1674SOL    HW2 5922   1.034   3.958   0.461
 1675SOL     OW 5923   1.076   4.407   1.464
 1675SOL    HW1 5924   0.996   4.346   1.467
 1675SOL    HW2 5925   1.157   4.354   1.440
 1676SOL     OW 5926   1.227   5.294   0.793
 1676SOL    HW1 5927   1.248   5.368   0.728
 1676SOL    HW2 5928   1.295   5.294   0.866
 1677SOL     OW 5929   0.459   4.876   0.741
 1677SOL    HW1 5930   0.388   4.849   0.806
 1677SOL    HW2 5931   0.433   4.848   0.648
 1678SOL     OW 5932   1.271   5.521   0.591
 1678SOL    HW1 5933   1.315   5.585   0.527
 1678SOL    HW2 5934   1.221   5.573   0.661
 1679SOL     OW 5935   1.032   4.273   0.016
 1679SOL    HW1 5936   0.991   4.355  -0.023
 1679SOL    HW2 5937   1.096   4.299   0.089
 1680SOL     OW 5938   0.078   4.280   1.386
 1680SOL    HW1 5939   0.170   4.279   1.345
 1680SOL    HW2 5940   0.072   4.354   1.453
 1681SOL     OW 5941   0.561   3.946   1.147
 1681SOL    HW1 5942   0.599   3.862   1.184
 1681SOL    HW2 5943   0.473   3.965   1.191
 1682SOL     OW 5944   0.866   4.178   0.642
 1682SOL    HW1 5945   0.834   4.250   0.580
 1682SOL    HW2 5946   0.890   4.097   0.589
 1683SOL     OW 5947   1.017   3.763   0.753
 1683SOL    HW1 5948   0.945   3.768   0.684
 1683SOL    HW2 5949   0.993   3.694   0.822
 1684SOL     OW 5950   1.429   4.897   0.867
 1684SOL    HW1 5951   1.374   4.813   0.860
 1684SOL    HW2 5952   1.455   4.926   0.775
 1685SOL     OW 5953   1.466   4.314   0.992
 1685SOL    HW1 5954   1.436   4.219   0.999
 1685SOL    HW2 5955   1.539   4.330   1.058
 1686SOL     OW 5956   1.857   4.557   0.377
 1686SOL    HW1 5957   1.899   4.493   0.441
 1686SOL    HW2 5958   1.819   4.506   0.299
 1687SOL     OW 5959   0.488   5.109   0.174
 1687SOL    HW1 5960   0.401   5.094   0.221
 1687SOL    HW2 5961   0.471   5.135   0.079
 1688SOL     OW 5962   1.664   5.004   0.657
 1688SOL    HW1 5963   1.763   5.012   0.671
 1688SOL    HW2 5964   1.619   5.088   0.688
 1689SOL     OW 5965   1.390   4.299   0.078
 1689SOL    HW1 5966   1.336   4.278   0.159
 1689SOL    HW2 5967   1.481   4.258   0.087
 1690SOL     OW 5968   0.527   3.980   0.328
 1690SOL    HW1 5969   0.554   3.921   0.253
 1690SOL    HW2 5970   0.527   4.075   0.297
 1691SOL     OW 5971   1.754   4.947   1.588
 1691SOL    HW1 5972   1.845   4.908   1.575
 1691SOL    HW2 5973   1.762   5.043   1.612
 1692SOL     OW 5974   1.064   5.071   1.340
 1692SOL    HW1 5975   0.984   5.048   1.395
 1692SOL    HW2 5976   1.147   5.045   1.389
 1693SOL     OW 5977   1.592   5.353   1.625
 1693SOL    HW1 5978   1.619   5.387   1.535
 1693SOL    HW2 5979   1.671   5.315   1.671
 1694SOL     OW 5980   1.111   4.919   1.100
 1694SOL    HW1 5981   1.071   4.963   1.181
 1694SOL    HW2 5982   1.070   4.956   1.017
 1695SOL     OW 5983   1.638   4.823   1.079
 1695SOL    HW1 5984   1.643   4.904   1.138
 1695SOL    HW2 5985   1.552   4.825   1.028
 1696SOL     OW 5986   0.915   3.813   1.402
 1696SOL    HW1 5987   0.940   3.793   1.307
 1696SOL    HW2 5988   0.987   3.869   1.444
 1697SOL     OW 5989   0.980   4.840   1.719
 1697SOL    HW1 5990   0.881   4.846   1.729
 1697SOL    HW2 5991   1.003   4.760   1.663
 1698SOL     OW 5992   0.705   4.774   0.368
 1698SOL    HW1 5993   0.691   4.781   0.467
 1698SOL    HW2 5994   0.789   4.723   0.350
 1699SOL     OW 5995   0.410   4.537   1.251
 1699SOL    HW1 5996   0.496   4.549   1.301
 1699SOL    HW2 5997   0.368   4.450   1.278
 1700SOL     OW 5998   1.274   4.110   1.262
 1700SOL    HW1 5999   1.295   4.184   1.326
 1700SOL    HW2 6000   1.185   4.127   1.219
 1701SOL     OW 6001   0.064   5.288   1.331
 1701SOL    HW1 6002   0.018   5.370   1.297
 1701SOL    HW2 6003   0.162   5.307   1.340
 1702SOL     OW 6004   0.367   4.824   0.501
 1702SOL    HW1 6005   0.360   4.907   0.445
 1702SOL    HW2 6006   0.371   4.744   0.441
 1703SOL     OW 6007   0.566   4.261   0.865
 1703SOL    HW1 6008   0.578   4.327   0.791
 1703SOL    HW2 6009   0.612   4.295   0.948
 1704SOL     OW 6010   1.252   5.072   0.388
 1704SOL    HW1 6011   1.302   5.149   0.428
 1704SOL    HW2 6012   1.157   5.074   0.420
 1705SOL     OW 6013   1.272   5.169   1.142
 1705SOL    HW1 6014   1.319   5.182   1.229
 1705SOL    HW2 6015   1.206   5.095   1.151
 1706SOL     OW 6016   1.582   4.363   0.472
 1706SOL    HW1 6017   1.551   4.424   0.545
 1706SOL    HW2 6018   1.632   4.415   0.403
 1707SOL     OW 6019   0.354   5.234   1.329
 1707SOL    HW1 6020   0.333   5.190   1.242
 1707SOL    HW2 6021   0.451   5.260   1.332
 1708SOL     OW 6022   0.402   4.475   1.598
 1708SOL    HW1 6023   0.470   4.530   1.551
 1708SOL    HW2 6024   0.442   4.387   1.625
 1709SOL     OW 6025   1.587   4.503   1.670
 1709SOL    HW1 6026   1.495   4.541   1.665
 1709SOL    HW2 6027   1.647   4.550   1.605
 1710SOL     OW 6028   1.013   3.829   1.770
 1710SOL    HW1 6029   1.019   3.914   1.718
 1710SOL    HW2 6030   1.045   3.753   1.713
 1711SOL     OW 6031   0.504   3.774   1.740
 1711SOL    HW1 6032   0.462   3.717   1.670
 1711SOL    HW2 6033   0.438   3.843   1.772
 1712SOL     OW 6034   0.573   4.594   1.029
 1712SOL    HW1 6035   0.617   4.683   1.020
 1712SOL    HW2 6036   0.510   4.594   1.106
 1713SOL     OW 6037   1.360   4.586   1.045
 1713SOL    HW1 6038   1.285   4.586   0.979
 1713SOL    HW2 6039   1.397   4.494   1.054
 1714SOL     OW 6040   1.209   4.249   0.275
 1714SOL    HW1 6041   1.222   4.165   0.329
 1714SOL    HW2 6042   1.180   4.323   0.335
 1715SOL     OW 6043   0.307   3.937   1.231
 1715SOL    HW1 6044   0.284   3.974   1.321
 1715SOL    HW2 6045   0.277   3.842   1.225
 1716SOL     OW 6046   0.037   5.034   1.282
 1716SOL    HW1 6047   0.090   4.985   1.350
 1716SOL    HW2 6048   0.059   5.132   1.287
 1717SOL     OW 6049   0.732   4.358   1.064
 1717SOL    HW1 6050   0.791   4.332   0.988
 1717SOL    HW2 6051   0.704   4.454   1.053
 1718SOL     OW 6052   1.728   4.659   1.854
 1718SOL    HW1 6053   1.682   4.652   1.765
 1718SOL    HW2 6054   1.666   4.703   1.920
 1719SOL     OW 6055   0.307   3.787   0.618
 1719SOL    HW1 6056   0.296   3.881   0.651
 1719SOL    HW2 6057   0.302   3.724   0.695
 1720SOL     OW 6058   1.622   4.091   0.374
 1720SOL    HW1 6059   1.624   4.015   0.438
 1720SOL    HW2 6060   1.574   4.168   0.414
 1721SOL     OW 6061   1.023   4.490   0.966
 1721SOL    HW1 6062   1.038   4.511   1.062
 1721SOL    HW2 6063   0.993   4.395   0.957
 1722SOL     OW 6064   0.980   5.297   1.700
 1722SOL    HW1 6065   0.960   5.341   1.612
 1722SOL    HW2 6066   1.019   5.206   1.684
 1723SOL     OW 6067   1.859   5.242   1.605
 1723SOL    HW1 6068   1.873   5.269   1.510
 1723SOL    HW2 6069   1.942   5.264   1.658
 1724SOL     OW 6070   0.350   4.622   1.804
 1724SOL    HW1 6071   0.426   4.666   1.852
 1724SOL    HW2 6072   0.385   4.575   1.722
 1725SOL     OW 6073   1.540   3.998   0.125
 1725SOL    HW1 6074   1.479   3.923   0.148
 1725SOL    HW2 6075   1.562   4.050   0.208
 1726SOL     OW 6076   1.303   4.562   0.042
 1726SOL    HW1 6077   1.337   4.469   0.057
 1726SOL    HW2 6078   1.321   4.589  -0.053
 1727SOL     OW 6079   0.319   4.534   0.949
 1727SOL    HW1 6080   0.412   4.570   0.954
 1727SOL    HW2 6081   0.313   4.449   1.001
 1728SOL     OW 6082   0.339   4.233   1.006
 1728SOL    HW1 6083   0.287   4.150   0.989
 1728SOL    HW2 6084   0.416   4.238   0.942
 1729SOL     OW 6085   1.138   4.104   1.678
 1729SOL    HW1 6086   1.093   4.167   1.742
 1729SOL    HW2 6087   1.231   4.135   1.661
 1730SOL     OW 6088   1.160   3.931   1.477
 1730SOL    HW1 6089   1.160   3.995   1.554
 1730SOL    HW2 6090   1.188   3.979   1.394
 1731SOL     OW 6091   0.008   5.050   0.200
 1731SOL    HW1 6092  -0.085   5.071   0.169
 1731SOL    HW2 6093   0.018   4.951   0.213
 1732SOL     OW 6094   0.088   5.525   0.927
 1732SOL    HW1 6095   0.046   5.439   0.900
 1732SOL    HW2 6096   0.182   5.528   0.893
 1733SOL     OW 6097   0.504   5.292   0.910
 1733SOL    HW1 6098   0.570   5.366   0.919
 1733SOL    HW2 6099   0.548   5.213   0.868
 1734SOL     OW 6100   1.002   4.520   1.238
 1734SOL    HW1 6101   1.043   4.488   1.324
 1734SOL    HW2 6102   0.906   4.493   1.235
 1735SOL     OW 6103   0.040   4.268   1.114
 1735SOL    HW1 6104   0.125   4.235   1.073
 1735SOL    HW2 6105   0.053   4.283   1.212
 1736SOL     OW 6106   0.189   4.244   1.722
 1736SOL    HW1 6107   0.248   4.204   1.652
 1736SOL    HW2 6108   0.131   4.315   1.681
 1737SOL     OW 6109   1.369   4.674   1.660
 1737SOL    HW1 6110   1.408   4.763   1.680
 1737SOL    HW2 6111   1.379   4.654   1.563
 1738SOL     OW 6112   0.815   4.296   0.325
 1738SOL    HW1 6113   0.822   4.207   0.279
 1738SOL    HW2 6114   0.721   4.330   0.317
 1739SOL     OW 6115   1.657   4.328   1.206
 1739SOL    HW1 6116   1.619   4.259   1.268
 1739SOL    HW2 6117   1.739   4.292   1.162
 1740SOL     OW 6118   0.252   5.288   1.744
 1740SOL    HW1 6119   0.222   5.345   1.820
 1740SOL    HW2 6120   0.245   5.191   1.770
 1741SOL     OW 6121   0.671   4.188   1.269
 1741SOL    HW1 6122   0.637   4.099   1.239
 1741SOL    HW2 6123   0.697   4.242   1.189
 1742SOL     OW 6124   0.930   5.402   1.465
 1742SOL    HW1 6125   0.906   5.384   1.370
 1742SOL    HW2 6126   0.960   5.496   1.475
 1743SOL     OW 6127   0.473   4.224   0.191
 1743SOL    HW1 6128   0.534   4.304   0.195
 1743SOL    HW2 6129   0.378   4.255   0.198
 1744SOL     OW 6130   0.159   4.861   1.466
 1744SOL    HW1 6131   0.181   4.800   1.542
 1744SOL    HW2 6132   0.169   4.812   1.380
 1745SOL     OW 6133   1.347   4.783   1.234
 1745SOL    HW1 6134   1.371   4.720   1.160
 1745SOL    HW2 6135   1.257   4.823   1.216
 1746SOL     OW 6136   1.302   4.579   0.309
 1746SOL    HW1 6137   1.216   4.548   0.351
 1746SOL    HW2 6138   1.298   4.565   0.210
 1747SOL     OW 6139   1.759   5.471   1.154
 1747SOL    HW1 6140   1.820   5.501   1.081
 1747SOL    HW2 6141   1.721   5.382   1.132
 1748SOL     OW 6142   1.252   5.455   1.128
 1748SOL    HW1 6143   1.336   5.460   1.074
 1748SOL    HW2 6144   1.229   5.359   1.146
 1749SOL     OW 6145   0.083   4.982   1.022
 1749SOL    HW1 6146   0.078   4.981   1.122
 1749SOL    HW2 6147   0.000   4.941   0.984
 1750SOL     OW 6148   0.688   5.386   1.716
 1750SOL    HW1 6149   0.632   5.467   1.725
 1750SOL    HW2 6150   0.740   5.390   1.630
 1751SOL     OW 6151   0.903   3.810   0.133
 1751SOL    HW1 6152   0.954   3.811   0.047
 1751SOL    HW2 6153   0.959   3.768   0.204
 1752SOL     OW 6154   1.726   3.859   0.523
 1752SOL    HW1 6155   1.799   3.842   0.456
 1752SOL    HW2 6156   1.695   3.772   0.561
 1753SOL     OW 6157   1.388   5.297   0.477
 1753SOL    HW1 6158   1.455   5.309   0.403
 1753SOL    HW2 6159   1.348   5.386   0.500
 1754SOL     OW 6160   0.130   5.518   1.851
 1754SOL    HW1 6161   0.089   5.444   1.904
 1754SOL    HW2 6162   0.194   5.569   1.909
 1755SOL     OW 6163   1.280   4.651   0.672
 1755SOL    HW1 6164   1.340   4.570   0.674
 1755SOL    HW2 6165   1.320   4.720   0.612
 1756SOL     OW 6166   0.830   4.997   1.422
 1756SOL    HW1 6167   0.825   5.030   1.517
 1756SOL    HW2 6168   0.744   5.016   1.376
 1757SOL     OW 6169   0.672   5.340   0.154
 1757SOL    HW1 6170   0.681   5.350   0.055
 1757SOL    HW2 6171   0.632   5.251   0.175
 1758SOL     OW 6172   1.650   5.444   1.394
 1758SOL    HW1 6173   1.703   5.454   1.310
 1758SOL    HW2 6174   1.623   5.534   1.428
 1759SOL     OW 6175   1.841   3.899   0.963
 1759SOL    HW1 6176   1.880   3.814   0.927
 1759SOL    HW2 6177   1.743   3.901   0.944
 1760SOL     OW 6178   0.263   4.050   0.720
 1760SOL    HW1 6179   0.184   4.101   0.686
 1760SOL    HW2 6180   0.254   4.035   0.818
 1761SOL     OW 6181   1.194   5.336   0.031
 1761SOL    HW1 6182   1.200   5.243   0.068
 1761SOL    HW2 6183   1.135   5.336  -0.049
 1762SOL     OW 6184   0.822   4.726   1.372
 1762SOL    HW1 6185   0.862   4.725   1.280
 1762SOL    HW2 6186   0.832   4.818   1.412
 1763SOL     OW 6187   0.916   4.634   0.291
 1763SOL    HW1 6188   0.979   4.672   0.223
 1763SOL    HW2 6189   0.956   4.551   0.330
 1764SOL     OW 6190   1.504   5.331   0.044
 1764SOL    HW1 6191   1.412   5.368   0.051
 1764SOL    HW2 6192   1.542   5.351  -0.046
 1765SOL     OW 6193   0.372   5.012   1.490
 1765SOL    HW1 6194   0.359   5.105   1.456
 1765SOL    HW2 6195   0.288   4.960   1.477
 1766SOL     OW 6196   1.614   5.016   1.289
 1766SOL    HW1 6197   1.674   5.019   1.369
 1766SOL    HW2 6198   1.539   5.080   1.302
 1767SOL     OW 6199   1.039   4.822   0.696
 1767SOL    HW1 6200   0.969   4.775   0.750
 1767SOL    HW2 6201   1.098   4.754   0.653
 1768SOL     OW 6202   1.014   3.960   0.971
 1768SOL    HW1 6203   1.006   3.924   0.878
 1768SOL    HW2 6204   1.012   3.884   1.036
 1769SOL     OW 6205   0.590   5.211   0.491
 1769SOL    HW1 6206   0.632   5.153   0.421
 1769SOL    HW2 6207   0.546   5.290   0.447
 1770SOL     OW 6208   1.709   4.109   1.381
 1770SOL    HW1 6209   1.782   4.178   1.385
 1770SOL    HW2 6210   1.737   4.034   1.322
 1771SOL     OW 6211   0.255   5.072   0.290
 1771SOL    HW1 6212   0.159   5.073   0.263
 1771SOL    HW2 6213   0.267   5.125   0.374
 1772SOL     OW 6214   0.105   4.737   1.726
 1772SOL    HW1 6215   0.028   4.704   1.780
 1772SOL    HW2 6216   0.190   4.707   1.768
 1773SOL     OW 6217   0.672   3.927   1.489
 1773SOL    HW1 6218   0.762   3.911   1.449
 1773SOL    HW2 6219   0.680   3.932   1.588
 1774SOL     OW 6220   0.075   4.069   0.033
 1774SOL    HW1 6221  -0.017   4.041   0.004
 1774SOL    HW2 6222   0.106   4.146  -0.023
 1775SOL     OW 6223   1.440   4.580   1.398
 1775SOL    HW1 6224   1.383   4.632   1.335
 1775SOL    HW2 6225   1.536   4.592   1.374
 1776SOL     OW 6226   0.072   3.890   0.318
 1776SOL    HW1 6227   0.055   3.973   0.264
 1776SOL    HW2 6228   0.162   3.853   0.296
 1777SOL     OW 6229   1.183   5.059   0.119
 1777SOL    HW1 6230   1.084   5.048   0.121
 1777SOL    HW2 6231   1.217   5.074   0.212
 1778SOL     OW 6232   0.613   4.566   1.431
 1778SOL    HW1 6233   0.669   4.647   1.414
 1778SOL    HW2 6234   0.672   4.486   1.434
 1779SOL     OW 6235   1.493   5.491   0.959
 1779SOL    HW1 6236   1.526   5.555   0.890
 1779SOL    HW2 6237   1.559   5.485   1.034
 1780SOL     OW 6238   0.716   4.289   1.708
 1780SOL    HW1 6239   0.735   4.354   1.782
 1780SOL    HW2 6240   0.776   4.209   1.717
 1781SOL     OW 6241   1.450   4.944   1.633
 1781SOL    HW1 6242   1.441   4.934   1.732
 1781SOL    HW2 6243   1.546   4.937   1.607
 1782SOL     OW 6244   0.390   5.465   1.560
 1782SOL    HW1 6245   0.299   5.506   1.558
 1782SOL    HW2 6246   0.383   5.371   1.592
 1783SOL     OW 6247   1.674   4.607   1.254
 1783SOL    HW1 6248   1.647   4.518   1.217
 1783SOL    HW2 6249   1.675   4.675   1.181
 1784SOL     OW 6250   1.225   4.049   0.449
 1784SOL    HW1 6251   1.290   3.975   0.438
 1784SOL    HW2 6252   1.245   4.099   0.533
 1785SOL     OW 6253   0.594   4.469   0.652
 1785SOL    HW1 6254   0.644   4.554   0.633
 1785SOL    HW2 6255   0.506   4.471   0.604
 1786SOL     OW 6256   1.777   4.066   1.642
 1786SOL    HW1 6257   1.760   4.097   1.548
 1786SOL    HW2 6258   1.693   4.029   1.680
 1787SOL     OW 6259   1.730   4.658   1.517
 1787SOL    HW1 6260   1.768   4.749   1.532
 1787SOL    HW2 6261   1.722   4.641   1.418
 1788SOL     OW 6262   0.859   5.098   0.016
 1788SOL    HW1 6263   0.813   5.113   0.104
 1788SOL    HW2 6264   0.903   5.183  -0.014
 1789SOL     OW 6265   0.661   5.514   0.953
 1789SOL    HW1 6266   0.615   5.602   0.940
 1789SOL    HW2 6267   0.760   5.526   0.946
 1790SOL     OW 6268   0.859   4.680   0.861
 1790SOL    HW1 6269   0.913   4.611   0.909
 1790SOL    HW2 6270   0.827   4.749   0.927
 1791SOL     OW 6271   1.083   4.708   0.087
 1791SOL    HW1 6272   1.060   4.761   0.005
 1791SOL    HW2 6273   1.164   4.652   0.068
 1792SOL     OW 6274   1.861   5.293   0.851
 1792SOL    HW1 6275   1.790   5.281   0.781
 1792SOL    HW2 6276   1.862   5.214   0.911
 1793SOL     OW 6277   0.221   5.038   1.844
 1793SOL    HW1 6278   0.156   4.965   1.823
 1793SOL    HW2 6279   0.225   5.052   1.942
 1794SOL     OW 6280   0.079   4.964   0.653
 1794SOL    HW1 6281   0.078   4.917   0.741
 1794SOL    HW2 6282   0.161   4.936   0.602
 1795SOL     OW 6283   0.672   5.115   1.624
 1795SOL    HW1 6284   0.594   5.065   1.662
 1795SOL    HW2 6285   0.669   5.210   1.655
 1796SOL     OW 6286   1.824   3.916   1.227
 1796SOL    HW1 6287   1.820   3.826   1.271
 1796SOL    HW2 6288   1.827   3.905   1.128
 1797SOL     OW 6289   0.428   4.148   0.520
 1797SOL    HW1 6290   0.458   4.076   0.458
 1797SOL    HW2 6291   0.389   4.108   0.603
 1798SOL     OW 6292   1.705   5.211   1.104
 1798SOL    HW1 6293   1.612   5.186   1.077
 1798SOL    HW2 6294   1.731   5.161   1.186
 1799SOL     OW 6295   0.317   4.271   1.280
 1799SOL    HW1 6296   0.355   4.212   1.352
 1799SOL    HW2 6297   0.357   4.245   1.192
 1800SOL     OW 6298   0.812   5.310   0.687
 1800SOL    HW1 6299   0.844   5.320   0.593
 1800SOL    HW2 6300   0.733   5.248   0.689
 1801SOL     OW 6301   1.424   3.938   1.112
 1801SOL    HW1 6302   1.476   3.873   1.167
 1801SOL    HW2 6303   1.375   4.001   1.173
 1802SOL     OW 6304   1.001   3.758   1.154
 1802SOL    HW1 6305   0.938   3.686   1.123
 1802SOL    HW2 6306   1.094   3.722   1.154
 1803SOL     OW 6307   0.770   5.054   0.301
 1803SOL    HW1 6308   0.724   4.967   0.318
 1803SOL    HW2 6309   0.861   5.051   0.342
 1804SOL     OW 6310   0.618   5.291   1.284
 1804SOL    HW1 6311   0.613   5.373   1.341
 1804SOL    HW2 6312   0.707   5.288   1.239
 1805SOL     OW 6313   1.352   3.776   0.168
 1805SOL    HW1 6314   1.387   3.735   0.084
 1805SOL    HW2 6315   1.262   3.738   0.188
 1806SOL     OW 6316   1.300   4.177   0.691
 1806SOL    HW1 6317   1.241   4.257   0.695
 1806SOL    HW2 6318   1.315   4.142   0.784
 1807SOL     OW 6319   1.593   3.945   0.882
 1807SOL    HW1 6320   1.509   3.944   0.936
 1807SOL    HW2 6321   1.595   4.028   0.826
 1808SOL     OW 6322   0.039   4.801   0.300
 1808SOL    HW1 6323   0.138   4.790   0.291
 1808SOL    HW2 6324  -0.001   4.715   0.332
 1809SOL     OW 6325   0.875   5.370   0.337
 1809SOL    HW1 6326   0.798   5.335   0.283
 1809SOL    HW2 6327   0.843   5.441   0.399
 1810SOL     OW 6328   0.230   4.352   1.975
 1810SOL    HW1 6329   0.137   4.350   2.012
 1810SOL    HW2 6330   0.231   4.313   1.883
 1811SOL     OW 6331   0.225   3.999   2.858
 1811SOL    HW1 6332   0.260   3.982   2.950
 1811SOL    HW2 6333   0.137   3.954   2.846
 1812SOL     OW 6334   0.019   4.092   2.509
 1812SOL    HW1 6335  -0.063   4.135   2.548
 1812SOL    HW2 6336  -0.009   4.019   2.446
 1813SOL     OW 6337   0.569   4.999   3.027
 1813SOL    HW1 6338   0.476   4.992   2.990
 1813SOL    HW2 6339   0.580   5.088   3.071
 1814SOL     OW 6340   1.555   5.235   2.565
 1814SOL    HW1 6341   1.498   5.219   2.646
 1814SOL    HW2 6342   1.496   5.245   2.485
 1815SOL     OW 6343   1.135   4.427   2.579
 1815SOL    HW1 6344   1.192   4.505   2.554
 1815SOL    HW2 6345   1.075   4.453   2.655
 1816SOL     OW 6346   1.755   4.331   2.093
 1816SOL    HW1 6347   1.743   4.318   1.994
 1816SOL    HW2 6348   1.725   4.250   2.142
 1817SOL     OW 6349   0.768   4.868   2.885
 1817SOL    HW1 6350   0.690   4.885   2.945
 1817SOL    HW2 6351   0.802   4.955   2.849
 1818SOL     OW 6352   0.850   4.522   3.685
 1818SOL    HW1 6353   0.846   4.598   3.750
 1818SOL    HW2 6354   0.872   4.558   3.594
 1819SOL     OW 6355   0.685   4.736   2.527
 1819SOL    HW1 6356   0.754   4.720   2.597
 1819SOL    HW2 6357   0.612   4.793   2.565
 1820SOL     OW 6358   0.686   4.885   3.665
 1820SOL    HW1 6359   0.746   4.964   3.679
 1820SOL    HW2 6360   0.600   4.916   3.624
 1821SOL     OW 6361   0.335   5.159   2.923
 1821SOL    HW1 6362   0.257   5.128   2.870
 1821SOL    HW2 6363   0.393   5.217   2.866
 1822SOL     OW 6364   1.460   5.229   3.201
 1822SOL    HW1 6365   1.484   5.323   3.227
 1822SOL    HW2 6366   1.444   5.175   3.283
 1823SOL     OW 6367   0.438   4.116   3.361
 1823SOL    HW1 6368   0.520   4.060   3.370
 1823SOL    HW2 6369   0.357   4.058   3.365
 1824SOL     OW 6370   1.603   4.171   2.599
 1824SOL    HW1 6371   1.529   4.217   2.549
 1824SOL    HW2 6372   1.654   4.239   2.652
 1825SOL     OW 6373   0.231   5.437   2.345
 1825SOL    HW1 6374   0.265   5.514   2.399
 1825SOL    HW2 6375   0.275   5.437   2.255
 1826SOL     OW 6376   1.127   5.065   3.552
 1826SOL    HW1 6377   1.174   5.065   3.640
 1826SOL    HW2 6378   1.079   4.978   3.541
 1827SOL     OW 6379   0.230   5.158   2.400
 1827SOL    HW1 6380   0.204   5.254   2.400
 1827SOL    HW2 6381   0.159   5.104   2.445
 1828SOL     OW 6382   0.240   4.815   2.748
 1828SOL    HW1 6383   0.254   4.731   2.800
 1828SOL    HW2 6384   0.185   4.879   2.803
 1829SOL     OW 6385   0.620   5.510   3.301
 1829SOL    HW1 6386   0.528   5.493   3.336
 1829SOL    HW2 6387   0.648   5.602   3.327
 1830SOL     OW 6388   0.606   4.688   1.985
 1830SOL    HW1 6389   0.613   4.772   1.931
 1830SOL    HW2 6390   0.652   4.701   2.073
 1831SOL     OW 6391   1.594   3.838   3.342
 1831SOL    HW1 6392   1.576   3.905   3.270
 1831SOL    HW2 6393   1.591   3.884   3.431
 1832SOL     OW 6394   1.842   5.491   2.221
 1832SOL    HW1 6395   1.896   5.462   2.301
 1832SOL    HW2 6396   1.872   5.581   2.192
 1833SOL     OW 6397   0.027   5.320   1.979
 1833SOL    HW1 6398   0.008   5.224   2.000
 1833SOL    HW2 6399  -0.006   5.378   2.054
 1834SOL     OW 6400   1.689   4.646   2.474
 1834SOL    HW1 6401   1.784   4.617   2.482
 1834SOL    HW2 6402   1.681   4.711   2.399
 1835SOL     OW 6403   1.641   4.832   2.294
 1835SOL    HW1 6404   1.727   4.834   2.242
 1835SOL    HW2 6405   1.655   4.879   2.382
 1836SOL     OW 6406   0.113   4.461   3.459
 1836SOL    HW1 6407   0.201   4.448   3.504
 1836SOL    HW2 6408   0.100   4.558   3.437
 1837SOL     OW 6409   0.613   5.089   2.588
 1837SOL    HW1 6410   0.564   5.002   2.597
 1837SOL    HW2 6411   0.590   5.132   2.501
 1838SOL     OW 6412   1.293   4.952   3.285
 1838SOL    HW1 6413   1.330   4.879   3.227
 1838SOL    HW2 6414   1.345   4.957   3.370
 1839SOL     OW 6415   0.809   3.728   2.364
 1839SOL    HW1 6416   0.849   3.819   2.355
 1839SOL    HW2 6417   0.709   3.736   2.370
 1840SOL     OW 6418   0.197   4.700   3.126
 1840SOL    HW1 6419   0.286   4.655   3.112
 1840SOL    HW2 6420   0.124   4.635   3.107
 1841SOL     OW 6421   1.525   4.723   2.052
 1841SOL    HW1 6422   1.462   4.647   2.065
 1841SOL    HW2 6423   1.573   4.741   2.138
 1842SOL     OW 6424   1.187   5.516   3.478
 1842SOL    HW1 6425   1.211   5.576   3.402
 1842SOL    HW2 6426   1.194   5.421   3.448
 1843SOL     OW 6427   0.317   3.975   3.663
 1843SOL    HW1 6428   0.388   4.046   3.669
 1843SOL    HW2 6429   0.229   4.014   3.691
 1844SOL     OW 6430   1.466   5.141   2.815
 1844SOL    HW1 6431   1.407   5.147   2.895
 1844SOL    HW2 6432   1.451   5.053   2.769
 1845SOL     OW 6433   1.667   5.438   2.434
 1845SOL    HW1 6434   1.626   5.415   2.346
 1845SOL    HW2 6435   1.649   5.364   2.499
 1846SOL     OW 6436   0.598   4.453   2.132
 1846SOL    HW1 6437   0.622   4.522   2.064
 1846SOL    HW2 6438   0.520   4.486   2.186
 1847SOL     OW 6439   1.281   4.069   2.806
 1847SOL    HW1 6440   1.195   4.019   2.793
 1847SOL    HW2 6441   1.343   4.015   2.862
 1848SOL     OW 6442   1.576   5.386   2.169
 1848SOL    HW1 6443   1.665   5.432   2.172
 1848SOL    HW2 6444   1.555   5.362   2.074
 1849SOL     OW 6445   0.807   4.329   3.327
 1849SOL    HW1 6446   0.760   4.326   3.416
 1849SOL    HW2 6447   0.756   4.274   3.261
 1850SOL     OW 6448   1.394   4.193   3.536
 1850SOL    HW1 6449   1.374   4.236   3.624
 1850SOL    HW2 6450   1.472   4.131   3.545
 1851SOL     OW 6451   0.973   4.614   3.434
 1851SOL    HW1 6452   1.019   4.530   3.405
 1851SOL    HW2 6453   0.917   4.648   3.359
 1852SOL     OW 6454   0.991   4.134   3.104
 1852SOL    HW1 6455   0.914   4.168   3.158
 1852SOL    HW2 6456   0.957   4.083   3.025
 1853SOL     OW 6457   1.041   4.425   2.291
 1853SOL    HW1 6458   1.067   4.421   2.387
 1853SOL    HW2 6459   0.956   4.374   2.277
 1854SOL     OW 6460   0.076   4.535   2.651
 1854SOL    HW1 6461   0.175   4.523   2.660
 1854SOL    HW2 6462   0.052   4.630   2.672
 1855SOL     OW 6463   0.130   5.545   3.433
 1855SOL    HW1 6464   0.120   5.530   3.532
 1855SOL    HW2 6465   0.044   5.581   3.397
 1856SOL     OW 6466   0.865   4.072   2.057
 1856SOL    HW1 6467   0.924   4.135   2.008
 1856SOL    HW2 6468   0.884   3.978   2.028
 1857SOL     OW 6469   1.719   4.309   3.693
 1857SOL    HW1 6470   1.693   4.398   3.657
 1857SOL    HW2 6471   1.717   4.241   3.620
 1858SOL     OW 6472   1.362   4.868   2.407
 1858SOL    HW1 6473   1.445   4.839   2.359
 1858SOL    HW2 6474   1.313   4.935   2.351
 1859SOL     OW 6475   0.550   3.920   2.747
 1859SOL    HW1 6476   0.545   3.915   2.847
 1859SOL    HW2 6477   0.552   4.016   2.718
 1860SOL     OW 6478   1.008   5.180   2.339
 1860SOL    HW1 6479   0.962   5.252   2.287
 1860SOL    HW2 6480   1.004   5.200   2.437
 1861SOL     OW 6481   0.351   5.525   2.715
 1861SOL    HW1 6482   0.401   5.439   2.721
 1861SOL    HW2 6483   0.416   5.602   2.712
 1862SOL     OW 6484   1.795   4.790   2.735
 1862SOL    HW1 6485   1.733   4.775   2.659
 1862SOL    HW2 6486   1.743   4.801   2.820
 1863SOL     OW 6487   1.227   5.274   3.368
 1863SOL    HW1 6488   1.233   5.197   3.432
 1863SOL    HW2 6489   1.175   5.248   3.288
 1864SOL     OW 6490   0.321   4.667   2.104
 1864SOL    HW1 6491   0.403   4.706   2.062
 1864SOL    HW2 6492   0.294   4.585   2.055
 1865SOL     OW 6493   1.458   4.459   2.590
 1865SOL    HW1 6494   1.453   4.394   2.665
 1865SOL    HW2 6495   1.538   4.518   2.603
 1866SOL     OW 6496   0.461   4.990   3.589
 1866SOL    HW1 6497   0.411   4.991   3.503
 1866SOL    HW2 6498   0.398   4.972   3.665
 1867SOL     OW 6499   1.111   5.500   2.099
 1867SOL    HW1 6500   1.051   5.438   2.149
 1867SOL    HW2 6501   1.142   5.456   2.014
 1868SOL     OW 6502   0.202   4.009   3.360
 1868SOL    HW1 6503   0.122   4.069   3.347
 1868SOL    HW2 6504   0.192   3.960   3.446
 1869SOL     OW 6505   1.632   5.101   1.943
 1869SOL    HW1 6506   1.600   5.195   1.933
 1869SOL    HW2 6507   1.556   5.038   1.931
 1870SOL     OW 6508   0.464   5.467   2.185
 1870SOL    HW1 6509   0.497   5.506   2.271
 1870SOL    HW2 6510   0.540   5.460   2.120
 1871SOL     OW 6511   1.400   3.831   2.288
 1871SOL    HW1 6512   1.376   3.794   2.198
 1871SOL    HW2 6513   1.499   3.847   2.292
 1872SOL     OW 6514   0.249   5.509   3.103
 1872SOL    HW1 6515   0.306   5.444   3.153
 1872SOL    HW2 6516   0.233   5.476   3.010
 1873SOL     OW 6517   0.940   5.422   2.766
 1873SOL    HW1 6518   1.020   5.365   2.787
 1873SOL    HW2 6519   0.891   5.382   2.689
 1874SOL     OW 6520   0.382   4.424   2.342
 1874SOL    HW1 6521   0.427   4.334   2.339
 1874SOL    HW2 6522   0.288   4.413   2.375
 1875SOL     OW 6523   1.547   3.946   3.591
 1875SOL    HW1 6524   1.542   3.983   3.683
 1875SOL    HW2 6525   1.475   3.877   3.579
 1876SOL     OW 6526   0.614   3.846   1.979
 1876SOL    HW1 6527   0.712   3.824   1.986
 1876SOL    HW2 6528   0.583   3.829   1.886
 1877SOL     OW 6529   0.781   3.988   3.611
 1877SOL    HW1 6530   0.848   3.927   3.654
 1877SOL    HW2 6531   0.708   4.007   3.676
 1878SOL     OW 6532   0.888   5.238   3.057
 1878SOL    HW1 6533   0.865   5.213   2.963
 1878SOL    HW2 6534   0.949   5.169   3.096
 1879SOL     OW 6535   1.351   4.314   3.295
 1879SOL    HW1 6536   1.379   4.271   3.380
 1879SOL    HW2 6537   1.376   4.410   3.296
 1880SOL     OW 6538   0.803   5.126   2.786
 1880SOL    HW1 6539   0.893   5.140   2.744
 1880SOL    HW2 6540   0.732   5.128   2.715
 1881SOL     OW 6541   0.922   4.227   2.761
 1881SOL    HW1 6542   0.897   4.218   2.665
 1881SOL    HW2 6543   0.970   4.145   2.792
 1882SOL     OW 6544   0.539   3.788   2.374
 1882SOL    HW1 6545   0.458   3.789   2.432
 1882SOL    HW2 6546   0.542   3.871   2.319
 1883SOL     OW 6547   1.434   4.912   1.903
 1883SOL    HW1 6548   1.466   4.836   1.960
 1883SOL    HW2 6549   1.342   4.939   1.933
 1884SOL     OW 6550   0.297   3.759   2.033
 1884SOL    HW1 6551   0.346   3.843   2.012
 1884SOL    HW2 6552   0.359   3.694   2.078
 1885SOL     OW 6553   0.935   3.960   2.342
 1885SOL    HW1 6554   0.887   4.001   2.264
 1885SOL    HW2 6555   1.034   3.958   2.323
 1886SOL     OW 6556   1.076   4.407   3.326
 1886SOL    HW1 6557   0.996   4.346   3.329
 1886SOL    HW2 6558   1.157   4.354   3.302
 1887SOL     OW 6559   1.227   5.294   2.655
 1887SOL    HW1 6560   1.248   5.368   2.590
 1887SOL    HW2 6561   1.295   5.294   2.728
 1888SOL     OW 6562   0.459   4.876   2.603
 1888SOL    HW1 6563   0.388   4.849   2.668
 1888SOL    HW2 6564   0.433   4.848   2.510
 1889SOL     OW 6565   1.271   5.521   2.453
 1889SOL    HW1 6566   1.315   5.585   2.389
 1889SOL    HW2 6567   1.221   5.573   2.523
 1890SOL     OW 6568   1.032   4.273   1.878
 1890SOL    HW1 6569   0.991   4.355   1.839
 1890SOL    HW2 6570   1.096   4.299   1.951
 1891SOL     OW 6571   0.078   4.280   3.248
 1891SOL    HW1 6572   0.170   4.279   3.207
 1891SOL    HW2 6573   0.072   4.354   3.315
 1892SOL     OW 6574   0.561   3.946   3.009
 1892SOL    HW1 6575   0.599   3.862   3.046
 1892SOL    HW2 6576   0.473   3.965   3.053
 1893SOL     OW 6577   0.866   4.178   2.504
 1893SOL    HW1 6578   0.834   4.250   2.442
 1893SOL    HW2 6579   0.890   4.097   2.451
 1894SOL     OW 6580   1.017   3.763   2.615
 1894SOL    HW1 6581   0.945   3.768   2.546
 1894SOL    HW2 6582   0.993   3.694   2.684
 1895SOL     OW 6583   1.429   4.897   2.729
 1895SOL    HW1 6584   1.374   4.813   2.722
 1895SOL    HW2 6585   1.455   4.926   2.637
 1896SOL     OW 6586   1.466   4.314   2.854
 1896SOL    HW1 6587   1.436   4.219   2.861
 1896SOL    HW2 6588   1.539   4.330   2.920
 1897SOL     OW 6589   1.857   4.557   2.239
 1897SOL    HW1 6590   1.899   4.493   2.303
 1897SOL    HW2 6591   1.819   4.506   2.161
 1898SOL     OW 6592   0.488   5.109   2.036
 1898SOL    HW1 6593   0.401   5.094   2.083
 1898SOL    HW2 6594   0.471   5.135   1.941
 1899SOL     OW 6595   1.664   5.004   2.519
 1899SOL    HW1 6596   1.763   5.012   2.533
 1899SOL    HW2 6597   1.619   5.088   2.550
 1900SOL     OW 6598   1.390   4.299   1.940
 1900SOL    HW1 6599   1.336   4.278   2.021
 1900SOL    HW2 6600   1.481   4.258   1.949
 1901SOL     OW 6601   0.527   3.980   2.190
 1901SOL    HW1 6602   0.554   3.921   2.115
 1901SOL    HW2 6603   0.527   4.075   2.159
 1902SOL     OW 6604   1.754   4.947   3.450
 1902SOL    HW1 6605   1.845   4.908   3.437
 1902SOL    HW2 6606   1.762   5.043   3.474
 1903SOL     OW 6607   1.064   5.071   3.202
 1903SOL    HW1 6608   0.984   5.048   3.257
 1903SOL    HW2 6609   1.147   5.045   3.251
 1904SOL     OW 6610   1.592   5.353   3.487
 1904SOL    HW1 6611   1.619   5.387   3.397
 1904SOL    HW2 6612   1.671   5.315   3.533
 1905SOL     OW 6613   1.111   4.919   2.962
 1905SOL    HW1 6614   1.071   4.963   3.043
 1905SOL    HW2 6615   1.070   4.956   2.879
 1906SOL     OW 6616   1.638   4.823   2.941
 1906SOL    HW1 6617   1.643   4.904   3.000
 1906SOL    HW2 6618   1.552   4.825   2.890
 1907SOL     OW 6619   0.915   3.813   3.264
 1907SOL    HW1 6620   0.940   3.793   3.169
 1907SOL    HW2 6621   0.987   3.869   3.306
 1908SOL     OW 6622   0.980   4.840   3.581
 1908SOL    HW1 6623   0.881   4.846   3.591
 1908SOL    HW2 6624   1.003   4.760   3.525
 1909SOL     OW 6625   0.705   4.774   2.230
 1909SOL    HW1 6626   0.691   4.781   2.329
 1909SOL    HW2 6627   0.789   4.723   2.212
 1910SOL     OW 6628   0.410   4.537   3.113
 1910SOL    HW1 6629   0.496   4.549   3.163
 1910SOL    HW2 6630   0.368   4.450   3.140
 1911SOL     OW 6631   1.274   4.110   3.124
 1911SOL    HW1 6632   1.295   4.184   3.188
 1911SOL    HW2 6633   1.185   4.127   3.081
 1912SOL     OW 6634   0.064   5.288   3.193
 1912SOL    HW1 6635   0.018   5.370   3.159
 1912SOL    HW2 6636   0.162   5.307   3.202
 1913SOL     OW 6637   0.367   4.824   2.363
 1913SOL    HW1 6638   0.360   4.907   2.307
 1913SOL    HW2 6639   0.371   4.744   2.303
 1914SOL     OW 6640   0.566   4.261   2.727
 1914SOL    HW1 6641   0.578   4.327   2.653
 1914SOL    HW2 6642   0.612   4.295   2.810
 1915SOL     OW 6643   1.252   5.072   2.250
 1915SOL    HW1 6644   1.302   5.149   2.290
 1915SOL    HW2 6645   1.157   5.074   2.282
 1916SOL     OW 6646   1.272   5.169   3.004
 1916SOL    HW1 6647   1.319   5.182   3.091
 1916SOL    HW2 6648   1.206   5.095   3.013
 1917SOL     OW 6649   1.582   4.363   2.334
 1917SOL    HW1 6650   1.551   4.424   2.407
 1917SOL    HW2 6651   1.632   4.415   2.265
 1918SOL     OW 6652   0.354   5.234   3.191
 1918SOL    HW1 6653   0.333   5.190   3.104
 1918SOL    HW2 6654   0.451   5.260   3.194
 1919SOL     OW 6655   0.402   4.475   3.460
 1919SOL    HW1 6656   0.470   4.530   3.413
 1919SOL    HW2 6657   0.442   4.387   3.487
 1920SOL     OW 6658   1.587   4.503   3.532
 1920SOL    HW1 6659   1.495   4.541   3.527
 1920SOL    HW2 6660   1.647   4.550   3.467
 1921SOL     OW 6661   1.013   3.829   3.632
 1921SOL    HW1 6662   1.019   3.914   3.580
 1921SOL    HW2 6663   1.045   3.753   3.575
 1922SOL     OW 6664   0.504   3.774   3.602
 1922SOL    HW1 6665   0.462   3.717   3.532
 1922SOL    HW2 6666   0.438   3.843   3.634
 1923SOL     OW 6667   0.573   4.594   2.891
 1923SOL    HW1 6668   0.617   4.683   2.882
 1923SOL    HW2 6669   0.510   4.594   2.968
 1924SOL     OW 6670   1.360   4.586   2.907
 1924SOL    HW1 6671   1.285   4.586   2.841
 1924SOL    HW2 6672   1.397   4.494   2.916
 1925SOL     OW 6673   1.209   4.249   2.137
 1925SOL    HW1 6674   1.222   4.165   2.191
 1925SOL    HW2 6675   1.180   4.323   2.197
 1926SOL     OW 6676   0.307   3.937   3.093
 1926SOL    HW1 6677   0.284   3.974   3.183
 1926SOL    HW2 6678   0.277   3.842   3.087
 1927SOL     OW 6679   0.037   5.034   3.144
 1927SOL    HW1 6680   0.090   4.985   3.212
 1927SOL    HW2 6681   0.059   5.132   3.149
 1928SOL     OW 6682   0.732   4.358   2.926
 1928SOL    HW1 6683   0.791   4.332   2.850
 1928SOL    HW2 6684   0.704   4.454   2.915
 1929SOL     OW 6685   1.728   4.659   3.716
 1929SOL    HW1 6686   1.682   4.652   3.627
 1929SOL    HW2 6687   1.666   4.703   3.782
 1930SOL     OW 6688   0.307   3.787   2.480
 1930SOL    HW1 6689   0.296   3.881   2.513
 1930SOL    HW2 6690   0.302   3.724   2.557
 1931SOL     OW 6691   1.622   4.091   2.236
 1931SOL    HW1 6692   1.624   4.015   2.300
 1931SOL    HW2 6693   1.574   4.168   2.276
 1932SOL     OW 6694   1.023   4.490   2.828
 1932SOL    HW1 6695   1.038   4.511   2.924
 1932SOL    HW2 6696   0.993   4.395   2.819
 1933SOL     OW 6697   0.980   5.297   3.562
 1933SOL    HW1 6698   0.960   5.341   3.474
 1933SOL    HW2 6699   1.019   5.206   3.546
 1934SOL     OW 6700   1.859   5.242   3.467
 1934SOL    HW1 6701   1.873   5.269   3.372
 1934SOL    HW2 6702   1.942   5.264   3.520
 1935SOL     OW 6703   0.350   4.622   3.666
 1935SOL    HW1 6704   0.426   4.666   3.714
 1935SOL    HW2 6705   0.385   4.575   3.584
 1936SOL     OW 6706   1.540   3.998   1.987
 1936SOL    HW1 6707   1.479   3.923   2.010
 1936SOL    HW2 6708   1.562   4.050   2.070
 1937SOL     OW 6709   1.303   4.562   1.904
 1937SOL    HW1 6710   1.337   4.469   1.919
 1937SOL    HW2 6711   1.321   4.589   1.809
 1938SOL     OW 6712   1.068   5.057   2.711
 1938SOL    HW1 6713   1.075   4.973   2.656
 1938SOL    HW2 6714   1.130   5.126   2.675
 1939SOL     OW 6715   0.319   4.534   2.811
 1939SOL    HW1 6716   0.412   4.570   2.816
 1939SOL    HW2 6717   0.313   4.449   2.863
 1940SOL     OW 6718   0.339   4.233   2.868
 1940SOL    HW1 6719   0.287   4.150   2.851
 1940SOL    HW2 6720   0.416   4.238   2.804
 1941SOL     OW 6721   1.138   4.104   3.540
 1941SOL    HW1 6722   1.093   4.167   3.604
 1941SOL    HW2 6723   1.231   4.135   3.523
 1942SOL     OW 6724   1.160   3.931   3.339
 1942SOL    HW1 6725   1.160   3.995   3.416
 1942SOL    HW2 6726   1.188   3.979   3.256
 1943SOL     OW 6727   0.008   5.050   2.062
 1943SOL    HW1 6728  -0.085   5.071   2.031
 1943SOL    HW2 6729   0.018   4.951   2.075
 1944SOL     OW 6730   0.088   5.525   2.789
 1944SOL    HW1 6731   0.046   5.439   2.762
 1944SOL    HW2 6732   0.182   5.528   2.755
 1945SOL     OW 6733   0.504   5.292   2.772
 1945SOL    HW1 6734   0.570   5.366   2.781
 1945SOL    HW2 6735   0.548   5.213   2.730
 1946SOL     OW 6736   1.002   4.520   3.100
 1946SOL    HW1 6737   1.043   4.488   3.186
 1946SOL    HW2 6738   0.906   4.493   3.097
 1947SOL     OW 6739   0.040   4.268   2.976
 1947SOL    HW1 6740   0.125   4.235   2.935
 1947SOL    HW2 6741   0.053   4.283   3.074
 1948SOL     OW 6742   0.189   4.244   3.584
 1948SOL    HW1 6743   0.248   4.204   3.514
 1948SOL    HW2 6744   0.131   4.315   3.543
 1949SOL     OW 6745   1.369   4.674   3.522
 1949SOL    HW1 6746   1.408   4.763   3.542
 1949SOL    HW2 6747   1.379   4.654   3.425
 1950SOL     OW 6748   0.815   4.296   2.187
 1950SOL    HW1 6749   0.822   4.207   2.141
 1950SOL    HW2 6750   0.721   4.330   2.179
 1951SOL     OW 6751   1.657   4.328   3.068
 1951SOL    HW1 6752   1.619   4.259   3.130
 1951SOL    HW2 6753   1.739   4.292   3.024
 1952SOL     OW 6754   0.252   5.288   3.606
 1952SOL    HW1 6755   0.222   5.345   3.682
 1952SOL    HW2 6756   0.245   5.191   3.632
 1953SOL     OW 6757   0.671   4.188   3.131
 1953SOL    HW1 6758   0.637   4.099   3.101
 1953SOL    HW2 6759   0.697   4.242   3.051
 1954SOL     OW 6760   0.930   5.402   3.327
 1954SOL    HW1 6761   0.906   5.384   3.232
 1954SOL    HW2 6762   0.960   5.496   3.337
 1955SOL     OW 6763   0.473   4.224   2.053
 1955SOL    HW1 6764   0.534   4.304   2.057
 1955SOL    HW2 6765   0.378   4.255   2.060
 1956SOL     OW 6766   0.159   4.861   3.328
 1956SOL    HW1 6767   0.181   4.800   3.404
 1956SOL    HW2 6768   0.169   4.812   3.242
 1957SOL     OW 6769   1.347   4.783   3.096
 1957SOL    HW1 6770   1.371   4.720   3.022
 1957SOL    HW2 6771   1.257   4.823   3.078
 1958SOL     OW 6772   1.302   4.579   2.171
 1958SOL    HW1 6773   1.216   4.548   2.213
 1958SOL    HW2 6774   1.298   4.565   2.072
 1959SOL     OW 6775   1.759   5.471   3.016
 1959SOL    HW1 6776   1.820   5.501   2.943
 1959SOL    HW2 6777   1.721   5.382   2.994
 1960SOL     OW 6778   1.252   5.455   2.990
 1960SOL    HW1 6779   1.336   5.460   2.936
 1960SOL    HW2 6780   1.229   5.359   3.008
 1961SOL     OW 6781   0.083   4.982   2.884
 1961SOL    HW1 6782   0.078   4.981   2.984
 1961SOL    HW2 6783   0.000   4.941   2.846
 1962SOL     OW 6784   0.688   5.386   3.578
 1962SOL    HW1 6785   0.632   5.467   3.587
 1962SOL    HW2 6786   0.740   5.390   3.492
 1963SOL     OW 6787   1.726   3.859   2.385
 1963SOL    HW1 6788   1.799   3.842   2.318
 1963SOL    HW2 6789   1.695   3.772   2.423
 1964SOL     OW 6790   1.388   5.297   2.339
 1964SOL    HW1 6791   1.455   5.309   2.265
 1964SOL    HW2 6792   1.348   5.386   2.362
 1965SOL     OW 6793   0.130   5.518   3.713
 1965SOL    HW1 6794   0.089   5.444   3.766
 1965SOL    HW2 6795   0.194   5.569   3.771
 1966SOL     OW 6796   1.280   4.651   2.534
 1966SOL    HW1 6797   1.340   4.570   2.536
 1966SOL    HW2 6798   1.320   4.720   2.474
 1967SOL     OW 6799   0.830   4.997   3.284
 1967SOL    HW1 6800   0.825   5.030   3.379
 1967SOL    HW2 6801   0.744   5.016   3.238
 1968SOL     OW 6802   0.672   5.340   2.016
 1968SOL    HW1 6803   0.681   5.350   1.917
 1968SOL    HW2 6804   0.632   5.251   2.037
 1969SOL     OW 6805   1.650   5.444   3.256
 1969SOL    HW1 6806   1.703   5.454   3.172
 1969SOL    HW2 6807   1.623   5.534   3.290
 1970SOL     OW 6808   1.841   3.899   2.825
 1970SOL    HW1 6809   1.880   3.814   2.789
 1970SOL    HW2 6810   1.743   3.901   2.806
 1971SOL     OW 6811   0.263   4.050   2.582
 1971SOL    HW1 6812   0.184   4.101   2.548
 1971SOL    HW2 6813   0.254   4.035   2.680
 1972SOL     OW 6814   1.194   5.336   1.893
 1972SOL    HW1 6815   1.200   5.243   1.930
 1972SOL    HW2 6816   1.135   5.336   1.813
 1973SOL     OW 6817   0.822   4.726   3.234
 1973SOL    HW1 6818   0.862   4.725   3.142
 1973SOL    HW2 6819   0.832   4.818   3.274
 1974SOL     OW 6820   0.916   4.634   2.153
 1974SOL    HW1 6821   0.979   4.672   2.085
 1974SOL    HW2 6822   0.956   4.551   2.192
 1975SOL     OW 6823   1.504   5.331   1.906
 1975SOL    HW1 6824   1.412   5.368   1.913
 1975SOL    HW2 6825   1.542   5.351   1.816
 1976SOL     OW 6826   0.372   5.012   3.352
 1976SOL    HW1 6827   0.359   5.105   3.318
 1976SOL    HW2 6828   0.288   4.960   3.339
 1977SOL     OW 6829   1.614   5.016   3.151
 1977SOL    HW1 6830   1.674   5.019   3.231
 1977SOL    HW2 6831   1.539   5.080   3.164
 1978SOL     OW 6832   1.039   4.822   2.558
 1978SOL    HW1 6833   0.969   4.775   2.612
 1978SOL    HW2 6834   1.098   4.754   2.515
 1979SOL     OW 6835   1.014   3.960   2.833
 1979SOL    HW1 6836   1.006   3.924   2.740
 1979SOL    HW2 6837   1.012   3.884   2.898
 1980SOL     OW 6838   0.590   5.211   2.353
 1980SOL    HW1 6839   0.632   5.153   2.283
 1980SOL    HW2 6840   0.546   5.290   2.309
 1981SOL     OW 6841   1.709   4.109   3.243
 1981SOL    HW1 6842   1.782   4.178   3.247
 1981SOL    HW2 6843   1.737   4.034   3.184
 1982SOL     OW 6844   0.255   5.072   2.152
 1982SOL    HW1 6845   0.159   5.073   2.125
 1982SOL    HW2 6846   0.267   5.125   2.236
 1983SOL     OW 6847   0.105   4.737   3.588
 1983SOL    HW1 6848   0.028   4.704   3.642
 1983SOL    HW2 6849   0.190   4.707   3.630
 1984SOL     OW 6850   0.672   3.927   3.351
 1984SOL    HW1 6851   0.762   3.911   3.311
 1984SOL    HW2 6852   0.680   3.932   3.450
 1985SOL     OW 6853   0.075   4.069   1.895
 1985SOL    HW1 6854  -0.017   4.041   1.866
 1985SOL    HW2 6855   0.106   4.146   1.839
 1986SOL     OW 6856   1.440   4.580   3.260
 1986SOL    HW1 6857   1.383   4.632   3.197
 1986SOL    HW2 6858   1.536   4.592   3.236
 1987SOL     OW 6859   0.072   3.890   2.180
 1987SOL    HW1 6860   0.055   3.973   2.126
 1987SOL    HW2 6861   0.162   3.853   2.158
 1988SOL     OW 6862   1.183   5.059   1.981
 1988SOL    HW1 6863   1.084   5.048   1.983
 1988SOL    HW2 6864   1.217   5.074   2.074
 1989SOL     OW 6865   0.613   4.566   3.293
 1989SOL    HW1 6866   0.669   4.647   3.276
 1989SOL    HW2 6867   0.672   4.486   3.296
 1990SOL     OW 6868   1.493   5.491   2.821
 1990SOL    HW1 6869   1.526   5.555   2.752
 1990SOL    HW2 6870   1.559   5.485   2.896
 1991SOL     OW 6871   0.716   4.289   3.570
 1991SOL    HW1 6872   0.735   4.354   3.644
 1991SOL    HW2 6873   0.776   4.209   3.579
 1992SOL     OW 6874   1.450   4.944   3.495
 1992SOL    HW1 6875   1.441   4.934   3.594
 1992SOL    HW2 6876   1.546   4.937   3.469
 1993SOL     OW 6877   0.390   5.465   3.422
 1993SOL    HW1 6878   0.299   5.506   3.420
 1993SOL    HW2 6879   0.383   5.371   3.454
 1994SOL     OW 6880   1.674   4.607   3.116
 1994SOL    HW1 6881   1.647   4.518   3.079
 1994SOL    HW2 6882   1.675   4.675   3.043
 1995SOL     OW 6883   1.225   4.049   2.311
 1995SOL    HW1 6884   1.290   3.975   2.300
 1995SOL    HW2 6885   1.245   4.099   2.395
 1996SOL     OW 6886   0.594   4.469   2.514
 1996SOL    HW1 6887   0.644   4.554   2.495
 1996SOL    HW2 6888   0.506   4.471   2.466
 1997SOL     OW 6889   1.777   4.066   3.504
 1997SOL    HW1 6890   1.760   4.097   3.410
 1997SOL    HW2 6891   1.693   4.029   3.542
 1998SOL     OW 6892   1.730   4.658   3.379
 1998SOL    HW1 6893   1.768   4.749   3.394
 1998SOL    HW2 6894   1.722   4.641   3.280
 1999SOL     OW 6895   0.859   5.098   1.878
 1999SOL    HW1 6896   0.813   5.113   1.966
 1999SOL    HW2 6897   0.903   5.183   1.848
 2000SOL     OW 6898   0.661   5.514   2.815
 2000SOL    HW1 6899   0.615   5.602   2.802
 2000SOL    HW2 6900   0.760   5.526   2.808
 2001SOL     OW 6901   0.859   4.680   2.723
 2001SOL    HW1 6902   0.913   4.611   2.771
 2001SOL    HW2 6903   0.827   4.749   2.789
 2002SOL     OW 6904   1.083   4.708   1.949
 2002SOL    HW1 6905   1.060   4.761   1.867
 2002SOL    HW2 6906   1.164   4.652   1.930
 2003SOL     OW 6907   1.861   5.293   2.713
 2003SOL    HW1 6908   1.790   5.281   2.643
 2003SOL    HW2 6909   1.862   5.214   2.773
 2004SOL     OW 6910   0.221   5.038   3.706
 2004SOL    HW1 6911   0.156   4.965   3.685
 2004SOL    HW2 6912   0.225   5.052   3.804
 2005SOL     OW 6913   0.079   4.964   2.515
 2005SOL    HW1 6914   0.078   4.917   2.603
 2005SOL    HW2 6915   0.161   4.936   2.464
 2006SOL     OW 6916   0.672   5.115   3.486
 2006SOL    HW1 6917   0.594   5.065   3.524
 2006SOL    HW2 6918   0.669   5.210   3.517
 2007SOL     OW 6919   1.824   3.916   3.089
 2007SOL    HW1 6920   1.820   3.826   3.133
 2007SOL    HW2 6921   1.827   3.905   2.990
 2008SOL     OW 6922   0.428   4.148   2.382
 2008SOL    HW1 6923   0.458   4.076   2.320
 2008SOL    HW2 6924   0.389   4.108   2.465
 2009SOL     OW 6925   1.705   5.211   2.966
 2009SOL    HW1 6926   1.612   5.186   2.939
 2009SOL    HW2 6927   1.731   5.161   3.048
 2010SOL     OW 6928   0.317   4.271   3.142
 2010SOL    HW1 6929   0.355   4.212   3.214
 2010SOL    HW2 6930   0.357   4.245   3.054
 2011SOL     OW 6931   0.812   5.310   2.549
 2011SOL    HW1 6932   0.844   5.320   2.455
 2011SOL    HW2 6933   0.733   5.248   2.551
 2012SOL     OW 6934   1.424   3.938   2.974
 2012SOL    HW1 6935   1.476   3.873   3.029
 2012SOL    HW2 6936   1.375   4.001   3.035
 2013SOL     OW 6937   1.001   3.758   3.016
 2013SOL    HW1 6938   0.938   3.686   2.985
 2013SOL    HW2 6939   1.094   3.722   3.016
 2014SOL     OW 6940   0.770   5.054   2.163
 2014SOL    HW1 6941   0.724   4.967   2.180
 2014SOL    HW2 6942   0.861   5.051   2.204
 2015SOL     OW 6943   0.618   5.291   3.146
 2015SOL    HW1 6944   0.613   5.373   3.203
 2015SOL    HW2 6945   0.707   5.288   3.101
 2016SOL     OW 6946   1.352   3.776   2.030
 2016SOL    HW1 6947   1.387   3.735   1.946
 2016SOL    HW2 6948   1.262   3.738   2.050
 2017SOL     OW 6949   1.300   4.177   2.553
 2017SOL    HW1 6950   1.241   4.257   2.557
 2017SOL    HW2 6951   1.315   4.142   2.646
 2018SOL     OW 6952   1.593   3.945   2.744
 2018SOL    HW1 6953   1.509   3.944   2.798
 2018SOL    HW2 6954   1.595   4.028   2.688
 2019SOL     OW 6955   0.039   4.801   2.162
 2019SOL    HW1 6956   0.138   4.790   2.153
 2019SOL    HW2 6957  -0.001   4.715   2.194
 2020SOL     OW 6958   0.875   5.370   2.199
 2020SOL    HW1 6959   0.798   5.335   2.145
 2020SOL    HW2 6960   0.843   5.441   2.261
 2021SOL     OW 6961   0.230   4.352   3.837
 2021SOL    HW1 6962   0.137   4.350   3.874
 2021SOL    HW2 6963   0.231   4.313   3.745
 2022SOL     OW 6964   0.225   3.999   4.720
 2022SOL    HW1 6965   0.260   3.982   4.812
 2022SOL    HW2 6966   0.137   3.954   4.708
 2023SOL     OW 6967   0.019   4.092   4.371
 2023SOL    HW1 6968  -0.063   4.135   4.410
 2023SOL    HW2 6969  -0.009   4.019   4.308
 2024SOL     OW 6970   0.569   4.999   4.889
 2024SOL    HW1 6971   0.476   4.992   4.852
 2024SOL    HW2 6972   0.580   5.088   4.933
 2025SOL     OW 6973   1.555   5.235   4.427
 2025SOL    HW1 6974   1.498   5.219   4.508
 2025SOL    HW2 6975   1.496   5.245   4.347
 2026SOL     OW 6976   1.135   4.427   4.441
 2026SOL    HW1 6977   1.192   4.505   4.416
 2026SOL    HW2 6978   1.075   4.453   4.517
 2027SOL     OW 6979   1.755   4.331   3.955
 2027SOL    HW1 6980   1.743   4.318   3.856
 2027SOL    HW2 6981   1.725   4.250   4.004
 2028SOL     OW 6982   0.768   4.868   4.747
 2028SOL    HW1 6983   0.690   4.885   4.807
 2028SOL    HW2 6984   0.802   4.955   4.711
 2029SOL     OW 6985   0.850   4.522   5.547
 2029SOL    HW1 6986   0.846   4.598   5.612
 2029SOL    HW2 6987   0.872   4.558   5.456
 2030SOL     OW 6988   0.685   4.736   4.389
 2030SOL    HW1 6989   0.754   4.720   4.459
 2030SOL    HW2 6990   0.612   4.793   4.427
 2031SOL     OW 6991   0.686   4.885   5.527
 2031SOL    HW1 6992   0.746   4.964   5.541
 2031SOL    HW2 6993   0.600   4.916   5.486
 2032SOL     OW 6994   0.335   5.159   4.785
 2032SOL    HW1 6995   0.257   5.128   4.732
 2032SOL    HW2 6996   0.393   5.217   4.728
 2033SOL     OW 6997   1.460   5.229   5.063
 2033SOL    HW1 6998   1.484   5.323   5.089
 2033SOL    HW2 6999   1.444   5.175   5.145
 2034SOL     OW 7000   0.438   4.116   5.223
 2034SOL    HW1 7001   0.520   4.060   5.232
 2034SOL    HW2 7002   0.357   4.058   5.227
 2035SOL     OW 7003   1.603   4.171   4.461
 2035SOL    HW1 7004   1.529   4.217   4.411
 2035SOL    HW2 7005   1.654   4.239   4.514
 2036SOL     OW 7006   0.231   5.437   4.207
 2036SOL    HW1 7007   0.265   5.514   4.261
 2036SOL    HW2 7008   0.275   5.437   4.117
 2037SOL     OW 7009   1.127   5.065   5.414
 2037SOL    HW1 7010   1.174   5.065   5.502
 2037SOL    HW2 7011   1.079   4.978   5.403
 2038SOL     OW 7012   0.230   5.158   4.262
 2038SOL    HW1 7013   0.204   5.254   4.262
 2038SOL    HW2 7014   0.159   5.104   4.307
 2039SOL     OW 7015   0.240   4.815   4.610
 2039SOL    HW1 7016   0.254   4.731   4.662
 2039SOL    HW2 7017   0.185   4.879   4.665
 2040SOL     OW 7018   0.620   5.510   5.163
 2040SOL    HW1 7019   0.528   5.493   5.198
 2040SOL    HW2 7020   0.648   5.602   5.189
 2041SOL     OW 7021   0.606   4.688   3.847
 2041SOL    HW1 7022   0.613   4.772   3.793
 2041SOL    HW2 7023   0.652   4.701   3.935
 2042SOL     OW 7024   1.594   3.838   5.204
 2042SOL    HW1 7025   1.576   3.905   5.132
 2042SOL    HW2 7026   1.591   3.884   5.293
 2043SOL     OW 7027   0.122   4.367   4.287
 2043SOL    HW1 7028   0.077   4.279   4.304
 2043SOL    HW2 7029   0.121   4.421   4.371
 2044SOL     OW 7030   1.842   5.491   4.083
 2044SOL    HW1 7031   1.896   5.462   4.163
 2044SOL    HW2 7032   1.872   5.581   4.054
 2045SOL     OW 7033   0.027   5.320   3.841
 2045SOL    HW1 7034   0.008   5.224   3.862
 2045SOL    HW2 7035  -0.006   5.378   3.916
 2046SOL     OW 7036   1.689   4.646   4.336
 2046SOL    HW1 7037   1.784   4.617   4.344
 2046SOL    HW2 7038   1.681   4.711   4.261
 2047SOL     OW 7039   1.641   4.832   4.156
 2047SOL    HW1 7040   1.727   4.834   4.104
 2047SOL    HW2 7041   1.655   4.879   4.244
 2048SOL     OW 7042   0.113   4.461   5.321
 2048SOL    HW1 7043   0.201   4.448   5.366
 2048SOL    HW2 7044   0.100   4.558   5.299
 2049SOL     OW 7045   0.613   5.089   4.450
 2049SOL    HW1 7046   0.564   5.002   4.459
 2049SOL    HW2 7047   0.590   5.132   4.363
 2050SOL     OW 7048   1.293   4.952   5.147
 2050SOL    HW1 7049   1.330   4.879   5.089
 2050SOL    HW2 7050   1.345   4.957   5.232
 2051SOL     OW 7051   0.809   3.728   4.226
 2051SOL    HW1 7052   0.849   3.819   4.217
 2051SOL    HW2 7053   0.709   3.736   4.232
 2052SOL     OW 7054   0.197   4.700   4.988
 2052SOL    HW1 7055   0.286   4.655   4.974
 2052SOL    HW2 7056   0.124   4.635   4.969
 2053SOL     OW 7057   1.525   4.723   3.914
 2053SOL    HW1 7058   1.462   4.647   3.927
 2053SOL    HW2 7059   1.573   4.741   4.000
 2054SOL     OW 7060   1.187   5.516   5.340
 2054SOL    HW1 7061   1.211   5.576   5.264
 2054SOL    HW2 7062   1.194   5.421   5.310
 2055SOL     OW 7063   0.317   3.975   5.525
 2055SOL    HW1 7064   0.388   4.046   5.531
 2055SOL    HW2 7065   0.229   4.014   5.553
 2056SOL     OW 7066   1.466   5.141   4.677
 2056SOL    HW1 7067   1.407   5.147   4.757
 2056SOL    HW2 7068   1.451   5.053   4.631
 2057SOL     OW 7069   1.667   5.438   4.296
 2057SOL    HW1 7070   1.626   5.415   4.208
 2057SOL    HW2 7071   1.649   5.364   4.361
 2058SOL     OW 7072   0.598   4.453   3.994
 2058SOL    HW1 7073   0.622   4.522   3.926
 2058SOL    HW2 7074   0.520   4.486   4.048
 2059SOL     OW 7075   1.281   4.069   4.668
 2059SOL    HW1 7076   1.195   4.019   4.655
 2059SOL    HW2 7077   1.343   4.015   4.724
 2060SOL     OW 7078   1.576   5.386   4.031
 2060SOL    HW1 7079   1.665   5.432   4.034
 2060SOL    HW2 7080   1.555   5.362   3.936
 2061SOL     OW 7081   0.807   4.329   5.189
 2061SOL    HW1 7082   0.760   4.326   5.278
 2061SOL    HW2 7083   0.756   4.274   5.123
 2062SOL     OW 7084   1.394   4.193   5.398
 2062SOL    HW1 7085   1.374   4.236   5.486
 2062SOL    HW2 7086   1.472   4.131   5.407
 2063SOL     OW 7087   0.973   4.614   5.296
 2063SOL    HW1 7088   1.019   4.530   5.267
 2063SOL    HW2 7089   0.917   4.648   5.221
 2064SOL     OW 7090   0.991   4.134   4.966
 2064SOL    HW1 7091   0.914   4.168   5.020
 2064SOL    HW2 7092   0.957   4.083   4.887
 2065SOL     OW 7093   1.041   4.425   4.153
 2065SOL    HW1 7094   1.067   4.421   4.249
 2065SOL    HW2 7095   0.956   4.374   4.139
 2066SOL     OW 7096   0.076   4.535   4.513
 2066SOL    HW1 7097   0.175   4.523   4.522
 2066SOL    HW2 7098   0.052   4.630   4.534
 2067SOL     OW 7099   0.130   5.545   5.295
 2067SOL    HW1 7100   0.120   5.530   5.394
 2067SOL    HW2 7101   0.044   5.581   5.259
 2068SOL     OW 7102   0.865   4.072   3.919
 2068SOL    HW1 7103   0.924   4.135   3.870
 2068SOL    HW2 7104   0.884   3.978   3.890
 2069SOL     OW 7105   1.719   4.309   5.555
 2069SOL    HW1 7106   1.693   4.398   5.519
 2069SOL    HW2 7107   1.717   4.241   5.482
 2070SOL     OW 7108   1.362   4.868   4.269
 2070SOL    HW1 7109   1.445   4.839   4.221
 2070SOL    HW2 7110   1.313   4.935   4.213
 2071SOL     OW 7111   0.550   3.920   4.609
 2071SOL    HW1 7112   0.545   3.915   4.709
 2071SOL    HW2 7113   0.552   4.016   4.580
 2072SOL     OW 7114   1.008   5.180   4.201
 2072SOL    HW1 7115   0.962   5.252   4.149
 2072SOL    HW2 7116   1.004   5.200   4.299
 2073SOL     OW 7117   0.351   5.525   4.577
 2073SOL    HW1 7118   0.401   5.439   4.583
 2073SOL    HW2 7119   0.416   5.602   4.574
 2074SOL     OW 7120   1.795   4.790   4.597
 2074SOL    HW1 7121   1.733   4.775   4.521
 2074SOL    HW2 7122   1.743   4.801   4.682
 2075SOL     OW 7123   1.227   5.274   5.230
 2075SOL    HW1 7124   1.233   5.197   5.294
 2075SOL    HW2 7125   1.175   5.248   5.150
 2076SOL     OW 7126   0.321   4.667   3.966
 2076SOL    HW1 7127   0.403   4.706   3.924
 2076SOL    HW2 7128   0.294   4.585   3.917
 2077SOL     OW 7129   1.458   4.459   4.452
 2077SOL    HW1 7130   1.453   4.394   4.527
 2077SOL    HW2 7131   1.538   4.518   4.465
 2078SOL     OW 7132   0.461   4.990   5.451
 2078SOL    HW1 7133   0.411   4.991   5.365
 2078SOL    HW2 7134   0.398   4.972   5.527
 2079SOL     OW 7135   1.111   5.500   3.961
 2079SOL    HW1 7136   1.051   5.438   4.011
 2079SOL    HW2 7137   1.142   5.456   3.876
 2080SOL     OW 7138   0.202   4.009   5.222
 2080SOL    HW1 7139   0.122   4.069   5.209
 2080SOL    HW2 7140   0.192   3.960   5.308
 2081SOL     OW 7141   1.632   5.101   3.805
 2081SOL    HW1 7142   1.600   5.195   3.795
 2081SOL    HW2 7143   1.556   5.038   3.793
 2082SOL     OW 7144   0.464   5.467   4.047
 2082SOL    HW1 7145   0.497   5.506   4.133
 2082SOL    HW2 7146   0.540   5.460   3.982
 2083SOL     OW 7147   1.400   3.831   4.150
 2083SOL    HW1 7148   1.376   3.794   4.060
 2083SOL    HW2 7149   1.499   3.847   4.154
 2084SOL     OW 7150   0.249   5.509   4.965
 2084SOL    HW1 7151   0.306   5.444   5.015
 2084SOL    HW2 7152   0.233   5.476   4.872
 2085SOL     OW 7153   0.940   5.422   4.628
 2085SOL    HW1 7154   1.020   5.365   4.649
 2085SOL    HW2 7155   0.891   5.382   4.551
 2086SOL     OW 7156   0.382   4.424   4.204
 2086SOL    HW1 7157   0.427   4.334   4.201
 2086SOL    HW2 7158   0.288   4.413   4.237
 2087SOL     OW 7159   1.547   3.946   5.453
 2087SOL    HW1 7160   1.542   3.983   5.545
 2087SOL    HW2 7161   1.475   3.877   5.441
 2088SOL     OW 7162   0.614   3.846   3.841
 2088SOL    HW1 7163   0.712   3.824   3.848
 2088SOL    HW2 7164   0.583   3.829   3.748
 2089SOL     OW 7165   0.781   3.988   5.473
 2089SOL    HW1 7166   0.848   3.927   5.516
 2089SOL    HW2 7167   0.708   4.007   5.538
 2090SOL     OW 7168   0.888   5.238   4.919
 2090SOL    HW1 7169   0.865   5.213   4.825
 2090SOL    HW2 7170   0.949   5.169   4.958
 2091SOL     OW 7171   1.351   4.314   5.157
 2091SOL    HW1 7172   1.379   4.271   5.242
 2091SOL    HW2 7173   1.376   4.410   5.158
 2092SOL     OW 7174   0.803   5.126   4.648
 2092SOL    HW1 7175   0.893   5.140   4.606
 2092SOL    HW2 7176   0.732   5.128   4.577
 2093SOL     OW 7177   0.922   4.227   4.623
 2093SOL    HW1 7178   0.897   4.218   4.527
 2093SOL    HW2 7179   0.970   4.145   4.654
 2094SOL     OW 7180   0.539   3.788   4.236
 2094SOL    HW1 7181   0.458   3.789   4.294
 2094SOL    HW2 7182   0.542   3.871   4.181
 2095SOL     OW 7183   1.434   4.912   3.765
 2095SOL    HW1 7184   1.466   4.836   3.822
 2095SOL    HW2 7185   1.342   4.939   3.795
 2096SOL     OW 7186   0.297   3.759   3.895
 2096SOL    HW1 7187   0.346   3.843   3.874
 2096SOL    HW2 7188   0.359   3.694   3.940
 2097SOL     OW 7189   0.935   3.960   4.204
 2097SOL    HW1 7190   0.887   4.001   4.126
 2097SOL    HW2 7191   1.034   3.958   4.185
 2098SOL     OW 7192   1.076   4.407   5.188
 2098SOL    HW1 7193   0.996   4.346   5.191
 2098SOL    HW2 7194   1.157   4.354   5.164
 2099SOL     OW 7195   1.227   5.294   4.517
 2099SOL    HW1 7196   1.248   5.368   4.452
 2099SOL    HW2 7197   1.295   5.294   4.590
 2100SOL     OW 7198   0.459   4.876   4.465
 2100SOL    HW1 7199   0.388   4.849   4.530
 2100SOL    HW2 7200   0.433   4.848   4.372
 2101SOL     OW 7201   1.271   5.521   4.315
 2101SOL    HW1 7202   1.315   5.585   4.251
 2101SOL    HW2 7203   1.221   5.573   4.385
 2102SOL     OW 7204   1.032   4.273   3.740
 2102SOL    HW1 7205   0.991   4.355   3.701
 2102SOL    HW2 7206   1.096   4.299   3.813
 2103SOL     OW 7207   0.078   4.280   5.110
 2103SOL    HW1 7208   0.170   4.279   5.069
 2103SOL    HW2 7209   0.072   4.354   5.177
 2104SOL     OW 7210   0.561   3.946   4.871
 2104SOL    HW1 7211   0.599   3.862   4.908
 2104SOL    HW2 7212   0.473   3.965   4.915
 2105SOL     OW 7213   0.866   4.178   4.366
 2105SOL    HW1 7214   0.834   4.250   4.304
 2105SOL    HW2 7215   0.890   4.097   4.313
 2106SOL     OW 7216   1.017   3.763   4.477
 2106SOL    HW1 7217   0.945   3.768   4.408
 2106SOL    HW2 7218   0.993   3.694   4.546
 2107SOL     OW 7219   1.429   4.897   4.591
 2107SOL    HW1 7220   1.374   4.813   4.584
 2107SOL    HW2 7221   1.455   4.926   4.499
 2108SOL     OW 7222   1.466   4.314   4.716
 2108SOL    HW1 7223   1.436   4.219   4.723
 2108SOL    HW2 7224   1.539   4.330   4.782
 2109SOL     OW 7225   1.857   4.557   4.101
 2109SOL    HW1 7226   1.899   4.493   4.165
 2109SOL    HW2 7227   1.819   4.506   4.023
 2110SOL     OW 7228   0.488   5.109   3.898
 2110SOL    HW1 7229   0.401   5.094   3.945
 2110SOL    HW2 7230   0.471   5.135   3.803
 2111SOL     OW 7231   1.664   5.004   4.381
 2111SOL    HW1 7232   1.763   5.012   4.395
 2111SOL    HW2 7233   1.619   5.088   4.412
 2112SOL     OW 7234   1.390   4.299   3.802
 2112SOL    HW1 7235   1.336   4.278   3.883
 2112SOL    HW2 7236   1.481   4.258   3.811
 2113SOL     OW 7237   0.527   3.980   4.052
 2113SOL    HW1 7238   0.554   3.921   3.977
 2113SOL    HW2 7239   0.527   4.075   4.021
 2114SOL     OW 7240   1.754   4.947   5.312
 2114SOL    HW1 7241   1.845   4.908   5.299
 2114SOL    HW2 7242   1.762   5.043   5.336
 2115SOL     OW 7243   1.064   5.071   5.064
 2115SOL    HW1 7244   0.984   5.048   5.119
 2115SOL    HW2 7245   1.147   5.045   5.113
 2116SOL     OW 7246   1.592   5.353   5.349
 2116SOL    HW1 7247   1.619   5.387   5.259
 2116SOL    HW2 7248   1.671   5.315   5.395
 2117SOL     OW 7249   1.111   4.919   4.824
 2117SOL    HW1 7250   1.071   4.963   4.905
 2117SOL    HW2 7251   1.070   4.956   4.741
 2118SOL     OW 7252   1.638   4.823   4.803
 2118SOL    HW1 7253   1.643   4.904   4.862
 2118SOL    HW2 7254   1.552   4.825   4.752
 2119SOL     OW 7255   0.915   3.813   5.126
 2119SOL    HW1 7256   0.940   3.793   5.031
 2119SOL    HW2 7257   0.987   3.869   5.168
 2120SOL     OW 7258   0.980   4.840   5.443
 2120SOL    HW1 7259   0.881   4.846   5.453
 2120SOL    HW2 7260   1.003   4.760   5.387
 2121SOL     OW 7261   0.705   4.774   4.092
 2121SOL    HW1 7262   0.691   4.781   4.191
 2121SOL    HW2 7263   0.789   4.723   4.074
 2122SOL     OW 7264   0.410   4.537   4.975
 2122SOL    HW1 7265   0.496   4.549   5.025
 2122SOL    HW2 7266   0.368   4.450   5.002
 2123SOL     OW 7267   1.274   4.110   4.986
 2123SOL    HW1 7268   1.295   4.184   5.050
 2123SOL    HW2 7269   1.185   4.127   4.943
 2124SOL     OW 7270   0.064   5.288   5.055
 2124SOL    HW1 7271   0.018   5.370   5.021
 2124SOL    HW2 7272   0.162   5.307   5.064
 2125SOL     OW 7273   0.367   4.824   4.225
 2125SOL    HW1 7274   0.360   4.907   4.169
 2125SOL    HW2 7275   0.371   4.744   4.165
 2126SOL     OW 7276   0.566   4.261   4.589
 2126SOL    HW1 7277   0.578   4.327   4.515
 2126SOL    HW2 7278   0.612   4.295   4.672
 2127SOL     OW 7279   1.252   5.072   4.112
 2127SOL    HW1 7280   1.302   5.149   4.152
 2127SOL    HW2 7281   1.157   5.074   4.144
 2128SOL     OW 7282   1.272   5.169   4.866
 2128SOL    HW1 7283   1.319   5.182   4.953
 2128SOL    HW2 7284   1.206   5.095   4.875
 2129SOL     OW 7285   1.582   4.363   4.196
 2129SOL    HW1 7286   1.551   4.424   4.269
 2129SOL    HW2 7287   1.632   4.415   4.127
 2130SOL     OW 7288   0.354   5.234   5.053
 2130SOL    HW1 7289   0.333   5.190   4.966
 2130SOL    HW2 7290   0.451   5.260   5.056
 2131SOL     OW 7291   0.402   4.475   5.322
 2131SOL    HW1 7292   0.470   4.530   5.275
 2131SOL    HW2 7293   0.442   4.387   5.349
 2132SOL     OW 7294   1.587   4.503   5.394
 2132SOL    HW1 7295   1.495   4.541   5.389
 2132SOL    HW2 7296   1.647   4.550   5.329
 2133SOL     OW 7297   1.013   3.829   5.494
 2133SOL    HW1 7298   1.019   3.914   5.442
 2133SOL    HW2 7299   1.045   3.753   5.437
 2134SOL     OW 7300   0.504   3.774   5.464
 2134SOL    HW1 7301   0.462   3.717   5.394
 2134SOL    HW2 7302   0.438   3.843   5.496
 2135SOL     OW 7303   0.573   4.594   4.753
 2135SOL    HW1 7304   0.617   4.683   4.744
 2135SOL    HW2 7305   0.510   4.594   4.830
 2136SOL     OW 7306   1.360   4.586   4.769
 2136SOL    HW1 7307   1.285   4.586   4.703
 2136SOL    HW2 7308   1.397   4.494   4.778
 2137SOL     OW 7309   1.209   4.249   3.999
 2137SOL    HW1 7310   1.222   4.165   4.053
 2137SOL    HW2 7311   1.180   4.323   4.059
 2138SOL     OW 7312   0.307   3.937   4.955
 2138SOL    HW1 7313   0.284   3.974   5.045
 2138SOL    HW2 7314   0.277   3.842   4.949
 2139SOL     OW 7315   0.037   5.034   5.006
 2139SOL    HW1 7316   0.090   4.985   5.074
 2139SOL    HW2 7317   0.059   5.132   5.011
 2140SOL     OW 7318   0.732   4.358   4.788
 2140SOL    HW1 7319   0.791   4.332   4.712
 2140SOL    HW2 7320   0.704   4.454   4.777
 2141SOL     OW 7321   1.728   4.659   5.578
 2141SOL    HW1 7322   1.682   4.652   5.489
 2141SOL    HW2 7323   1.666   4.703   5.644
 2142SOL     OW 7324   0.307   3.787   4.342
 2142SOL    HW1 7325   0.296   3.881   4.375
 2142SOL    HW2 7326   0.302   3.724   4.419
 2143SOL     OW 7327   1.622   4.091   4.098
 2143SOL    HW1 7328   1.624   4.015   4.162
 2143SOL    HW2 7329   1.574   4.168   4.138
 2144SOL     OW 7330   1.023   4.490   4.690
 2144SOL    HW1 7331   1.038   4.511   4.786
 2144SOL    HW2 7332   0.993   4.395   4.681
 2145SOL     OW 7333   0.980   5.297   5.424
 2145SOL    HW1 7334   0.960   5.341   5.336
 2145SOL    HW2 7335   1.019   5.206   5.408
 2146SOL     OW 7336   1.859   5.242   5.329
 2146SOL    HW1 7337   1.873   5.269   5.234
 2146SOL    HW2 7338   1.942   5.264   5.382
 2147SOL     OW 7339   0.350   4.622   5.528
 2147SOL    HW1 7340   0.426   4.666   5.576
 2147SOL    HW2 7341   0.385   4.575   5.446
 2148SOL     OW 7342   1.540   3.998   3.849
 2148SOL    HW1 7343   1.479   3.923   3.872
 2148SOL    HW2 7344   1.562   4.050   3.932
 2149SOL     OW 7345   1.303   4.562   3.766
 2149SOL    HW1 7346   1.337   4.469   3.781
 2149SOL    HW2 7347   1.321   4.589   3.671
 2150SOL     OW 7348   1.068   5.057   4.573
 2150SOL    HW1 7349   1.075   4.973   4.518
 2150SOL    HW2 7350   1.130   5.126   4.537
 2151SOL     OW 7351   0.319   4.534   4.673
 2151SOL    HW1 7352   0.412   4.570   4.678
 2151SOL    HW2 7353   0.313   4.449   4.725
 2152SOL     OW 7354   0.339   4.233   4.730
 2152SOL    HW1 7355   0.287   4.150   4.713
 2152SOL    HW2 7356   0.416   4.238   4.666
 2153SOL     OW 7357   1.138   4.104   5.402
 2153SOL    HW1 7358   1.093   4.167   5.466
 2153SOL    HW2 7359   1.231   4.135   5.385
 2154SOL     OW 7360   1.160   3.931   5.201
 2154SOL    HW1 7361   1.160   3.995   5.278
 2154SOL    HW2 7362   1.188   3.979   5.118
 2155SOL     OW 7363   0.008   5.050   3.924
 2155SOL    HW1 7364  -0.085   5.071   3.893
 2155SOL    HW2 7365   0.018   4.951   3.937
 2156SOL     OW 7366   0.088   5.525   4.651
 2156SOL    HW1 7367   0.046   5.439   4.624
 2156SOL    HW2 7368   0.182   5.528   4.617
 2157SOL     OW 7369   0.504   5.292   4.634
 2157SOL    HW1 7370   0.570   5.366   4.643
 2157SOL    HW2 7371   0.548   5.213   4.592
 2158SOL     OW 7372   1.002   4.520   4.962
 2158SOL    HW1 7373   1.043   4.488   5.048
 2158SOL    HW2 7374   0.906   4.493   4.959
 2159SOL     OW 7375   0.040   4.268   4.838
 2159SOL    HW1 7376   0.125   4.235   4.797
 2159SOL    HW2 7377   0.053   4.283   4.936
 2160SOL     OW 7378   0.189   4.244   5.446
 2160SOL    HW1 7379   0.248   4.204   5.376
 2160SOL    HW2 7380   0.131   4.315   5.405
 2161SOL     OW 7381   1.369   4.674   5.384
 2161SOL    HW1 7382   1.408   4.763   5.404
 2161SOL    HW2 7383   1.379   4.654   5.287
 2162SOL     OW 7384   0.815   4.296   4.049
 2162SOL    HW1 7385   0.822   4.207   4.003
 2162SOL    HW2 7386   0.721   4.330   4.041
 2163SOL     OW 7387   1.657   4.328   4.930
 2163SOL    HW1 7388   1.619   4.259   4.992
 2163SOL    HW2 7389   1.739   4.292   4.886
 2164SOL     OW 7390   0.252   5.288   5.468
 2164SOL    HW1 7391   0.222   5.345   5.544
 2164SOL    HW2 7392   0.245   5.191   5.494
 2165SOL     OW 7393   0.671   4.188   4.993
 2165SOL    HW1 7394   0.637   4.099   4.963
 2165SOL    HW2 7395   0.697   4.242   4.913
 2166SOL     OW 7396   0.930   5.402   5.189
 2166SOL    HW1 7397   0.906   5.384   5.094
 2166SOL    HW2 7398   0.960   5.496   5.199
 2167SOL     OW 7399   0.473   4.224   3.915
 2167SOL    HW1 7400   0.534   4.304   3.919
 2167SOL    HW2 7401   0.378   4.255   3.922
 2168SOL     OW 7402   0.159   4.861   5.190
 2168SOL    HW1 7403   0.181   4.800   5.266
 2168SOL    HW2 7404   0.169   4.812   5.104
 2169SOL     OW 7405   1.347   4.783   4.958
 2169SOL    HW1 7406   1.371   4.720   4.884
 2169SOL    HW2 7407   1.257   4.823   4.940
 2170SOL     OW 7408   1.302   4.579   4.033
 2170SOL    HW1 7409   1.216   4.548   4.075
 2170SOL    HW2 7410   1.298   4.565   3.934
 2171SOL     OW 7411   1.759   5.471   4.878
 2171SOL    HW1 7412   1.820   5.501   4.805
 2171SOL    HW2 7413   1.721   5.382   4.856
 2172SOL     OW 7414   1.252   5.455   4.852
 2172SOL    HW1 7415   1.336   5.460   4.798
 2172SOL    HW2 7416   1.229   5.359   4.870
 2173SOL     OW 7417   0.083   4.982   4.746
 2173SOL    HW1 7418   0.078   4.981   4.846
 2173SOL    HW2 7419   0.000   4.941   4.708
 2174SOL     OW 7420   0.688   5.386   5.440
 2174SOL    HW1 7421   0.632   5.467   5.449
 2174SOL    HW2 7422   0.740   5.390   5.354
 2175SOL     OW 7423   1.726   3.859   4.247
 2175SOL    HW1 7424   1.799   3.842   4.180
 2175SOL    HW2 7425   1.695   3.772   4.285
 2176SOL     OW 7426   1.388   5.297   4.201
 2176SOL    HW1 7427   1.455   5.309   4.127
 2176SOL    HW2 7428   1.348   5.386   4.224
 2177SOL     OW 7429   0.130   5.518   5.575
 2177SOL    HW1 7430   0.089   5.444   5.628
 2177SOL    HW2 7431   0.194   5.569   5.633
 2178SOL     OW 7432   1.280   4.651   4.396
 2178SOL    HW1 7433   1.340   4.570   4.398
 2178SOL    HW2 7434   1.320   4.720   4.336
 2179SOL     OW 7435   0.830   4.997   5.146
 2179SOL    HW1 7436   0.825   5.030   5.241
 2179SOL    HW2 7437   0.744   5.016   5.100
 2180SOL     OW 7438   0.672   5.340   3.878
 2180SOL    HW1 7439   0.681   5.350   3.779
 2180SOL    HW2 7440   0.632   5.251   3.899
 2181SOL     OW 7441   1.650   5.444   5.118
 2181SOL    HW1 7442   1.703   5.454   5.034
 2181SOL    HW2 7443   1.623   5.534   5.152
 2182SOL     OW 7444   1.841   3.899   4.687
 2182SOL    HW1 7445   1.880   3.814   4.651
 2182SOL    HW2 7446   1.743   3.901   4.668
 2183SOL     OW 7447   0.263   4.050   4.444
 2183SOL    HW1 7448   0.184   4.101   4.410
 2183SOL    HW2 7449   0.254   4.035   4.542
 2184SOL     OW 7450   1.194   5.336   3.755
 2184SOL    HW1 7451   1.200   5.243   3.792
 2184SOL    HW2 7452   1.135   5.336   3.675
 2185SOL     OW 7453   0.822   4.726   5.096
 2185SOL    HW1 7454   0.862   4.725   5.004
 2185SOL    HW2 7455   0.832   4.818   5.136
 2186SOL     OW 7456   0.916   4.634   4.015
 2186SOL    HW1 7457   0.979   4.672   3.947
 2186SOL    HW2 7458   0.956   4.551   4.054
 2187SOL     OW 7459   1.504   5.331   3.768
 2187SOL    HW1 7460   1.412   5.368   3.775
 2187SOL    HW2 7461   1.542   5.351   3.678
 2188SOL     OW 7462   0.372   5.012   5.214
 2188SOL    HW1 7463   0.359   5.105   5.180
 2188SOL    HW2 7464   0.288   4.960   5.201
 2189SOL     OW 7465   1.614   5.016   5.013
 2189SOL    HW1 7466   1.674   5.019   5.093
 2189SOL    HW2 7467   1.539   5.080   5.026
 2190SOL     OW 7468   1.039   4.822   4.420
 2190SOL    HW1 7469   0.969   4.775   4.474
 2190SOL    HW2 7470   1.098   4.754   4.377
 2191SOL     OW 7471   1.014   3.960   4.695
 2191SOL    HW1 7472   1.006   3.924   4.602
 2191SOL    HW2 7473   1.012   3.884   4.760
 2192SOL     OW 7474   0.590   5.211   4.215
 2192SOL    HW1 7475   0.632   5.153   4.145
 2192SOL    HW2 7476   0.546   5.290   4.171
 2193SOL     OW 7477   1.709   4.109   5.105
 2193SOL    HW1 7478   1.782   4.178   5.109
 2193SOL    HW2 7479   1.737   4.034   5.046
 2194SOL     OW 7480   0.255   5.072   4.014
 2194SOL    HW1 7481   0.159   5.073   3.987
 2194SOL    HW2 7482   0.267   5.125   4.098
 2195SOL     OW 7483   0.105   4.737   5.450
 2195SOL    HW1 7484   0.028   4.704   5.504
 2195SOL    HW2 7485   0.190   4.707   5.492
 2196SOL     OW 7486   0.672   3.927   5.213
 2196SOL    HW1 7487   0.762   3.911   5.173
 2196SOL    HW2 7488   0.680   3.932   5.312
 2197SOL     OW 7489   0.075   4.069   3.757
 2197SOL    HW1 7490  -0.017   4.041   3.728
 2197SOL    HW2 7491   0.106   4.146   3.701
 2198SOL     OW 7492   1.440   4.580   5.122
 2198SOL    HW1 7493   1.383   4.632   5.059
 2198SOL    HW2 7494   1.536   4.592   5.098
 2199SOL     OW 7495   0.072   3.890   4.042
 2199SOL    HW1 7496   0.055   3.973   3.988
 2199SOL    HW2 7497   0.162   3.853   4.020
 2200SOL     OW 7498   1.183   5.059   3.843
 2200SOL    HW1 7499   1.084   5.048   3.845
 2200SOL    HW2 7500   1.217   5.074   3.936
 2201SOL     OW 7501   0.613   4.566   5.155
 2201SOL    HW1 7502   0.669   4.647   5.138
 2201SOL    HW2 7503   0.672   4.486   5.158
 2202SOL     OW 7504   1.493   5.491   4.683
 2202SOL    HW1 7505   1.526   5.555   4.614
 2202SOL    HW2 7506   1.559   5.485   4.758
 2203SOL     OW 7507   0.716   4.289   5.432
 2203SOL    HW1 7508   0.735   4.354   5.506
 2203SOL    HW2 7509   0.776   4.209   5.441
 2204SOL     OW 7510   1.450   4.944   5.357
 2204SOL    HW1 7511   1.441   4.934   5.456
 2204SOL    HW2 7512   1.546   4.937   5.331
 2205SOL     OW 7513   0.390   5.465   5.284
 2205SOL    HW1 7514   0.299   5.506   5.282
 2205SOL    HW2 7515   0.383   5.371   5.316
 2206SOL     OW 7516   1.674   4.607   4.978
 2206SOL    HW1 7517   1.647   4.518   4.941
 2206SOL    HW2 7518   1.675   4.675   4.905
 2207SOL     OW 7519   1.225   4.049   4.173
 2207SOL    HW1 7520   1.290   3.975   4.162
 2207SOL    HW2 7521   1.245   4.099   4.257
 2208SOL     OW 7522   0.594   4.469   4.376
 2208SOL    HW1 7523   0.644   4.554   4.357
 2208SOL    HW2 7524   0.506   4.471   4.328
 2209SOL     OW 7525   1.777   4.066   5.366
 2209SOL    HW1 7526   1.760   4.097   5.272
 2209SOL    HW2 7527   1.693   4.029   5.404
 2210SOL     OW 7528   1.730   4.658   5.241
 2210SOL    HW1 7529   1.768   4.749   5.256
 2210SOL    HW2 7530   1.722   4.641   5.142
 2211SOL     OW 7531   0.859   5.098   3.740
 2211SOL    HW1 7532   0.813   5.113   3.828
 2211SOL    HW2 7533   0.903   5.183   3.710
 2212SOL     OW 7534   0.661   5.514   4.677
 2212SOL    HW1 7535   0.615   5.602   4.664
 2212SOL    HW2 7536   0.760   5.526   4.670
 2213SOL     OW 7537   0.859   4.680   4.585
 2213SOL    HW1 7538   0.913   4.611   4.633
 2213SOL    HW2 7539   0.827   4.749   4.651
 2214SOL     OW 7540   1.083   4.708   3.811
 2214SOL    HW1 7541   1.060   4.761   3.729
 2214SOL    HW2 7542   1.164   4.652   3.792
 2215SOL     OW 7543   1.861   5.293   4.575
 2215SOL    HW1 7544   1.790   5.281   4.505
 2215SOL    HW2 7545   1.862   5.214   4.635
 2216SOL     OW 7546   0.221   5.038   5.568
 2216SOL    HW1 7547   0.156   4.965   5.547
 2216SOL    HW2 7548   0.225   5.052   5.666
 2217SOL     OW 7549   0.079   4.964   4.377
 2217SOL    HW1 7550   0.078   4.917   4.465
 2217SOL    HW2 7551   0.161   4.936   4.326
 2218SOL     OW 7552   0.672   5.115   5.348
 2218SOL    HW1 7553   0.594   5.065   5.386
 2218SOL    HW2 7554   0.669   5.210   5.379
 2219SOL     OW 7555   1.824   3.916   4.951
 2219SOL    HW1 7556   1.820   3.826   4.995
 2219SOL    HW2 7557   1.827   3.905   4.852
 2220SOL     OW 7558   0.428   4.148   4.244
 2220SOL    HW1 7559   0.458   4.076   4.182
 2220SOL    HW2 7560   0.389   4.108   4.327
 2221SOL     OW 7561   1.705   5.211   4.828
 2221SOL    HW1 7562   1.612   5.186   4.801
 2221SOL    HW2 7563   1.731   5.161   4.910
 2222SOL     OW 7564   0.317   4.271   5.004
 2222SOL    HW1 7565   0.355   4.212   5.076
 2222SOL    HW2 7566   0.357   4.245   4.916
 2223SOL     OW 7567   0.812   5.310   4.411
 2223SOL    HW1 7568   0.844   5.320   4.317
 2223SOL    HW2 7569   0.733   5.248   4.413
 2224SOL     OW 7570   1.001   3.758   4.878
 2224SOL    HW1 7571   0.938   3.686   4.847
 2224SOL    HW2 7572   1.094   3.722   4.878
 2225SOL     OW 7573   0.770   5.054   4.025
 2225SOL    HW1 7574   0.724   4.967   4.042
 2225SOL    HW2 7575   0.861   5.051   4.066
 2226SOL     OW 7576   0.618   5.291   5.008
 2226SOL    HW1 7577   0.613   5.373   5.065
 2226SOL    HW2 7578   0.707   5.288   4.963
 2227SOL     OW 7579   1.352   3.776   3.892
 2227SOL    HW1 7580   1.387   3.735   3.808
 2227SOL    HW2 7581   1.262   3.738   3.912
 2228SOL     OW 7582   1.300   4.177   4.415
 2228SOL    HW1 7583   1.241   4.257   4.419
 2228SOL    HW2 7584   1.315   4.142   4.508
 2229SOL     OW 7585   1.593   3.945   4.606
 2229SOL    HW1 7586   1.509   3.944   4.660
 2229SOL    HW2 7587   1.595   4.028   4.550
 2230SOL     OW 7588   0.039   4.801   4.024
 2230SOL    HW1 7589   0.138   4.790   4.015
 2230SOL    HW2 7590  -0.001   4.715   4.056
 2231SOL     OW 7591   0.875   5.370   4.061
 2231SOL    HW1 7592   0.798   5.335   4.007
 2231SOL    HW2 7593   0.843   5.441   4.123
 2232SOL     OW 7594   0.230   4.352   5.699
 2232SOL    HW1 7595   0.137   4.350   5.736
 2232SOL    HW2 7596   0.231   4.313   5.607
 2233SOL     OW 7597   0.225   3.999   6.582
 2233SOL    HW1 7598   0.260   3.982   6.674
 2233SOL    HW2 7599   0.137   3.954   6.570
 2234SOL     OW 7600   0.019   4.092   6.233
 2234SOL    HW1 7601  -0.063   4.135   6.272
 2234SOL    HW2 7602  -0.009   4.019   6.170
 2235SOL     OW 7603   0.569   4.999   6.751
 2235SOL    HW1 7604   0.476   4.992   6.714
 2235SOL    HW2 7605   0.580   5.088   6.795
 2236SOL     OW 7606   1.555   5.235   6.289
 2236SOL    HW1 7607   1.498   5.219   6.370
 2236SOL    HW2 7608   1.496   5.245   6.209
 2237SOL     OW 7609   1.135   4.427   6.303
 2237SOL    HW1 7610   1.192   4.505   6.278
 2237SOL    HW2 7611   1.075   4.453   6.379
 2238SOL     OW 7612   1.755   4.331   5.817
 2238SOL    HW1 7613   1.743   4.318   5.718
 2238SOL    HW2 7614   1.725   4.250   5.866
 2239SOL     OW 7615   0.768   4.868   6.609
 2239SOL    HW1 7616   0.690   4.885   6.669
 2239SOL    HW2 7617   0.802   4.955   6.573
 2240SOL     OW 7618   0.685   4.736   6.251
 2240SOL    HW1 7619   0.754   4.720   6.321
 2240SOL    HW2 7620   0.612   4.793   6.289
 2241SOL     OW 7621   0.335   5.159   6.647
 2241SOL    HW1 7622   0.257   5.128   6.594
 2241SOL    HW2 7623   0.393   5.217   6.590
 2242SOL     OW 7624   1.603   4.171   6.323
 2242SOL    HW1 7625   1.529   4.217   6.273
 2242SOL    HW2 7626   1.654   4.239   6.376
 2243SOL     OW 7627   0.231   5.437   6.069
 2243SOL    HW1 7628   0.265   5.514   6.123
 2243SOL    HW2 7629   0.275   5.437   5.979
 2244SOL     OW 7630   0.230   5.158   6.124
 2244SOL    HW1 7631   0.204   5.254   6.124
 2244SOL    HW2 7632   0.159   5.104   6.169
 2245SOL     OW 7633   0.240   4.815   6.472
 2245SOL    HW1 7634   0.254   4.731   6.524
 2245SOL    HW2 7635   0.185   4.879   6.527
 2246SOL     OW 7636   0.620   5.510   7.025
 2246SOL    HW1 7637   0.528   5.493   7.060
 2246SOL    HW2 7638   0.648   5.602   7.051
 2247SOL     OW 7639   0.606   4.688   5.709
 2247SOL    HW1 7640   0.613   4.772   5.655
 2247SOL    HW2 7641   0.652   4.701   5.797
 2248SOL     OW 7642   0.122   4.367   6.149
 2248SOL    HW1 7643   0.077   4.279   6.166
 2248SOL    HW2 7644   0.121   4.421   6.233
 2249SOL     OW 7645   1.842   5.491   5.945
 2249SOL    HW1 7646   1.896   5.462   6.025
 2249SOL    HW2 7647   1.872   5.581   5.916
 2250SOL     OW 7648   0.027   5.320   5.703
 2250SOL    HW1 7649   0.008   5.224   5.724
 2250SOL    HW2 7650  -0.006   5.378   5.778
 2251SOL     OW 7651   1.689   4.646   6.198
 2251SOL    HW1 7652   1.784   4.617   6.206
 2251SOL    HW2 7653   1.681   4.711   6.123
 2252SOL     OW 7654   1.641   4.832   6.018
 2252SOL    HW1 7655   1.727   4.834   5.966
 2252SOL    HW2 7656   1.655   4.879   6.106
 2253SOL     OW 7657   0.613   5.089   6.312
 2253SOL    HW1 7658   0.564   5.002   6.321
 2253SOL    HW2 7659   0.590   5.132   6.225
 2254SOL     OW 7660   0.809   3.728   6.088
 2254SOL    HW1 7661   0.849   3.819   6.079
 2254SOL    HW2 7662   0.709   3.736   6.094
 2255SOL     OW 7663   0.197   4.700   6.850
 2255SOL    HW1 7664   0.286   4.655   6.836
 2255SOL    HW2 7665   0.124   4.635   6.831
 2256SOL     OW 7666   1.525   4.723   5.776
 2256SOL    HW1 7667   1.462   4.647   5.789
 2256SOL    HW2 7668   1.573   4.741   5.862
 2257SOL     OW 7669   1.466   5.141   6.539
 2257SOL    HW1 7670   1.407   5.147   6.619
 2257SOL    HW2 7671   1.451   5.053   6.493
 2258SOL     OW 7672   1.667   5.438   6.158
 2258SOL    HW1 7673   1.626   5.415   6.070
 2258SOL    HW2 7674   1.649   5.364   6.223
 2259SOL     OW 7675   0.598   4.453   5.856
 2259SOL    HW1 7676   0.622   4.522   5.788
 2259SOL    HW2 7677   0.520   4.486   5.910
 2260SOL     OW 7678   1.281   4.069   6.530
 2260SOL    HW1 7679   1.195   4.019   6.517
 2260SOL    HW2 7680   1.343   4.015   6.586
 2261SOL     OW 7681   1.576   5.386   5.893
 2261SOL    HW1 7682   1.665   5.432   5.896
 2261SOL    HW2 7683   1.555   5.362   5.798
 2262SOL     OW 7684   0.807   4.329   7.051
 2262SOL    HW1 7685   0.760   4.326   7.140
 2262SOL    HW2 7686   0.756   4.274   6.985
 2263SOL     OW 7687   0.991   4.134   6.828
 2263SOL    HW1 7688   0.914   4.168   6.882
 2263SOL    HW2 7689   0.957   4.083   6.749
 2264SOL     OW 7690   1.041   4.425   6.015
 2264SOL    HW1 7691   1.067   4.421   6.111
 2264SOL    HW2 7692   0.956   4.374   6.001
 2265SOL     OW 7693   0.076   4.535   6.375
 2265SOL    HW1 7694   0.175   4.523   6.384
 2265SOL    HW2 7695   0.052   4.630   6.396
 2266SOL     OW 7696   0.130   5.545   7.157
 2266SOL    HW1 7697   0.120   5.530   7.256
 2266SOL    HW2 7698   0.044   5.581   7.121
 2267SOL     OW 7699   0.865   4.072   5.781
 2267SOL    HW1 7700   0.924   4.135   5.732
 2267SOL    HW2 7701   0.884   3.978   5.752
 2268SOL     OW 7702   1.362   4.868   6.131
 2268SOL    HW1 7703   1.445   4.839   6.083
 2268SOL    HW2 7704   1.313   4.935   6.075
 2269SOL     OW 7705   0.550   3.920   6.471
 2269SOL    HW1 7706   0.545   3.915   6.571
 2269SOL    HW2 7707   0.552   4.016   6.442
 2270SOL     OW 7708   1.008   5.180   6.063
 2270SOL    HW1 7709   0.962   5.252   6.011
 2270SOL    HW2 7710   1.004   5.200   6.161
 2271SOL     OW 7711   0.351   5.525   6.439
 2271SOL    HW1 7712   0.401   5.439   6.445
 2271SOL    HW2 7713   0.416   5.602   6.436
 2272SOL     OW 7714   1.795   4.790   6.459
 2272SOL    HW1 7715   1.733   4.775   6.383
 2272SOL    HW2 7716   1.743   4.801   6.544
 2273SOL     OW 7717   0.321   4.667   5.828
 2273SOL    HW1 7718   0.403   4.706   5.786
 2273SOL    HW2 7719   0.294   4.585   5.779
 2274SOL     OW 7720   1.458   4.459   6.314
 2274SOL    HW1 7721   1.453   4.394   6.389
 2274SOL    HW2 7722   1.538   4.518   6.327
 2275SOL     OW 7723   1.111   5.500   5.823
 2275SOL    HW1 7724   1.051   5.438   5.873
 2275SOL    HW2 7725   1.142   5.456   5.738
 2276SOL     OW 7726   1.632   5.101   5.667
 2276SOL    HW1 7727   1.600   5.195   5.657
 2276SOL    HW2 7728   1.556   5.038   5.655
 2277SOL     OW 7729   0.464   5.467   5.909
 2277SOL    HW1 7730   0.497   5.506   5.995
 2277SOL    HW2 7731   0.540   5.460   5.844
 2278SOL     OW 7732   1.400   3.831   6.012
 2278SOL    HW1 7733   1.376   3.794   5.922
 2278SOL    HW2 7734   1.499   3.847   6.016
 2279SOL     OW 7735   0.249   5.509   6.827
 2279SOL    HW1 7736   0.306   5.444   6.877
 2279SOL    HW2 7737   0.233   5.476   6.734
 2280SOL     OW 7738   0.940   5.422   6.490
 2280SOL    HW1 7739   1.020   5.365   6.511
 2280SOL    HW2 7740   0.891   5.382   6.413
 2281SOL     OW 7741   0.382   4.424   6.066
 2281SOL    HW1 7742   0.427   4.334   6.063
 2281SOL    HW2 7743   0.288   4.413   6.099
 2282SOL     OW 7744   0.614   3.846   5.703
 2282SOL    HW1 7745   0.712   3.824   5.710
 2282SOL    HW2 7746   0.583   3.829   5.610
 2283SOL     OW 7747   0.888   5.238   6.781
 2283SOL    HW1 7748   0.865   5.213   6.687
 2283SOL    HW2 7749   0.949   5.169   6.820
 2284SOL     OW 7750   0.803   5.126   6.510
 2284SOL    HW1 7751   0.893   5.140   6.468
 2284SOL    HW2 7752   0.732   5.128   6.439
 2285SOL     OW 7753   0.922   4.227   6.485
 2285SOL    HW1 7754   0.897   4.218   6.389
 2285SOL    HW2 7755   0.970   4.145   6.516
 2286SOL     OW 7756   0.539   3.788   6.098
 2286SOL    HW1 7757   0.458   3.789   6.156
 2286SOL    HW2 7758   0.542   3.871   6.043
 2287SOL     OW 7759   1.434   4.912   5.627
 2287SOL    HW1 7760   1.466   4.836   5.684
 2287SOL    HW2 7761   1.342   4.939   5.657
 2288SOL     OW 7762   0.297   3.759   5.757
 2288SOL    HW1 7763   0.346   3.843   5.736
 2288SOL    HW2 7764   0.359   3.694   5.802
 2289SOL     OW 7765   0.935   3.960   6.066
 2289SOL    HW1 7766   0.887   4.001   5.988
 2289SOL    HW2 7767   1.034   3.958   6.047
 2290SOL     OW 7768   1.227   5.294   6.379
 2290SOL    HW1 7769   1.248   5.368   6.314
 2290SOL    HW2 7770   1.295   5.294   6.452
 2291SOL     OW 7771   0.459   4.876   6.327
 2291SOL    HW1 7772   0.388   4.849   6.392
 2291SOL    HW2 7773   0.433   4.848   6.234
 2292SOL     OW 7774   1.271   5.521   6.177
 2292SOL    HW1 7775   1.315   5.585   6.113
 2292SOL    HW2 7776   1.221   5.573   6.247
 2293SOL     OW 7777   1.032   4.273   5.602
 2293SOL    HW1 7778   0.991   4.355   5.563
 2293SOL    HW2 7779   1.096   4.299   5.675
 2294SOL     OW 7780   0.561   3.946   6.733
 2294SOL    HW1 7781   0.599   3.862   6.770
 2294SOL    HW2 7782   0.473   3.965   6.777
 2295SOL     OW 7783   0.866   4.178   6.228
 2295SOL    HW1 7784   0.834   4.250   6.166
 2295SOL    HW2 7785   0.890   4.097   6.175
 2296SOL     OW 7786   1.017   3.763   6.339
 2296SOL    HW1 7787   0.945   3.768   6.270
 2296SOL    HW2 7788   0.993   3.694   6.408
 2297SOL     OW 7789   1.429   4.897   6.453
 2297SOL    HW1 7790   1.374   4.813   6.446
 2297SOL    HW2 7791   1.455   4.926   6.361
 2298SOL     OW 7792   1.466   4.314   6.578
 2298SOL    HW1 7793   1.436   4.219   6.585
 2298SOL    HW2 7794   1.539   4.330   6.644
 2299SOL     OW 7795   1.857   4.557   5.963
 2299SOL    HW1 7796   1.899   4.493   6.027
 2299SOL    HW2 7797   1.819   4.506   5.885
 2300SOL     OW 7798   0.488   5.109   5.760
 2300SOL    HW1 7799   0.401   5.094   5.807
 2300SOL    HW2 7800   0.471   5.135   5.665
 2301SOL     OW 7801   1.664   5.004   6.243
 2301SOL    HW1 7802   1.763   5.012   6.257
 2301SOL    HW2 7803   1.619   5.088   6.274
 2302SOL     OW 7804   1.390   4.299   5.664
 2302SOL    HW1 7805   1.336   4.278   5.745
 2302SOL    HW2 7806   1.481   4.258   5.673
 2303SOL     OW 7807   0.527   3.980   5.914
 2303SOL    HW1 7808   0.554   3.921   5.839
 2303SOL    HW2 7809   0.527   4.075   5.883
 2304SOL     OW 7810   1.754   4.947   7.174
 2304SOL    HW1 7811   1.845   4.908   7.161
 2304SOL    HW2 7812   1.762   5.043   7.198
 2305SOL     OW 7813   1.111   4.919   6.686
 2305SOL    HW1 7814   1.071   4.963   6.767
 2305SOL    HW2 7815   1.070   4.956   6.603
 2306SOL     OW 7816   1.638   4.823   6.665
 2306SOL    HW1 7817   1.643   4.904   6.724
 2306SOL    HW2 7818   1.552   4.825   6.614
 2307SOL     OW 7819   0.705   4.774   5.954
 2307SOL    HW1 7820   0.691   4.781   6.053
 2307SOL    HW2 7821   0.789   4.723   5.936
 2308SOL     OW 7822   0.410   4.537   6.837
 2308SOL    HW1 7823   0.496   4.549   6.887
 2308SOL    HW2 7824   0.368   4.450   6.864
 2309SOL     OW 7825   1.274   4.110   6.848
 2309SOL    HW1 7826   1.295   4.184   6.912
 2309SOL    HW2 7827   1.185   4.127   6.805
 2310SOL     OW 7828   0.064   5.288   6.917
 2310SOL    HW1 7829   0.018   5.370   6.883
 2310SOL    HW2 7830   0.162   5.307   6.926
 2311SOL     OW 7831   0.367   4.824   6.087
 2311SOL    HW1 7832   0.360   4.907   6.031
 2311SOL    HW2 7833   0.371   4.744   6.027
 2312SOL     OW 7834   0.566   4.261   6.451
 2312SOL    HW1 7835   0.578   4.327   6.377
 2312SOL    HW2 7836   0.612   4.295   6.534
 2313SOL     OW 7837   1.252   5.072   5.974
 2313SOL    HW1 7838   1.302   5.149   6.014
 2313SOL    HW2 7839   1.157   5.074   6.006
 2314SOL     OW 7840   1.272   5.169   6.728
 2314SOL    HW1 7841   1.319   5.182   6.815
 2314SOL    HW2 7842   1.206   5.095   6.737
 2315SOL     OW 7843   1.582   4.363   6.058
 2315SOL    HW1 7844   1.551   4.424   6.131
 2315SOL    HW2 7845   1.632   4.415   5.989
 2316SOL     OW 7846   0.354   5.234   6.915
 2316SOL    HW1 7847   0.333   5.190   6.828
 2316SOL    HW2 7848   0.451   5.260   6.918
 2317SOL     OW 7849   0.573   4.594   6.615
 2317SOL    HW1 7850   0.617   4.683   6.606
 2317SOL    HW2 7851   0.510   4.594   6.692
 2318SOL     OW 7852   1.360   4.586   6.631
 2318SOL    HW1 7853   1.285   4.586   6.565
 2318SOL    HW2 7854   1.397   4.494   6.640
 2319SOL     OW 7855   1.209   4.249   5.861
 2319SOL    HW1 7856   1.222   4.165   5.915
 2319SOL    HW2 7857   1.180   4.323   5.921
 2320SOL     OW 7858   0.307   3.937   6.817
 2320SOL    HW1 7859   0.284   3.974   6.907
 2320SOL    HW2 7860   0.277   3.842   6.811
 2321SOL     OW 7861   0.037   5.034   6.868
 2321SOL    HW1 7862   0.090   4.985   6.936
 2321SOL    HW2 7863   0.059   5.132   6.873
 2322SOL     OW 7864   0.732   4.358   6.650
 2322SOL    HW1 7865   0.791   4.332   6.574
 2322SOL    HW2 7866   0.704   4.454   6.639
 2323SOL     OW 7867   0.307   3.787   6.204
 2323SOL    HW1 7868   0.296   3.881   6.237
 2323SOL    HW2 7869   0.302   3.724   6.281
 2324SOL     OW 7870   1.622   4.091   5.960
 2324SOL    HW1 7871   1.624   4.015   6.024
 2324SOL    HW2 7872   1.574   4.168   6.000
 2325SOL     OW 7873   1.023   4.490   6.552
 2325SOL    HW1 7874   1.038   4.511   6.648
 2325SOL    HW2 7875   0.993   4.395   6.543
 2326SOL     OW 7876   1.859   5.242   7.191
 2326SOL    HW1 7877   1.873   5.269   7.096
 2326SOL    HW2 7878   1.942   5.264   7.244
 2327SOL     OW 7879   1.540   3.998   5.711
 2327SOL    HW1 7880   1.479   3.923   5.734
 2327SOL    HW2 7881   1.562   4.050   5.794
 2328SOL     OW 7882   1.303   4.562   5.628
 2328SOL    HW1 7883   1.337   4.469   5.643
 2328SOL    HW2 7884   1.321   4.589   5.533
 2329SOL     OW 7885   1.068   5.057   6.435
 2329SOL    HW1 7886   1.075   4.973   6.380
 2329SOL    HW2 7887   1.130   5.126   6.399
 2330SOL     OW 7888   0.319   4.534   6.535
 2330SOL    HW1 7889   0.412   4.570   6.540
 2330SOL    HW2 7890   0.313   4.449   6.587
 2331SOL     OW 7891   0.339   4.233   6.592
 2331SOL    HW1 7892   0.287   4.150   6.575
 2331SOL    HW2 7893   0.416   4.238   6.528
 2332SOL     OW 7894   1.160   3.931   7.063
 2332SOL    HW1 7895   1.160   3.995   7.140
 2332SOL    HW2 7896   1.188   3.979   6.980
 2333SOL     OW 7897   0.008   5.050   5.786
 2333SOL    HW1 7898  -0.085   5.071   5.755
 2333SOL    HW2 7899   0.018   4.951   5.799
 2334SOL     OW 7900   0.088   5.525   6.513
 2334SOL    HW1 7901   0.046   5.439   6.486
 2334SOL    HW2 7902   0.182   5.528   6.479
 2335SOL     OW 7903   0.504   5.292   6.496
 2335SOL    HW1 7904   0.570   5.366   6.505
 2335SOL    HW2 7905   0.548   5.213   6.454
 2336SOL     OW 7906   1.002   4.520   6.824
 2336SOL    HW1 7907   1.043   4.488   6.910
 2336SOL    HW2 7908   0.906   4.493   6.821
 2337SOL     OW 7909   0.040   4.268   6.700
 2337SOL    HW1 7910   0.125   4.235   6.659
 2337SOL    HW2 7911   0.053   4.283   6.798
 2338SOL     OW 7912   0.815   4.296   5.911
 2338SOL    HW1 7913   0.822   4.207   5.865
 2338SOL    HW2 7914   0.721   4.330   5.903
 2339SOL     OW 7915   1.657   4.328   6.792
 2339SOL    HW1 7916   1.619   4.259   6.854
 2339SOL    HW2 7917   1.739   4.292   6.748
 2340SOL     OW 7918   0.671   4.188   6.855
 2340SOL    HW1 7919   0.637   4.099   6.825
 2340SOL    HW2 7920   0.697   4.242   6.775
 2341SOL     OW 7921   0.930   5.402   7.051
 2341SOL    HW1 7922   0.906   5.384   6.956
 2341SOL    HW2 7923   0.960   5.496   7.061
 2342SOL     OW 7924   0.473   4.224   5.777
 2342SOL    HW1 7925   0.534   4.304   5.781
 2342SOL    HW2 7926   0.378   4.255   5.784
 2343SOL     OW 7927   0.159   4.861   7.052
 2343SOL    HW1 7928   0.181   4.800   7.128
 2343SOL    HW2 7929   0.169   4.812   6.966
 2344SOL     OW 7930   1.347   4.783   6.820
 2344SOL    HW1 7931   1.371   4.720   6.746
 2344SOL    HW2 7932   1.257   4.823   6.802
 2345SOL     OW 7933   1.302   4.579   5.895
 2345SOL    HW1 7934   1.216   4.548   5.937
 2345SOL    HW2 7935   1.298   4.565   5.796
 2346SOL     OW 7936   1.759   5.471   6.740
 2346SOL    HW1 7937   1.820   5.501   6.667
 2346SOL    HW2 7938   1.721   5.382   6.718
 2347SOL     OW 7939   1.252   5.455   6.714
 2347SOL    HW1 7940   1.336   5.460   6.660
 2347SOL    HW2 7941   1.229   5.359   6.732
 2348SOL     OW 7942   0.083   4.982   6.608
 2348SOL    HW1 7943   0.078   4.981   6.708
 2348SOL    HW2 7944   0.000   4.941   6.570
 2349SOL     OW 7945   1.726   3.859   6.109
 2349SOL    HW1 7946   1.799   3.842   6.042
 2349SOL    HW2 7947   1.695   3.772   6.147
 2350SOL     OW 7948   1.388   5.297   6.063
 2350SOL    HW1 7949   1.455   5.309   5.989
 2350SOL    HW2 7950   1.348   5.386   6.086
 2351SOL     OW 7951   1.280   4.651   6.258
 2351SOL    HW1 7952   1.340   4.570   6.260
 2351SOL    HW2 7953   1.320   4.720   6.198
 2352SOL     OW 7954   0.672   5.340   5.740
 2352SOL    HW1 7955   0.681   5.350   5.641
 2352SOL    HW2 7956   0.632   5.251   5.761
 2353SOL     OW 7957   1.841   3.899   6.549
 2353SOL    HW1 7958   1.880   3.814   6.513
 2353SOL    HW2 7959   1.743   3.901   6.530
 2354SOL     OW 7960   0.263   4.050   6.306
 2354SOL    HW1 7961   0.184   4.101   6.272
 2354SOL    HW2 7962   0.254   4.035   6.404
 2355SOL     OW 7963   1.194   5.336   5.617
 2355SOL    HW1 7964   1.200   5.243   5.654
 2355SOL    HW2 7965   1.135   5.336   5.537
 2356SOL     OW 7966   0.822   4.726   6.958
 2356SOL    HW1 7967   0.862   4.725   6.866
 2356SOL    HW2 7968   0.832   4.818   6.998
 2357SOL     OW 7969   0.916   4.634   5.877
 2357SOL    HW1 7970   0.979   4.672   5.809
 2357SOL    HW2 7971   0.956   4.551   5.916
 2358SOL     OW 7972   1.504   5.331   5.630
 2358SOL    HW1 7973   1.412   5.368   5.637
 2358SOL    HW2 7974   1.542   5.351   5.540
 2359SOL     OW 7975   1.614   5.016   6.875
 2359SOL    HW1 7976   1.674   5.019   6.955
 2359SOL    HW2 7977   1.539   5.080   6.888
 2360SOL     OW 7978   1.039   4.822   6.282
 2360SOL    HW1 7979   0.969   4.775   6.336
 2360SOL    HW2 7980   1.098   4.754   6.239
 2361SOL     OW 7981   1.014   3.960   6.557
 2361SOL    HW1 7982   1.006   3.924   6.464
 2361SOL    HW2 7983   1.012   3.884   6.622
 2362SOL     OW 7984   0.590   5.211   6.077
 2362SOL    HW1 7985   0.632   5.153   6.007
 2362SOL    HW2 7986   0.546   5.290   6.033
 2363SOL     OW 7987   1.709   4.109   6.967
 2363SOL    HW1 7988   1.782   4.178   6.971
 2363SOL    HW2 7989   1.737   4.034   6.908
 2364SOL     OW 7990   0.255   5.072   5.876
 2364SOL    HW1 7991   0.159   5.073   5.849
 2364SOL    HW2 7992   0.267   5.125   5.960
 2365SOL     OW 7993   0.672   3.927   7.075
 2365SOL    HW1 7994   0.762   3.911   7.035
 2365SOL    HW2 7995   0.680   3.932   7.174
 2366SOL     OW 7996   0.075   4.069   5.619
 2366SOL    HW1 7997  -0.017   4.041   5.590
 2366SOL    HW2 7998   0.106   4.146   5.563
 2367SOL     OW 7999   0.072   3.890   5.904
 2367SOL    HW1 8000   0.055   3.973   5.850
 2367SOL    HW2 8001   0.162   3.853   5.882
 2368SOL     OW 8002   1.183   5.059   5.705
 2368SOL    HW1 8003   1.084   5.048   5.707
 2368SOL    HW2 8004   1.217   5.074   5.798
 2369SOL     OW 8005   1.493   5.491   6.545
 2369SOL    HW1 8006   1.526   5.555   6.476
 2369SOL    HW2 8007   1.559   5.485   6.620
 2370SOL     OW 8008   1.450   4.944   7.219
 2370SOL    HW1 8009   1.441   4.934   7.318
 2370SOL    HW2 8010   1.546   4.937   7.193
 2371SOL     OW 8011   0.390   5.465   7.146
 2371SOL    HW1 8012   0.299   5.506   7.144
 2371SOL    HW2 8013   0.383   5.371   7.178
 2372SOL     OW 8014   1.674   4.607   6.840
 2372SOL    HW1 8015   1.647   4.518   6.803
 2372SOL    HW2 8016   1.675   4.675   6.767
 2373SOL     OW 8017   1.225   4.049   6.035
 2373SOL    HW1 8018   1.290   3.975   6.024
 2373SOL    HW2 8019   1.245   4.099   6.119
 2374SOL     OW 8020   0.594   4.469   6.238
 2374SOL    HW1 8021   0.644   4.554   6.219
 2374SOL    HW2 8022   0.506   4.471   6.190
 2375SOL     OW 8023   1.730   4.658   7.103
 2375SOL    HW1 8024   1.768   4.749   7.118
 2375SOL    HW2 8025   1.722   4.641   7.004
 2376SOL     OW 8026   0.859   5.098   5.602
 2376SOL    HW1 8027   0.813   5.113   5.690
 2376SOL    HW2 8028   0.903   5.183   5.572
 2377SOL     OW 8029   0.661   5.514   6.539
 2377SOL    HW1 8030   0.615   5.602   6.526
 2377SOL    HW2 8031   0.760   5.526   6.532
 2378SOL     OW 8032   0.859   4.680   6.447
 2378SOL    HW1 8033   0.913   4.611   6.495
 2378SOL    HW2 8034   0.827   4.749   6.513
 2379SOL     OW 8035   1.083   4.708   5.673
 2379SOL    HW1 8036   1.060   4.761   5.591
 2379SOL    HW2 8037   1.164   4.652   5.654
 2380SOL     OW 8038   1.861   5.293   6.437
 2380SOL    HW1 8039   1.790   5.281   6.367
 2380SOL    HW2 8040   1.862   5.214   6.497
 2381SOL     OW 8041   0.079   4.964   6.239
 2381SOL    HW1 8042   0.078   4.917   6.327
 2381SOL    HW2 8043   0.161   4.936   6.188
 2382SOL     OW 8044   1.824   3.916   6.813
 2382SOL    HW1 8045   1.820   3.826   6.857
 2382SOL    HW2 8046   1.827   3.905   6.714
 2383SOL     OW 8047   0.428   4.148   6.106
 2383SOL    HW1 8048   0.458   4.076   6.044
 2383SOL    HW2 8049   0.389   4.108   6.189
 2384SOL     OW 8050   1.705   5.211   6.690
 2384SOL    HW1 8051   1.612   5.186   6.663
 2384SOL    HW2 8052   1.731   5.161   6.772
 2385SOL     OW 8053   0.812   5.310   6.273
 2385SOL    HW1 8054   0.844   5.320   6.179
 2385SOL    HW2 8055   0.733   5.248   6.275
 2386SOL     OW 8056   1.424   3.938   6.698
 2386SOL    HW1 8057   1.476   3.873   6.753
 2386SOL    HW2 8058   1.375   4.001   6.759
 2387SOL     OW 8059   1.001   3.758   6.740
 2387SOL    HW1 8060   0.938   3.686   6.709
 2387SOL    HW2 8061   1.094   3.722   6.740
 2388SOL     OW 8062   0.770   5.054   5.887
 2388SOL    HW1 8063   0.724   4.967   5.904
 2388SOL    HW2 8064   0.861   5.051   5.928
 2389SOL     OW 8065   0.618   5.291   6.870
 2389SOL    HW1 8066   0.613   5.373   6.927
 2389SOL    HW2 8067   0.707   5.288   6.825
 2390SOL     OW 8068   1.352   3.776   5.754
 2390SOL    HW1 8069   1.387   3.735   5.670
 2390SOL    HW2 8070   1.262   3.738   5.774
 2391SOL     OW 8071   1.300   4.177   6.277
 2391SOL    HW1 8072   1.241   4.257   6.281
 2391SOL    HW2 8073   1.315   4.142   6.370
 2392SOL     OW 8074   1.593   3.945   6.468
 2392SOL    HW1 8075   1.509   3.944   6.522
 2392SOL    HW2 8076   1.595   4.028   6.412
 2393SOL     OW 8077   0.039   4.801   5.886
 2393SOL    HW1 8078   0.138   4.790   5.877
 2393SOL    HW2 8079  -0.001   4.715   5.918
 2394SOL     OW 8080   0.875   5.370   5.923
 2394SOL    HW1 8081   0.798   5.335   5.869
 2394SOL    HW2 8082   0.843   5.441   5.985
 2395SOL     OW 8083   0.230   6.214   0.113
 2395SOL    HW1 8084   0.137   6.212   0.150
 2395SOL    HW2 8085   0.231   6.175   0.021
 2396SOL     OW 8086   0.225   5.861   0.996
 2396SOL    HW1 8087   0.260   5.844   1.088
 2396SOL    HW2 8088   0.137   5.816   0.984
 2397SOL     OW 8089   0.019   5.954   0.647
 2397SOL    HW1 8090  -0.063   5.997   0.686
 2397SOL    HW2 8091  -0.009   5.881   0.584
 2398SOL     OW 8092   0.569   6.861   1.165
 2398SOL    HW1 8093   0.476   6.854   1.128
 2398SOL    HW2 8094   0.580   6.950   1.209
 2399SOL     OW 8095   1.555   7.097   0.703
 2399SOL    HW1 8096   1.498   7.081   0.784
 2399SOL    HW2 8097   1.496   7.107   0.623
 2400SOL     OW 8098   1.135   6.289   0.717
 2400SOL    HW1 8099   1.192   6.367   0.692
 2400SOL    HW2 8100   1.075   6.315   0.793
 2401SOL     OW 8101   1.755   6.193   0.231
 2401SOL    HW1 8102   1.743   6.180   0.132
 2401SOL    HW2 8103   1.725   6.112   0.280
 2402SOL     OW 8104   0.768   6.730   1.023
 2402SOL    HW1 8105   0.690   6.747   1.083
 2402SOL    HW2 8106   0.802   6.817   0.987
 2403SOL     OW 8107   0.850   6.384   1.823
 2403SOL    HW1 8108   0.846   6.460   1.888
 2403SOL    HW2 8109   0.872   6.420   1.732
 2404SOL     OW 8110   0.685   6.598   0.665
 2404SOL    HW1 8111   0.754   6.582   0.735
 2404SOL    HW2 8112   0.612   6.655   0.703
 2405SOL     OW 8113   0.686   6.747   1.803
 2405SOL    HW1 8114   0.746   6.826   1.817
 2405SOL    HW2 8115   0.600   6.778   1.762
 2406SOL     OW 8116   0.335   7.021   1.061
 2406SOL    HW1 8117   0.257   6.990   1.008
 2406SOL    HW2 8118   0.393   7.079   1.004
 2407SOL     OW 8119   0.438   5.978   1.499
 2407SOL    HW1 8120   0.520   5.922   1.508
 2407SOL    HW2 8121   0.357   5.920   1.503
 2408SOL     OW 8122   1.603   6.033   0.737
 2408SOL    HW1 8123   1.529   6.079   0.687
 2408SOL    HW2 8124   1.654   6.101   0.790
 2409SOL     OW 8125   0.240   6.677   0.886
 2409SOL    HW1 8126   0.254   6.593   0.938
 2409SOL    HW2 8127   0.185   6.741   0.941
 2410SOL     OW 8128   0.606   6.550   0.123
 2410SOL    HW1 8129   0.613   6.634   0.069
 2410SOL    HW2 8130   0.652   6.563   0.211
 2411SOL     OW 8131   1.594   5.700   1.480
 2411SOL    HW1 8132   1.576   5.767   1.408
 2411SOL    HW2 8133   1.591   5.746   1.569
 2412SOL     OW 8134   0.122   6.229   0.563
 2412SOL    HW1 8135   0.077   6.141   0.580
 2412SOL    HW2 8136   0.121   6.283   0.647
 2413SOL     OW 8137   1.689   6.508   0.612
 2413SOL    HW1 8138   1.784   6.479   0.620
 2413SOL    HW2 8139   1.681   6.573   0.537
 2414SOL     OW 8140   1.641   6.694   0.432
 2414SOL    HW1 8141   1.727   6.696   0.380
 2414SOL    HW2 8142   1.655   6.741   0.520
 2415SOL     OW 8143   0.113   6.323   1.597
 2415SOL    HW1 8144   0.201   6.310   1.642
 2415SOL    HW2 8145   0.100   6.420   1.575
 2416SOL     OW 8146   1.293   6.814   1.423
 2416SOL    HW1 8147   1.330   6.741   1.365
 2416SOL    HW2 8148   1.345   6.819   1.508
 2417SOL     OW 8149   0.809   5.590   0.502
 2417SOL    HW1 8150   0.849   5.681   0.493
 2417SOL    HW2 8151   0.709   5.598   0.508
 2418SOL     OW 8152   0.197   6.562   1.264
 2418SOL    HW1 8153   0.286   6.517   1.250
 2418SOL    HW2 8154   0.124   6.497   1.245
 2419SOL     OW 8155   1.525   6.585   0.190
 2419SOL    HW1 8156   1.462   6.509   0.203
 2419SOL    HW2 8157   1.573   6.603   0.276
 2420SOL     OW 8158   0.317   5.837   1.801
 2420SOL    HW1 8159   0.388   5.908   1.807
 2420SOL    HW2 8160   0.229   5.876   1.829
 2421SOL     OW 8161   1.466   7.003   0.953
 2421SOL    HW1 8162   1.407   7.009   1.033
 2421SOL    HW2 8163   1.451   6.915   0.907
 2422SOL     OW 8164   0.598   6.315   0.270
 2422SOL    HW1 8165   0.622   6.384   0.202
 2422SOL    HW2 8166   0.520   6.348   0.324
 2423SOL     OW 8167   1.281   5.931   0.944
 2423SOL    HW1 8168   1.195   5.881   0.931
 2423SOL    HW2 8169   1.343   5.877   1.000
 2424SOL     OW 8170   0.807   6.191   1.465
 2424SOL    HW1 8171   0.760   6.188   1.554
 2424SOL    HW2 8172   0.756   6.136   1.399
 2425SOL     OW 8173   1.394   6.055   1.674
 2425SOL    HW1 8174   1.374   6.098   1.762
 2425SOL    HW2 8175   1.472   5.993   1.683
 2426SOL     OW 8176   0.973   6.476   1.572
 2426SOL    HW1 8177   1.019   6.392   1.543
 2426SOL    HW2 8178   0.917   6.510   1.497
 2427SOL     OW 8179   0.991   5.996   1.242
 2427SOL    HW1 8180   0.914   6.030   1.296
 2427SOL    HW2 8181   0.957   5.945   1.163
 2428SOL     OW 8182   1.041   6.287   0.429
 2428SOL    HW1 8183   1.067   6.283   0.525
 2428SOL    HW2 8184   0.956   6.236   0.415
 2429SOL     OW 8185   0.076   6.397   0.789
 2429SOL    HW1 8186   0.175   6.385   0.798
 2429SOL    HW2 8187   0.052   6.492   0.810
 2430SOL     OW 8188   0.865   5.934   0.195
 2430SOL    HW1 8189   0.924   5.997   0.146
 2430SOL    HW2 8190   0.884   5.840   0.166
 2431SOL     OW 8191   1.719   6.171   1.831
 2431SOL    HW1 8192   1.693   6.260   1.795
 2431SOL    HW2 8193   1.717   6.103   1.758
 2432SOL     OW 8194   1.362   6.730   0.545
 2432SOL    HW1 8195   1.445   6.701   0.497
 2432SOL    HW2 8196   1.313   6.797   0.489
 2433SOL     OW 8197   0.550   5.782   0.885
 2433SOL    HW1 8198   0.545   5.777   0.985
 2433SOL    HW2 8199   0.552   5.878   0.856
 2434SOL     OW 8200   1.795   6.652   0.873
 2434SOL    HW1 8201   1.733   6.637   0.797
 2434SOL    HW2 8202   1.743   6.663   0.958
 2435SOL     OW 8203   0.321   6.529   0.242
 2435SOL    HW1 8204   0.403   6.568   0.200
 2435SOL    HW2 8205   0.294   6.447   0.193
 2436SOL     OW 8206   1.458   6.321   0.728
 2436SOL    HW1 8207   1.453   6.256   0.803
 2436SOL    HW2 8208   1.538   6.380   0.741
 2437SOL     OW 8209   0.202   5.871   1.498
 2437SOL    HW1 8210   0.122   5.931   1.485
 2437SOL    HW2 8211   0.192   5.822   1.584
 2438SOL     OW 8212   1.632   6.963   0.081
 2438SOL    HW1 8213   1.600   7.057   0.071
 2438SOL    HW2 8214   1.556   6.900   0.069
 2439SOL     OW 8215   1.400   5.693   0.426
 2439SOL    HW1 8216   1.376   5.656   0.336
 2439SOL    HW2 8217   1.499   5.709   0.430
 2440SOL     OW 8218   0.382   6.286   0.480
 2440SOL    HW1 8219   0.427   6.196   0.477
 2440SOL    HW2 8220   0.288   6.275   0.513
 2441SOL     OW 8221   1.547   5.808   1.729
 2441SOL    HW1 8222   1.542   5.845   1.821
 2441SOL    HW2 8223   1.475   5.739   1.717
 2442SOL     OW 8224   0.781   5.850   1.749
 2442SOL    HW1 8225   0.848   5.789   1.792
 2442SOL    HW2 8226   0.708   5.869   1.814
 2443SOL     OW 8227   1.351   6.176   1.433
 2443SOL    HW1 8228   1.379   6.133   1.518
 2443SOL    HW2 8229   1.376   6.272   1.434
 2444SOL     OW 8230   0.922   6.089   0.899
 2444SOL    HW1 8231   0.897   6.080   0.803
 2444SOL    HW2 8232   0.970   6.007   0.930
 2445SOL     OW 8233   0.539   5.650   0.512
 2445SOL    HW1 8234   0.458   5.651   0.570
 2445SOL    HW2 8235   0.542   5.733   0.457
 2446SOL     OW 8236   1.434   6.774   0.041
 2446SOL    HW1 8237   1.466   6.698   0.098
 2446SOL    HW2 8238   1.342   6.801   0.071
 2447SOL     OW 8239   0.935   5.822   0.480
 2447SOL    HW1 8240   0.887   5.863   0.402
 2447SOL    HW2 8241   1.034   5.820   0.461
 2448SOL     OW 8242   1.076   6.269   1.464
 2448SOL    HW1 8243   0.996   6.208   1.467
 2448SOL    HW2 8244   1.157   6.216   1.440
 2449SOL     OW 8245   1.227   7.156   0.793
 2449SOL    HW1 8246   1.248   7.230   0.728
 2449SOL    HW2 8247   1.295   7.156   0.866
 2450SOL     OW 8248   0.459   6.738   0.741
 2450SOL    HW1 8249   0.388   6.711   0.806
 2450SOL    HW2 8250   0.433   6.710   0.648
 2451SOL     OW 8251   1.032   6.135   0.016
 2451SOL    HW1 8252   0.991   6.217  -0.023
 2451SOL    HW2 8253   1.096   6.161   0.089
 2452SOL     OW 8254   0.078   6.142   1.386
 2452SOL    HW1 8255   0.170   6.141   1.345
 2452SOL    HW2 8256   0.072   6.216   1.453
 2453SOL     OW 8257   0.561   5.808   1.147
 2453SOL    HW1 8258   0.599   5.724   1.184
 2453SOL    HW2 8259   0.473   5.827   1.191
 2454SOL     OW 8260   0.866   6.040   0.642
 2454SOL    HW1 8261   0.834   6.112   0.580
 2454SOL    HW2 8262   0.890   5.959   0.589
 2455SOL     OW 8263   1.017   5.625   0.753
 2455SOL    HW1 8264   0.945   5.630   0.684
 2455SOL    HW2 8265   0.993   5.556   0.822
 2456SOL     OW 8266   1.429   6.759   0.867
 2456SOL    HW1 8267   1.374   6.675   0.860
 2456SOL    HW2 8268   1.455   6.788   0.775
 2457SOL     OW 8269   1.466   6.176   0.992
 2457SOL    HW1 8270   1.436   6.081   0.999
 2457SOL    HW2 8271   1.539   6.192   1.058
 2458SOL     OW 8272   1.857   6.419   0.377
 2458SOL    HW1 8273   1.899   6.355   0.441
 2458SOL    HW2 8274   1.819   6.368   0.299
 2459SOL     OW 8275   1.664   6.866   0.657
 2459SOL    HW1 8276   1.763   6.874   0.671
 2459SOL    HW2 8277   1.619   6.950   0.688
 2460SOL     OW 8278   1.390   6.161   0.078
 2460SOL    HW1 8279   1.336   6.140   0.159
 2460SOL    HW2 8280   1.481   6.120   0.087
 2461SOL     OW 8281   0.527   5.842   0.328
 2461SOL    HW1 8282   0.554   5.783   0.253
 2461SOL    HW2 8283   0.527   5.937   0.297
 2462SOL     OW 8284   1.754   6.809   1.588
 2462SOL    HW1 8285   1.845   6.770   1.575
 2462SOL    HW2 8286   1.762   6.905   1.612
 2463SOL     OW 8287   1.064   6.933   1.340
 2463SOL    HW1 8288   0.984   6.910   1.395
 2463SOL    HW2 8289   1.147   6.907   1.389
 2464SOL     OW 8290   1.111   6.781   1.100
 2464SOL    HW1 8291   1.071   6.825   1.181
 2464SOL    HW2 8292   1.070   6.818   1.017
 2465SOL     OW 8293   1.638   6.685   1.079
 2465SOL    HW1 8294   1.643   6.766   1.138
 2465SOL    HW2 8295   1.552   6.687   1.028
 2466SOL     OW 8296   0.915   5.675   1.402
 2466SOL    HW1 8297   0.940   5.655   1.307
 2466SOL    HW2 8298   0.987   5.731   1.444
 2467SOL     OW 8299   0.980   6.702   1.719
 2467SOL    HW1 8300   0.881   6.708   1.729
 2467SOL    HW2 8301   1.003   6.622   1.663
 2468SOL     OW 8302   0.705   6.636   0.368
 2468SOL    HW1 8303   0.691   6.643   0.467
 2468SOL    HW2 8304   0.789   6.585   0.350
 2469SOL     OW 8305   0.410   6.399   1.251
 2469SOL    HW1 8306   0.496   6.411   1.301
 2469SOL    HW2 8307   0.368   6.312   1.278
 2470SOL     OW 8308   1.274   5.972   1.262
 2470SOL    HW1 8309   1.295   6.046   1.326
 2470SOL    HW2 8310   1.185   5.989   1.219
 2471SOL     OW 8311   0.064   7.150   1.331
 2471SOL    HW1 8312   0.018   7.232   1.297
 2471SOL    HW2 8313   0.162   7.169   1.340
 2472SOL     OW 8314   0.367   6.686   0.501
 2472SOL    HW1 8315   0.360   6.769   0.445
 2472SOL    HW2 8316   0.371   6.606   0.441
 2473SOL     OW 8317   0.566   6.123   0.865
 2473SOL    HW1 8318   0.578   6.189   0.791
 2473SOL    HW2 8319   0.612   6.157   0.948
 2474SOL     OW 8320   1.582   6.225   0.472
 2474SOL    HW1 8321   1.551   6.286   0.545
 2474SOL    HW2 8322   1.632   6.277   0.403
 2475SOL     OW 8323   0.402   6.337   1.598
 2475SOL    HW1 8324   0.470   6.392   1.551
 2475SOL    HW2 8325   0.442   6.249   1.625
 2476SOL     OW 8326   1.587   6.365   1.670
 2476SOL    HW1 8327   1.495   6.403   1.665
 2476SOL    HW2 8328   1.647   6.412   1.605
 2477SOL     OW 8329   1.013   5.691   1.770
 2477SOL    HW1 8330   1.019   5.776   1.718
 2477SOL    HW2 8331   1.045   5.615   1.713
 2478SOL     OW 8332   0.504   5.636   1.740
 2478SOL    HW1 8333   0.462   5.579   1.670
 2478SOL    HW2 8334   0.438   5.705   1.772
 2479SOL     OW 8335   0.573   6.456   1.029
 2479SOL    HW1 8336   0.617   6.545   1.020
 2479SOL    HW2 8337   0.510   6.456   1.106
 2480SOL     OW 8338   1.360   6.448   1.045
 2480SOL    HW1 8339   1.285   6.448   0.979
 2480SOL    HW2 8340   1.397   6.356   1.054
 2481SOL     OW 8341   1.209   6.111   0.275
 2481SOL    HW1 8342   1.222   6.027   0.329
 2481SOL    HW2 8343   1.180   6.185   0.335
 2482SOL     OW 8344   0.307   5.799   1.231
 2482SOL    HW1 8345   0.284   5.836   1.321
 2482SOL    HW2 8346   0.277   5.704   1.225
 2483SOL     OW 8347   0.037   6.896   1.282
 2483SOL    HW1 8348   0.090   6.847   1.350
 2483SOL    HW2 8349   0.059   6.994   1.287
 2484SOL     OW 8350   0.732   6.220   1.064
 2484SOL    HW1 8351   0.791   6.194   0.988
 2484SOL    HW2 8352   0.704   6.316   1.053
 2485SOL     OW 8353   1.728   6.521   1.854
 2485SOL    HW1 8354   1.682   6.514   1.765
 2485SOL    HW2 8355   1.666   6.565   1.920
 2486SOL     OW 8356   0.307   5.649   0.618
 2486SOL    HW1 8357   0.296   5.743   0.651
 2486SOL    HW2 8358   0.302   5.586   0.695
 2487SOL     OW 8359   1.622   5.953   0.374
 2487SOL    HW1 8360   1.624   5.877   0.438
 2487SOL    HW2 8361   1.574   6.030   0.414
 2488SOL     OW 8362   1.023   6.352   0.966
 2488SOL    HW1 8363   1.038   6.373   1.062
 2488SOL    HW2 8364   0.993   6.257   0.957
 2489SOL     OW 8365   1.859   7.104   1.605
 2489SOL    HW1 8366   1.873   7.131   1.510
 2489SOL    HW2 8367   1.942   7.126   1.658
 2490SOL     OW 8368   0.350   6.484   1.804
 2490SOL    HW1 8369   0.426   6.528   1.852
 2490SOL    HW2 8370   0.385   6.437   1.722
 2491SOL     OW 8371   1.540   5.860   0.125
 2491SOL    HW1 8372   1.479   5.785   0.148
 2491SOL    HW2 8373   1.562   5.912   0.208
 2492SOL     OW 8374   1.303   6.424   0.042
 2492SOL    HW1 8375   1.337   6.331   0.057
 2492SOL    HW2 8376   1.321   6.451  -0.053
 2493SOL     OW 8377   0.319   6.396   0.949
 2493SOL    HW1 8378   0.412   6.432   0.954
 2493SOL    HW2 8379   0.313   6.311   1.001
 2494SOL     OW 8380   0.339   6.095   1.006
 2494SOL    HW1 8381   0.287   6.012   0.989
 2494SOL    HW2 8382   0.416   6.100   0.942
 2495SOL     OW 8383   1.138   5.966   1.678
 2495SOL    HW1 8384   1.093   6.029   1.742
 2495SOL    HW2 8385   1.231   5.997   1.661
 2496SOL     OW 8386   1.160   5.793   1.477
 2496SOL    HW1 8387   1.160   5.857   1.554
 2496SOL    HW2 8388   1.188   5.841   1.394
 2497SOL     OW 8389   0.008   6.912   0.200
 2497SOL    HW1 8390  -0.085   6.933   0.169
 2497SOL    HW2 8391   0.018   6.813   0.213
 2498SOL     OW 8392   1.002   6.382   1.238
 2498SOL    HW1 8393   1.043   6.350   1.324
 2498SOL    HW2 8394   0.906   6.355   1.235
 2499SOL     OW 8395   0.040   6.130   1.114
 2499SOL    HW1 8396   0.125   6.097   1.073
 2499SOL    HW2 8397   0.053   6.145   1.212
 2500SOL     OW 8398   0.189   6.106   1.722
 2500SOL    HW1 8399   0.248   6.066   1.652
 2500SOL    HW2 8400   0.131   6.177   1.681
 2501SOL     OW 8401   1.369   6.536   1.660
 2501SOL    HW1 8402   1.408   6.625   1.680
 2501SOL    HW2 8403   1.379   6.516   1.563
 2502SOL     OW 8404   0.815   6.158   0.325
 2502SOL    HW1 8405   0.822   6.069   0.279
 2502SOL    HW2 8406   0.721   6.192   0.317
 2503SOL     OW 8407   1.657   6.190   1.206
 2503SOL    HW1 8408   1.619   6.121   1.268
 2503SOL    HW2 8409   1.739   6.154   1.162
 2504SOL     OW 8410   0.671   6.050   1.269
 2504SOL    HW1 8411   0.637   5.961   1.239
 2504SOL    HW2 8412   0.697   6.104   1.189
 2505SOL     OW 8413   0.473   6.086   0.191
 2505SOL    HW1 8414   0.534   6.166   0.195
 2505SOL    HW2 8415   0.378   6.117   0.198
 2506SOL     OW 8416   0.159   6.723   1.466
 2506SOL    HW1 8417   0.181   6.662   1.542
 2506SOL    HW2 8418   0.169   6.674   1.380
 2507SOL     OW 8419   1.347   6.645   1.234
 2507SOL    HW1 8420   1.371   6.582   1.160
 2507SOL    HW2 8421   1.257   6.685   1.216
 2508SOL     OW 8422   1.302   6.441   0.309
 2508SOL    HW1 8423   1.216   6.410   0.351
 2508SOL    HW2 8424   1.298   6.427   0.210
 2509SOL     OW 8425   0.083   6.844   1.022
 2509SOL    HW1 8426   0.078   6.843   1.122
 2509SOL    HW2 8427   0.000   6.803   0.984
 2510SOL     OW 8428   0.903   5.672   0.133
 2510SOL    HW1 8429   0.954   5.673   0.047
 2510SOL    HW2 8430   0.959   5.630   0.204
 2511SOL     OW 8431   1.726   5.721   0.523
 2511SOL    HW1 8432   1.799   5.704   0.456
 2511SOL    HW2 8433   1.695   5.634   0.561
 2512SOL     OW 8434   1.280   6.513   0.672
 2512SOL    HW1 8435   1.340   6.432   0.674
 2512SOL    HW2 8436   1.320   6.582   0.612
 2513SOL     OW 8437   0.830   6.859   1.422
 2513SOL    HW1 8438   0.825   6.892   1.517
 2513SOL    HW2 8439   0.744   6.878   1.376
 2514SOL     OW 8440   1.841   5.761   0.963
 2514SOL    HW1 8441   1.880   5.676   0.927
 2514SOL    HW2 8442   1.743   5.763   0.944
 2515SOL     OW 8443   0.263   5.912   0.720
 2515SOL    HW1 8444   0.184   5.963   0.686
 2515SOL    HW2 8445   0.254   5.897   0.818
 2516SOL     OW 8446   0.822   6.588   1.372
 2516SOL    HW1 8447   0.862   6.587   1.280
 2516SOL    HW2 8448   0.832   6.680   1.412
 2517SOL     OW 8449   0.916   6.496   0.291
 2517SOL    HW1 8450   0.979   6.534   0.223
 2517SOL    HW2 8451   0.956   6.413   0.330
 2518SOL     OW 8452   0.372   6.874   1.490
 2518SOL    HW1 8453   0.359   6.967   1.456
 2518SOL    HW2 8454   0.288   6.822   1.477
 2519SOL     OW 8455   1.614   6.878   1.289
 2519SOL    HW1 8456   1.674   6.881   1.369
 2519SOL    HW2 8457   1.539   6.942   1.302
 2520SOL     OW 8458   1.039   6.684   0.696
 2520SOL    HW1 8459   0.969   6.637   0.750
 2520SOL    HW2 8460   1.098   6.616   0.653
 2521SOL     OW 8461   1.014   5.822   0.971
 2521SOL    HW1 8462   1.006   5.786   0.878
 2521SOL    HW2 8463   1.012   5.746   1.036
 2522SOL     OW 8464   1.709   5.971   1.381
 2522SOL    HW1 8465   1.782   6.040   1.385
 2522SOL    HW2 8466   1.737   5.896   1.322
 2523SOL     OW 8467   0.105   6.599   1.726
 2523SOL    HW1 8468   0.028   6.566   1.780
 2523SOL    HW2 8469   0.190   6.569   1.768
 2524SOL     OW 8470   0.672   5.789   1.489
 2524SOL    HW1 8471   0.762   5.773   1.449
 2524SOL    HW2 8472   0.680   5.794   1.588
 2525SOL     OW 8473   0.075   5.931   0.033
 2525SOL    HW1 8474  -0.017   5.903   0.004
 2525SOL    HW2 8475   0.106   6.008  -0.023
 2526SOL     OW 8476   1.440   6.442   1.398
 2526SOL    HW1 8477   1.383   6.494   1.335
 2526SOL    HW2 8478   1.536   6.454   1.374
 2527SOL     OW 8479   0.072   5.752   0.318
 2527SOL    HW1 8480   0.055   5.835   0.264
 2527SOL    HW2 8481   0.162   5.715   0.296
 2528SOL     OW 8482   0.613   6.428   1.431
 2528SOL    HW1 8483   0.669   6.509   1.414
 2528SOL    HW2 8484   0.672   6.348   1.434
 2529SOL     OW 8485   0.716   6.151   1.708
 2529SOL    HW1 8486   0.735   6.216   1.782
 2529SOL    HW2 8487   0.776   6.071   1.717
 2530SOL     OW 8488   1.450   6.806   1.633
 2530SOL    HW1 8489   1.441   6.796   1.732
 2530SOL    HW2 8490   1.546   6.799   1.607
 2531SOL     OW 8491   1.674   6.469   1.254
 2531SOL    HW1 8492   1.647   6.380   1.217
 2531SOL    HW2 8493   1.675   6.537   1.181
 2532SOL     OW 8494   1.225   5.911   0.449
 2532SOL    HW1 8495   1.290   5.837   0.438
 2532SOL    HW2 8496   1.245   5.961   0.533
 2533SOL     OW 8497   0.594   6.331   0.652
 2533SOL    HW1 8498   0.644   6.416   0.633
 2533SOL    HW2 8499   0.506   6.333   0.604
 2534SOL     OW 8500   1.777   5.928   1.642
 2534SOL    HW1 8501   1.760   5.959   1.548
 2534SOL    HW2 8502   1.693   5.891   1.680
 2535SOL     OW 8503   1.730   6.520   1.517
 2535SOL    HW1 8504   1.768   6.611   1.532
 2535SOL    HW2 8505   1.722   6.503   1.418
 2536SOL     OW 8506   0.859   6.542   0.861
 2536SOL    HW1 8507   0.913   6.473   0.909
 2536SOL    HW2 8508   0.827   6.611   0.927
 2537SOL     OW 8509   1.083   6.570   0.087
 2537SOL    HW1 8510   1.060   6.623   0.005
 2537SOL    HW2 8511   1.164   6.514   0.068
 2538SOL     OW 8512   0.221   6.900   1.844
 2538SOL    HW1 8513   0.156   6.827   1.823
 2538SOL    HW2 8514   0.225   6.914   1.942
 2539SOL     OW 8515   0.079   6.826   0.653
 2539SOL    HW1 8516   0.078   6.779   0.741
 2539SOL    HW2 8517   0.161   6.798   0.602
 2540SOL     OW 8518   0.672   6.977   1.624
 2540SOL    HW1 8519   0.594   6.927   1.662
 2540SOL    HW2 8520   0.669   7.072   1.655
 2541SOL     OW 8521   1.824   5.778   1.227
 2541SOL    HW1 8522   1.820   5.688   1.271
 2541SOL    HW2 8523   1.827   5.767   1.128
 2542SOL     OW 8524   0.428   6.010   0.520
 2542SOL    HW1 8525   0.458   5.938   0.458
 2542SOL    HW2 8526   0.389   5.970   0.603
 2543SOL     OW 8527   1.705   7.073   1.104
 2543SOL    HW1 8528   1.612   7.048   1.077
 2543SOL    HW2 8529   1.731   7.023   1.186
 2544SOL     OW 8530   0.317   6.133   1.280
 2544SOL    HW1 8531   0.355   6.074   1.352
 2544SOL    HW2 8532   0.357   6.107   1.192
 2545SOL     OW 8533   1.424   5.800   1.112
 2545SOL    HW1 8534   1.476   5.735   1.167
 2545SOL    HW2 8535   1.375   5.863   1.173
 2546SOL     OW 8536   1.001   5.620   1.154
 2546SOL    HW1 8537   0.938   5.548   1.123
 2546SOL    HW2 8538   1.094   5.584   1.154
 2547SOL     OW 8539   0.770   6.916   0.301
 2547SOL    HW1 8540   0.724   6.829   0.318
 2547SOL    HW2 8541   0.861   6.913   0.342
 2548SOL     OW 8542   1.352   5.638   0.168
 2548SOL    HW1 8543   1.387   5.597   0.084
 2548SOL    HW2 8544   1.262   5.600   0.188
 2549SOL     OW 8545   1.300   6.039   0.691
 2549SOL    HW1 8546   1.241   6.119   0.695
 2549SOL    HW2 8547   1.315   6.004   0.784
 2550SOL     OW 8548   1.593   5.807   0.882
 2550SOL    HW1 8549   1.509   5.806   0.936
 2550SOL    HW2 8550   1.595   5.890   0.826
 2551SOL     OW 8551   0.039   6.663   0.300
 2551SOL    HW1 8552   0.138   6.652   0.291
 2551SOL    HW2 8553  -0.001   6.577   0.332
 2552SOL     OW 8554   0.230   6.214   1.975
 2552SOL    HW1 8555   0.137   6.212   2.012
 2552SOL    HW2 8556   0.231   6.175   1.883
 2553SOL     OW 8557   0.225   5.861   2.858
 2553SOL    HW1 8558   0.260   5.844   2.950
 2553SOL    HW2 8559   0.137   5.816   2.846
 2554SOL     OW 8560   0.019   5.954   2.509
 2554SOL    HW1 8561  -0.063   5.997   2.548
 2554SOL    HW2 8562  -0.009   5.881   2.446
 2555SOL     OW 8563   0.569   6.861   3.027
 2555SOL    HW1 8564   0.476   6.854   2.990
 2555SOL    HW2 8565   0.580   6.950   3.071
 2556SOL     OW 8566   1.555   7.097   2.565
 2556SOL    HW1 8567   1.498   7.081   2.646
 2556SOL    HW2 8568   1.496   7.107   2.485
 2557SOL     OW 8569   1.135   6.289   2.579
 2557SOL    HW1 8570   1.192   6.367   2.554
 2557SOL    HW2 8571   1.075   6.315   2.655
 2558SOL     OW 8572   1.755   6.193   2.093
 2558SOL    HW1 8573   1.743   6.180   1.994
 2558SOL    HW2 8574   1.725   6.112   2.142
 2559SOL     OW 8575   0.768   6.730   2.885
 2559SOL    HW1 8576   0.690   6.747   2.945
 2559SOL    HW2 8577   0.802   6.817   2.849
 2560SOL     OW 8578   0.850   6.384   3.685
 2560SOL    HW1 8579   0.846   6.460   3.750
 2560SOL    HW2 8580   0.872   6.420   3.594
 2561SOL     OW 8581   0.685   6.598   2.527
 2561SOL    HW1 8582   0.754   6.582   2.597
 2561SOL    HW2 8583   0.612   6.655   2.565
 2562SOL     OW 8584   0.686   6.747   3.665
 2562SOL    HW1 8585   0.746   6.826   3.679
 2562SOL    HW2 8586   0.600   6.778   3.624
 2563SOL     OW 8587   0.335   7.021   2.923
 2563SOL    HW1 8588   0.257   6.990   2.870
 2563SOL    HW2 8589   0.393   7.079   2.866
 2564SOL     OW 8590   0.438   5.978   3.361
 2564SOL    HW1 8591   0.520   5.922   3.370
 2564SOL    HW2 8592   0.357   5.920   3.365
 2565SOL     OW 8593   1.603   6.033   2.599
 2565SOL    HW1 8594   1.529   6.079   2.549
 2565SOL    HW2 8595   1.654   6.101   2.652
 2566SOL     OW 8596   0.240   6.677   2.748
 2566SOL    HW1 8597   0.254   6.593   2.800
 2566SOL    HW2 8598   0.185   6.741   2.803
 2567SOL     OW 8599   0.606   6.550   1.985
 2567SOL    HW1 8600   0.613   6.634   1.931
 2567SOL    HW2 8601   0.652   6.563   2.073
 2568SOL     OW 8602   1.594   5.700   3.342
 2568SOL    HW1 8603   1.576   5.767   3.270
 2568SOL    HW2 8604   1.591   5.746   3.431
 2569SOL     OW 8605   0.122   6.229   2.425
 2569SOL    HW1 8606   0.077   6.141   2.442
 2569SOL    HW2 8607   0.121   6.283   2.509
 2570SOL     OW 8608   1.689   6.508   2.474
 2570SOL    HW1 8609   1.784   6.479   2.482
 2570SOL    HW2 8610   1.681   6.573   2.399
 2571SOL     OW 8611   1.641   6.694   2.294
 2571SOL    HW1 8612   1.727   6.696   2.242
 2571SOL    HW2 8613   1.655   6.741   2.382
 2572SOL     OW 8614   0.113   6.323   3.459
 2572SOL    HW1 8615   0.201   6.310   3.504
 2572SOL    HW2 8616   0.100   6.420   3.437
 2573SOL     OW 8617   1.293   6.814   3.285
 2573SOL    HW1 8618   1.330   6.741   3.227
 2573SOL    HW2 8619   1.345   6.819   3.370
 2574SOL     OW 8620   0.809   5.590   2.364
 2574SOL    HW1 8621   0.849   5.681   2.355
 2574SOL    HW2 8622   0.709   5.598   2.370
 2575SOL     OW 8623   0.197   6.562   3.126
 2575SOL    HW1 8624   0.286   6.517   3.112
 2575SOL    HW2 8625   0.124   6.497   3.107
 2576SOL     OW 8626   1.525   6.585   2.052
 2576SOL    HW1 8627   1.462   6.509   2.065
 2576SOL    HW2 8628   1.573   6.603   2.138
 2577SOL     OW 8629   0.317   5.837   3.663
 2577SOL    HW1 8630   0.388   5.908   3.669
 2577SOL    HW2 8631   0.229   5.876   3.691
 2578SOL     OW 8632   1.466   7.003   2.815
 2578SOL    HW1 8633   1.407   7.009   2.895
 2578SOL    HW2 8634   1.451   6.915   2.769
 2579SOL     OW 8635   0.598   6.315   2.132
 2579SOL    HW1 8636   0.622   6.384   2.064
 2579SOL    HW2 8637   0.520   6.348   2.186
 2580SOL     OW 8638   1.281   5.931   2.806
 2580SOL    HW1 8639   1.195   5.881   2.793
 2580SOL    HW2 8640   1.343   5.877   2.862
 2581SOL     OW 8641   0.807   6.191   3.327
 2581SOL    HW1 8642   0.760   6.188   3.416
 2581SOL    HW2 8643   0.756   6.136   3.261
 2582SOL     OW 8644   1.394   6.055   3.536
 2582SOL    HW1 8645   1.374   6.098   3.624
 2582SOL    HW2 8646   1.472   5.993   3.545
 2583SOL     OW 8647   0.973   6.476   3.434
 2583SOL    HW1 8648   1.019   6.392   3.405
 2583SOL    HW2 8649   0.917   6.510   3.359
 2584SOL     OW 8650   0.991   5.996   3.104
 2584SOL    HW1 8651   0.914   6.030   3.158
 2584SOL    HW2 8652   0.957   5.945   3.025
 2585SOL     OW 8653   1.041   6.287   2.291
 2585SOL    HW1 8654   1.067   6.283   2.387
 2585SOL    HW2 8655   0.956   6.236   2.277
 2586SOL     OW 8656   0.076   6.397   2.651
 2586SOL    HW1 8657   0.175   6.385   2.660
 2586SOL    HW2 8658   0.052   6.492   2.672
 2587SOL     OW 8659   0.865   5.934   2.057
 2587SOL    HW1 8660   0.924   5.997   2.008
 2587SOL    HW2 8661   0.884   5.840   2.028
 2588SOL     OW 8662   1.719   6.171   3.693
 2588SOL    HW1 8663   1.693   6.260   3.657
 2588SOL    HW2 8664   1.717   6.103   3.620
 2589SOL     OW 8665   1.362   6.730   2.407
 2589SOL    HW1 8666   1.445   6.701   2.359
 2589SOL    HW2 8667   1.313   6.797   2.351
 2590SOL     OW 8668   0.550   5.782   2.747
 2590SOL    HW1 8669   0.545   5.777   2.847
 2590SOL    HW2 8670   0.552   5.878   2.718
 2591SOL     OW 8671   1.795   6.652   2.735
 2591SOL    HW1 8672   1.733   6.637   2.659
 2591SOL    HW2 8673   1.743   6.663   2.820
 2592SOL     OW 8674   0.321   6.529   2.104
 2592SOL    HW1 8675   0.403   6.568   2.062
 2592SOL    HW2 8676   0.294   6.447   2.055
 2593SOL     OW 8677   1.458   6.321   2.590
 2593SOL    HW1 8678   1.453   6.256   2.665
 2593SOL    HW2 8679   1.538   6.380   2.603
 2594SOL     OW 8680   0.202   5.871   3.360
 2594SOL    HW1 8681   0.122   5.931   3.347
 2594SOL    HW2 8682   0.192   5.822   3.446
 2595SOL     OW 8683   1.632   6.963   1.943
 2595SOL    HW1 8684   1.600   7.057   1.933
 2595SOL    HW2 8685   1.556   6.900   1.931
 2596SOL     OW 8686   1.400   5.693   2.288
 2596SOL    HW1 8687   1.376   5.656   2.198
 2596SOL    HW2 8688   1.499   5.709   2.292
 2597SOL     OW 8689   0.382   6.286   2.342
 2597SOL    HW1 8690   0.427   6.196   2.339
 2597SOL    HW2 8691   0.288   6.275   2.375
 2598SOL     OW 8692   1.547   5.808   3.591
 2598SOL    HW1 8693   1.542   5.845   3.683
 2598SOL    HW2 8694   1.475   5.739   3.579
 2599SOL     OW 8695   0.614   5.708   1.979
 2599SOL    HW1 8696   0.712   5.686   1.986
 2599SOL    HW2 8697   0.583   5.691   1.886
 2600SOL     OW 8698   0.781   5.850   3.611
 2600SOL    HW1 8699   0.848   5.789   3.654
 2600SOL    HW2 8700   0.708   5.869   3.676
 2601SOL     OW 8701   1.351   6.176   3.295
 2601SOL    HW1 8702   1.379   6.133   3.380
 2601SOL    HW2 8703   1.376   6.272   3.296
 2602SOL     OW 8704   0.922   6.089   2.761
 2602SOL    HW1 8705   0.897   6.080   2.665
 2602SOL    HW2 8706   0.970   6.007   2.792
 2603SOL     OW 8707   0.539   5.650   2.374
 2603SOL    HW1 8708   0.458   5.651   2.432
 2603SOL    HW2 8709   0.542   5.733   2.319
 2604SOL     OW 8710   1.434   6.774   1.903
 2604SOL    HW1 8711   1.466   6.698   1.960
 2604SOL    HW2 8712   1.342   6.801   1.933
 2605SOL     OW 8713   0.297   5.621   2.033
 2605SOL    HW1 8714   0.346   5.705   2.012
 2605SOL    HW2 8715   0.359   5.556   2.078
 2606SOL     OW 8716   0.935   5.822   2.342
 2606SOL    HW1 8717   0.887   5.863   2.264
 2606SOL    HW2 8718   1.034   5.820   2.323
 2607SOL     OW 8719   1.076   6.269   3.326
 2607SOL    HW1 8720   0.996   6.208   3.329
 2607SOL    HW2 8721   1.157   6.216   3.302
 2608SOL     OW 8722   1.227   7.156   2.655
 2608SOL    HW1 8723   1.248   7.230   2.590
 2608SOL    HW2 8724   1.295   7.156   2.728
 2609SOL     OW 8725   0.459   6.738   2.603
 2609SOL    HW1 8726   0.388   6.711   2.668
 2609SOL    HW2 8727   0.433   6.710   2.510
 2610SOL     OW 8728   1.032   6.135   1.878
 2610SOL    HW1 8729   0.991   6.217   1.839
 2610SOL    HW2 8730   1.096   6.161   1.951
 2611SOL     OW 8731   0.078   6.142   3.248
 2611SOL    HW1 8732   0.170   6.141   3.207
 2611SOL    HW2 8733   0.072   6.216   3.315
 2612SOL     OW 8734   0.561   5.808   3.009
 2612SOL    HW1 8735   0.599   5.724   3.046
 2612SOL    HW2 8736   0.473   5.827   3.053
 2613SOL     OW 8737   0.866   6.040   2.504
 2613SOL    HW1 8738   0.834   6.112   2.442
 2613SOL    HW2 8739   0.890   5.959   2.451
 2614SOL     OW 8740   1.017   5.625   2.615
 2614SOL    HW1 8741   0.945   5.630   2.546
 2614SOL    HW2 8742   0.993   5.556   2.684
 2615SOL     OW 8743   1.429   6.759   2.729
 2615SOL    HW1 8744   1.374   6.675   2.722
 2615SOL    HW2 8745   1.455   6.788   2.637
 2616SOL     OW 8746   1.466   6.176   2.854
 2616SOL    HW1 8747   1.436   6.081   2.861
 2616SOL    HW2 8748   1.539   6.192   2.920
 2617SOL     OW 8749   1.857   6.419   2.239
 2617SOL    HW1 8750   1.899   6.355   2.303
 2617SOL    HW2 8751   1.819   6.368   2.161
 2618SOL     OW 8752   1.664   6.866   2.519
 2618SOL    HW1 8753   1.763   6.874   2.533
 2618SOL    HW2 8754   1.619   6.950   2.550
 2619SOL     OW 8755   1.390   6.161   1.940
 2619SOL    HW1 8756   1.336   6.140   2.021
 2619SOL    HW2 8757   1.481   6.120   1.949
 2620SOL     OW 8758   0.527   5.842   2.190
 2620SOL    HW1 8759   0.554   5.783   2.115
 2620SOL    HW2 8760   0.527   5.937   2.159
 2621SOL     OW 8761   1.754   6.809   3.450
 2621SOL    HW1 8762   1.845   6.770   3.437
 2621SOL    HW2 8763   1.762   6.905   3.474
 2622SOL     OW 8764   1.064   6.933   3.202
 2622SOL    HW1 8765   0.984   6.910   3.257
 2622SOL    HW2 8766   1.147   6.907   3.251
 2623SOL     OW 8767   1.111   6.781   2.962
 2623SOL    HW1 8768   1.071   6.825   3.043
 2623SOL    HW2 8769   1.070   6.818   2.879
 2624SOL     OW 8770   1.638   6.685   2.941
 2624SOL    HW1 8771   1.643   6.766   3.000
 2624SOL    HW2 8772   1.552   6.687   2.890
 2625SOL     OW 8773   0.915   5.675   3.264
 2625SOL    HW1 8774   0.940   5.655   3.169
 2625SOL    HW2 8775   0.987   5.731   3.306
 2626SOL     OW 8776   0.980   6.702   3.581
 2626SOL    HW1 8777   0.881   6.708   3.591
 2626SOL    HW2 8778   1.003   6.622   3.525
 2627SOL     OW 8779   0.705   6.636   2.230
 2627SOL    HW1 8780   0.691   6.643   2.329
 2627SOL    HW2 8781   0.789   6.585   2.212
 2628SOL     OW 8782   0.410   6.399   3.113
 2628SOL    HW1 8783   0.496   6.411   3.163
 2628SOL    HW2 8784   0.368   6.312   3.140
 2629SOL     OW 8785   1.274   5.972   3.124
 2629SOL    HW1 8786   1.295   6.046   3.188
 2629SOL    HW2 8787   1.185   5.989   3.081
 2630SOL     OW 8788   0.064   7.150   3.193
 2630SOL    HW1 8789   0.018   7.232   3.159
 2630SOL    HW2 8790   0.162   7.169   3.202
 2631SOL     OW 8791   0.367   6.686   2.363
 2631SOL    HW1 8792   0.360   6.769   2.307
 2631SOL    HW2 8793   0.371   6.606   2.303
 2632SOL     OW 8794   0.566   6.123   2.727
 2632SOL    HW1 8795   0.578   6.189   2.653
 2632SOL    HW2 8796   0.612   6.157   2.810
 2633SOL     OW 8797   1.582   6.225   2.334
 2633SOL    HW1 8798   1.551   6.286   2.407
 2633SOL    HW2 8799   1.632   6.277   2.265
 2634SOL     OW 8800   0.402   6.337   3.460
 2634SOL    HW1 8801   0.470   6.392   3.413
 2634SOL    HW2 8802   0.442   6.249   3.487
 2635SOL     OW 8803   1.587   6.365   3.532
 2635SOL    HW1 8804   1.495   6.403   3.527
 2635SOL    HW2 8805   1.647   6.412   3.467
 2636SOL     OW 8806   1.013   5.691   3.632
 2636SOL    HW1 8807   1.019   5.776   3.580
 2636SOL    HW2 8808   1.045   5.615   3.575
 2637SOL     OW 8809   0.504   5.636   3.602
 2637SOL    HW1 8810   0.462   5.579   3.532
 2637SOL    HW2 8811   0.438   5.705   3.634
 2638SOL     OW 8812   0.573   6.456   2.891
 2638SOL    HW1 8813   0.617   6.545   2.882
 2638SOL    HW2 8814   0.510   6.456   2.968
 2639SOL     OW 8815   1.360   6.448   2.907
 2639SOL    HW1 8816   1.285   6.448   2.841
 2639SOL    HW2 8817   1.397   6.356   2.916
 2640SOL     OW 8818   1.209   6.111   2.137
 2640SOL    HW1 8819   1.222   6.027   2.191
 2640SOL    HW2 8820   1.180   6.185   2.197
 2641SOL     OW 8821   0.307   5.799   3.093
 2641SOL    HW1 8822   0.284   5.836   3.183
 2641SOL    HW2 8823   0.277   5.704   3.087
 2642SOL     OW 8824   0.037   6.896   3.144
 2642SOL    HW1 8825   0.090   6.847   3.212
 2642SOL    HW2 8826   0.059   6.994   3.149
 2643SOL     OW 8827   0.732   6.220   2.926
 2643SOL    HW1 8828   0.791   6.194   2.850
 2643SOL    HW2 8829   0.704   6.316   2.915
 2644SOL     OW 8830   1.728   6.521   3.716
 2644SOL    HW1 8831   1.682   6.514   3.627
 2644SOL    HW2 8832   1.666   6.565   3.782
 2645SOL     OW 8833   0.307   5.649   2.480
 2645SOL    HW1 8834   0.296   5.743   2.513
 2645SOL    HW2 8835   0.302   5.586   2.557
 2646SOL     OW 8836   1.622   5.953   2.236
 2646SOL    HW1 8837   1.624   5.877   2.300
 2646SOL    HW2 8838   1.574   6.030   2.276
 2647SOL     OW 8839   1.023   6.352   2.828
 2647SOL    HW1 8840   1.038   6.373   2.924
 2647SOL    HW2 8841   0.993   6.257   2.819
 2648SOL     OW 8842   1.859   7.104   3.467
 2648SOL    HW1 8843   1.873   7.131   3.372
 2648SOL    HW2 8844   1.942   7.126   3.520
 2649SOL     OW 8845   0.350   6.484   3.666
 2649SOL    HW1 8846   0.426   6.528   3.714
 2649SOL    HW2 8847   0.385   6.437   3.584
 2650SOL     OW 8848   1.540   5.860   1.987
 2650SOL    HW1 8849   1.479   5.785   2.010
 2650SOL    HW2 8850   1.562   5.912   2.070
 2651SOL     OW 8851   1.303   6.424   1.904
 2651SOL    HW1 8852   1.337   6.331   1.919
 2651SOL    HW2 8853   1.321   6.451   1.809
 2652SOL     OW 8854   0.319   6.396   2.811
 2652SOL    HW1 8855   0.412   6.432   2.816
 2652SOL    HW2 8856   0.313   6.311   2.863
 2653SOL     OW 8857   0.339   6.095   2.868
 2653SOL    HW1 8858   0.287   6.012   2.851
 2653SOL    HW2 8859   0.416   6.100   2.804
 2654SOL     OW 8860   1.138   5.966   3.540
 2654SOL    HW1 8861   1.093   6.029   3.604
 2654SOL    HW2 8862   1.231   5.997   3.523
 2655SOL     OW 8863   1.160   5.793   3.339
 2655SOL    HW1 8864   1.160   5.857   3.416
 2655SOL    HW2 8865   1.188   5.841   3.256
 2656SOL     OW 8866   0.008   6.912   2.062
 2656SOL    HW1 8867  -0.085   6.933   2.031
 2656SOL    HW2 8868   0.018   6.813   2.075
 2657SOL     OW 8869   1.002   6.382   3.100
 2657SOL    HW1 8870   1.043   6.350   3.186
 2657SOL    HW2 8871   0.906   6.355   3.097
 2658SOL     OW 8872   0.040   6.130   2.976
 2658SOL    HW1 8873   0.125   6.097   2.935
 2658SOL    HW2 8874   0.053   6.145   3.074
 2659SOL     OW 8875   0.189   6.106   3.584
 2659SOL    HW1 8876   0.248   6.066   3.514
 2659SOL    HW2 8877   0.131   6.177   3.543
 2660SOL     OW 8878   1.369   6.536   3.522
 2660SOL    HW1 8879   1.408   6.625   3.542
 2660SOL    HW2 8880   1.379   6.516   3.425
 2661SOL     OW 8881   0.815   6.158   2.187
 2661SOL    HW1 8882   0.822   6.069   2.141
 2661SOL    HW2 8883   0.721   6.192   2.179
 2662SOL     OW 8884   1.657   6.190   3.068
 2662SOL    HW1 8885   1.619   6.121   3.130
 2662SOL    HW2 8886   1.739   6.154   3.024
 2663SOL     OW 8887   0.671   6.050   3.131
 2663SOL    HW1 8888   0.637   5.961   3.101
 2663SOL    HW2 8889   0.697   6.104   3.051
 2664SOL     OW 8890   0.473   6.086   2.053
 2664SOL    HW1 8891   0.534   6.166   2.057
 2664SOL    HW2 8892   0.378   6.117   2.060
 2665SOL     OW 8893   0.159   6.723   3.328
 2665SOL    HW1 8894   0.181   6.662   3.404
 2665SOL    HW2 8895   0.169   6.674   3.242
 2666SOL     OW 8896   1.347   6.645   3.096
 2666SOL    HW1 8897   1.371   6.582   3.022
 2666SOL    HW2 8898   1.257   6.685   3.078
 2667SOL     OW 8899   1.302   6.441   2.171
 2667SOL    HW1 8900   1.216   6.410   2.213
 2667SOL    HW2 8901   1.298   6.427   2.072
 2668SOL     OW 8902   0.083   6.844   2.884
 2668SOL    HW1 8903   0.078   6.843   2.984
 2668SOL    HW2 8904   0.000   6.803   2.846
 2669SOL     OW 8905   1.726   5.721   2.385
 2669SOL    HW1 8906   1.799   5.704   2.318
 2669SOL    HW2 8907   1.695   5.634   2.423
 2670SOL     OW 8908   1.280   6.513   2.534
 2670SOL    HW1 8909   1.340   6.432   2.536
 2670SOL    HW2 8910   1.320   6.582   2.474
 2671SOL     OW 8911   0.830   6.859   3.284
 2671SOL    HW1 8912   0.825   6.892   3.379
 2671SOL    HW2 8913   0.744   6.878   3.238
 2672SOL     OW 8914   1.841   5.761   2.825
 2672SOL    HW1 8915   1.880   5.676   2.789
 2672SOL    HW2 8916   1.743   5.763   2.806
 2673SOL     OW 8917   0.263   5.912   2.582
 2673SOL    HW1 8918   0.184   5.963   2.548
 2673SOL    HW2 8919   0.254   5.897   2.680
 2674SOL     OW 8920   1.194   7.198   1.893
 2674SOL    HW1 8921   1.200   7.105   1.930
 2674SOL    HW2 8922   1.135   7.198   1.813
 2675SOL     OW 8923   0.822   6.588   3.234
 2675SOL    HW1 8924   0.862   6.587   3.142
 2675SOL    HW2 8925   0.832   6.680   3.274
 2676SOL     OW 8926   0.916   6.496   2.153
 2676SOL    HW1 8927   0.979   6.534   2.085
 2676SOL    HW2 8928   0.956   6.413   2.192
 2677SOL     OW 8929   0.372   6.874   3.352
 2677SOL    HW1 8930   0.359   6.967   3.318
 2677SOL    HW2 8931   0.288   6.822   3.339
 2678SOL     OW 8932   1.614   6.878   3.151
 2678SOL    HW1 8933   1.674   6.881   3.231
 2678SOL    HW2 8934   1.539   6.942   3.164
 2679SOL     OW 8935   1.039   6.684   2.558
 2679SOL    HW1 8936   0.969   6.637   2.612
 2679SOL    HW2 8937   1.098   6.616   2.515
 2680SOL     OW 8938   1.014   5.822   2.833
 2680SOL    HW1 8939   1.006   5.786   2.740
 2680SOL    HW2 8940   1.012   5.746   2.898
 2681SOL     OW 8941   1.709   5.971   3.243
 2681SOL    HW1 8942   1.782   6.040   3.247
 2681SOL    HW2 8943   1.737   5.896   3.184
 2682SOL     OW 8944   0.105   6.599   3.588
 2682SOL    HW1 8945   0.028   6.566   3.642
 2682SOL    HW2 8946   0.190   6.569   3.630
 2683SOL     OW 8947   0.672   5.789   3.351
 2683SOL    HW1 8948   0.762   5.773   3.311
 2683SOL    HW2 8949   0.680   5.794   3.450
 2684SOL     OW 8950   0.075   5.931   1.895
 2684SOL    HW1 8951  -0.017   5.903   1.866
 2684SOL    HW2 8952   0.106   6.008   1.839
 2685SOL     OW 8953   1.440   6.442   3.260
 2685SOL    HW1 8954   1.383   6.494   3.197
 2685SOL    HW2 8955   1.536   6.454   3.236
 2686SOL     OW 8956   0.072   5.752   2.180
 2686SOL    HW1 8957   0.055   5.835   2.126
 2686SOL    HW2 8958   0.162   5.715   2.158
 2687SOL     OW 8959   0.613   6.428   3.293
 2687SOL    HW1 8960   0.669   6.509   3.276
 2687SOL    HW2 8961   0.672   6.348   3.296
 2688SOL     OW 8962   0.716   6.151   3.570
 2688SOL    HW1 8963   0.735   6.216   3.644
 2688SOL    HW2 8964   0.776   6.071   3.579
 2689SOL     OW 8965   1.450   6.806   3.495
 2689SOL    HW1 8966   1.441   6.796   3.594
 2689SOL    HW2 8967   1.546   6.799   3.469
 2690SOL     OW 8968   1.674   6.469   3.116
 2690SOL    HW1 8969   1.647   6.380   3.079
 2690SOL    HW2 8970   1.675   6.537   3.043
 2691SOL     OW 8971   1.225   5.911   2.311
 2691SOL    HW1 8972   1.290   5.837   2.300
 2691SOL    HW2 8973   1.245   5.961   2.395
 2692SOL     OW 8974   0.594   6.331   2.514
 2692SOL    HW1 8975   0.644   6.416   2.495
 2692SOL    HW2 8976   0.506   6.333   2.466
 2693SOL     OW 8977   1.777   5.928   3.504
 2693SOL    HW1 8978   1.760   5.959   3.410
 2693SOL    HW2 8979   1.693   5.891   3.542
 2694SOL     OW 8980   1.730   6.520   3.379
 2694SOL    HW1 8981   1.768   6.611   3.394
 2694SOL    HW2 8982   1.722   6.503   3.280
 2695SOL     OW 8983   0.859   6.542   2.723
 2695SOL    HW1 8984   0.913   6.473   2.771
 2695SOL    HW2 8985   0.827   6.611   2.789
 2696SOL     OW 8986   1.083   6.570   1.949
 2696SOL    HW1 8987   1.060   6.623   1.867
 2696SOL    HW2 8988   1.164   6.514   1.930
 2697SOL     OW 8989   0.221   6.900   3.706
 2697SOL    HW1 8990   0.156   6.827   3.685
 2697SOL    HW2 8991   0.225   6.914   3.804
 2698SOL     OW 8992   0.079   6.826   2.515
 2698SOL    HW1 8993   0.078   6.779   2.603
 2698SOL    HW2 8994   0.161   6.798   2.464
 2699SOL     OW 8995   0.672   6.977   3.486
 2699SOL    HW1 8996   0.594   6.927   3.524
 2699SOL    HW2 8997   0.669   7.072   3.517
 2700SOL     OW 8998   1.824   5.778   3.089
 2700SOL    HW1 8999   1.820   5.688   3.133
 2700SOL    HW2 9000   1.827   5.767   2.990
 2701SOL     OW 9001   0.428   6.010   2.382
 2701SOL    HW1 9002   0.458   5.938   2.320
 2701SOL    HW2 9003   0.389   5.970   2.465
 2702SOL     OW 9004   1.705   7.073   2.966
 2702SOL    HW1 9005   1.612   7.048   2.939
 2702SOL    HW2 9006   1.731   7.023   3.048
 2703SOL     OW 9007   0.317   6.133   3.142
 2703SOL    HW1 9008   0.355   6.074   3.214
 2703SOL    HW2 9009   0.357   6.107   3.054
 2704SOL     OW 9010   1.424   5.800   2.974
 2704SOL    HW1 9011   1.476   5.735   3.029
 2704SOL    HW2 9012   1.375   5.863   3.035
 2705SOL     OW 9013   1.001   5.620   3.016
 2705SOL    HW1 9014   0.938   5.548   2.985
 2705SOL    HW2 9015   1.094   5.584   3.016
 2706SOL     OW 9016   0.770   6.916   2.163
 2706SOL    HW1 9017   0.724   6.829   2.180
 2706SOL    HW2 9018   0.861   6.913   2.204
 2707SOL     OW 9019   1.352   5.638   2.030
 2707SOL    HW1 9020   1.387   5.597   1.946
 2707SOL    HW2 9021   1.262   5.600   2.050
 2708SOL     OW 9022   1.300   6.039   2.553
 2708SOL    HW1 9023   1.241   6.119   2.557
 2708SOL    HW2 9024   1.315   6.004   2.646
 2709SOL     OW 9025   1.593   5.807   2.744
 2709SOL    HW1 9026   1.509   5.806   2.798
 2709SOL    HW2 9027   1.595   5.890   2.688
 2710SOL     OW 9028   0.039   6.663   2.162
 2710SOL    HW1 9029   0.138   6.652   2.153
 2710SOL    HW2 9030  -0.001   6.577   2.194
 2711SOL     OW 9031   0.230   6.214   3.837
 2711SOL    HW1 9032   0.137   6.212   3.874
 2711SOL    HW2 9033   0.231   6.175   3.745
 2712SOL     OW 9034   0.225   5.861   4.720
 2712SOL    HW1 9035   0.260   5.844   4.812
 2712SOL    HW2 9036   0.137   5.816   4.708
 2713SOL     OW 9037   0.019   5.954   4.371
 2713SOL    HW1 9038  -0.063   5.997   4.410
 2713SOL    HW2 9039  -0.009   5.881   4.308
 2714SOL     OW 9040   0.569   6.861   4.889
 2714SOL    HW1 9041   0.476   6.854   4.852
 2714SOL    HW2 9042   0.580   6.950   4.933
 2715SOL     OW 9043   1.555   7.097   4.427
 2715SOL    HW1 9044   1.498   7.081   4.508
 2715SOL    HW2 9045   1.496   7.107   4.347
 2716SOL     OW 9046   1.135   6.289   4.441
 2716SOL    HW1 9047   1.192   6.367   4.416
 2716SOL    HW2 9048   1.075   6.315   4.517
 2717SOL     OW 9049   1.755   6.193   3.955
 2717SOL    HW1 9050   1.743   6.180   3.856
 2717SOL    HW2 9051   1.725   6.112   4.004
 2718SOL     OW 9052   0.768   6.730   4.747
 2718SOL    HW1 9053   0.690   6.747   4.807
 2718SOL    HW2 9054   0.802   6.817   4.711
 2719SOL     OW 9055   0.850   6.384   5.547
 2719SOL    HW1 9056   0.846   6.460   5.612
 2719SOL    HW2 9057   0.872   6.420   5.456
 2720SOL     OW 9058   0.685   6.598   4.389
 2720SOL    HW1 9059   0.754   6.582   4.459
 2720SOL    HW2 9060   0.612   6.655   4.427
 2721SOL     OW 9061   0.686   6.747   5.527
 2721SOL    HW1 9062   0.746   6.826   5.541
 2721SOL    HW2 9063   0.600   6.778   5.486
 2722SOL     OW 9064   0.335   7.021   4.785
 2722SOL    HW1 9065   0.257   6.990   4.732
 2722SOL    HW2 9066   0.393   7.079   4.728
 2723SOL     OW 9067   0.438   5.978   5.223
 2723SOL    HW1 9068   0.520   5.922   5.232
 2723SOL    HW2 9069   0.357   5.920   5.227
 2724SOL     OW 9070   1.603   6.033   4.461
 2724SOL    HW1 9071   1.529   6.079   4.411
 2724SOL    HW2 9072   1.654   6.101   4.514
 2725SOL     OW 9073   0.240   6.677   4.610
 2725SOL    HW1 9074   0.254   6.593   4.662
 2725SOL    HW2 9075   0.185   6.741   4.665
 2726SOL     OW 9076   0.606   6.550   3.847
 2726SOL    HW1 9077   0.613   6.634   3.793
 2726SOL    HW2 9078   0.652   6.563   3.935
 2727SOL     OW 9079   1.594   5.700   5.204
 2727SOL    HW1 9080   1.576   5.767   5.132
 2727SOL    HW2 9081   1.591   5.746   5.293
 2728SOL     OW 9082   0.122   6.229   4.287
 2728SOL    HW1 9083   0.077   6.141   4.304
 2728SOL    HW2 9084   0.121   6.283   4.371
 2729SOL     OW 9085   1.689   6.508   4.336
 2729SOL    HW1 9086   1.784   6.479   4.344
 2729SOL    HW2 9087   1.681   6.573   4.261
 2730SOL     OW 9088   1.641   6.694   4.156
 2730SOL    HW1 9089   1.727   6.696   4.104
 2730SOL    HW2 9090   1.655   6.741   4.244
 2731SOL     OW 9091   0.113   6.323   5.321
 2731SOL    HW1 9092   0.201   6.310   5.366
 2731SOL    HW2 9093   0.100   6.420   5.299
 2732SOL     OW 9094   1.293   6.814   5.147
 2732SOL    HW1 9095   1.330   6.741   5.089
 2732SOL    HW2 9096   1.345   6.819   5.232
 2733SOL     OW 9097   0.809   5.590   4.226
 2733SOL    HW1 9098   0.849   5.681   4.217
 2733SOL    HW2 9099   0.709   5.598   4.232
 2734SOL     OW 9100   0.197   6.562   4.988
 2734SOL    HW1 9101   0.286   6.517   4.974
 2734SOL    HW2 9102   0.124   6.497   4.969
 2735SOL     OW 9103   1.525   6.585   3.914
 2735SOL    HW1 9104   1.462   6.509   3.927
 2735SOL    HW2 9105   1.573   6.603   4.000
 2736SOL     OW 9106   0.317   5.837   5.525
 2736SOL    HW1 9107   0.388   5.908   5.531
 2736SOL    HW2 9108   0.229   5.876   5.553
 2737SOL     OW 9109   1.466   7.003   4.677
 2737SOL    HW1 9110   1.407   7.009   4.757
 2737SOL    HW2 9111   1.451   6.915   4.631
 2738SOL     OW 9112   0.598   6.315   3.994
 2738SOL    HW1 9113   0.622   6.384   3.926
 2738SOL    HW2 9114   0.520   6.348   4.048
 2739SOL     OW 9115   1.281   5.931   4.668
 2739SOL    HW1 9116   1.195   5.881   4.655
 2739SOL    HW2 9117   1.343   5.877   4.724
 2740SOL     OW 9118   0.807   6.191   5.189
 2740SOL    HW1 9119   0.760   6.188   5.278
 2740SOL    HW2 9120   0.756   6.136   5.123
 2741SOL     OW 9121   1.394   6.055   5.398
 2741SOL    HW1 9122   1.374   6.098   5.486
 2741SOL    HW2 9123   1.472   5.993   5.407
 2742SOL     OW 9124   0.973   6.476   5.296
 2742SOL    HW1 9125   1.019   6.392   5.267
 2742SOL    HW2 9126   0.917   6.510   5.221
 2743SOL     OW 9127   0.991   5.996   4.966
 2743SOL    HW1 9128   0.914   6.030   5.020
 2743SOL    HW2 9129   0.957   5.945   4.887
 2744SOL     OW 9130   1.041   6.287   4.153
 2744SOL    HW1 9131   1.067   6.283   4.249
 2744SOL    HW2 9132   0.956   6.236   4.139
 2745SOL     OW 9133   0.076   6.397   4.513
 2745SOL    HW1 9134   0.175   6.385   4.522
 2745SOL    HW2 9135   0.052   6.492   4.534
 2746SOL     OW 9136   0.865   5.934   3.919
 2746SOL    HW1 9137   0.924   5.997   3.870
 2746SOL    HW2 9138   0.884   5.840   3.890
 2747SOL     OW 9139   1.719   6.171   5.555
 2747SOL    HW1 9140   1.693   6.260   5.519
 2747SOL    HW2 9141   1.717   6.103   5.482
 2748SOL     OW 9142   1.362   6.730   4.269
 2748SOL    HW1 9143   1.445   6.701   4.221
 2748SOL    HW2 9144   1.313   6.797   4.213
 2749SOL     OW 9145   0.550   5.782   4.609
 2749SOL    HW1 9146   0.545   5.777   4.709
 2749SOL    HW2 9147   0.552   5.878   4.580
 2750SOL     OW 9148   1.795   6.652   4.597
 2750SOL    HW1 9149   1.733   6.637   4.521
 2750SOL    HW2 9150   1.743   6.663   4.682
 2751SOL     OW 9151   0.321   6.529   3.966
 2751SOL    HW1 9152   0.403   6.568   3.924
 2751SOL    HW2 9153   0.294   6.447   3.917
 2752SOL     OW 9154   1.458   6.321   4.452
 2752SOL    HW1 9155   1.453   6.256   4.527
 2752SOL    HW2 9156   1.538   6.380   4.465
 2753SOL     OW 9157   0.202   5.871   5.222
 2753SOL    HW1 9158   0.122   5.931   5.209
 2753SOL    HW2 9159   0.192   5.822   5.308
 2754SOL     OW 9160   1.632   6.963   3.805
 2754SOL    HW1 9161   1.600   7.057   3.795
 2754SOL    HW2 9162   1.556   6.900   3.793
 2755SOL     OW 9163   1.400   5.693   4.150
 2755SOL    HW1 9164   1.376   5.656   4.060
 2755SOL    HW2 9165   1.499   5.709   4.154
 2756SOL     OW 9166   0.382   6.286   4.204
 2756SOL    HW1 9167   0.427   6.196   4.201
 2756SOL    HW2 9168   0.288   6.275   4.237
 2757SOL     OW 9169   1.547   5.808   5.453
 2757SOL    HW1 9170   1.542   5.845   5.545
 2757SOL    HW2 9171   1.475   5.739   5.441
 2758SOL     OW 9172   0.614   5.708   3.841
 2758SOL    HW1 9173   0.712   5.686   3.848
 2758SOL    HW2 9174   0.583   5.691   3.748
 2759SOL     OW 9175   0.781   5.850   5.473
 2759SOL    HW1 9176   0.848   5.789   5.516
 2759SOL    HW2 9177   0.708   5.869   5.538
 2760SOL     OW 9178   1.351   6.176   5.157
 2760SOL    HW1 9179   1.379   6.133   5.242
 2760SOL    HW2 9180   1.376   6.272   5.158
 2761SOL     OW 9181   0.922   6.089   4.623
 2761SOL    HW1 9182   0.897   6.080   4.527
 2761SOL    HW2 9183   0.970   6.007   4.654
 2762SOL     OW 9184   0.539   5.650   4.236
 2762SOL    HW1 9185   0.458   5.651   4.294
 2762SOL    HW2 9186   0.542   5.733   4.181
 2763SOL     OW 9187   1.434   6.774   3.765
 2763SOL    HW1 9188   1.466   6.698   3.822
 2763SOL    HW2 9189   1.342   6.801   3.795
 2764SOL     OW 9190   0.297   5.621   3.895
 2764SOL    HW1 9191   0.346   5.705   3.874
 2764SOL    HW2 9192   0.359   5.556   3.940
 2765SOL     OW 9193   0.935   5.822   4.204
 2765SOL    HW1 9194   0.887   5.863   4.126
 2765SOL    HW2 9195   1.034   5.820   4.185
 2766SOL     OW 9196   1.076   6.269   5.188
 2766SOL    HW1 9197   0.996   6.208   5.191
 2766SOL    HW2 9198   1.157   6.216   5.164
 2767SOL     OW 9199   1.227   7.156   4.517
 2767SOL    HW1 9200   1.248   7.230   4.452
 2767SOL    HW2 9201   1.295   7.156   4.590
 2768SOL     OW 9202   0.459   6.738   4.465
 2768SOL    HW1 9203   0.388   6.711   4.530
 2768SOL    HW2 9204   0.433   6.710   4.372
 2769SOL     OW 9205   1.032   6.135   3.740
 2769SOL    HW1 9206   0.991   6.217   3.701
 2769SOL    HW2 9207   1.096   6.161   3.813
 2770SOL     OW 9208   0.078   6.142   5.110
 2770SOL    HW1 9209   0.170   6.141   5.069
 2770SOL    HW2 9210   0.072   6.216   5.177
 2771SOL     OW 9211   0.561   5.808   4.871
 2771SOL    HW1 9212   0.599   5.724   4.908
 2771SOL    HW2 9213   0.473   5.827   4.915
 2772SOL     OW 9214   0.866   6.040   4.366
 2772SOL    HW1 9215   0.834   6.112   4.304
 2772SOL    HW2 9216   0.890   5.959   4.313
 2773SOL     OW 9217   1.017   5.625   4.477
 2773SOL    HW1 9218   0.945   5.630   4.408
 2773SOL    HW2 9219   0.993   5.556   4.546
 2774SOL     OW 9220   1.429   6.759   4.591
 2774SOL    HW1 9221   1.374   6.675   4.584
 2774SOL    HW2 9222   1.455   6.788   4.499
 2775SOL     OW 9223   1.466   6.176   4.716
 2775SOL    HW1 9224   1.436   6.081   4.723
 2775SOL    HW2 9225   1.539   6.192   4.782
 2776SOL     OW 9226   1.857   6.419   4.101
 2776SOL    HW1 9227   1.899   6.355   4.165
 2776SOL    HW2 9228   1.819   6.368   4.023
 2777SOL     OW 9229   1.664   6.866   4.381
 2777SOL    HW1 9230   1.763   6.874   4.395
 2777SOL    HW2 9231   1.619   6.950   4.412
 2778SOL     OW 9232   1.390   6.161   3.802
 2778SOL    HW1 9233   1.336   6.140   3.883
 2778SOL    HW2 9234   1.481   6.120   3.811
 2779SOL     OW 9235   0.527   5.842   4.052
 2779SOL    HW1 9236   0.554   5.783   3.977
 2779SOL    HW2 9237   0.527   5.937   4.021
 2780SOL     OW 9238   1.754   6.809   5.312
 2780SOL    HW1 9239   1.845   6.770   5.299
 2780SOL    HW2 9240   1.762   6.905   5.336
 2781SOL     OW 9241   1.064   6.933   5.064
 2781SOL    HW1 9242   0.984   6.910   5.119
 2781SOL    HW2 9243   1.147   6.907   5.113
 2782SOL     OW 9244   1.111   6.781   4.824
 2782SOL    HW1 9245   1.071   6.825   4.905
 2782SOL    HW2 9246   1.070   6.818   4.741
 2783SOL     OW 9247   1.638   6.685   4.803
 2783SOL    HW1 9248   1.643   6.766   4.862
 2783SOL    HW2 9249   1.552   6.687   4.752
 2784SOL     OW 9250   0.915   5.675   5.126
 2784SOL    HW1 9251   0.940   5.655   5.031
 2784SOL    HW2 9252   0.987   5.731   5.168
 2785SOL     OW 9253   0.980   6.702   5.443
 2785SOL    HW1 9254   0.881   6.708   5.453
 2785SOL    HW2 9255   1.003   6.622   5.387
 2786SOL     OW 9256   0.705   6.636   4.092
 2786SOL    HW1 9257   0.691   6.643   4.191
 2786SOL    HW2 9258   0.789   6.585   4.074
 2787SOL     OW 9259   0.410   6.399   4.975
 2787SOL    HW1 9260   0.496   6.411   5.025
 2787SOL    HW2 9261   0.368   6.312   5.002
 2788SOL     OW 9262   1.274   5.972   4.986
 2788SOL    HW1 9263   1.295   6.046   5.050
 2788SOL    HW2 9264   1.185   5.989   4.943
 2789SOL     OW 9265   0.064   7.150   5.055
 2789SOL    HW1 9266   0.018   7.232   5.021
 2789SOL    HW2 9267   0.162   7.169   5.064
 2790SOL     OW 9268   0.367   6.686   4.225
 2790SOL    HW1 9269   0.360   6.769   4.169
 2790SOL    HW2 9270   0.371   6.606   4.165
 2791SOL     OW 9271   0.566   6.123   4.589
 2791SOL    HW1 9272   0.578   6.189   4.515
 2791SOL    HW2 9273   0.612   6.157   4.672
 2792SOL     OW 9274   1.582   6.225   4.196
 2792SOL    HW1 9275   1.551   6.286   4.269
 2792SOL    HW2 9276   1.632   6.277   4.127
 2793SOL     OW 9277   0.402   6.337   5.322
 2793SOL    HW1 9278   0.470   6.392   5.275
 2793SOL    HW2 9279   0.442   6.249   5.349
 2794SOL     OW 9280   1.587   6.365   5.394
 2794SOL    HW1 9281   1.495   6.403   5.389
 2794SOL    HW2 9282   1.647   6.412   5.329
 2795SOL     OW 9283   1.013   5.691   5.494
 2795SOL    HW1 9284   1.019   5.776   5.442
 2795SOL    HW2 9285   1.045   5.615   5.437
 2796SOL     OW 9286   0.504   5.636   5.464
 2796SOL    HW1 9287   0.462   5.579   5.394
 2796SOL    HW2 9288   0.438   5.705   5.496
 2797SOL     OW 9289   0.573   6.456   4.753
 2797SOL    HW1 9290   0.617   6.545   4.744
 2797SOL    HW2 9291   0.510   6.456   4.830
 2798SOL     OW 9292   1.360   6.448   4.769
 2798SOL    HW1 9293   1.285   6.448   4.703
 2798SOL    HW2 9294   1.397   6.356   4.778
 2799SOL     OW 9295   1.209   6.111   3.999
 2799SOL    HW1 9296   1.222   6.027   4.053
 2799SOL    HW2 9297   1.180   6.185   4.059
 2800SOL     OW 9298   0.307   5.799   4.955
 2800SOL    HW1 9299   0.284   5.836   5.045
 2800SOL    HW2 9300   0.277   5.704   4.949
 2801SOL     OW 9301   0.037   6.896   5.006
 2801SOL    HW1 9302   0.090   6.847   5.074
 2801SOL    HW2 9303   0.059   6.994   5.011
 2802SOL     OW 9304   0.732   6.220   4.788
 2802SOL    HW1 9305   0.791   6.194   4.712
 2802SOL    HW2 9306   0.704   6.316   4.777
 2803SOL     OW 9307   1.728   6.521   5.578
 2803SOL    HW1 9308   1.682   6.514   5.489
 2803SOL    HW2 9309   1.666   6.565   5.644
 2804SOL     OW 9310   0.307   5.649   4.342
 2804SOL    HW1 9311   0.296   5.743   4.375
 2804SOL    HW2 9312   0.302   5.586   4.419
 2805SOL     OW 9313   1.622   5.953   4.098
 2805SOL    HW1 9314   1.624   5.877   4.162
 2805SOL    HW2 9315   1.574   6.030   4.138
 2806SOL     OW 9316   1.023   6.352   4.690
 2806SOL    HW1 9317   1.038   6.373   4.786
 2806SOL    HW2 9318   0.993   6.257   4.681
 2807SOL     OW 9319   1.859   7.104   5.329
 2807SOL    HW1 9320   1.873   7.131   5.234
 2807SOL    HW2 9321   1.942   7.126   5.382
 2808SOL     OW 9322   0.350   6.484   5.528
 2808SOL    HW1 9323   0.426   6.528   5.576
 2808SOL    HW2 9324   0.385   6.437   5.446
 2809SOL     OW 9325   1.540   5.860   3.849
 2809SOL    HW1 9326   1.479   5.785   3.872
 2809SOL    HW2 9327   1.562   5.912   3.932
 2810SOL     OW 9328   1.303   6.424   3.766
 2810SOL    HW1 9329   1.337   6.331   3.781
 2810SOL    HW2 9330   1.321   6.451   3.671
 2811SOL     OW 9331   0.319   6.396   4.673
 2811SOL    HW1 9332   0.412   6.432   4.678
 2811SOL    HW2 9333   0.313   6.311   4.725
 2812SOL     OW 9334   0.339   6.095   4.730
 2812SOL    HW1 9335   0.287   6.012   4.713
 2812SOL    HW2 9336   0.416   6.100   4.666
 2813SOL     OW 9337   1.138   5.966   5.402
 2813SOL    HW1 9338   1.093   6.029   5.466
 2813SOL    HW2 9339   1.231   5.997   5.385
 2814SOL     OW 9340   1.160   5.793   5.201
 2814SOL    HW1 9341   1.160   5.857   5.278
 2814SOL    HW2 9342   1.188   5.841   5.118
 2815SOL     OW 9343   0.008   6.912   3.924
 2815SOL    HW1 9344  -0.085   6.933   3.893
 2815SOL    HW2 9345   0.018   6.813   3.937
 2816SOL     OW 9346   1.002   6.382   4.962
 2816SOL    HW1 9347   1.043   6.350   5.048
 2816SOL    HW2 9348   0.906   6.355   4.959
 2817SOL     OW 9349   0.040   6.130   4.838
 2817SOL    HW1 9350   0.125   6.097   4.797
 2817SOL    HW2 9351   0.053   6.145   4.936
 2818SOL     OW 9352   0.189   6.106   5.446
 2818SOL    HW1 9353   0.248   6.066   5.376
 2818SOL    HW2 9354   0.131   6.177   5.405
 2819SOL     OW 9355   1.369   6.536   5.384
 2819SOL    HW1 9356   1.408   6.625   5.404
 2819SOL    HW2 9357   1.379   6.516   5.287
 2820SOL     OW 9358   0.815   6.158   4.049
 2820SOL    HW1 9359   0.822   6.069   4.003
 2820SOL    HW2 9360   0.721   6.192   4.041
 2821SOL     OW 9361   1.657   6.190   4.930
 2821SOL    HW1 9362   1.619   6.121   4.992
 2821SOL    HW2 9363   1.739   6.154   4.886
 2822SOL     OW 9364   0.671   6.050   4.993
 2822SOL    HW1 9365   0.637   5.961   4.963
 2822SOL    HW2 9366   0.697   6.104   4.913
 2823SOL     OW 9367   0.473   6.086   3.915
 2823SOL    HW1 9368   0.534   6.166   3.919
 2823SOL    HW2 9369   0.378   6.117   3.922
 2824SOL     OW 9370   0.159   6.723   5.190
 2824SOL    HW1 9371   0.181   6.662   5.266
 2824SOL    HW2 9372   0.169   6.674   5.104
 2825SOL     OW 9373   1.347   6.645   4.958
 2825SOL    HW1 9374   1.371   6.582   4.884
 2825SOL    HW2 9375   1.257   6.685   4.940
 2826SOL     OW 9376   1.302   6.441   4.033
 2826SOL    HW1 9377   1.216   6.410   4.075
 2826SOL    HW2 9378   1.298   6.427   3.934
 2827SOL     OW 9379   0.083   6.844   4.746
 2827SOL    HW1 9380   0.078   6.843   4.846
 2827SOL    HW2 9381   0.000   6.803   4.708
 2828SOL     OW 9382   1.726   5.721   4.247
 2828SOL    HW1 9383   1.799   5.704   4.180
 2828SOL    HW2 9384   1.695   5.634   4.285
 2829SOL     OW 9385   1.280   6.513   4.396
 2829SOL    HW1 9386   1.340   6.432   4.398
 2829SOL    HW2 9387   1.320   6.582   4.336
 2830SOL     OW 9388   0.830   6.859   5.146
 2830SOL    HW1 9389   0.825   6.892   5.241
 2830SOL    HW2 9390   0.744   6.878   5.100
 2831SOL     OW 9391   1.841   5.761   4.687
 2831SOL    HW1 9392   1.880   5.676   4.651
 2831SOL    HW2 9393   1.743   5.763   4.668
 2832SOL     OW 9394   0.263   5.912   4.444
 2832SOL    HW1 9395   0.184   5.963   4.410
 2832SOL    HW2 9396   0.254   5.897   4.542
 2833SOL     OW 9397   1.194   7.198   3.755
 2833SOL    HW1 9398   1.200   7.105   3.792
 2833SOL    HW2 9399   1.135   7.198   3.675
 2834SOL     OW 9400   0.822   6.588   5.096
 2834SOL    HW1 9401   0.862   6.587   5.004
 2834SOL    HW2 9402   0.832   6.680   5.136
 2835SOL     OW 9403   0.916   6.496   4.015
 2835SOL    HW1 9404   0.979   6.534   3.947
 2835SOL    HW2 9405   0.956   6.413   4.054
 2836SOL     OW 9406   0.372   6.874   5.214
 2836SOL    HW1 9407   0.359   6.967   5.180
 2836SOL    HW2 9408   0.288   6.822   5.201
 2837SOL     OW 9409   1.614   6.878   5.013
 2837SOL    HW1 9410   1.674   6.881   5.093
 2837SOL    HW2 9411   1.539   6.942   5.026
 2838SOL     OW 9412   1.039   6.684   4.420
 2838SOL    HW1 9413   0.969   6.637   4.474
 2838SOL    HW2 9414   1.098   6.616   4.377
 2839SOL     OW 9415   1.014   5.822   4.695
 2839SOL    HW1 9416   1.006   5.786   4.602
 2839SOL    HW2 9417   1.012   5.746   4.760
 2840SOL     OW 9418   1.709   5.971   5.105
 2840SOL    HW1 9419   1.782   6.040   5.109
 2840SOL    HW2 9420   1.737   5.896   5.046
 2841SOL     OW 9421   0.105   6.599   5.450
 2841SOL    HW1 9422   0.028   6.566   5.504
 2841SOL    HW2 9423   0.190   6.569   5.492
 2842SOL     OW 9424   0.672   5.789   5.213
 2842SOL    HW1 9425   0.762   5.773   5.173
 2842SOL    HW2 9426   0.680   5.794   5.312
 2843SOL     OW 9427   0.075   5.931   3.757
 2843SOL    HW1 9428  -0.017   5.903   3.728
 2843SOL    HW2 9429   0.106   6.008   3.701
 2844SOL     OW 9430   1.440   6.442   5.122
 2844SOL    HW1 9431   1.383   6.494   5.059
 2844SOL    HW2 9432   1.536   6.454   5.098
 2845SOL     OW 9433   0.072   5.752   4.042
 2845SOL    HW1 9434   0.055   5.835   3.988
 2845SOL    HW2 9435   0.162   5.715   4.020
 2846SOL     OW 9436   0.613   6.428   5.155
 2846SOL    HW1 9437   0.669   6.509   5.138
 2846SOL    HW2 9438   0.672   6.348   5.158
 2847SOL     OW 9439   0.716   6.151   5.432
 2847SOL    HW1 9440   0.735   6.216   5.506
 2847SOL    HW2 9441   0.776   6.071   5.441
 2848SOL     OW 9442   1.450   6.806   5.357
 2848SOL    HW1 9443   1.441   6.796   5.456
 2848SOL    HW2 9444   1.546   6.799   5.331
 2849SOL     OW 9445   1.674   6.469   4.978
 2849SOL    HW1 9446   1.647   6.380   4.941
 2849SOL    HW2 9447   1.675   6.537   4.905
 2850SOL     OW 9448   1.225   5.911   4.173
 2850SOL    HW1 9449   1.290   5.837   4.162
 2850SOL    HW2 9450   1.245   5.961   4.257
 2851SOL     OW 9451   0.594   6.331   4.376
 2851SOL    HW1 9452   0.644   6.416   4.357
 2851SOL    HW2 9453   0.506   6.333   4.328
 2852SOL     OW 9454   1.777   5.928   5.366
 2852SOL    HW1 9455   1.760   5.959   5.272
 2852SOL    HW2 9456   1.693   5.891   5.404
 2853SOL     OW 9457   1.730   6.520   5.241
 2853SOL    HW1 9458   1.768   6.611   5.256
 2853SOL    HW2 9459   1.722   6.503   5.142
 2854SOL     OW 9460   0.859   6.542   4.585
 2854SOL    HW1 9461   0.913   6.473   4.633
 2854SOL    HW2 9462   0.827   6.611   4.651
 2855SOL     OW 9463   1.083   6.570   3.811
 2855SOL    HW1 9464   1.060   6.623   3.729
 2855SOL    HW2 9465   1.164   6.514   3.792
 2856SOL     OW 9466   0.221   6.900   5.568
 2856SOL    HW1 9467   0.156   6.827   5.547
 2856SOL    HW2 9468   0.225   6.914   5.666
 2857SOL     OW 9469   0.079   6.826   4.377
 2857SOL    HW1 9470   0.078   6.779   4.465
 2857SOL    HW2 9471   0.161   6.798   4.326
 2858SOL     OW 9472   0.672   6.977   5.348
 2858SOL    HW1 9473   0.594   6.927   5.386
 2858SOL    HW2 9474   0.669   7.072   5.379
 2859SOL     OW 9475   1.824   5.778   4.951
 2859SOL    HW1 9476   1.820   5.688   4.995
 2859SOL    HW2 9477   1.827   5.767   4.852
 2860SOL     OW 9478   0.428   6.010   4.244
 2860SOL    HW1 9479   0.458   5.938   4.182
 2860SOL    HW2 9480   0.389   5.970   4.327
 2861SOL     OW 9481   1.705   7.073   4.828
 2861SOL    HW1 9482   1.612   7.048   4.801
 2861SOL    HW2 9483   1.731   7.023   4.910
 2862SOL     OW 9484   0.317   6.133   5.004
 2862SOL    HW1 9485   0.355   6.074   5.076
 2862SOL    HW2 9486   0.357   6.107   4.916
 2863SOL     OW 9487   1.424   5.800   4.836
 2863SOL    HW1 9488   1.476   5.735   4.891
 2863SOL    HW2 9489   1.375   5.863   4.897
 2864SOL     OW 9490   1.001   5.620   4.878
 2864SOL    HW1 9491   0.938   5.548   4.847
 2864SOL    HW2 9492   1.094   5.584   4.878
 2865SOL     OW 9493   0.770   6.916   4.025
 2865SOL    HW1 9494   0.724   6.829   4.042
 2865SOL    HW2 9495   0.861   6.913   4.066
 2866SOL     OW 9496   1.352   5.638   3.892
 2866SOL    HW1 9497   1.387   5.597   3.808
 2866SOL    HW2 9498   1.262   5.600   3.912
 2867SOL     OW 9499   1.300   6.039   4.415
 2867SOL    HW1 9500   1.241   6.119   4.419
 2867SOL    HW2 9501   1.315   6.004   4.508
 2868SOL     OW 9502   1.593   5.807   4.606
 2868SOL    HW1 9503   1.509   5.806   4.660
 2868SOL    HW2 9504   1.595   5.890   4.550
 2869SOL     OW 9505   0.039   6.663   4.024
 2869SOL    HW1 9506   0.138   6.652   4.015
 2869SOL    HW2 9507  -0.001   6.577   4.056
 2870SOL     OW 9508   0.230   6.214   5.699
 2870SOL    HW1 9509   0.137   6.212   5.736
 2870SOL    HW2 9510   0.231   6.175   5.607
 2871SOL     OW 9511   0.225   5.861   6.582
 2871SOL    HW1 9512   0.260   5.844   6.674
 2871SOL    HW2 9513   0.137   5.816   6.570
 2872SOL     OW 9514   0.019   5.954   6.233
 2872SOL    HW1 9515  -0.063   5.997   6.272
 2872SOL    HW2 9516  -0.009   5.881   6.170
 2873SOL     OW 9517   0.569   6.861   6.751
 2873SOL    HW1 9518   0.476   6.854   6.714
 2873SOL    HW2 9519   0.580   6.950   6.795
 2874SOL     OW 9520   1.555   7.097   6.289
 2874SOL    HW1 9521   1.498   7.081   6.370
 2874SOL    HW2 9522   1.496   7.107   6.209
 2875SOL     OW 9523   1.135   6.289   6.303
 2875SOL    HW1 9524   1.192   6.367   6.278
 2875SOL    HW2 9525   1.075   6.315   6.379
 2876SOL     OW 9526   1.755   6.193   5.817
 2876SOL    HW1 9527   1.743   6.180   5.718
 2876SOL    HW2 9528   1.725   6.112   5.866
 2877SOL     OW 9529   0.768   6.730   6.609
 2877SOL    HW1 9530   0.690   6.747   6.669
 2877SOL    HW2 9531   0.802   6.817   6.573
 2878SOL     OW 9532   0.685   6.598   6.251
 2878SOL    HW1 9533   0.754   6.582   6.321
 2878SOL    HW2 9534   0.612   6.655   6.289
 2879SOL     OW 9535   0.335   7.021   6.647
 2879SOL    HW1 9536   0.257   6.990   6.594
 2879SOL    HW2 9537   0.393   7.079   6.590
 2880SOL     OW 9538   1.603   6.033   6.323
 2880SOL    HW1 9539   1.529   6.079   6.273
 2880SOL    HW2 9540   1.654   6.101   6.376
 2881SOL     OW 9541   0.240   6.677   6.472
 2881SOL    HW1 9542   0.254   6.593   6.524
 2881SOL    HW2 9543   0.185   6.741   6.527
 2882SOL     OW 9544   0.606   6.550   5.709
 2882SOL    HW1 9545   0.613   6.634   5.655
 2882SOL    HW2 9546   0.652   6.563   5.797
 2883SOL     OW 9547   0.122   6.229   6.149
 2883SOL    HW1 9548   0.077   6.141   6.166
 2883SOL    HW2 9549   0.121   6.283   6.233
 2884SOL     OW 9550   1.689   6.508   6.198
 2884SOL    HW1 9551   1.784   6.479   6.206
 2884SOL    HW2 9552   1.681   6.573   6.123
 2885SOL     OW 9553   1.641   6.694   6.018
 2885SOL    HW1 9554   1.727   6.696   5.966
 2885SOL    HW2 9555   1.655   6.741   6.106
 2886SOL     OW 9556   0.809   5.590   6.088
 2886SOL    HW1 9557   0.849   5.681   6.079
 2886SOL    HW2 9558   0.709   5.598   6.094
 2887SOL     OW 9559   0.197   6.562   6.850
 2887SOL    HW1 9560   0.286   6.517   6.836
 2887SOL    HW2 9561   0.124   6.497   6.831
 2888SOL     OW 9562   1.525   6.585   5.776
 2888SOL    HW1 9563   1.462   6.509   5.789
 2888SOL    HW2 9564   1.573   6.603   5.862
 2889SOL     OW 9565   1.466   7.003   6.539
 2889SOL    HW1 9566   1.407   7.009   6.619
 2889SOL    HW2 9567   1.451   6.915   6.493
 2890SOL     OW 9568   0.598   6.315   5.856
 2890SOL    HW1 9569   0.622   6.384   5.788
 2890SOL    HW2 9570   0.520   6.348   5.910
 2891SOL     OW 9571   1.281   5.931   6.530
 2891SOL    HW1 9572   1.195   5.881   6.517
 2891SOL    HW2 9573   1.343   5.877   6.586
 2892SOL     OW 9574   0.807   6.191   7.051
 2892SOL    HW1 9575   0.760   6.188   7.140
 2892SOL    HW2 9576   0.756   6.136   6.985
 2893SOL     OW 9577   0.991   5.996   6.828
 2893SOL    HW1 9578   0.914   6.030   6.882
 2893SOL    HW2 9579   0.957   5.945   6.749
 2894SOL     OW 9580   1.041   6.287   6.015
 2894SOL    HW1 9581   1.067   6.283   6.111
 2894SOL    HW2 9582   0.956   6.236   6.001
 2895SOL     OW 9583   0.076   6.397   6.375
 2895SOL    HW1 9584   0.175   6.385   6.384
 2895SOL    HW2 9585   0.052   6.492   6.396
 2896SOL     OW 9586   0.865   5.934   5.781
 2896SOL    HW1 9587   0.924   5.997   5.732
 2896SOL    HW2 9588   0.884   5.840   5.752
 2897SOL     OW 9589   1.362   6.730   6.131
 2897SOL    HW1 9590   1.445   6.701   6.083
 2897SOL    HW2 9591   1.313   6.797   6.075
 2898SOL     OW 9592   0.550   5.782   6.471
 2898SOL    HW1 9593   0.545   5.777   6.571
 2898SOL    HW2 9594   0.552   5.878   6.442
 2899SOL     OW 9595   1.795   6.652   6.459
 2899SOL    HW1 9596   1.733   6.637   6.383
 2899SOL    HW2 9597   1.743   6.663   6.544
 2900SOL     OW 9598   0.321   6.529   5.828
 2900SOL    HW1 9599   0.403   6.568   5.786
 2900SOL    HW2 9600   0.294   6.447   5.779
 2901SOL     OW 9601   1.458   6.321   6.314
 2901SOL    HW1 9602   1.453   6.256   6.389
 2901SOL    HW2 9603   1.538   6.380   6.327
 2902SOL     OW 9604   1.632   6.963   5.667
 2902SOL    HW1 9605   1.600   7.057   5.657
 2902SOL    HW2 9606   1.556   6.900   5.655
 2903SOL     OW 9607   1.400   5.693   6.012
 2903SOL    HW1 9608   1.376   5.656   5.922
 2903SOL    HW2 9609   1.499   5.709   6.016
 2904SOL     OW 9610   0.382   6.286   6.066
 2904SOL    HW1 9611   0.427   6.196   6.063
 2904SOL    HW2 9612   0.288   6.275   6.099
 2905SOL     OW 9613   0.614   5.708   5.703
 2905SOL    HW1 9614   0.712   5.686   5.710
 2905SOL    HW2 9615   0.583   5.691   5.610
 2906SOL     OW 9616   0.922   6.089   6.485
 2906SOL    HW1 9617   0.897   6.080   6.389
 2906SOL    HW2 9618   0.970   6.007   6.516
 2907SOL     OW 9619   0.539   5.650   6.098
 2907SOL    HW1 9620   0.458   5.651   6.156
 2907SOL    HW2 9621   0.542   5.733   6.043
 2908SOL     OW 9622   1.434   6.774   5.627
 2908SOL    HW1 9623   1.466   6.698   5.684
 2908SOL    HW2 9624   1.342   6.801   5.657
 2909SOL     OW 9625   0.297   5.621   5.757
 2909SOL    HW1 9626   0.346   5.705   5.736
 2909SOL    HW2 9627   0.359   5.556   5.802
 2910SOL     OW 9628   0.935   5.822   6.066
 2910SOL    HW1 9629   0.887   5.863   5.988
 2910SOL    HW2 9630   1.034   5.820   6.047
 2911SOL     OW 9631   1.227   7.156   6.379
 2911SOL    HW1 9632   1.248   7.230   6.314
 2911SOL    HW2 9633   1.295   7.156   6.452
 2912SOL     OW 9634   0.459   6.738   6.327
 2912SOL    HW1 9635   0.388   6.711   6.392
 2912SOL    HW2 9636   0.433   6.710   6.234
 2913SOL     OW 9637   1.032   6.135   5.602
 2913SOL    HW1 9638   0.991   6.217   5.563
 2913SOL    HW2 9639   1.096   6.161   5.675
 2914SOL     OW 9640   0.561   5.808   6.733
 2914SOL    HW1 9641   0.599   5.724   6.770
 2914SOL    HW2 9642   0.473   5.827   6.777
 2915SOL     OW 9643   0.866   6.040   6.228
 2915SOL    HW1 9644   0.834   6.112   6.166
 2915SOL    HW2 9645   0.890   5.959   6.175
 2916SOL     OW 9646   1.017   5.625   6.339
 2916SOL    HW1 9647   0.945   5.630   6.270
 2916SOL    HW2 9648   0.993   5.556   6.408
 2917SOL     OW 9649   1.429   6.759   6.453
 2917SOL    HW1 9650   1.374   6.675   6.446
 2917SOL    HW2 9651   1.455   6.788   6.361
 2918SOL     OW 9652   1.466   6.176   6.578
 2918SOL    HW1 9653   1.436   6.081   6.585
 2918SOL    HW2 9654   1.539   6.192   6.644
 2919SOL     OW 9655   1.857   6.419   5.963
 2919SOL    HW1 9656   1.899   6.355   6.027
 2919SOL    HW2 9657   1.819   6.368   5.885
 2920SOL     OW 9658   1.664   6.866   6.243
 2920SOL    HW1 9659   1.763   6.874   6.257
 2920SOL    HW2 9660   1.619   6.950   6.274
 2921SOL     OW 9661   1.390   6.161   5.664
 2921SOL    HW1 9662   1.336   6.140   5.745
 2921SOL    HW2 9663   1.481   6.120   5.673
 2922SOL     OW 9664   0.527   5.842   5.914
 2922SOL    HW1 9665   0.554   5.783   5.839
 2922SOL    HW2 9666   0.527   5.937   5.883
 2923SOL     OW 9667   1.754   6.809   7.174
 2923SOL    HW1 9668   1.845   6.770   7.161
 2923SOL    HW2 9669   1.762   6.905   7.198
 2924SOL     OW 9670   1.064   6.933   6.926
 2924SOL    HW1 9671   0.984   6.910   6.981
 2924SOL    HW2 9672   1.147   6.907   6.975
 2925SOL     OW 9673   1.111   6.781   6.686
 2925SOL    HW1 9674   1.071   6.825   6.767
 2925SOL    HW2 9675   1.070   6.818   6.603
 2926SOL     OW 9676   1.638   6.685   6.665
 2926SOL    HW1 9677   1.643   6.766   6.724
 2926SOL    HW2 9678   1.552   6.687   6.614
 2927SOL     OW 9679   0.705   6.636   5.954
 2927SOL    HW1 9680   0.691   6.643   6.053
 2927SOL    HW2 9681   0.789   6.585   5.936
 2928SOL     OW 9682   0.410   6.399   6.837
 2928SOL    HW1 9683   0.496   6.411   6.887
 2928SOL    HW2 9684   0.368   6.312   6.864
 2929SOL     OW 9685   1.274   5.972   6.848
 2929SOL    HW1 9686   1.295   6.046   6.912
 2929SOL    HW2 9687   1.185   5.989   6.805
 2930SOL     OW 9688   0.064   7.150   6.917
 2930SOL    HW1 9689   0.018   7.232   6.883
 2930SOL    HW2 9690   0.162   7.169   6.926
 2931SOL     OW 9691   0.367   6.686   6.087
 2931SOL    HW1 9692   0.360   6.769   6.031
 2931SOL    HW2 9693   0.371   6.606   6.027
 2932SOL     OW 9694   0.566   6.123   6.451
 2932SOL    HW1 9695   0.578   6.189   6.377
 2932SOL    HW2 9696   0.612   6.157   6.534
 2933SOL     OW 9697   1.582   6.225   6.058
 2933SOL    HW1 9698   1.551   6.286   6.131
 2933SOL    HW2 9699   1.632   6.277   5.989
 2934SOL     OW 9700   0.573   6.456   6.615
 2934SOL    HW1 9701   0.617   6.545   6.606
 2934SOL    HW2 9702   0.510   6.456   6.692
 2935SOL     OW 9703   1.360   6.448   6.631
 2935SOL    HW1 9704   1.285   6.448   6.565
 2935SOL    HW2 9705   1.397   6.356   6.640
 2936SOL     OW 9706   1.209   6.111   5.861
 2936SOL    HW1 9707   1.222   6.027   5.915
 2936SOL    HW2 9708   1.180   6.185   5.921
 2937SOL     OW 9709   0.307   5.799   6.817
 2937SOL    HW1 9710   0.284   5.836   6.907
 2937SOL    HW2 9711   0.277   5.704   6.811
 2938SOL     OW 9712   0.037   6.896   6.868
 2938SOL    HW1 9713   0.090   6.847   6.936
 2938SOL    HW2 9714   0.059   6.994   6.873
 2939SOL     OW 9715   0.732   6.220   6.650
 2939SOL    HW1 9716   0.791   6.194   6.574
 2939SOL    HW2 9717   0.704   6.316   6.639
 2940SOL     OW 9718   0.307   5.649   6.204
 2940SOL    HW1 9719   0.296   5.743   6.237
 2940SOL    HW2 9720   0.302   5.586   6.281
 2941SOL     OW 9721   1.622   5.953   5.960
 2941SOL    HW1 9722   1.624   5.877   6.024
 2941SOL    HW2 9723   1.574   6.030   6.000
 2942SOL     OW 9724   1.023   6.352   6.552
 2942SOL    HW1 9725   1.038   6.373   6.648
 2942SOL    HW2 9726   0.993   6.257   6.543
 2943SOL     OW 9727   1.540   5.860   5.711
 2943SOL    HW1 9728   1.479   5.785   5.734
 2943SOL    HW2 9729   1.562   5.912   5.794
 2944SOL     OW 9730   1.303   6.424   5.628
 2944SOL    HW1 9731   1.337   6.331   5.643
 2944SOL    HW2 9732   1.321   6.451   5.533
 2945SOL     OW 9733   0.319   6.396   6.535
 2945SOL    HW1 9734   0.412   6.432   6.540
 2945SOL    HW2 9735   0.313   6.311   6.587
 2946SOL     OW 9736   0.339   6.095   6.592
 2946SOL    HW1 9737   0.287   6.012   6.575
 2946SOL    HW2 9738   0.416   6.100   6.528
 2947SOL     OW 9739   1.160   5.793   7.063
 2947SOL    HW1 9740   1.160   5.857   7.140
 2947SOL    HW2 9741   1.188   5.841   6.980
 2948SOL     OW 9742   0.008   6.912   5.786
 2948SOL    HW1 9743  -0.085   6.933   5.755
 2948SOL    HW2 9744   0.018   6.813   5.799
 2949SOL     OW 9745   1.002   6.382   6.824
 2949SOL    HW1 9746   1.043   6.350   6.910
 2949SOL    HW2 9747   0.906   6.355   6.821
 2950SOL     OW 9748   0.040   6.130   6.700
 2950SOL    HW1 9749   0.125   6.097   6.659
 2950SOL    HW2 9750   0.053   6.145   6.798
 2951SOL     OW 9751   0.815   6.158   5.911
 2951SOL    HW1 9752   0.822   6.069   5.865
 2951SOL    HW2 9753   0.721   6.192   5.903
 2952SOL     OW 9754   1.657   6.190   6.792
 2952SOL    HW1 9755   1.619   6.121   6.854
 2952SOL    HW2 9756   1.739   6.154   6.748
 2953SOL     OW 9757   0.671   6.050   6.855
 2953SOL    HW1 9758   0.637   5.961   6.825
 2953SOL    HW2 9759   0.697   6.104   6.775
 2954SOL     OW 9760   0.473   6.086   5.777
 2954SOL    HW1 9761   0.534   6.166   5.781
 2954SOL    HW2 9762   0.378   6.117   5.784
 2955SOL     OW 9763   0.159   6.723   7.052
 2955SOL    HW1 9764   0.181   6.662   7.128
 2955SOL    HW2 9765   0.169   6.674   6.966
 2956SOL     OW 9766   1.347   6.645   6.820
 2956SOL    HW1 9767   1.371   6.582   6.746
 2956SOL    HW2 9768   1.257   6.685   6.802
 2957SOL     OW 9769   1.302   6.441   5.895
 2957SOL    HW1 9770   1.216   6.410   5.937
 2957SOL    HW2 9771   1.298   6.427   5.796
 2958SOL     OW 9772   0.083   6.844   6.608
 2958SOL    HW1 9773   0.078   6.843   6.708
 2958SOL    HW2 9774   0.000   6.803   6.570
 2959SOL     OW 9775   1.726   5.721   6.109
 2959SOL    HW1 9776   1.799   5.704   6.042
 2959SOL    HW2 9777   1.695   5.634   6.147
 2960SOL     OW 9778   1.280   6.513   6.258
 2960SOL    HW1 9779   1.340   6.432   6.260
 2960SOL    HW2 9780   1.320   6.582   6.198
 2961SOL     OW 9781   0.830   6.859   7.008
 2961SOL    HW1 9782   0.825   6.892   7.103
 2961SOL    HW2 9783   0.744   6.878   6.962
 2962SOL     OW 9784   1.841   5.761   6.549
 2962SOL    HW1 9785   1.880   5.676   6.513
 2962SOL    HW2 9786   1.743   5.763   6.530
 2963SOL     OW 9787   0.263   5.912   6.306
 2963SOL    HW1 9788   0.184   5.963   6.272
 2963SOL    HW2 9789   0.254   5.897   6.404
 2964SOL     OW 9790   1.194   7.198   5.617
 2964SOL    HW1 9791   1.200   7.105   5.654
 2964SOL    HW2 9792   1.135   7.198   5.537
 2965SOL     OW 9793   0.822   6.588   6.958
 2965SOL    HW1 9794   0.862   6.587   6.866
 2965SOL    HW2 9795   0.832   6.680   6.998
 2966SOL     OW 9796   0.916   6.496   5.877
 2966SOL    HW1 9797   0.979   6.534   5.809
 2966SOL    HW2 9798   0.956   6.413   5.916
 2967SOL     OW 9799   0.372   6.874   7.076
 2967SOL    HW1 9800   0.359   6.967   7.042
 2967SOL    HW2 9801   0.288   6.822   7.063
 2968SOL     OW 9802   1.614   6.878   6.875
 2968SOL    HW1 9803   1.674   6.881   6.955
 2968SOL    HW2 9804   1.539   6.942   6.888
 2969SOL     OW 9805   1.039   6.684   6.282
 2969SOL    HW1 9806   0.969   6.637   6.336
 2969SOL    HW2 9807   1.098   6.616   6.239
 2970SOL     OW 9808   1.014   5.822   6.557
 2970SOL    HW1 9809   1.006   5.786   6.464
 2970SOL    HW2 9810   1.012   5.746   6.622
 2971SOL     OW 9811   1.709   5.971   6.967
 2971SOL    HW1 9812   1.782   6.040   6.971
 2971SOL    HW2 9813   1.737   5.896   6.908
 2972SOL     OW 9814   0.672   5.789   7.075
 2972SOL    HW1 9815   0.762   5.773   7.035
 2972SOL    HW2 9816   0.680   5.794   7.174
 2973SOL     OW 9817   0.075   5.931   5.619
 2973SOL    HW1 9818  -0.017   5.903   5.590
 2973SOL    HW2 9819   0.106   6.008   5.563
 2974SOL     OW 9820   0.072   5.752   5.904
 2974SOL    HW1 9821   0.055   5.835   5.850
 2974SOL    HW2 9822   0.162   5.715   5.882
 2975SOL     OW 9823   1.450   6.806   7.219
 2975SOL    HW1 9824   1.441   6.796   7.318
 2975SOL    HW2 9825   1.546   6.799   7.193
 2976SOL     OW 9826   1.674   6.469   6.840
 2976SOL    HW1 9827   1.647   6.380   6.803
 2976SOL    HW2 9828   1.675   6.537   6.767
 2977SOL     OW 9829   1.225   5.911   6.035
 2977SOL    HW1 9830   1.290   5.837   6.024
 2977SOL    HW2 9831   1.245   5.961   6.119
 2978SOL     OW 9832   0.594   6.331   6.238
 2978SOL    HW1 9833   0.644   6.416   6.219
 2978SOL    HW2 9834   0.506   6.333   6.190
 2979SOL     OW 9835   1.730   6.520   7.103
 2979SOL    HW1 9836   1.768   6.611   7.118
 2979SOL    HW2 9837   1.722   6.503   7.004
 2980SOL     OW 9838   0.859   6.542   6.447
 2980SOL    HW1 9839   0.913   6.473   6.495
 2980SOL    HW2 9840   0.827   6.611   6.513
 2981SOL     OW 9841   1.083   6.570   5.673
 2981SOL    HW1 9842   1.060   6.623   5.591
 2981SOL    HW2 9843   1.164   6.514   5.654
 2982SOL     OW 9844   0.079   6.826   6.239
 2982SOL    HW1 9845   0.078   6.779   6.327
 2982SOL    HW2 9846   0.161   6.798   6.188
 2983SOL     OW 9847   1.824   5.778   6.813
 2983SOL    HW1 9848   1.820   5.688   6.857
 2983SOL    HW2 9849   1.827   5.767   6.714
 2984SOL     OW 9850   0.428   6.010   6.106
 2984SOL    HW1 9851   0.458   5.938   6.044
 2984SOL    HW2 9852   0.389   5.970   6.189
 2985SOL     OW 9853   1.705   7.073   6.690
 2985SOL    HW1 9854   1.612   7.048   6.663
 2985SOL    HW2 9855   1.731   7.023   6.772
 2986SOL     OW 9856   0.317   6.133   6.866
 2986SOL    HW1 9857   0.355   6.074   6.938
 2986SOL    HW2 9858   0.357   6.107   6.778
 2987SOL     OW 9859   1.424   5.800   6.698
 2987SOL    HW1 9860   1.476   5.735   6.753
 2987SOL    HW2 9861   1.375   5.863   6.759
 2988SOL     OW 9862   1.001   5.620   6.740
 2988SOL    HW1 9863   0.938   5.548   6.709
 2988SOL    HW2 9864   1.094   5.584   6.740
 2989SOL     OW 9865   0.770   6.916   5.887
 2989SOL    HW1 9866   0.724   6.829   5.904
 2989SOL    HW2 9867   0.861   6.913   5.928
 2990SOL     OW 9868   1.352   5.638   5.754
 2990SOL    HW1 9869   1.387   5.597   5.670
 2990SOL    HW2 9870   1.262   5.600   5.774
 2991SOL     OW 9871   1.300   6.039   6.277
 2991SOL    HW1 9872   1.241   6.119   6.281
 2991SOL    HW2 9873   1.315   6.004   6.370
 2992SOL     OW 9874   1.593   5.807   6.468
 2992SOL    HW1 9875   1.509   5.806   6.522
 2992SOL    HW2 9876   1.595   5.890   6.412
 2993SOL     OW 9877   0.039   6.663   5.886
 2993SOL    HW1 9878   0.138   6.652   5.877
 2993SOL    HW2 9879  -0.001   6.577   5.918
 2994SOL     OW 9880   2.092   0.628   0.113
 2994SOL    HW1 9881   1.999   0.626   0.150
 2994SOL    HW2 9882   2.093   0.589   0.021
 2995SOL     OW 9883   2.087   0.275   0.996
 2995SOL    HW1 9884   2.122   0.258   1.088
 2995SOL    HW2 9885   1.999   0.230   0.984
 2996SOL     OW 9886   1.881   0.368   0.647
 2996SOL    HW1 9887   1.799   0.411   0.686
 2996SOL    HW2 9888   1.853   0.295   0.584
 2997SOL     OW 9889   2.431   1.275   1.165
 2997SOL    HW1 9890   2.338   1.268   1.128
 2997SOL    HW2 9891   2.442   1.364   1.209
 2998SOL     OW 9892   3.417   1.511   0.703
 2998SOL    HW1 9893   3.360   1.495   0.784
 2998SOL    HW2 9894   3.358   1.521   0.623
 2999SOL     OW 9895   2.997   0.703   0.717
 2999SOL    HW1 9896   3.054   0.781   0.692
 2999SOL    HW2 9897   2.937   0.729   0.793
 3000SOL     OW 9898   3.617   0.607   0.231
 3000SOL    HW1 9899   3.605   0.594   0.132
 3000SOL    HW2 9900   3.587   0.526   0.280
 3001SOL     OW 9901   2.630   1.144   1.023
 3001SOL    HW1 9902   2.552   1.161   1.083
 3001SOL    HW2 9903   2.664   1.231   0.987
 3002SOL     OW 9904   2.712   0.798   1.823
 3002SOL    HW1 9905   2.708   0.874   1.888
 3002SOL    HW2 9906   2.734   0.834   1.732
 3003SOL     OW 9907   2.547   1.012   0.665
 3003SOL    HW1 9908   2.616   0.996   0.735
 3003SOL    HW2 9909   2.474   1.069   0.703
 3004SOL     OW 9910   2.548   1.161   1.803
 3004SOL    HW1 9911   2.608   1.240   1.817
 3004SOL    HW2 9912   2.462   1.192   1.762
 3005SOL     OW 9913   2.197   1.435   1.061
 3005SOL    HW1 9914   2.119   1.404   1.008
 3005SOL    HW2 9915   2.255   1.493   1.004
 3006SOL     OW 9916   3.322   1.505   1.339
 3006SOL    HW1 9917   3.346   1.599   1.365
 3006SOL    HW2 9918   3.306   1.451   1.421
 3007SOL     OW 9919   2.300   0.392   1.499
 3007SOL    HW1 9920   2.382   0.336   1.508
 3007SOL    HW2 9921   2.219   0.334   1.503
 3008SOL     OW 9922   3.465   0.447   0.737
 3008SOL    HW1 9923   3.391   0.493   0.687
 3008SOL    HW2 9924   3.516   0.515   0.790
 3009SOL     OW 9925   2.093   1.713   0.483
 3009SOL    HW1 9926   2.127   1.790   0.537
 3009SOL    HW2 9927   2.137   1.713   0.393
 3010SOL     OW 9928   2.989   1.341   1.690
 3010SOL    HW1 9929   3.036   1.341   1.778
 3010SOL    HW2 9930   2.941   1.254   1.679
 3011SOL     OW 9931   2.092   1.434   0.538
 3011SOL    HW1 9932   2.066   1.530   0.538
 3011SOL    HW2 9933   2.021   1.380   0.583
 3012SOL     OW 9934   2.102   1.091   0.886
 3012SOL    HW1 9935   2.116   1.007   0.938
 3012SOL    HW2 9936   2.047   1.155   0.941
 3013SOL     OW 9937   2.482   1.786   1.439
 3013SOL    HW1 9938   2.390   1.769   1.474
 3013SOL    HW2 9939   2.510   1.878   1.465
 3014SOL     OW 9940   2.468   0.964   0.123
 3014SOL    HW1 9941   2.475   1.048   0.069
 3014SOL    HW2 9942   2.514   0.977   0.211
 3015SOL     OW 9943   3.456   0.114   1.480
 3015SOL    HW1 9944   3.438   0.181   1.408
 3015SOL    HW2 9945   3.453   0.160   1.569
 3016SOL     OW 9946   1.984   0.643   0.563
 3016SOL    HW1 9947   1.939   0.555   0.580
 3016SOL    HW2 9948   1.983   0.697   0.647
 3017SOL     OW 9949   3.704   1.767   0.359
 3017SOL    HW1 9950   3.758   1.738   0.439
 3017SOL    HW2 9951   3.734   1.857   0.330
 3018SOL     OW 9952   3.551   0.922   0.612
 3018SOL    HW1 9953   3.646   0.893   0.620
 3018SOL    HW2 9954   3.543   0.987   0.537
 3019SOL     OW 9955   3.503   1.108   0.432
 3019SOL    HW1 9956   3.589   1.110   0.380
 3019SOL    HW2 9957   3.517   1.155   0.520
 3020SOL     OW 9958   1.975   0.737   1.597
 3020SOL    HW1 9959   2.063   0.724   1.642
 3020SOL    HW2 9960   1.962   0.834   1.575
 3021SOL     OW 9961   2.475   1.365   0.726
 3021SOL    HW1 9962   2.426   1.278   0.735
 3021SOL    HW2 9963   2.452   1.408   0.639
 3022SOL     OW 9964   3.155   1.228   1.423
 3022SOL    HW1 9965   3.192   1.155   1.365
 3022SOL    HW2 9966   3.207   1.233   1.508
 3023SOL     OW 9967   2.671   0.004   0.502
 3023SOL    HW1 9968   2.711   0.095   0.493
 3023SOL    HW2 9969   2.571   0.012   0.508
 3024SOL     OW 9970   2.059   0.976   1.264
 3024SOL    HW1 9971   2.148   0.931   1.250
 3024SOL    HW2 9972   1.986   0.911   1.245
 3025SOL     OW 9973   3.049   1.792   1.616
 3025SOL    HW1 9974   3.073   1.852   1.540
 3025SOL    HW2 9975   3.056   1.697   1.586
 3026SOL     OW 9976   2.179   0.251   1.801
 3026SOL    HW1 9977   2.250   0.322   1.807
 3026SOL    HW2 9978   2.091   0.290   1.829
 3027SOL     OW 9979   3.328   1.417   0.953
 3027SOL    HW1 9980   3.269   1.423   1.033
 3027SOL    HW2 9981   3.313   1.329   0.907
 3028SOL     OW 9982   3.529   1.714   0.572
 3028SOL    HW1 9983   3.488   1.691   0.484
 3028SOL    HW2 9984   3.511   1.640   0.637
 3029SOL     OW 9985   2.460   0.729   0.270
 3029SOL    HW1 9986   2.484   0.798   0.202
 3029SOL    HW2 9987   2.382   0.762   0.324
 3030SOL     OW 9988   3.143   0.345   0.944
 3030SOL    HW1 9989   3.057   0.295   0.931
 3030SOL    HW2 9990   3.205   0.291   1.000
 3031SOL     OW 9991   3.438   1.662   0.307
 3031SOL    HW1 9992   3.527   1.708   0.310
 3031SOL    HW2 9993   3.417   1.638   0.212
 3032SOL     OW 9994   2.669   0.605   1.465
 3032SOL    HW1 9995   2.622   0.602   1.554
 3032SOL    HW2 9996   2.618   0.550   1.399
 3033SOL     OW 9997   3.256   0.469   1.674
 3033SOL    HW1 9998   3.236   0.512   1.762
 3033SOL    HW2 9999   3.334   0.407   1.683
 3034SOL     OW10000   2.835   0.890   1.572
 3034SOL    HW110001   2.881   0.806   1.543
 3034SOL    HW210002   2.779   0.924   1.497
 3035SOL     OW10003   2.853   0.410   1.242
 3035SOL    HW110004   2.776   0.444   1.296
 3035SOL    HW210005   2.819   0.359   1.163
 3036SOL     OW10006   2.903   0.701   0.429
 3036SOL    HW110007   2.929   0.697   0.525
 3036SOL    HW210008   2.818   0.650   0.415
 3037SOL     OW10009   1.938   0.811   0.789
 3037SOL    HW110010   2.037   0.799   0.798
 3037SOL    HW210011   1.914   0.906   0.810
 3038SOL     OW10012   1.992   1.821   1.571
 3038SOL    HW110013   1.982   1.806   1.670
 3038SOL    HW210014   1.906   1.857   1.535
 3039SOL     OW10015   2.727   0.348   0.195
 3039SOL    HW110016   2.786   0.411   0.146
 3039SOL    HW210017   2.746   0.254   0.166
 3040SOL     OW10018   3.581   0.585   1.831
 3040SOL    HW110019   3.555   0.674   1.795
 3040SOL    HW210020   3.579   0.517   1.758
 3041SOL     OW10021   3.224   1.144   0.545
 3041SOL    HW110022   3.307   1.115   0.497
 3041SOL    HW210023   3.175   1.211   0.489
 3042SOL     OW10024   2.412   0.196   0.885
 3042SOL    HW110025   2.407   0.191   0.985
 3042SOL    HW210026   2.414   0.292   0.856
 3043SOL     OW10027   2.870   1.456   0.477
 3043SOL    HW110028   2.824   1.528   0.425
 3043SOL    HW210029   2.866   1.476   0.575
 3044SOL     OW10030   2.213   1.801   0.853
 3044SOL    HW110031   2.263   1.715   0.859
 3044SOL    HW210032   2.278   1.878   0.850
 3045SOL     OW10033   3.657   1.066   0.873
 3045SOL    HW110034   3.595   1.051   0.797
 3045SOL    HW210035   3.605   1.077   0.958
 3046SOL     OW10036   3.089   1.550   1.506
 3046SOL    HW110037   3.095   1.473   1.570
 3046SOL    HW210038   3.037   1.524   1.426
 3047SOL     OW10039   2.183   0.943   0.242
 3047SOL    HW110040   2.265   0.982   0.200
 3047SOL    HW210041   2.156   0.861   0.193
 3048SOL     OW10042   3.320   0.735   0.728
 3048SOL    HW110043   3.315   0.670   0.803
 3048SOL    HW210044   3.400   0.794   0.741
 3049SOL     OW10045   2.323   1.266   1.727
 3049SOL    HW110046   2.273   1.267   1.641
 3049SOL    HW210047   2.260   1.248   1.803
 3050SOL     OW10048   2.973   1.776   0.237
 3050SOL    HW110049   2.913   1.714   0.287
 3050SOL    HW210050   3.004   1.732   0.152
 3051SOL     OW10051   2.064   0.285   1.498
 3051SOL    HW110052   1.984   0.345   1.485
 3051SOL    HW210053   2.054   0.236   1.584
 3052SOL     OW10054   3.494   1.377   0.081
 3052SOL    HW110055   3.462   1.471   0.071
 3052SOL    HW210056   3.418   1.314   0.069
 3053SOL     OW10057   2.326   1.743   0.323
 3053SOL    HW110058   2.359   1.782   0.409
 3053SOL    HW210059   2.402   1.736   0.258
 3054SOL     OW10060   3.262   0.107   0.426
 3054SOL    HW110061   3.238   0.070   0.336
 3054SOL    HW210062   3.361   0.123   0.430
 3055SOL     OW10063   2.111   1.785   1.241
 3055SOL    HW110064   2.168   1.720   1.291
 3055SOL    HW210065   2.095   1.752   1.148
 3056SOL     OW10066   2.802   1.698   0.904
 3056SOL    HW110067   2.882   1.641   0.925
 3056SOL    HW210068   2.753   1.658   0.827
 3057SOL     OW10069   2.244   0.700   0.480
 3057SOL    HW110070   2.289   0.610   0.477
 3057SOL    HW210071   2.150   0.689   0.513
 3058SOL     OW10072   3.409   0.222   1.729
 3058SOL    HW110073   3.404   0.259   1.821
 3058SOL    HW210074   3.337   0.153   1.717
 3059SOL     OW10075   2.476   0.122   0.117
 3059SOL    HW110076   2.574   0.100   0.124
 3059SOL    HW210077   2.445   0.105   0.024
 3060SOL     OW10078   2.643   0.264   1.749
 3060SOL    HW110079   2.710   0.203   1.792
 3060SOL    HW210080   2.570   0.283   1.814
 3061SOL     OW10081   2.750   1.514   1.195
 3061SOL    HW110082   2.727   1.489   1.101
 3061SOL    HW210083   2.811   1.445   1.234
 3062SOL     OW10084   3.213   0.590   1.433
 3062SOL    HW110085   3.241   0.547   1.518
 3062SOL    HW210086   3.238   0.686   1.434
 3063SOL     OW10087   2.665   1.402   0.924
 3063SOL    HW110088   2.755   1.416   0.882
 3063SOL    HW210089   2.594   1.404   0.853
 3064SOL     OW10090   2.784   0.503   0.899
 3064SOL    HW110091   2.759   0.494   0.803
 3064SOL    HW210092   2.832   0.421   0.930
 3065SOL     OW10093   2.401   0.064   0.512
 3065SOL    HW110094   2.320   0.065   0.570
 3065SOL    HW210095   2.404   0.147   0.457
 3066SOL     OW10096   3.296   1.188   0.041
 3066SOL    HW110097   3.328   1.112   0.098
 3066SOL    HW210098   3.204   1.215   0.071
 3067SOL     OW10099   2.159   0.035   0.171
 3067SOL    HW110100   2.208   0.119   0.150
 3067SOL    HW210101   2.221  -0.030   0.216
 3068SOL     OW10102   2.797   0.236   0.480
 3068SOL    HW110103   2.749   0.277   0.402
 3068SOL    HW210104   2.896   0.234   0.461
 3069SOL     OW10105   2.938   0.683   1.464
 3069SOL    HW110106   2.858   0.622   1.467
 3069SOL    HW210107   3.019   0.630   1.440
 3070SOL     OW10108   3.089   1.570   0.793
 3070SOL    HW110109   3.110   1.644   0.728
 3070SOL    HW210110   3.157   1.570   0.866
 3071SOL     OW10111   2.321   1.152   0.741
 3071SOL    HW110112   2.250   1.125   0.806
 3071SOL    HW210113   2.295   1.124   0.648
 3072SOL     OW10114   3.133   1.797   0.591
 3072SOL    HW110115   3.177   1.861   0.527
 3072SOL    HW210116   3.083   1.849   0.661
 3073SOL     OW10117   2.894   0.549   0.016
 3073SOL    HW110118   2.853   0.631  -0.023
 3073SOL    HW210119   2.958   0.575   0.089
 3074SOL     OW10120   1.940   0.556   1.386
 3074SOL    HW110121   2.032   0.555   1.345
 3074SOL    HW210122   1.934   0.630   1.453
 3075SOL     OW10123   2.423   0.222   1.147
 3075SOL    HW110124   2.461   0.138   1.184
 3075SOL    HW210125   2.335   0.241   1.191
 3076SOL     OW10126   2.728   0.454   0.642
 3076SOL    HW110127   2.696   0.526   0.580
 3076SOL    HW210128   2.752   0.373   0.589
 3077SOL     OW10129   2.879   0.039   0.753
 3077SOL    HW110130   2.807   0.044   0.684
 3077SOL    HW210131   2.855  -0.030   0.822
 3078SOL     OW10132   3.291   1.173   0.867
 3078SOL    HW110133   3.236   1.089   0.860
 3078SOL    HW210134   3.317   1.202   0.775
 3079SOL     OW10135   3.328   0.590   0.992
 3079SOL    HW110136   3.298   0.495   0.999
 3079SOL    HW210137   3.401   0.606   1.058
 3080SOL     OW10138   3.719   0.833   0.377
 3080SOL    HW110139   3.761   0.769   0.441
 3080SOL    HW210140   3.681   0.782   0.299
 3081SOL     OW10141   2.350   1.385   0.174
 3081SOL    HW110142   2.263   1.370   0.221
 3081SOL    HW210143   2.333   1.411   0.079
 3082SOL     OW10144   3.526   1.280   0.657
 3082SOL    HW110145   3.625   1.288   0.671
 3082SOL    HW210146   3.481   1.364   0.688
 3083SOL     OW10147   3.252   0.575   0.078
 3083SOL    HW110148   3.198   0.554   0.159
 3083SOL    HW210149   3.343   0.534   0.087
 3084SOL     OW10150   2.389   0.256   0.328
 3084SOL    HW110151   2.416   0.197   0.253
 3084SOL    HW210152   2.389   0.351   0.297
 3085SOL     OW10153   3.616   1.223   1.588
 3085SOL    HW110154   3.707   1.184   1.575
 3085SOL    HW210155   3.624   1.319   1.612
 3086SOL     OW10156   2.926   1.347   1.340
 3086SOL    HW110157   2.846   1.324   1.395
 3086SOL    HW210158   3.009   1.321   1.389
 3087SOL     OW10159   3.454   1.629   1.625
 3087SOL    HW110160   3.481   1.663   1.535
 3087SOL    HW210161   3.533   1.591   1.671
 3088SOL     OW10162   2.973   1.195   1.100
 3088SOL    HW110163   2.933   1.239   1.181
 3088SOL    HW210164   2.932   1.232   1.017
 3089SOL     OW10165   3.500   1.099   1.079
 3089SOL    HW110166   3.505   1.180   1.138
 3089SOL    HW210167   3.414   1.101   1.028
 3090SOL     OW10168   2.777   0.089   1.402
 3090SOL    HW110169   2.802   0.069   1.307
 3090SOL    HW210170   2.849   0.145   1.444
 3091SOL     OW10171   2.842   1.116   1.719
 3091SOL    HW110172   2.743   1.122   1.729
 3091SOL    HW210173   2.865   1.036   1.663
 3092SOL     OW10174   2.567   1.050   0.368
 3092SOL    HW110175   2.553   1.057   0.467
 3092SOL    HW210176   2.651   0.999   0.350
 3093SOL     OW10177   2.272   0.813   1.251
 3093SOL    HW110178   2.358   0.825   1.301
 3093SOL    HW210179   2.230   0.726   1.278
 3094SOL     OW10180   3.136   0.386   1.262
 3094SOL    HW110181   3.157   0.460   1.326
 3094SOL    HW210182   3.047   0.403   1.219
 3095SOL     OW10183   1.926   1.564   1.331
 3095SOL    HW110184   1.880   1.646   1.297
 3095SOL    HW210185   2.024   1.583   1.340
 3096SOL     OW10186   2.229   1.100   0.501
 3096SOL    HW110187   2.222   1.183   0.445
 3096SOL    HW210188   2.233   1.020   0.441
 3097SOL     OW10189   2.428   0.537   0.865
 3097SOL    HW110190   2.440   0.603   0.791
 3097SOL    HW210191   2.474   0.571   0.948
 3098SOL     OW10192   3.114   1.348   0.388
 3098SOL    HW110193   3.164   1.425   0.428
 3098SOL    HW210194   3.019   1.350   0.420
 3099SOL     OW10195   3.134   1.445   1.142
 3099SOL    HW110196   3.181   1.458   1.229
 3099SOL    HW210197   3.068   1.371   1.151
 3100SOL     OW10198   3.444   0.639   0.472
 3100SOL    HW110199   3.413   0.700   0.545
 3100SOL    HW210200   3.494   0.691   0.403
 3101SOL     OW10201   2.216   1.510   1.329
 3101SOL    HW110202   2.195   1.466   1.242
 3101SOL    HW210203   2.313   1.536   1.332
 3102SOL     OW10204   2.264   0.751   1.598
 3102SOL    HW110205   2.332   0.806   1.551
 3102SOL    HW210206   2.304   0.663   1.625
 3103SOL     OW10207   3.449   0.779   1.670
 3103SOL    HW110208   3.357   0.817   1.665
 3103SOL    HW210209   3.509   0.826   1.605
 3104SOL     OW10210   2.875   0.105   1.770
 3104SOL    HW110211   2.881   0.190   1.718
 3104SOL    HW210212   2.907   0.029   1.713
 3105SOL     OW10213   2.366   0.050   1.740
 3105SOL    HW110214   2.324  -0.007   1.670
 3105SOL    HW210215   2.300   0.119   1.772
 3106SOL     OW10216   2.435   0.870   1.029
 3106SOL    HW110217   2.479   0.959   1.020
 3106SOL    HW210218   2.372   0.870   1.106
 3107SOL     OW10219   3.222   0.862   1.045
 3107SOL    HW110220   3.147   0.862   0.979
 3107SOL    HW210221   3.259   0.770   1.054
 3108SOL     OW10222   3.071   0.525   0.275
 3108SOL    HW110223   3.084   0.441   0.329
 3108SOL    HW210224   3.042   0.599   0.335
 3109SOL     OW10225   2.169   0.213   1.231
 3109SOL    HW110226   2.146   0.250   1.321
 3109SOL    HW210227   2.139   0.118   1.225
 3110SOL     OW10228   1.899   1.310   1.282
 3110SOL    HW110229   1.952   1.261   1.350
 3110SOL    HW210230   1.921   1.408   1.287
 3111SOL     OW10231   2.594   0.634   1.064
 3111SOL    HW110232   2.653   0.608   0.988
 3111SOL    HW210233   2.566   0.730   1.053
 3112SOL     OW10234   3.590   0.935   1.854
 3112SOL    HW110235   3.544   0.928   1.765
 3112SOL    HW210236   3.528   0.979   1.920
 3113SOL     OW10237   2.169   0.063   0.618
 3113SOL    HW110238   2.158   0.157   0.651
 3113SOL    HW210239   2.164   0.000   0.695
 3114SOL     OW10240   3.484   0.367   0.374
 3114SOL    HW110241   3.486   0.291   0.438
 3114SOL    HW210242   3.436   0.444   0.414
 3115SOL     OW10243   2.885   0.766   0.966
 3115SOL    HW110244   2.900   0.787   1.062
 3115SOL    HW210245   2.855   0.671   0.957
 3116SOL     OW10246   2.842   1.573   1.700
 3116SOL    HW110247   2.822   1.617   1.612
 3116SOL    HW210248   2.881   1.482   1.684
 3117SOL     OW10249   3.721   1.518   1.605
 3117SOL    HW110250   3.735   1.545   1.510
 3117SOL    HW210251   3.804   1.540   1.658
 3118SOL     OW10252   2.212   0.898   1.804
 3118SOL    HW110253   2.288   0.942   1.852
 3118SOL    HW210254   2.247   0.851   1.722
 3119SOL     OW10255   3.402   0.274   0.125
 3119SOL    HW110256   3.341   0.199   0.148
 3119SOL    HW210257   3.424   0.326   0.208
 3120SOL     OW10258   3.165   0.838   0.042
 3120SOL    HW110259   3.199   0.745   0.057
 3120SOL    HW210260   3.183   0.865  -0.053
 3121SOL     OW10261   2.930   1.333   0.849
 3121SOL    HW110262   2.937   1.249   0.794
 3121SOL    HW210263   2.992   1.402   0.813
 3122SOL     OW10264   2.181   0.810   0.949
 3122SOL    HW110265   2.274   0.846   0.954
 3122SOL    HW210266   2.175   0.725   1.001
 3123SOL     OW10267   2.201   0.509   1.006
 3123SOL    HW110268   2.149   0.426   0.989
 3123SOL    HW210269   2.278   0.514   0.942
 3124SOL     OW10270   3.000   0.380   1.678
 3124SOL    HW110271   2.955   0.443   1.742
 3124SOL    HW210272   3.093   0.411   1.661
 3125SOL     OW10273   3.022   0.207   1.477
 3125SOL    HW110274   3.022   0.271   1.554
 3125SOL    HW210275   3.050   0.255   1.394
 3126SOL     OW10276   1.950   1.801   0.927
 3126SOL    HW110277   1.908   1.715   0.900
 3126SOL    HW210278   2.044   1.804   0.893
 3127SOL     OW10279   2.366   1.568   0.910
 3127SOL    HW110280   2.432   1.642   0.919
 3127SOL    HW210281   2.410   1.489   0.868
 3128SOL     OW10282   2.864   0.796   1.238
 3128SOL    HW110283   2.905   0.764   1.324
 3128SOL    HW210284   2.768   0.769   1.235
 3129SOL     OW10285   1.902   0.544   1.114
 3129SOL    HW110286   1.987   0.511   1.073
 3129SOL    HW210287   1.915   0.559   1.212
 3130SOL     OW10288   2.051   0.520   1.722
 3130SOL    HW110289   2.110   0.480   1.652
 3130SOL    HW210290   1.993   0.591   1.681
 3131SOL     OW10291   3.231   0.950   1.660
 3131SOL    HW110292   3.270   1.039   1.680
 3131SOL    HW210293   3.241   0.930   1.563
 3132SOL     OW10294   2.677   0.572   0.325
 3132SOL    HW110295   2.684   0.483   0.279
 3132SOL    HW210296   2.583   0.606   0.317
 3133SOL     OW10297   3.519   0.604   1.206
 3133SOL    HW110298   3.481   0.535   1.268
 3133SOL    HW210299   3.601   0.568   1.162
 3134SOL     OW10300   2.114   1.564   1.744
 3134SOL    HW110301   2.084   1.621   1.820
 3134SOL    HW210302   2.107   1.467   1.770
 3135SOL     OW10303   2.533   0.464   1.269
 3135SOL    HW110304   2.499   0.375   1.239
 3135SOL    HW210305   2.559   0.518   1.189
 3136SOL     OW10306   2.792   1.678   1.465
 3136SOL    HW110307   2.768   1.660   1.370
 3136SOL    HW210308   2.822   1.772   1.475
 3137SOL     OW10309   2.335   0.500   0.191
 3137SOL    HW110310   2.396   0.580   0.195
 3137SOL    HW210311   2.240   0.531   0.198
 3138SOL     OW10312   2.021   1.137   1.466
 3138SOL    HW110313   2.043   1.076   1.542
 3138SOL    HW210314   2.031   1.088   1.380
 3139SOL     OW10315   3.209   1.059   1.234
 3139SOL    HW110316   3.233   0.996   1.160
 3139SOL    HW210317   3.119   1.099   1.216
 3140SOL     OW10318   3.164   0.855   0.309
 3140SOL    HW110319   3.078   0.824   0.351
 3140SOL    HW210320   3.160   0.841   0.210
 3141SOL     OW10321   3.621   1.747   1.154
 3141SOL    HW110322   3.682   1.777   1.081
 3141SOL    HW210323   3.583   1.658   1.132
 3142SOL     OW10324   3.114   1.731   1.128
 3142SOL    HW110325   3.198   1.736   1.074
 3142SOL    HW210326   3.091   1.635   1.146
 3143SOL     OW10327   1.945   1.258   1.022
 3143SOL    HW110328   1.940   1.257   1.122
 3143SOL    HW210329   1.862   1.217   0.984
 3144SOL     OW10330   2.550   1.662   1.716
 3144SOL    HW110331   2.494   1.743   1.725
 3144SOL    HW210332   2.602   1.666   1.630
 3145SOL     OW10333   2.765   0.086   0.133
 3145SOL    HW110334   2.816   0.087   0.047
 3145SOL    HW210335   2.821   0.044   0.204
 3146SOL     OW10336   3.588   0.135   0.523
 3146SOL    HW110337   3.661   0.118   0.456
 3146SOL    HW210338   3.557   0.048   0.561
 3147SOL     OW10339   3.250   1.573   0.477
 3147SOL    HW110340   3.317   1.585   0.403
 3147SOL    HW210341   3.210   1.662   0.500
 3148SOL     OW10342   1.992   1.794   1.851
 3148SOL    HW110343   1.951   1.720   1.904
 3148SOL    HW210344   2.056   1.845   1.909
 3149SOL     OW10345   3.142   0.927   0.672
 3149SOL    HW110346   3.202   0.846   0.674
 3149SOL    HW210347   3.182   0.996   0.612
 3150SOL     OW10348   2.692   1.273   1.422
 3150SOL    HW110349   2.687   1.306   1.517
 3150SOL    HW210350   2.606   1.292   1.376
 3151SOL     OW10351   2.534   1.616   0.154
 3151SOL    HW110352   2.543   1.626   0.055
 3151SOL    HW210353   2.494   1.527   0.175
 3152SOL     OW10354   3.512   1.720   1.394
 3152SOL    HW110355   3.565   1.730   1.310
 3152SOL    HW210356   3.485   1.810   1.428
 3153SOL     OW10357   3.703   0.175   0.963
 3153SOL    HW110358   3.742   0.090   0.927
 3153SOL    HW210359   3.605   0.177   0.944
 3154SOL     OW10360   2.125   0.326   0.720
 3154SOL    HW110361   2.046   0.377   0.686
 3154SOL    HW210362   2.116   0.311   0.818
 3155SOL     OW10363   3.056   1.612   0.031
 3155SOL    HW110364   3.062   1.519   0.068
 3155SOL    HW210365   2.997   1.612  -0.049
 3156SOL     OW10366   2.684   1.002   1.372
 3156SOL    HW110367   2.724   1.001   1.280
 3156SOL    HW210368   2.694   1.094   1.412
 3157SOL     OW10369   2.778   0.910   0.291
 3157SOL    HW110370   2.841   0.948   0.223
 3157SOL    HW210371   2.818   0.827   0.330
 3158SOL     OW10372   3.366   1.607   0.044
 3158SOL    HW110373   3.274   1.644   0.051
 3158SOL    HW210374   3.404   1.627  -0.046
 3159SOL     OW10375   2.234   1.288   1.490
 3159SOL    HW110376   2.221   1.381   1.456
 3159SOL    HW210377   2.150   1.236   1.477
 3160SOL     OW10378   3.476   1.292   1.289
 3160SOL    HW110379   3.536   1.295   1.369
 3160SOL    HW210380   3.401   1.356   1.302
 3161SOL     OW10381   2.901   1.098   0.696
 3161SOL    HW110382   2.831   1.051   0.750
 3161SOL    HW210383   2.960   1.030   0.653
 3162SOL     OW10384   2.876   0.236   0.971
 3162SOL    HW110385   2.868   0.200   0.878
 3162SOL    HW210386   2.874   0.160   1.036
 3163SOL     OW10387   2.452   1.487   0.491
 3163SOL    HW110388   2.494   1.429   0.421
 3163SOL    HW210389   2.408   1.566   0.447
 3164SOL     OW10390   3.571   0.385   1.381
 3164SOL    HW110391   3.644   0.454   1.385
 3164SOL    HW210392   3.599   0.310   1.322
 3165SOL     OW10393   2.117   1.348   0.290
 3165SOL    HW110394   2.021   1.349   0.263
 3165SOL    HW210395   2.129   1.401   0.374
 3166SOL     OW10396   1.967   1.013   1.726
 3166SOL    HW110397   1.890   0.980   1.780
 3166SOL    HW210398   2.052   0.983   1.768
 3167SOL     OW10399   2.534   0.203   1.489
 3167SOL    HW110400   2.624   0.187   1.449
 3167SOL    HW210401   2.542   0.208   1.588
 3168SOL     OW10402   1.937   0.345   0.033
 3168SOL    HW110403   1.845   0.317   0.004
 3168SOL    HW210404   1.968   0.422  -0.023
 3169SOL     OW10405   3.302   0.856   1.398
 3169SOL    HW110406   3.245   0.908   1.335
 3169SOL    HW210407   3.398   0.868   1.374
 3170SOL     OW10408   1.934   0.166   0.318
 3170SOL    HW110409   1.917   0.249   0.264
 3170SOL    HW210410   2.024   0.129   0.296
 3171SOL     OW10411   3.045   1.335   0.119
 3171SOL    HW110412   2.946   1.324   0.121
 3171SOL    HW210413   3.079   1.350   0.212
 3172SOL     OW10414   2.475   0.842   1.431
 3172SOL    HW110415   2.531   0.923   1.414
 3172SOL    HW210416   2.534   0.762   1.434
 3173SOL     OW10417   3.355   1.767   0.959
 3173SOL    HW110418   3.388   1.831   0.890
 3173SOL    HW210419   3.421   1.761   1.034
 3174SOL     OW10420   2.578   0.565   1.708
 3174SOL    HW110421   2.597   0.630   1.782
 3174SOL    HW210422   2.638   0.485   1.717
 3175SOL     OW10423   3.312   1.220   1.633
 3175SOL    HW110424   3.303   1.210   1.732
 3175SOL    HW210425   3.408   1.213   1.607
 3176SOL     OW10426   2.252   1.741   1.560
 3176SOL    HW110427   2.161   1.782   1.558
 3176SOL    HW210428   2.245   1.647   1.592
 3177SOL     OW10429   3.536   0.883   1.254
 3177SOL    HW110430   3.509   0.794   1.217
 3177SOL    HW210431   3.537   0.951   1.181
 3178SOL     OW10432   3.087   0.325   0.449
 3178SOL    HW110433   3.152   0.251   0.438
 3178SOL    HW210434   3.107   0.375   0.533
 3179SOL     OW10435   2.456   0.745   0.652
 3179SOL    HW110436   2.506   0.830   0.633
 3179SOL    HW210437   2.368   0.747   0.604
 3180SOL     OW10438   3.639   0.342   1.642
 3180SOL    HW110439   3.622   0.373   1.548
 3180SOL    HW210440   3.555   0.305   1.680
 3181SOL     OW10441   3.592   0.934   1.517
 3181SOL    HW110442   3.630   1.025   1.532
 3181SOL    HW210443   3.584   0.917   1.418
 3182SOL     OW10444   2.721   1.374   0.016
 3182SOL    HW110445   2.675   1.389   0.104
 3182SOL    HW210446   2.765   1.459  -0.014
 3183SOL     OW10447   2.523   1.790   0.953
 3183SOL    HW110448   2.477   1.878   0.940
 3183SOL    HW210449   2.622   1.802   0.946
 3184SOL     OW10450   2.721   0.956   0.861
 3184SOL    HW110451   2.775   0.887   0.909
 3184SOL    HW210452   2.689   1.025   0.927
 3185SOL     OW10453   2.945   0.984   0.087
 3185SOL    HW110454   2.922   1.037   0.005
 3185SOL    HW210455   3.026   0.928   0.068
 3186SOL     OW10456   3.723   1.569   0.851
 3186SOL    HW110457   3.652   1.557   0.781
 3186SOL    HW210458   3.724   1.490   0.911
 3187SOL     OW10459   2.083   1.314   1.844
 3187SOL    HW110460   2.018   1.241   1.823
 3187SOL    HW210461   2.087   1.328   1.942
 3188SOL     OW10462   1.941   1.240   0.653
 3188SOL    HW110463   1.940   1.193   0.741
 3188SOL    HW210464   2.023   1.212   0.602
 3189SOL     OW10465   2.534   1.391   1.624
 3189SOL    HW110466   2.456   1.341   1.662
 3189SOL    HW210467   2.531   1.486   1.655
 3190SOL     OW10468   3.686   0.192   1.227
 3190SOL    HW110469   3.682   0.102   1.271
 3190SOL    HW210470   3.689   0.181   1.128
 3191SOL     OW10471   2.290   0.424   0.520
 3191SOL    HW110472   2.320   0.352   0.458
 3191SOL    HW210473   2.251   0.384   0.603
 3192SOL     OW10474   3.567   1.487   1.104
 3192SOL    HW110475   3.474   1.462   1.077
 3192SOL    HW210476   3.593   1.437   1.186
 3193SOL     OW10477   2.179   0.547   1.280
 3193SOL    HW110478   2.217   0.488   1.352
 3193SOL    HW210479   2.219   0.521   1.192
 3194SOL     OW10480   2.674   1.586   0.687
 3194SOL    HW110481   2.706   1.596   0.593
 3194SOL    HW210482   2.595   1.524   0.689
 3195SOL     OW10483   3.286   0.214   1.112
 3195SOL    HW110484   3.338   0.149   1.167
 3195SOL    HW210485   3.237   0.277   1.173
 3196SOL     OW10486   2.863   0.034   1.154
 3196SOL    HW110487   2.800  -0.038   1.123
 3196SOL    HW210488   2.956  -0.002   1.154
 3197SOL     OW10489   2.632   1.330   0.301
 3197SOL    HW110490   2.586   1.243   0.318
 3197SOL    HW210491   2.723   1.327   0.342
 3198SOL     OW10492   2.480   1.567   1.284
 3198SOL    HW110493   2.475   1.649   1.341
 3198SOL    HW210494   2.569   1.564   1.239
 3199SOL     OW10495   3.214   0.052   0.168
 3199SOL    HW110496   3.249   0.011   0.084
 3199SOL    HW210497   3.124   0.014   0.188
 3200SOL     OW10498   3.162   0.453   0.691
 3200SOL    HW110499   3.103   0.533   0.695
 3200SOL    HW210500   3.177   0.418   0.784
 3201SOL     OW10501   3.455   0.221   0.882
 3201SOL    HW110502   3.371   0.220   0.936
 3201SOL    HW210503   3.457   0.304   0.826
 3202SOL     OW10504   1.901   1.077   0.300
 3202SOL    HW110505   2.000   1.066   0.291
 3202SOL    HW210506   1.861   0.991   0.332
 3203SOL     OW10507   2.737   1.646   0.337
 3203SOL    HW110508   2.660   1.611   0.283
 3203SOL    HW210509   2.705   1.717   0.399
 3204SOL     OW10510   2.092   0.628   1.975
 3204SOL    HW110511   1.999   0.626   2.012
 3204SOL    HW210512   2.093   0.589   1.883
 3205SOL     OW10513   2.087   0.275   2.858
 3205SOL    HW110514   2.122   0.258   2.950
 3205SOL    HW210515   1.999   0.230   2.846
 3206SOL     OW10516   1.881   0.368   2.509
 3206SOL    HW110517   1.799   0.411   2.548
 3206SOL    HW210518   1.853   0.295   2.446
 3207SOL     OW10519   2.431   1.275   3.027
 3207SOL    HW110520   2.338   1.268   2.990
 3207SOL    HW210521   2.442   1.364   3.071
 3208SOL     OW10522   3.417   1.511   2.565
 3208SOL    HW110523   3.360   1.495   2.646
 3208SOL    HW210524   3.358   1.521   2.485
 3209SOL     OW10525   2.997   0.703   2.579
 3209SOL    HW110526   3.054   0.781   2.554
 3209SOL    HW210527   2.937   0.729   2.655
 3210SOL     OW10528   3.617   0.607   2.093
 3210SOL    HW110529   3.605   0.594   1.994
 3210SOL    HW210530   3.587   0.526   2.142
 3211SOL     OW10531   2.630   1.144   2.885
 3211SOL    HW110532   2.552   1.161   2.945
 3211SOL    HW210533   2.664   1.231   2.849
 3212SOL     OW10534   2.712   0.798   3.685
 3212SOL    HW110535   2.708   0.874   3.750
 3212SOL    HW210536   2.734   0.834   3.594
 3213SOL     OW10537   2.547   1.012   2.527
 3213SOL    HW110538   2.616   0.996   2.597
 3213SOL    HW210539   2.474   1.069   2.565
 3214SOL     OW10540   2.548   1.161   3.665
 3214SOL    HW110541   2.608   1.240   3.679
 3214SOL    HW210542   2.462   1.192   3.624
 3215SOL     OW10543   2.197   1.435   2.923
 3215SOL    HW110544   2.119   1.404   2.870
 3215SOL    HW210545   2.255   1.493   2.866
 3216SOL     OW10546   3.322   1.505   3.201
 3216SOL    HW110547   3.346   1.599   3.227
 3216SOL    HW210548   3.306   1.451   3.283
 3217SOL     OW10549   2.300   0.392   3.361
 3217SOL    HW110550   2.382   0.336   3.370
 3217SOL    HW210551   2.219   0.334   3.365
 3218SOL     OW10552   3.465   0.447   2.599
 3218SOL    HW110553   3.391   0.493   2.549
 3218SOL    HW210554   3.516   0.515   2.652
 3219SOL     OW10555   2.093   1.713   2.345
 3219SOL    HW110556   2.127   1.790   2.399
 3219SOL    HW210557   2.137   1.713   2.255
 3220SOL     OW10558   2.989   1.341   3.552
 3220SOL    HW110559   3.036   1.341   3.640
 3220SOL    HW210560   2.941   1.254   3.541
 3221SOL     OW10561   2.092   1.434   2.400
 3221SOL    HW110562   2.066   1.530   2.400
 3221SOL    HW210563   2.021   1.380   2.445
 3222SOL     OW10564   2.102   1.091   2.748
 3222SOL    HW110565   2.116   1.007   2.800
 3222SOL    HW210566   2.047   1.155   2.803
 3223SOL     OW10567   2.482   1.786   3.301
 3223SOL    HW110568   2.390   1.769   3.336
 3223SOL    HW210569   2.510   1.878   3.327
 3224SOL     OW10570   2.468   0.964   1.985
 3224SOL    HW110571   2.475   1.048   1.931
 3224SOL    HW210572   2.514   0.977   2.073
 3225SOL     OW10573   3.456   0.114   3.342
 3225SOL    HW110574   3.438   0.181   3.270
 3225SOL    HW210575   3.453   0.160   3.431
 3226SOL     OW10576   1.984   0.643   2.425
 3226SOL    HW110577   1.939   0.555   2.442
 3226SOL    HW210578   1.983   0.697   2.509
 3227SOL     OW10579   3.704   1.767   2.221
 3227SOL    HW110580   3.758   1.738   2.301
 3227SOL    HW210581   3.734   1.857   2.192
 3228SOL     OW10582   1.889   1.596   1.979
 3228SOL    HW110583   1.870   1.500   2.000
 3228SOL    HW210584   1.856   1.654   2.054
 3229SOL     OW10585   3.551   0.922   2.474
 3229SOL    HW110586   3.646   0.893   2.482
 3229SOL    HW210587   3.543   0.987   2.399
 3230SOL     OW10588   3.503   1.108   2.294
 3230SOL    HW110589   3.589   1.110   2.242
 3230SOL    HW210590   3.517   1.155   2.382
 3231SOL     OW10591   1.975   0.737   3.459
 3231SOL    HW110592   2.063   0.724   3.504
 3231SOL    HW210593   1.962   0.834   3.437
 3232SOL     OW10594   2.475   1.365   2.588
 3232SOL    HW110595   2.426   1.278   2.597
 3232SOL    HW210596   2.452   1.408   2.501
 3233SOL     OW10597   3.155   1.228   3.285
 3233SOL    HW110598   3.192   1.155   3.227
 3233SOL    HW210599   3.207   1.233   3.370
 3234SOL     OW10600   2.671   0.004   2.364
 3234SOL    HW110601   2.711   0.095   2.355
 3234SOL    HW210602   2.571   0.012   2.370
 3235SOL     OW10603   2.059   0.976   3.126
 3235SOL    HW110604   2.148   0.931   3.112
 3235SOL    HW210605   1.986   0.911   3.107
 3236SOL     OW10606   3.387   0.999   2.052
 3236SOL    HW110607   3.324   0.923   2.065
 3236SOL    HW210608   3.435   1.017   2.138
 3237SOL     OW10609   3.049   1.792   3.478
 3237SOL    HW110610   3.073   1.852   3.402
 3237SOL    HW210611   3.056   1.697   3.448
 3238SOL     OW10612   2.179   0.251   3.663
 3238SOL    HW110613   2.250   0.322   3.669
 3238SOL    HW210614   2.091   0.290   3.691
 3239SOL     OW10615   3.328   1.417   2.815
 3239SOL    HW110616   3.269   1.423   2.895
 3239SOL    HW210617   3.313   1.329   2.769
 3240SOL     OW10618   3.529   1.714   2.434
 3240SOL    HW110619   3.488   1.691   2.346
 3240SOL    HW210620   3.511   1.640   2.499
 3241SOL     OW10621   2.460   0.729   2.132
 3241SOL    HW110622   2.484   0.798   2.064
 3241SOL    HW210623   2.382   0.762   2.186
 3242SOL     OW10624   3.143   0.345   2.806
 3242SOL    HW110625   3.057   0.295   2.793
 3242SOL    HW210626   3.205   0.291   2.862
 3243SOL     OW10627   3.438   1.662   2.169
 3243SOL    HW110628   3.527   1.708   2.172
 3243SOL    HW210629   3.417   1.638   2.074
 3244SOL     OW10630   2.669   0.605   3.327
 3244SOL    HW110631   2.622   0.602   3.416
 3244SOL    HW210632   2.618   0.550   3.261
 3245SOL     OW10633   3.256   0.469   3.536
 3245SOL    HW110634   3.236   0.512   3.624
 3245SOL    HW210635   3.334   0.407   3.545
 3246SOL     OW10636   2.835   0.890   3.434
 3246SOL    HW110637   2.881   0.806   3.405
 3246SOL    HW210638   2.779   0.924   3.359
 3247SOL     OW10639   2.853   0.410   3.104
 3247SOL    HW110640   2.776   0.444   3.158
 3247SOL    HW210641   2.819   0.359   3.025
 3248SOL     OW10642   2.903   0.701   2.291
 3248SOL    HW110643   2.929   0.697   2.387
 3248SOL    HW210644   2.818   0.650   2.277
 3249SOL     OW10645   1.938   0.811   2.651
 3249SOL    HW110646   2.037   0.799   2.660
 3249SOL    HW210647   1.914   0.906   2.672
 3250SOL     OW10648   1.992   1.821   3.433
 3250SOL    HW110649   1.982   1.806   3.532
 3250SOL    HW210650   1.906   1.857   3.397
 3251SOL     OW10651   2.727   0.348   2.057
 3251SOL    HW110652   2.786   0.411   2.008
 3251SOL    HW210653   2.746   0.254   2.028
 3252SOL     OW10654   3.581   0.585   3.693
 3252SOL    HW110655   3.555   0.674   3.657
 3252SOL    HW210656   3.579   0.517   3.620
 3253SOL     OW10657   3.224   1.144   2.407
 3253SOL    HW110658   3.307   1.115   2.359
 3253SOL    HW210659   3.175   1.211   2.351
 3254SOL     OW10660   2.412   0.196   2.747
 3254SOL    HW110661   2.407   0.191   2.847
 3254SOL    HW210662   2.414   0.292   2.718
 3255SOL     OW10663   2.870   1.456   2.339
 3255SOL    HW110664   2.824   1.528   2.287
 3255SOL    HW210665   2.866   1.476   2.437
 3256SOL     OW10666   2.213   1.801   2.715
 3256SOL    HW110667   2.263   1.715   2.721
 3256SOL    HW210668   2.278   1.878   2.712
 3257SOL     OW10669   3.657   1.066   2.735
 3257SOL    HW110670   3.595   1.051   2.659
 3257SOL    HW210671   3.605   1.077   2.820
 3258SOL     OW10672   3.089   1.550   3.368
 3258SOL    HW110673   3.095   1.473   3.432
 3258SOL    HW210674   3.037   1.524   3.288
 3259SOL     OW10675   2.183   0.943   2.104
 3259SOL    HW110676   2.265   0.982   2.062
 3259SOL    HW210677   2.156   0.861   2.055
 3260SOL     OW10678   3.320   0.735   2.590
 3260SOL    HW110679   3.315   0.670   2.665
 3260SOL    HW210680   3.400   0.794   2.603
 3261SOL     OW10681   2.323   1.266   3.589
 3261SOL    HW110682   2.273   1.267   3.503
 3261SOL    HW210683   2.260   1.248   3.665
 3262SOL     OW10684   2.973   1.776   2.099
 3262SOL    HW110685   2.913   1.714   2.149
 3262SOL    HW210686   3.004   1.732   2.014
 3263SOL     OW10687   2.064   0.285   3.360
 3263SOL    HW110688   1.984   0.345   3.347
 3263SOL    HW210689   2.054   0.236   3.446
 3264SOL     OW10690   3.494   1.377   1.943
 3264SOL    HW110691   3.462   1.471   1.933
 3264SOL    HW210692   3.418   1.314   1.931
 3265SOL     OW10693   2.326   1.743   2.185
 3265SOL    HW110694   2.359   1.782   2.271
 3265SOL    HW210695   2.402   1.736   2.120
 3266SOL     OW10696   3.262   0.107   2.288
 3266SOL    HW110697   3.238   0.070   2.198
 3266SOL    HW210698   3.361   0.123   2.292
 3267SOL     OW10699   2.111   1.785   3.103
 3267SOL    HW110700   2.168   1.720   3.153
 3267SOL    HW210701   2.095   1.752   3.010
 3268SOL     OW10702   2.802   1.698   2.766
 3268SOL    HW110703   2.882   1.641   2.787
 3268SOL    HW210704   2.753   1.658   2.689
 3269SOL     OW10705   2.244   0.700   2.342
 3269SOL    HW110706   2.289   0.610   2.339
 3269SOL    HW210707   2.150   0.689   2.375
 3270SOL     OW10708   3.409   0.222   3.591
 3270SOL    HW110709   3.404   0.259   3.683
 3270SOL    HW210710   3.337   0.153   3.579
 3271SOL     OW10711   2.476   0.122   1.979
 3271SOL    HW110712   2.574   0.100   1.986
 3271SOL    HW210713   2.445   0.105   1.886
 3272SOL     OW10714   2.643   0.264   3.611
 3272SOL    HW110715   2.710   0.203   3.654
 3272SOL    HW210716   2.570   0.283   3.676
 3273SOL     OW10717   2.750   1.514   3.057
 3273SOL    HW110718   2.727   1.489   2.963
 3273SOL    HW210719   2.811   1.445   3.096
 3274SOL     OW10720   3.213   0.590   3.295
 3274SOL    HW110721   3.241   0.547   3.380
 3274SOL    HW210722   3.238   0.686   3.296
 3275SOL     OW10723   2.665   1.402   2.786
 3275SOL    HW110724   2.755   1.416   2.744
 3275SOL    HW210725   2.594   1.404   2.715
 3276SOL     OW10726   2.784   0.503   2.761
 3276SOL    HW110727   2.759   0.494   2.665
 3276SOL    HW210728   2.832   0.421   2.792
 3277SOL     OW10729   2.401   0.064   2.374
 3277SOL    HW110730   2.320   0.065   2.432
 3277SOL    HW210731   2.404   0.147   2.319
 3278SOL     OW10732   3.296   1.188   1.903
 3278SOL    HW110733   3.328   1.112   1.960
 3278SOL    HW210734   3.204   1.215   1.933
 3279SOL     OW10735   2.159   0.035   2.033
 3279SOL    HW110736   2.208   0.119   2.012
 3279SOL    HW210737   2.221  -0.030   2.078
 3280SOL     OW10738   2.797   0.236   2.342
 3280SOL    HW110739   2.749   0.277   2.264
 3280SOL    HW210740   2.896   0.234   2.323
 3281SOL     OW10741   2.938   0.683   3.326
 3281SOL    HW110742   2.858   0.622   3.329
 3281SOL    HW210743   3.019   0.630   3.302
 3282SOL     OW10744   3.089   1.570   2.655
 3282SOL    HW110745   3.110   1.644   2.590
 3282SOL    HW210746   3.157   1.570   2.728
 3283SOL     OW10747   2.321   1.152   2.603
 3283SOL    HW110748   2.250   1.125   2.668
 3283SOL    HW210749   2.295   1.124   2.510
 3284SOL     OW10750   3.133   1.797   2.453
 3284SOL    HW110751   3.177   1.861   2.389
 3284SOL    HW210752   3.083   1.849   2.523
 3285SOL     OW10753   2.894   0.549   1.878
 3285SOL    HW110754   2.853   0.631   1.839
 3285SOL    HW210755   2.958   0.575   1.951
 3286SOL     OW10756   1.940   0.556   3.248
 3286SOL    HW110757   2.032   0.555   3.207
 3286SOL    HW210758   1.934   0.630   3.315
 3287SOL     OW10759   2.423   0.222   3.009
 3287SOL    HW110760   2.461   0.138   3.046
 3287SOL    HW210761   2.335   0.241   3.053
 3288SOL     OW10762   2.728   0.454   2.504
 3288SOL    HW110763   2.696   0.526   2.442
 3288SOL    HW210764   2.752   0.373   2.451
 3289SOL     OW10765   2.879   0.039   2.615
 3289SOL    HW110766   2.807   0.044   2.546
 3289SOL    HW210767   2.855  -0.030   2.684
 3290SOL     OW10768   3.291   1.173   2.729
 3290SOL    HW110769   3.236   1.089   2.722
 3290SOL    HW210770   3.317   1.202   2.637
 3291SOL     OW10771   3.328   0.590   2.854
 3291SOL    HW110772   3.298   0.495   2.861
 3291SOL    HW210773   3.401   0.606   2.920
 3292SOL     OW10774   3.719   0.833   2.239
 3292SOL    HW110775   3.761   0.769   2.303
 3292SOL    HW210776   3.681   0.782   2.161
 3293SOL     OW10777   2.350   1.385   2.036
 3293SOL    HW110778   2.263   1.370   2.083
 3293SOL    HW210779   2.333   1.411   1.941
 3294SOL     OW10780   3.526   1.280   2.519
 3294SOL    HW110781   3.625   1.288   2.533
 3294SOL    HW210782   3.481   1.364   2.550
 3295SOL     OW10783   3.252   0.575   1.940
 3295SOL    HW110784   3.198   0.554   2.021
 3295SOL    HW210785   3.343   0.534   1.949
 3296SOL     OW10786   2.389   0.256   2.190
 3296SOL    HW110787   2.416   0.197   2.115
 3296SOL    HW210788   2.389   0.351   2.159
 3297SOL     OW10789   3.616   1.223   3.450
 3297SOL    HW110790   3.707   1.184   3.437
 3297SOL    HW210791   3.624   1.319   3.474
 3298SOL     OW10792   2.926   1.347   3.202
 3298SOL    HW110793   2.846   1.324   3.257
 3298SOL    HW210794   3.009   1.321   3.251
 3299SOL     OW10795   3.454   1.629   3.487
 3299SOL    HW110796   3.481   1.663   3.397
 3299SOL    HW210797   3.533   1.591   3.533
 3300SOL     OW10798   2.973   1.195   2.962
 3300SOL    HW110799   2.933   1.239   3.043
 3300SOL    HW210800   2.932   1.232   2.879
 3301SOL     OW10801   3.500   1.099   2.941
 3301SOL    HW110802   3.505   1.180   3.000
 3301SOL    HW210803   3.414   1.101   2.890
 3302SOL     OW10804   2.777   0.089   3.264
 3302SOL    HW110805   2.802   0.069   3.169
 3302SOL    HW210806   2.849   0.145   3.306
 3303SOL     OW10807   2.842   1.116   3.581
 3303SOL    HW110808   2.743   1.122   3.591
 3303SOL    HW210809   2.865   1.036   3.525
 3304SOL     OW10810   2.567   1.050   2.230
 3304SOL    HW110811   2.553   1.057   2.329
 3304SOL    HW210812   2.651   0.999   2.212
 3305SOL     OW10813   2.272   0.813   3.113
 3305SOL    HW110814   2.358   0.825   3.163
 3305SOL    HW210815   2.230   0.726   3.140
 3306SOL     OW10816   3.136   0.386   3.124
 3306SOL    HW110817   3.157   0.460   3.188
 3306SOL    HW210818   3.047   0.403   3.081
 3307SOL     OW10819   1.926   1.564   3.193
 3307SOL    HW110820   1.880   1.646   3.159
 3307SOL    HW210821   2.024   1.583   3.202
 3308SOL     OW10822   2.229   1.100   2.363
 3308SOL    HW110823   2.222   1.183   2.307
 3308SOL    HW210824   2.233   1.020   2.303
 3309SOL     OW10825   2.428   0.537   2.727
 3309SOL    HW110826   2.440   0.603   2.653
 3309SOL    HW210827   2.474   0.571   2.810
 3310SOL     OW10828   3.114   1.348   2.250
 3310SOL    HW110829   3.164   1.425   2.290
 3310SOL    HW210830   3.019   1.350   2.282
 3311SOL     OW10831   3.134   1.445   3.004
 3311SOL    HW110832   3.181   1.458   3.091
 3311SOL    HW210833   3.068   1.371   3.013
 3312SOL     OW10834   3.444   0.639   2.334
 3312SOL    HW110835   3.413   0.700   2.407
 3312SOL    HW210836   3.494   0.691   2.265
 3313SOL     OW10837   2.216   1.510   3.191
 3313SOL    HW110838   2.195   1.466   3.104
 3313SOL    HW210839   2.313   1.536   3.194
 3314SOL     OW10840   2.264   0.751   3.460
 3314SOL    HW110841   2.332   0.806   3.413
 3314SOL    HW210842   2.304   0.663   3.487
 3315SOL     OW10843   3.449   0.779   3.532
 3315SOL    HW110844   3.357   0.817   3.527
 3315SOL    HW210845   3.509   0.826   3.467
 3316SOL     OW10846   2.875   0.105   3.632
 3316SOL    HW110847   2.881   0.190   3.580
 3316SOL    HW210848   2.907   0.029   3.575
 3317SOL     OW10849   2.366   0.050   3.602
 3317SOL    HW110850   2.324  -0.007   3.532
 3317SOL    HW210851   2.300   0.119   3.634
 3318SOL     OW10852   2.435   0.870   2.891
 3318SOL    HW110853   2.479   0.959   2.882
 3318SOL    HW210854   2.372   0.870   2.968
 3319SOL     OW10855   3.222   0.862   2.907
 3319SOL    HW110856   3.147   0.862   2.841
 3319SOL    HW210857   3.259   0.770   2.916
 3320SOL     OW10858   3.071   0.525   2.137
 3320SOL    HW110859   3.084   0.441   2.191
 3320SOL    HW210860   3.042   0.599   2.197
 3321SOL     OW10861   2.169   0.213   3.093
 3321SOL    HW110862   2.146   0.250   3.183
 3321SOL    HW210863   2.139   0.118   3.087
 3322SOL     OW10864   1.899   1.310   3.144
 3322SOL    HW110865   1.952   1.261   3.212
 3322SOL    HW210866   1.921   1.408   3.149
 3323SOL     OW10867   2.594   0.634   2.926
 3323SOL    HW110868   2.653   0.608   2.850
 3323SOL    HW210869   2.566   0.730   2.915
 3324SOL     OW10870   3.590   0.935   3.716
 3324SOL    HW110871   3.544   0.928   3.627
 3324SOL    HW210872   3.528   0.979   3.782
 3325SOL     OW10873   2.169   0.063   2.480
 3325SOL    HW110874   2.158   0.157   2.513
 3325SOL    HW210875   2.164   0.000   2.557
 3326SOL     OW10876   3.484   0.367   2.236
 3326SOL    HW110877   3.486   0.291   2.300
 3326SOL    HW210878   3.436   0.444   2.276
 3327SOL     OW10879   2.885   0.766   2.828
 3327SOL    HW110880   2.900   0.787   2.924
 3327SOL    HW210881   2.855   0.671   2.819
 3328SOL     OW10882   2.842   1.573   3.562
 3328SOL    HW110883   2.822   1.617   3.474
 3328SOL    HW210884   2.881   1.482   3.546
 3329SOL     OW10885   3.721   1.518   3.467
 3329SOL    HW110886   3.735   1.545   3.372
 3329SOL    HW210887   3.804   1.540   3.520
 3330SOL     OW10888   2.212   0.898   3.666
 3330SOL    HW110889   2.288   0.942   3.714
 3330SOL    HW210890   2.247   0.851   3.584
 3331SOL     OW10891   3.402   0.274   1.987
 3331SOL    HW110892   3.341   0.199   2.010
 3331SOL    HW210893   3.424   0.326   2.070
 3332SOL     OW10894   3.165   0.838   1.904
 3332SOL    HW110895   3.199   0.745   1.919
 3332SOL    HW210896   3.183   0.865   1.809
 3333SOL     OW10897   2.930   1.333   2.711
 3333SOL    HW110898   2.937   1.249   2.656
 3333SOL    HW210899   2.992   1.402   2.675
 3334SOL     OW10900   2.181   0.810   2.811
 3334SOL    HW110901   2.274   0.846   2.816
 3334SOL    HW210902   2.175   0.725   2.863
 3335SOL     OW10903   2.201   0.509   2.868
 3335SOL    HW110904   2.149   0.426   2.851
 3335SOL    HW210905   2.278   0.514   2.804
 3336SOL     OW10906   3.000   0.380   3.540
 3336SOL    HW110907   2.955   0.443   3.604
 3336SOL    HW210908   3.093   0.411   3.523
 3337SOL     OW10909   3.022   0.207   3.339
 3337SOL    HW110910   3.022   0.271   3.416
 3337SOL    HW210911   3.050   0.255   3.256
 3338SOL     OW10912   1.870   1.326   2.062
 3338SOL    HW110913   1.777   1.347   2.031
 3338SOL    HW210914   1.880   1.227   2.075
 3339SOL     OW10915   1.950   1.801   2.789
 3339SOL    HW110916   1.908   1.715   2.762
 3339SOL    HW210917   2.044   1.804   2.755
 3340SOL     OW10918   2.366   1.568   2.772
 3340SOL    HW110919   2.432   1.642   2.781
 3340SOL    HW210920   2.410   1.489   2.730
 3341SOL     OW10921   2.864   0.796   3.100
 3341SOL    HW110922   2.905   0.764   3.186
 3341SOL    HW210923   2.768   0.769   3.097
 3342SOL     OW10924   1.902   0.544   2.976
 3342SOL    HW110925   1.987   0.511   2.935
 3342SOL    HW210926   1.915   0.559   3.074
 3343SOL     OW10927   2.051   0.520   3.584
 3343SOL    HW110928   2.110   0.480   3.514
 3343SOL    HW210929   1.993   0.591   3.543
 3344SOL     OW10930   3.231   0.950   3.522
 3344SOL    HW110931   3.270   1.039   3.542
 3344SOL    HW210932   3.241   0.930   3.425
 3345SOL     OW10933   2.677   0.572   2.187
 3345SOL    HW110934   2.684   0.483   2.141
 3345SOL    HW210935   2.583   0.606   2.179
 3346SOL     OW10936   3.519   0.604   3.068
 3346SOL    HW110937   3.481   0.535   3.130
 3346SOL    HW210938   3.601   0.568   3.024
 3347SOL     OW10939   2.114   1.564   3.606
 3347SOL    HW110940   2.084   1.621   3.682
 3347SOL    HW210941   2.107   1.467   3.632
 3348SOL     OW10942   2.533   0.464   3.131
 3348SOL    HW110943   2.499   0.375   3.101
 3348SOL    HW210944   2.559   0.518   3.051
 3349SOL     OW10945   2.792   1.678   3.327
 3349SOL    HW110946   2.768   1.660   3.232
 3349SOL    HW210947   2.822   1.772   3.337
 3350SOL     OW10948   2.335   0.500   2.053
 3350SOL    HW110949   2.396   0.580   2.057
 3350SOL    HW210950   2.240   0.531   2.060
 3351SOL     OW10951   2.021   1.137   3.328
 3351SOL    HW110952   2.043   1.076   3.404
 3351SOL    HW210953   2.031   1.088   3.242
 3352SOL     OW10954   3.209   1.059   3.096
 3352SOL    HW110955   3.233   0.996   3.022
 3352SOL    HW210956   3.119   1.099   3.078
 3353SOL     OW10957   3.164   0.855   2.171
 3353SOL    HW110958   3.078   0.824   2.213
 3353SOL    HW210959   3.160   0.841   2.072
 3354SOL     OW10960   3.621   1.747   3.016
 3354SOL    HW110961   3.682   1.777   2.943
 3354SOL    HW210962   3.583   1.658   2.994
 3355SOL     OW10963   3.114   1.731   2.990
 3355SOL    HW110964   3.198   1.736   2.936
 3355SOL    HW210965   3.091   1.635   3.008
 3356SOL     OW10966   1.945   1.258   2.884
 3356SOL    HW110967   1.940   1.257   2.984
 3356SOL    HW210968   1.862   1.217   2.846
 3357SOL     OW10969   2.550   1.662   3.578
 3357SOL    HW110970   2.494   1.743   3.587
 3357SOL    HW210971   2.602   1.666   3.492
 3358SOL     OW10972   3.588   0.135   2.385
 3358SOL    HW110973   3.661   0.118   2.318
 3358SOL    HW210974   3.557   0.048   2.423
 3359SOL     OW10975   3.250   1.573   2.339
 3359SOL    HW110976   3.317   1.585   2.265
 3359SOL    HW210977   3.210   1.662   2.362
 3360SOL     OW10978   1.992   1.794   3.713
 3360SOL    HW110979   1.951   1.720   3.766
 3360SOL    HW210980   2.056   1.845   3.771
 3361SOL     OW10981   3.142   0.927   2.534
 3361SOL    HW110982   3.202   0.846   2.536
 3361SOL    HW210983   3.182   0.996   2.474
 3362SOL     OW10984   2.692   1.273   3.284
 3362SOL    HW110985   2.687   1.306   3.379
 3362SOL    HW210986   2.606   1.292   3.238
 3363SOL     OW10987   2.534   1.616   2.016
 3363SOL    HW110988   2.543   1.626   1.917
 3363SOL    HW210989   2.494   1.527   2.037
 3364SOL     OW10990   3.512   1.720   3.256
 3364SOL    HW110991   3.565   1.730   3.172
 3364SOL    HW210992   3.485   1.810   3.290
 3365SOL     OW10993   3.703   0.175   2.825
 3365SOL    HW110994   3.742   0.090   2.789
 3365SOL    HW210995   3.605   0.177   2.806
 3366SOL     OW10996   2.125   0.326   2.582
 3366SOL    HW110997   2.046   0.377   2.548
 3366SOL    HW210998   2.116   0.311   2.680
 3367SOL     OW10999   3.056   1.612   1.893
 3367SOL    HW111000   3.062   1.519   1.930
 3367SOL    HW211001   2.997   1.612   1.813
 3368SOL     OW11002   2.684   1.002   3.234
 3368SOL    HW111003   2.724   1.001   3.142
 3368SOL    HW211004   2.694   1.094   3.274
 3369SOL     OW11005   2.778   0.910   2.153
 3369SOL    HW111006   2.841   0.948   2.085
 3369SOL    HW211007   2.818   0.827   2.192
 3370SOL     OW11008   3.366   1.607   1.906
 3370SOL    HW111009   3.274   1.644   1.913
 3370SOL    HW211010   3.404   1.627   1.816
 3371SOL     OW11011   2.234   1.288   3.352
 3371SOL    HW111012   2.221   1.381   3.318
 3371SOL    HW211013   2.150   1.236   3.339
 3372SOL     OW11014   3.476   1.292   3.151
 3372SOL    HW111015   3.536   1.295   3.231
 3372SOL    HW211016   3.401   1.356   3.164
 3373SOL     OW11017   2.901   1.098   2.558
 3373SOL    HW111018   2.831   1.051   2.612
 3373SOL    HW211019   2.960   1.030   2.515
 3374SOL     OW11020   2.876   0.236   2.833
 3374SOL    HW111021   2.868   0.200   2.740
 3374SOL    HW211022   2.874   0.160   2.898
 3375SOL     OW11023   2.452   1.487   2.353
 3375SOL    HW111024   2.494   1.429   2.283
 3375SOL    HW211025   2.408   1.566   2.309
 3376SOL     OW11026   3.571   0.385   3.243
 3376SOL    HW111027   3.644   0.454   3.247
 3376SOL    HW211028   3.599   0.310   3.184
 3377SOL     OW11029   2.117   1.348   2.152
 3377SOL    HW111030   2.021   1.349   2.125
 3377SOL    HW211031   2.129   1.401   2.236
 3378SOL     OW11032   1.967   1.013   3.588
 3378SOL    HW111033   1.890   0.980   3.642
 3378SOL    HW211034   2.052   0.983   3.630
 3379SOL     OW11035   2.534   0.203   3.351
 3379SOL    HW111036   2.624   0.187   3.311
 3379SOL    HW211037   2.542   0.208   3.450
 3380SOL     OW11038   1.937   0.345   1.895
 3380SOL    HW111039   1.845   0.317   1.866
 3380SOL    HW211040   1.968   0.422   1.839
 3381SOL     OW11041   3.302   0.856   3.260
 3381SOL    HW111042   3.245   0.908   3.197
 3381SOL    HW211043   3.398   0.868   3.236
 3382SOL     OW11044   1.934   0.166   2.180
 3382SOL    HW111045   1.917   0.249   2.126
 3382SOL    HW211046   2.024   0.129   2.158
 3383SOL     OW11047   3.045   1.335   1.981
 3383SOL    HW111048   2.946   1.324   1.983
 3383SOL    HW211049   3.079   1.350   2.074
 3384SOL     OW11050   2.475   0.842   3.293
 3384SOL    HW111051   2.531   0.923   3.276
 3384SOL    HW211052   2.534   0.762   3.296
 3385SOL     OW11053   3.355   1.767   2.821
 3385SOL    HW111054   3.388   1.831   2.752
 3385SOL    HW211055   3.421   1.761   2.896
 3386SOL     OW11056   2.578   0.565   3.570
 3386SOL    HW111057   2.597   0.630   3.644
 3386SOL    HW211058   2.638   0.485   3.579
 3387SOL     OW11059   3.312   1.220   3.495
 3387SOL    HW111060   3.303   1.210   3.594
 3387SOL    HW211061   3.408   1.213   3.469
 3388SOL     OW11062   2.252   1.741   3.422
 3388SOL    HW111063   2.161   1.782   3.420
 3388SOL    HW211064   2.245   1.647   3.454
 3389SOL     OW11065   3.536   0.883   3.116
 3389SOL    HW111066   3.509   0.794   3.079
 3389SOL    HW211067   3.537   0.951   3.043
 3390SOL     OW11068   3.087   0.325   2.311
 3390SOL    HW111069   3.152   0.251   2.300
 3390SOL    HW211070   3.107   0.375   2.395
 3391SOL     OW11071   2.456   0.745   2.514
 3391SOL    HW111072   2.506   0.830   2.495
 3391SOL    HW211073   2.368   0.747   2.466
 3392SOL     OW11074   3.639   0.342   3.504
 3392SOL    HW111075   3.622   0.373   3.410
 3392SOL    HW211076   3.555   0.305   3.542
 3393SOL     OW11077   3.592   0.934   3.379
 3393SOL    HW111078   3.630   1.025   3.394
 3393SOL    HW211079   3.584   0.917   3.280
 3394SOL     OW11080   2.721   1.374   1.878
 3394SOL    HW111081   2.675   1.389   1.966
 3394SOL    HW211082   2.765   1.459   1.848
 3395SOL     OW11083   2.523   1.790   2.815
 3395SOL    HW111084   2.477   1.878   2.802
 3395SOL    HW211085   2.622   1.802   2.808
 3396SOL     OW11086   2.721   0.956   2.723
 3396SOL    HW111087   2.775   0.887   2.771
 3396SOL    HW211088   2.689   1.025   2.789
 3397SOL     OW11089   2.945   0.984   1.949
 3397SOL    HW111090   2.922   1.037   1.867
 3397SOL    HW211091   3.026   0.928   1.930
 3398SOL     OW11092   3.723   1.569   2.713
 3398SOL    HW111093   3.652   1.557   2.643
 3398SOL    HW211094   3.724   1.490   2.773
 3399SOL     OW11095   2.083   1.314   3.706
 3399SOL    HW111096   2.018   1.241   3.685
 3399SOL    HW211097   2.087   1.328   3.804
 3400SOL     OW11098   1.941   1.240   2.515
 3400SOL    HW111099   1.940   1.193   2.603
 3400SOL    HW211100   2.023   1.212   2.464
 3401SOL     OW11101   2.534   1.391   3.486
 3401SOL    HW111102   2.456   1.341   3.524
 3401SOL    HW211103   2.531   1.486   3.517
 3402SOL     OW11104   3.686   0.192   3.089
 3402SOL    HW111105   3.682   0.102   3.133
 3402SOL    HW211106   3.689   0.181   2.990
 3403SOL     OW11107   2.290   0.424   2.382
 3403SOL    HW111108   2.320   0.352   2.320
 3403SOL    HW211109   2.251   0.384   2.465
 3404SOL     OW11110   3.567   1.487   2.966
 3404SOL    HW111111   3.474   1.462   2.939
 3404SOL    HW211112   3.593   1.437   3.048
 3405SOL     OW11113   2.179   0.547   3.142
 3405SOL    HW111114   2.217   0.488   3.214
 3405SOL    HW211115   2.219   0.521   3.054
 3406SOL     OW11116   2.674   1.586   2.549
 3406SOL    HW111117   2.706   1.596   2.455
 3406SOL    HW211118   2.595   1.524   2.551
 3407SOL     OW11119   3.286   0.214   2.974
 3407SOL    HW111120   3.338   0.149   3.029
 3407SOL    HW211121   3.237   0.277   3.035
 3408SOL     OW11122   2.863   0.034   3.016
 3408SOL    HW111123   2.800  -0.038   2.985
 3408SOL    HW211124   2.956  -0.002   3.016
 3409SOL     OW11125   2.632   1.330   2.163
 3409SOL    HW111126   2.586   1.243   2.180
 3409SOL    HW211127   2.723   1.327   2.204
 3410SOL     OW11128   2.480   1.567   3.146
 3410SOL    HW111129   2.475   1.649   3.203
 3410SOL    HW211130   2.569   1.564   3.101
 3411SOL     OW11131   3.214   0.052   2.030
 3411SOL    HW111132   3.249   0.011   1.946
 3411SOL    HW211133   3.124   0.014   2.050
 3412SOL     OW11134   3.162   0.453   2.553
 3412SOL    HW111135   3.103   0.533   2.557
 3412SOL    HW211136   3.177   0.418   2.646
 3413SOL     OW11137   3.455   0.221   2.744
 3413SOL    HW111138   3.371   0.220   2.798
 3413SOL    HW211139   3.457   0.304   2.688
 3414SOL     OW11140   1.901   1.077   2.162
 3414SOL    HW111141   2.000   1.066   2.153
 3414SOL    HW211142   1.861   0.991   2.194
 3415SOL     OW11143   2.737   1.646   2.199
 3415SOL    HW111144   2.660   1.611   2.145
 3415SOL    HW211145   2.705   1.717   2.261
 3416SOL     OW11146   2.092   0.628   3.837
 3416SOL    HW111147   1.999   0.626   3.874
 3416SOL    HW211148   2.093   0.589   3.745
 3417SOL     OW11149   2.087   0.275   4.720
 3417SOL    HW111150   2.122   0.258   4.812
 3417SOL    HW211151   1.999   0.230   4.708
 3418SOL     OW11152   1.881   0.368   4.371
 3418SOL    HW111153   1.799   0.411   4.410
 3418SOL    HW211154   1.853   0.295   4.308
 3419SOL     OW11155   2.431   1.275   4.889
 3419SOL    HW111156   2.338   1.268   4.852
 3419SOL    HW211157   2.442   1.364   4.933
 3420SOL     OW11158   3.417   1.511   4.427
 3420SOL    HW111159   3.360   1.495   4.508
 3420SOL    HW211160   3.358   1.521   4.347
 3421SOL     OW11161   2.997   0.703   4.441
 3421SOL    HW111162   3.054   0.781   4.416
 3421SOL    HW211163   2.937   0.729   4.517
 3422SOL     OW11164   3.617   0.607   3.955
 3422SOL    HW111165   3.605   0.594   3.856
 3422SOL    HW211166   3.587   0.526   4.004
 3423SOL     OW11167   2.630   1.144   4.747
 3423SOL    HW111168   2.552   1.161   4.807
 3423SOL    HW211169   2.664   1.231   4.711
 3424SOL     OW11170   2.712   0.798   5.547
 3424SOL    HW111171   2.708   0.874   5.612
 3424SOL    HW211172   2.734   0.834   5.456
 3425SOL     OW11173   2.547   1.012   4.389
 3425SOL    HW111174   2.616   0.996   4.459
 3425SOL    HW211175   2.474   1.069   4.427
 3426SOL     OW11176   2.548   1.161   5.527
 3426SOL    HW111177   2.608   1.240   5.541
 3426SOL    HW211178   2.462   1.192   5.486
 3427SOL     OW11179   2.197   1.435   4.785
 3427SOL    HW111180   2.119   1.404   4.732
 3427SOL    HW211181   2.255   1.493   4.728
 3428SOL     OW11182   3.322   1.505   5.063
 3428SOL    HW111183   3.346   1.599   5.089
 3428SOL    HW211184   3.306   1.451   5.145
 3429SOL     OW11185   2.300   0.392   5.223
 3429SOL    HW111186   2.382   0.336   5.232
 3429SOL    HW211187   2.219   0.334   5.227
 3430SOL     OW11188   3.465   0.447   4.461
 3430SOL    HW111189   3.391   0.493   4.411
 3430SOL    HW211190   3.516   0.515   4.514
 3431SOL     OW11191   2.093   1.713   4.207
 3431SOL    HW111192   2.127   1.790   4.261
 3431SOL    HW211193   2.137   1.713   4.117
 3432SOL     OW11194   2.989   1.341   5.414
 3432SOL    HW111195   3.036   1.341   5.502
 3432SOL    HW211196   2.941   1.254   5.403
 3433SOL     OW11197   2.092   1.434   4.262
 3433SOL    HW111198   2.066   1.530   4.262
 3433SOL    HW211199   2.021   1.380   4.307
 3434SOL     OW11200   2.102   1.091   4.610
 3434SOL    HW111201   2.116   1.007   4.662
 3434SOL    HW211202   2.047   1.155   4.665
 3435SOL     OW11203   2.482   1.786   5.163
 3435SOL    HW111204   2.390   1.769   5.198
 3435SOL    HW211205   2.510   1.878   5.189
 3436SOL     OW11206   2.468   0.964   3.847
 3436SOL    HW111207   2.475   1.048   3.793
 3436SOL    HW211208   2.514   0.977   3.935
 3437SOL     OW11209   3.456   0.114   5.204
 3437SOL    HW111210   3.438   0.181   5.132
 3437SOL    HW211211   3.453   0.160   5.293
 3438SOL     OW11212   1.984   0.643   4.287
 3438SOL    HW111213   1.939   0.555   4.304
 3438SOL    HW211214   1.983   0.697   4.371
 3439SOL     OW11215   3.704   1.767   4.083
 3439SOL    HW111216   3.758   1.738   4.163
 3439SOL    HW211217   3.734   1.857   4.054
 3440SOL     OW11218   1.889   1.596   3.841
 3440SOL    HW111219   1.870   1.500   3.862
 3440SOL    HW211220   1.856   1.654   3.916
 3441SOL     OW11221   3.551   0.922   4.336
 3441SOL    HW111222   3.646   0.893   4.344
 3441SOL    HW211223   3.543   0.987   4.261
 3442SOL     OW11224   3.503   1.108   4.156
 3442SOL    HW111225   3.589   1.110   4.104
 3442SOL    HW211226   3.517   1.155   4.244
 3443SOL     OW11227   1.975   0.737   5.321
 3443SOL    HW111228   2.063   0.724   5.366
 3443SOL    HW211229   1.962   0.834   5.299
 3444SOL     OW11230   2.475   1.365   4.450
 3444SOL    HW111231   2.426   1.278   4.459
 3444SOL    HW211232   2.452   1.408   4.363
 3445SOL     OW11233   3.155   1.228   5.147
 3445SOL    HW111234   3.192   1.155   5.089
 3445SOL    HW211235   3.207   1.233   5.232
 3446SOL     OW11236   2.671   0.004   4.226
 3446SOL    HW111237   2.711   0.095   4.217
 3446SOL    HW211238   2.571   0.012   4.232
 3447SOL     OW11239   2.059   0.976   4.988
 3447SOL    HW111240   2.148   0.931   4.974
 3447SOL    HW211241   1.986   0.911   4.969
 3448SOL     OW11242   3.387   0.999   3.914
 3448SOL    HW111243   3.324   0.923   3.927
 3448SOL    HW211244   3.435   1.017   4.000
 3449SOL     OW11245   3.049   1.792   5.340
 3449SOL    HW111246   3.073   1.852   5.264
 3449SOL    HW211247   3.056   1.697   5.310
 3450SOL     OW11248   2.179   0.251   5.525
 3450SOL    HW111249   2.250   0.322   5.531
 3450SOL    HW211250   2.091   0.290   5.553
 3451SOL     OW11251   3.328   1.417   4.677
 3451SOL    HW111252   3.269   1.423   4.757
 3451SOL    HW211253   3.313   1.329   4.631
 3452SOL     OW11254   3.529   1.714   4.296
 3452SOL    HW111255   3.488   1.691   4.208
 3452SOL    HW211256   3.511   1.640   4.361
 3453SOL     OW11257   2.460   0.729   3.994
 3453SOL    HW111258   2.484   0.798   3.926
 3453SOL    HW211259   2.382   0.762   4.048
 3454SOL     OW11260   3.143   0.345   4.668
 3454SOL    HW111261   3.057   0.295   4.655
 3454SOL    HW211262   3.205   0.291   4.724
 3455SOL     OW11263   3.438   1.662   4.031
 3455SOL    HW111264   3.527   1.708   4.034
 3455SOL    HW211265   3.417   1.638   3.936
 3456SOL     OW11266   2.669   0.605   5.189
 3456SOL    HW111267   2.622   0.602   5.278
 3456SOL    HW211268   2.618   0.550   5.123
 3457SOL     OW11269   3.256   0.469   5.398
 3457SOL    HW111270   3.236   0.512   5.486
 3457SOL    HW211271   3.334   0.407   5.407
 3458SOL     OW11272   2.835   0.890   5.296
 3458SOL    HW111273   2.881   0.806   5.267
 3458SOL    HW211274   2.779   0.924   5.221
 3459SOL     OW11275   2.853   0.410   4.966
 3459SOL    HW111276   2.776   0.444   5.020
 3459SOL    HW211277   2.819   0.359   4.887
 3460SOL     OW11278   2.903   0.701   4.153
 3460SOL    HW111279   2.929   0.697   4.249
 3460SOL    HW211280   2.818   0.650   4.139
 3461SOL     OW11281   1.938   0.811   4.513
 3461SOL    HW111282   2.037   0.799   4.522
 3461SOL    HW211283   1.914   0.906   4.534
 3462SOL     OW11284   1.992   1.821   5.295
 3462SOL    HW111285   1.982   1.806   5.394
 3462SOL    HW211286   1.906   1.857   5.259
 3463SOL     OW11287   2.727   0.348   3.919
 3463SOL    HW111288   2.786   0.411   3.870
 3463SOL    HW211289   2.746   0.254   3.890
 3464SOL     OW11290   3.581   0.585   5.555
 3464SOL    HW111291   3.555   0.674   5.519
 3464SOL    HW211292   3.579   0.517   5.482
 3465SOL     OW11293   3.224   1.144   4.269
 3465SOL    HW111294   3.307   1.115   4.221
 3465SOL    HW211295   3.175   1.211   4.213
 3466SOL     OW11296   2.412   0.196   4.609
 3466SOL    HW111297   2.407   0.191   4.709
 3466SOL    HW211298   2.414   0.292   4.580
 3467SOL     OW11299   2.870   1.456   4.201
 3467SOL    HW111300   2.824   1.528   4.149
 3467SOL    HW211301   2.866   1.476   4.299
 3468SOL     OW11302   2.213   1.801   4.577
 3468SOL    HW111303   2.263   1.715   4.583
 3468SOL    HW211304   2.278   1.878   4.574
 3469SOL     OW11305   3.657   1.066   4.597
 3469SOL    HW111306   3.595   1.051   4.521
 3469SOL    HW211307   3.605   1.077   4.682
 3470SOL     OW11308   3.089   1.550   5.230
 3470SOL    HW111309   3.095   1.473   5.294
 3470SOL    HW211310   3.037   1.524   5.150
 3471SOL     OW11311   2.183   0.943   3.966
 3471SOL    HW111312   2.265   0.982   3.924
 3471SOL    HW211313   2.156   0.861   3.917
 3472SOL     OW11314   3.320   0.735   4.452
 3472SOL    HW111315   3.315   0.670   4.527
 3472SOL    HW211316   3.400   0.794   4.465
 3473SOL     OW11317   2.323   1.266   5.451
 3473SOL    HW111318   2.273   1.267   5.365
 3473SOL    HW211319   2.260   1.248   5.527
 3474SOL     OW11320   2.973   1.776   3.961
 3474SOL    HW111321   2.913   1.714   4.011
 3474SOL    HW211322   3.004   1.732   3.876
 3475SOL     OW11323   2.064   0.285   5.222
 3475SOL    HW111324   1.984   0.345   5.209
 3475SOL    HW211325   2.054   0.236   5.308
 3476SOL     OW11326   3.494   1.377   3.805
 3476SOL    HW111327   3.462   1.471   3.795
 3476SOL    HW211328   3.418   1.314   3.793
 3477SOL     OW11329   2.326   1.743   4.047
 3477SOL    HW111330   2.359   1.782   4.133
 3477SOL    HW211331   2.402   1.736   3.982
 3478SOL     OW11332   3.262   0.107   4.150
 3478SOL    HW111333   3.238   0.070   4.060
 3478SOL    HW211334   3.361   0.123   4.154
 3479SOL     OW11335   2.111   1.785   4.965
 3479SOL    HW111336   2.168   1.720   5.015
 3479SOL    HW211337   2.095   1.752   4.872
 3480SOL     OW11338   2.802   1.698   4.628
 3480SOL    HW111339   2.882   1.641   4.649
 3480SOL    HW211340   2.753   1.658   4.551
 3481SOL     OW11341   2.244   0.700   4.204
 3481SOL    HW111342   2.289   0.610   4.201
 3481SOL    HW211343   2.150   0.689   4.237
 3482SOL     OW11344   3.409   0.222   5.453
 3482SOL    HW111345   3.404   0.259   5.545
 3482SOL    HW211346   3.337   0.153   5.441
 3483SOL     OW11347   2.476   0.122   3.841
 3483SOL    HW111348   2.574   0.100   3.848
 3483SOL    HW211349   2.445   0.105   3.748
 3484SOL     OW11350   2.643   0.264   5.473
 3484SOL    HW111351   2.710   0.203   5.516
 3484SOL    HW211352   2.570   0.283   5.538
 3485SOL     OW11353   2.750   1.514   4.919
 3485SOL    HW111354   2.727   1.489   4.825
 3485SOL    HW211355   2.811   1.445   4.958
 3486SOL     OW11356   3.213   0.590   5.157
 3486SOL    HW111357   3.241   0.547   5.242
 3486SOL    HW211358   3.238   0.686   5.158
 3487SOL     OW11359   2.665   1.402   4.648
 3487SOL    HW111360   2.755   1.416   4.606
 3487SOL    HW211361   2.594   1.404   4.577
 3488SOL     OW11362   2.784   0.503   4.623
 3488SOL    HW111363   2.759   0.494   4.527
 3488SOL    HW211364   2.832   0.421   4.654
 3489SOL     OW11365   2.401   0.064   4.236
 3489SOL    HW111366   2.320   0.065   4.294
 3489SOL    HW211367   2.404   0.147   4.181
 3490SOL     OW11368   3.296   1.188   3.765
 3490SOL    HW111369   3.328   1.112   3.822
 3490SOL    HW211370   3.204   1.215   3.795
 3491SOL     OW11371   2.159   0.035   3.895
 3491SOL    HW111372   2.208   0.119   3.874
 3491SOL    HW211373   2.221  -0.030   3.940
 3492SOL     OW11374   2.797   0.236   4.204
 3492SOL    HW111375   2.749   0.277   4.126
 3492SOL    HW211376   2.896   0.234   4.185
 3493SOL     OW11377   2.938   0.683   5.188
 3493SOL    HW111378   2.858   0.622   5.191
 3493SOL    HW211379   3.019   0.630   5.164
 3494SOL     OW11380   3.089   1.570   4.517
 3494SOL    HW111381   3.110   1.644   4.452
 3494SOL    HW211382   3.157   1.570   4.590
 3495SOL     OW11383   2.321   1.152   4.465
 3495SOL    HW111384   2.250   1.125   4.530
 3495SOL    HW211385   2.295   1.124   4.372
 3496SOL     OW11386   3.133   1.797   4.315
 3496SOL    HW111387   3.177   1.861   4.251
 3496SOL    HW211388   3.083   1.849   4.385
 3497SOL     OW11389   2.894   0.549   3.740
 3497SOL    HW111390   2.853   0.631   3.701
 3497SOL    HW211391   2.958   0.575   3.813
 3498SOL     OW11392   1.940   0.556   5.110
 3498SOL    HW111393   2.032   0.555   5.069
 3498SOL    HW211394   1.934   0.630   5.177
 3499SOL     OW11395   2.423   0.222   4.871
 3499SOL    HW111396   2.461   0.138   4.908
 3499SOL    HW211397   2.335   0.241   4.915
 3500SOL     OW11398   2.728   0.454   4.366
 3500SOL    HW111399   2.696   0.526   4.304
 3500SOL    HW211400   2.752   0.373   4.313
 3501SOL     OW11401   2.879   0.039   4.477
 3501SOL    HW111402   2.807   0.044   4.408
 3501SOL    HW211403   2.855  -0.030   4.546
 3502SOL     OW11404   3.291   1.173   4.591
 3502SOL    HW111405   3.236   1.089   4.584
 3502SOL    HW211406   3.317   1.202   4.499
 3503SOL     OW11407   3.328   0.590   4.716
 3503SOL    HW111408   3.298   0.495   4.723
 3503SOL    HW211409   3.401   0.606   4.782
 3504SOL     OW11410   3.719   0.833   4.101
 3504SOL    HW111411   3.761   0.769   4.165
 3504SOL    HW211412   3.681   0.782   4.023
 3505SOL     OW11413   2.350   1.385   3.898
 3505SOL    HW111414   2.263   1.370   3.945
 3505SOL    HW211415   2.333   1.411   3.803
 3506SOL     OW11416   3.526   1.280   4.381
 3506SOL    HW111417   3.625   1.288   4.395
 3506SOL    HW211418   3.481   1.364   4.412
 3507SOL     OW11419   3.252   0.575   3.802
 3507SOL    HW111420   3.198   0.554   3.883
 3507SOL    HW211421   3.343   0.534   3.811
 3508SOL     OW11422   2.389   0.256   4.052
 3508SOL    HW111423   2.416   0.197   3.977
 3508SOL    HW211424   2.389   0.351   4.021
 3509SOL     OW11425   3.616   1.223   5.312
 3509SOL    HW111426   3.707   1.184   5.299
 3509SOL    HW211427   3.624   1.319   5.336
 3510SOL     OW11428   2.926   1.347   5.064
 3510SOL    HW111429   2.846   1.324   5.119
 3510SOL    HW211430   3.009   1.321   5.113
 3511SOL     OW11431   3.454   1.629   5.349
 3511SOL    HW111432   3.481   1.663   5.259
 3511SOL    HW211433   3.533   1.591   5.395
 3512SOL     OW11434   2.973   1.195   4.824
 3512SOL    HW111435   2.933   1.239   4.905
 3512SOL    HW211436   2.932   1.232   4.741
 3513SOL     OW11437   3.500   1.099   4.803
 3513SOL    HW111438   3.505   1.180   4.862
 3513SOL    HW211439   3.414   1.101   4.752
 3514SOL     OW11440   2.777   0.089   5.126
 3514SOL    HW111441   2.802   0.069   5.031
 3514SOL    HW211442   2.849   0.145   5.168
 3515SOL     OW11443   2.842   1.116   5.443
 3515SOL    HW111444   2.743   1.122   5.453
 3515SOL    HW211445   2.865   1.036   5.387
 3516SOL     OW11446   2.567   1.050   4.092
 3516SOL    HW111447   2.553   1.057   4.191
 3516SOL    HW211448   2.651   0.999   4.074
 3517SOL     OW11449   2.272   0.813   4.975
 3517SOL    HW111450   2.358   0.825   5.025
 3517SOL    HW211451   2.230   0.726   5.002
 3518SOL     OW11452   3.136   0.386   4.986
 3518SOL    HW111453   3.157   0.460   5.050
 3518SOL    HW211454   3.047   0.403   4.943
 3519SOL     OW11455   1.926   1.564   5.055
 3519SOL    HW111456   1.880   1.646   5.021
 3519SOL    HW211457   2.024   1.583   5.064
 3520SOL     OW11458   2.229   1.100   4.225
 3520SOL    HW111459   2.222   1.183   4.169
 3520SOL    HW211460   2.233   1.020   4.165
 3521SOL     OW11461   2.428   0.537   4.589
 3521SOL    HW111462   2.440   0.603   4.515
 3521SOL    HW211463   2.474   0.571   4.672
 3522SOL     OW11464   3.114   1.348   4.112
 3522SOL    HW111465   3.164   1.425   4.152
 3522SOL    HW211466   3.019   1.350   4.144
 3523SOL     OW11467   3.134   1.445   4.866
 3523SOL    HW111468   3.181   1.458   4.953
 3523SOL    HW211469   3.068   1.371   4.875
 3524SOL     OW11470   3.444   0.639   4.196
 3524SOL    HW111471   3.413   0.700   4.269
 3524SOL    HW211472   3.494   0.691   4.127
 3525SOL     OW11473   2.216   1.510   5.053
 3525SOL    HW111474   2.195   1.466   4.966
 3525SOL    HW211475   2.313   1.536   5.056
 3526SOL     OW11476   2.264   0.751   5.322
 3526SOL    HW111477   2.332   0.806   5.275
 3526SOL    HW211478   2.304   0.663   5.349
 3527SOL     OW11479   3.449   0.779   5.394
 3527SOL    HW111480   3.357   0.817   5.389
 3527SOL    HW211481   3.509   0.826   5.329
 3528SOL     OW11482   2.875   0.105   5.494
 3528SOL    HW111483   2.881   0.190   5.442
 3528SOL    HW211484   2.907   0.029   5.437
 3529SOL     OW11485   2.366   0.050   5.464
 3529SOL    HW111486   2.324  -0.007   5.394
 3529SOL    HW211487   2.300   0.119   5.496
 3530SOL     OW11488   2.435   0.870   4.753
 3530SOL    HW111489   2.479   0.959   4.744
 3530SOL    HW211490   2.372   0.870   4.830
 3531SOL     OW11491   3.222   0.862   4.769
 3531SOL    HW111492   3.147   0.862   4.703
 3531SOL    HW211493   3.259   0.770   4.778
 3532SOL     OW11494   3.071   0.525   3.999
 3532SOL    HW111495   3.084   0.441   4.053
 3532SOL    HW211496   3.042   0.599   4.059
 3533SOL     OW11497   2.169   0.213   4.955
 3533SOL    HW111498   2.146   0.250   5.045
 3533SOL    HW211499   2.139   0.118   4.949
 3534SOL     OW11500   1.899   1.310   5.006
 3534SOL    HW111501   1.952   1.261   5.074
 3534SOL    HW211502   1.921   1.408   5.011
 3535SOL     OW11503   2.594   0.634   4.788
 3535SOL    HW111504   2.653   0.608   4.712
 3535SOL    HW211505   2.566   0.730   4.777
 3536SOL     OW11506   3.590   0.935   5.578
 3536SOL    HW111507   3.544   0.928   5.489
 3536SOL    HW211508   3.528   0.979   5.644
 3537SOL     OW11509   2.169   0.063   4.342
 3537SOL    HW111510   2.158   0.157   4.375
 3537SOL    HW211511   2.164   0.000   4.419
 3538SOL     OW11512   3.484   0.367   4.098
 3538SOL    HW111513   3.486   0.291   4.162
 3538SOL    HW211514   3.436   0.444   4.138
 3539SOL     OW11515   2.885   0.766   4.690
 3539SOL    HW111516   2.900   0.787   4.786
 3539SOL    HW211517   2.855   0.671   4.681
 3540SOL     OW11518   2.842   1.573   5.424
 3540SOL    HW111519   2.822   1.617   5.336
 3540SOL    HW211520   2.881   1.482   5.408
 3541SOL     OW11521   3.721   1.518   5.329
 3541SOL    HW111522   3.735   1.545   5.234
 3541SOL    HW211523   3.804   1.540   5.382
 3542SOL     OW11524   2.212   0.898   5.528
 3542SOL    HW111525   2.288   0.942   5.576
 3542SOL    HW211526   2.247   0.851   5.446
 3543SOL     OW11527   3.402   0.274   3.849
 3543SOL    HW111528   3.341   0.199   3.872
 3543SOL    HW211529   3.424   0.326   3.932
 3544SOL     OW11530   3.165   0.838   3.766
 3544SOL    HW111531   3.199   0.745   3.781
 3544SOL    HW211532   3.183   0.865   3.671
 3545SOL     OW11533   2.930   1.333   4.573
 3545SOL    HW111534   2.937   1.249   4.518
 3545SOL    HW211535   2.992   1.402   4.537
 3546SOL     OW11536   2.181   0.810   4.673
 3546SOL    HW111537   2.274   0.846   4.678
 3546SOL    HW211538   2.175   0.725   4.725
 3547SOL     OW11539   2.201   0.509   4.730
 3547SOL    HW111540   2.149   0.426   4.713
 3547SOL    HW211541   2.278   0.514   4.666
 3548SOL     OW11542   3.000   0.380   5.402
 3548SOL    HW111543   2.955   0.443   5.466
 3548SOL    HW211544   3.093   0.411   5.385
 3549SOL     OW11545   3.022   0.207   5.201
 3549SOL    HW111546   3.022   0.271   5.278
 3549SOL    HW211547   3.050   0.255   5.118
 3550SOL     OW11548   1.870   1.326   3.924
 3550SOL    HW111549   1.777   1.347   3.893
 3550SOL    HW211550   1.880   1.227   3.937
 3551SOL     OW11551   1.950   1.801   4.651
 3551SOL    HW111552   1.908   1.715   4.624
 3551SOL    HW211553   2.044   1.804   4.617
 3552SOL     OW11554   2.366   1.568   4.634
 3552SOL    HW111555   2.432   1.642   4.643
 3552SOL    HW211556   2.410   1.489   4.592
 3553SOL     OW11557   2.864   0.796   4.962
 3553SOL    HW111558   2.905   0.764   5.048
 3553SOL    HW211559   2.768   0.769   4.959
 3554SOL     OW11560   1.902   0.544   4.838
 3554SOL    HW111561   1.987   0.511   4.797
 3554SOL    HW211562   1.915   0.559   4.936
 3555SOL     OW11563   2.051   0.520   5.446
 3555SOL    HW111564   2.110   0.480   5.376
 3555SOL    HW211565   1.993   0.591   5.405
 3556SOL     OW11566   3.231   0.950   5.384
 3556SOL    HW111567   3.270   1.039   5.404
 3556SOL    HW211568   3.241   0.930   5.287
 3557SOL     OW11569   2.677   0.572   4.049
 3557SOL    HW111570   2.684   0.483   4.003
 3557SOL    HW211571   2.583   0.606   4.041
 3558SOL     OW11572   3.519   0.604   4.930
 3558SOL    HW111573   3.481   0.535   4.992
 3558SOL    HW211574   3.601   0.568   4.886
 3559SOL     OW11575   2.114   1.564   5.468
 3559SOL    HW111576   2.084   1.621   5.544
 3559SOL    HW211577   2.107   1.467   5.494
 3560SOL     OW11578   2.533   0.464   4.993
 3560SOL    HW111579   2.499   0.375   4.963
 3560SOL    HW211580   2.559   0.518   4.913
 3561SOL     OW11581   2.792   1.678   5.189
 3561SOL    HW111582   2.768   1.660   5.094
 3561SOL    HW211583   2.822   1.772   5.199
 3562SOL     OW11584   2.335   0.500   3.915
 3562SOL    HW111585   2.396   0.580   3.919
 3562SOL    HW211586   2.240   0.531   3.922
 3563SOL     OW11587   2.021   1.137   5.190
 3563SOL    HW111588   2.043   1.076   5.266
 3563SOL    HW211589   2.031   1.088   5.104
 3564SOL     OW11590   3.209   1.059   4.958
 3564SOL    HW111591   3.233   0.996   4.884
 3564SOL    HW211592   3.119   1.099   4.940
 3565SOL     OW11593   3.164   0.855   4.033
 3565SOL    HW111594   3.078   0.824   4.075
 3565SOL    HW211595   3.160   0.841   3.934
 3566SOL     OW11596   3.621   1.747   4.878
 3566SOL    HW111597   3.682   1.777   4.805
 3566SOL    HW211598   3.583   1.658   4.856
 3567SOL     OW11599   3.114   1.731   4.852
 3567SOL    HW111600   3.198   1.736   4.798
 3567SOL    HW211601   3.091   1.635   4.870
 3568SOL     OW11602   1.945   1.258   4.746
 3568SOL    HW111603   1.940   1.257   4.846
 3568SOL    HW211604   1.862   1.217   4.708
 3569SOL     OW11605   2.550   1.662   5.440
 3569SOL    HW111606   2.494   1.743   5.449
 3569SOL    HW211607   2.602   1.666   5.354
 3570SOL     OW11608   3.588   0.135   4.247
 3570SOL    HW111609   3.661   0.118   4.180
 3570SOL    HW211610   3.557   0.048   4.285
 3571SOL     OW11611   3.250   1.573   4.201
 3571SOL    HW111612   3.317   1.585   4.127
 3571SOL    HW211613   3.210   1.662   4.224
 3572SOL     OW11614   1.992   1.794   5.575
 3572SOL    HW111615   1.951   1.720   5.628
 3572SOL    HW211616   2.056   1.845   5.633
 3573SOL     OW11617   3.142   0.927   4.396
 3573SOL    HW111618   3.202   0.846   4.398
 3573SOL    HW211619   3.182   0.996   4.336
 3574SOL     OW11620   2.692   1.273   5.146
 3574SOL    HW111621   2.687   1.306   5.241
 3574SOL    HW211622   2.606   1.292   5.100
 3575SOL     OW11623   2.534   1.616   3.878
 3575SOL    HW111624   2.543   1.626   3.779
 3575SOL    HW211625   2.494   1.527   3.899
 3576SOL     OW11626   3.512   1.720   5.118
 3576SOL    HW111627   3.565   1.730   5.034
 3576SOL    HW211628   3.485   1.810   5.152
 3577SOL     OW11629   3.703   0.175   4.687
 3577SOL    HW111630   3.742   0.090   4.651
 3577SOL    HW211631   3.605   0.177   4.668
 3578SOL     OW11632   2.125   0.326   4.444
 3578SOL    HW111633   2.046   0.377   4.410
 3578SOL    HW211634   2.116   0.311   4.542
 3579SOL     OW11635   3.056   1.612   3.755
 3579SOL    HW111636   3.062   1.519   3.792
 3579SOL    HW211637   2.997   1.612   3.675
 3580SOL     OW11638   2.684   1.002   5.096
 3580SOL    HW111639   2.724   1.001   5.004
 3580SOL    HW211640   2.694   1.094   5.136
 3581SOL     OW11641   2.778   0.910   4.015
 3581SOL    HW111642   2.841   0.948   3.947
 3581SOL    HW211643   2.818   0.827   4.054
 3582SOL     OW11644   3.366   1.607   3.768
 3582SOL    HW111645   3.274   1.644   3.775
 3582SOL    HW211646   3.404   1.627   3.678
 3583SOL     OW11647   2.234   1.288   5.214
 3583SOL    HW111648   2.221   1.381   5.180
 3583SOL    HW211649   2.150   1.236   5.201
 3584SOL     OW11650   3.476   1.292   5.013
 3584SOL    HW111651   3.536   1.295   5.093
 3584SOL    HW211652   3.401   1.356   5.026
 3585SOL     OW11653   2.901   1.098   4.420
 3585SOL    HW111654   2.831   1.051   4.474
 3585SOL    HW211655   2.960   1.030   4.377
 3586SOL     OW11656   2.876   0.236   4.695
 3586SOL    HW111657   2.868   0.200   4.602
 3586SOL    HW211658   2.874   0.160   4.760
 3587SOL     OW11659   2.452   1.487   4.215
 3587SOL    HW111660   2.494   1.429   4.145
 3587SOL    HW211661   2.408   1.566   4.171
 3588SOL     OW11662   3.571   0.385   5.105
 3588SOL    HW111663   3.644   0.454   5.109
 3588SOL    HW211664   3.599   0.310   5.046
 3589SOL     OW11665   2.117   1.348   4.014
 3589SOL    HW111666   2.021   1.349   3.987
 3589SOL    HW211667   2.129   1.401   4.098
 3590SOL     OW11668   1.967   1.013   5.450
 3590SOL    HW111669   1.890   0.980   5.504
 3590SOL    HW211670   2.052   0.983   5.492
 3591SOL     OW11671   2.534   0.203   5.213
 3591SOL    HW111672   2.624   0.187   5.173
 3591SOL    HW211673   2.542   0.208   5.312
 3592SOL     OW11674   1.937   0.345   3.757
 3592SOL    HW111675   1.845   0.317   3.728
 3592SOL    HW211676   1.968   0.422   3.701
 3593SOL     OW11677   3.302   0.856   5.122
 3593SOL    HW111678   3.245   0.908   5.059
 3593SOL    HW211679   3.398   0.868   5.098
 3594SOL     OW11680   1.934   0.166   4.042
 3594SOL    HW111681   1.917   0.249   3.988
 3594SOL    HW211682   2.024   0.129   4.020
 3595SOL     OW11683   3.045   1.335   3.843
 3595SOL    HW111684   2.946   1.324   3.845
 3595SOL    HW211685   3.079   1.350   3.936
 3596SOL     OW11686   2.475   0.842   5.155
 3596SOL    HW111687   2.531   0.923   5.138
 3596SOL    HW211688   2.534   0.762   5.158
 3597SOL     OW11689   3.355   1.767   4.683
 3597SOL    HW111690   3.388   1.831   4.614
 3597SOL    HW211691   3.421   1.761   4.758
 3598SOL     OW11692   2.578   0.565   5.432
 3598SOL    HW111693   2.597   0.630   5.506
 3598SOL    HW211694   2.638   0.485   5.441
 3599SOL     OW11695   3.312   1.220   5.357
 3599SOL    HW111696   3.303   1.210   5.456
 3599SOL    HW211697   3.408   1.213   5.331
 3600SOL     OW11698   2.252   1.741   5.284
 3600SOL    HW111699   2.161   1.782   5.282
 3600SOL    HW211700   2.245   1.647   5.316
 3601SOL     OW11701   3.087   0.325   4.173
 3601SOL    HW111702   3.152   0.251   4.162
 3601SOL    HW211703   3.107   0.375   4.257
 3602SOL     OW11704   2.456   0.745   4.376
 3602SOL    HW111705   2.506   0.830   4.357
 3602SOL    HW211706   2.368   0.747   4.328
 3603SOL     OW11707   3.639   0.342   5.366
 3603SOL    HW111708   3.622   0.373   5.272
 3603SOL    HW211709   3.555   0.305   5.404
 3604SOL     OW11710   3.592   0.934   5.241
 3604SOL    HW111711   3.630   1.025   5.256
 3604SOL    HW211712   3.584   0.917   5.142
 3605SOL     OW11713   2.721   1.374   3.740
 3605SOL    HW111714   2.675   1.389   3.828
 3605SOL    HW211715   2.765   1.459   3.710
 3606SOL     OW11716   2.523   1.790   4.677
 3606SOL    HW111717   2.477   1.878   4.664
 3606SOL    HW211718   2.622   1.802   4.670
 3607SOL     OW11719   2.721   0.956   4.585
 3607SOL    HW111720   2.775   0.887   4.633
 3607SOL    HW211721   2.689   1.025   4.651
 3608SOL     OW11722   2.945   0.984   3.811
 3608SOL    HW111723   2.922   1.037   3.729
 3608SOL    HW211724   3.026   0.928   3.792
 3609SOL     OW11725   3.723   1.569   4.575
 3609SOL    HW111726   3.652   1.557   4.505
 3609SOL    HW211727   3.724   1.490   4.635
 3610SOL     OW11728   2.083   1.314   5.568
 3610SOL    HW111729   2.018   1.241   5.547
 3610SOL    HW211730   2.087   1.328   5.666
 3611SOL     OW11731   1.941   1.240   4.377
 3611SOL    HW111732   1.940   1.193   4.465
 3611SOL    HW211733   2.023   1.212   4.326
 3612SOL     OW11734   2.534   1.391   5.348
 3612SOL    HW111735   2.456   1.341   5.386
 3612SOL    HW211736   2.531   1.486   5.379
 3613SOL     OW11737   3.686   0.192   4.951
 3613SOL    HW111738   3.682   0.102   4.995
 3613SOL    HW211739   3.689   0.181   4.852
 3614SOL     OW11740   2.290   0.424   4.244
 3614SOL    HW111741   2.320   0.352   4.182
 3614SOL    HW211742   2.251   0.384   4.327
 3615SOL     OW11743   3.567   1.487   4.828
 3615SOL    HW111744   3.474   1.462   4.801
 3615SOL    HW211745   3.593   1.437   4.910
 3616SOL     OW11746   2.179   0.547   5.004
 3616SOL    HW111747   2.217   0.488   5.076
 3616SOL    HW211748   2.219   0.521   4.916
 3617SOL     OW11749   2.674   1.586   4.411
 3617SOL    HW111750   2.706   1.596   4.317
 3617SOL    HW211751   2.595   1.524   4.413
 3618SOL     OW11752   3.286   0.214   4.836
 3618SOL    HW111753   3.338   0.149   4.891
 3618SOL    HW211754   3.237   0.277   4.897
 3619SOL     OW11755   2.863   0.034   4.878
 3619SOL    HW111756   2.800  -0.038   4.847
 3619SOL    HW211757   2.956  -0.002   4.878
 3620SOL     OW11758   2.632   1.330   4.025
 3620SOL    HW111759   2.586   1.243   4.042
 3620SOL    HW211760   2.723   1.327   4.066
 3621SOL     OW11761   2.480   1.567   5.008
 3621SOL    HW111762   2.475   1.649   5.065
 3621SOL    HW211763   2.569   1.564   4.963
 3622SOL     OW11764   3.214   0.052   3.892
 3622SOL    HW111765   3.249   0.011   3.808
 3622SOL    HW211766   3.124   0.014   3.912
 3623SOL     OW11767   3.162   0.453   4.415
 3623SOL    HW111768   3.103   0.533   4.419
 3623SOL    HW211769   3.177   0.418   4.508
 3624SOL     OW11770   3.455   0.221   4.606
 3624SOL    HW111771   3.371   0.220   4.660
 3624SOL    HW211772   3.457   0.304   4.550
 3625SOL     OW11773   1.901   1.077   4.024
 3625SOL    HW111774   2.000   1.066   4.015
 3625SOL    HW211775   1.861   0.991   4.056
 3626SOL     OW11776   2.737   1.646   4.061
 3626SOL    HW111777   2.660   1.611   4.007
 3626SOL    HW211778   2.705   1.717   4.123
 3627SOL     OW11779   2.092   0.628   5.699
 3627SOL    HW111780   1.999   0.626   5.736
 3627SOL    HW211781   2.093   0.589   5.607
 3628SOL     OW11782   2.087   0.275   6.582
 3628SOL    HW111783   2.122   0.258   6.674
 3628SOL    HW211784   1.999   0.230   6.570
 3629SOL     OW11785   1.881   0.368   6.233
 3629SOL    HW111786   1.799   0.411   6.272
 3629SOL    HW211787   1.853   0.295   6.170
 3630SOL     OW11788   2.431   1.275   6.751
 3630SOL    HW111789   2.338   1.268   6.714
 3630SOL    HW211790   2.442   1.364   6.795
 3631SOL     OW11791   3.417   1.511   6.289
 3631SOL    HW111792   3.360   1.495   6.370
 3631SOL    HW211793   3.358   1.521   6.209
 3632SOL     OW11794   2.997   0.703   6.303
 3632SOL    HW111795   3.054   0.781   6.278
 3632SOL    HW211796   2.937   0.729   6.379
 3633SOL     OW11797   3.617   0.607   5.817
 3633SOL    HW111798   3.605   0.594   5.718
 3633SOL    HW211799   3.587   0.526   5.866
 3634SOL     OW11800   2.630   1.144   6.609
 3634SOL    HW111801   2.552   1.161   6.669
 3634SOL    HW211802   2.664   1.231   6.573
 3635SOL     OW11803   2.547   1.012   6.251
 3635SOL    HW111804   2.616   0.996   6.321
 3635SOL    HW211805   2.474   1.069   6.289
 3636SOL     OW11806   2.197   1.435   6.647
 3636SOL    HW111807   2.119   1.404   6.594
 3636SOL    HW211808   2.255   1.493   6.590
 3637SOL     OW11809   3.465   0.447   6.323
 3637SOL    HW111810   3.391   0.493   6.273
 3637SOL    HW211811   3.516   0.515   6.376
 3638SOL     OW11812   2.093   1.713   6.069
 3638SOL    HW111813   2.127   1.790   6.123
 3638SOL    HW211814   2.137   1.713   5.979
 3639SOL     OW11815   2.092   1.434   6.124
 3639SOL    HW111816   2.066   1.530   6.124
 3639SOL    HW211817   2.021   1.380   6.169
 3640SOL     OW11818   2.102   1.091   6.472
 3640SOL    HW111819   2.116   1.007   6.524
 3640SOL    HW211820   2.047   1.155   6.527
 3641SOL     OW11821   2.482   1.786   7.025
 3641SOL    HW111822   2.390   1.769   7.060
 3641SOL    HW211823   2.510   1.878   7.051
 3642SOL     OW11824   2.468   0.964   5.709
 3642SOL    HW111825   2.475   1.048   5.655
 3642SOL    HW211826   2.514   0.977   5.797
 3643SOL     OW11827   1.984   0.643   6.149
 3643SOL    HW111828   1.939   0.555   6.166
 3643SOL    HW211829   1.983   0.697   6.233
 3644SOL     OW11830   3.704   1.767   5.945
 3644SOL    HW111831   3.758   1.738   6.025
 3644SOL    HW211832   3.734   1.857   5.916
 3645SOL     OW11833   1.889   1.596   5.703
 3645SOL    HW111834   1.870   1.500   5.724
 3645SOL    HW211835   1.856   1.654   5.778
 3646SOL     OW11836   3.551   0.922   6.198
 3646SOL    HW111837   3.646   0.893   6.206
 3646SOL    HW211838   3.543   0.987   6.123
 3647SOL     OW11839   3.503   1.108   6.018
 3647SOL    HW111840   3.589   1.110   5.966
 3647SOL    HW211841   3.517   1.155   6.106
 3648SOL     OW11842   2.475   1.365   6.312
 3648SOL    HW111843   2.426   1.278   6.321
 3648SOL    HW211844   2.452   1.408   6.225
 3649SOL     OW11845   2.671   0.004   6.088
 3649SOL    HW111846   2.711   0.095   6.079
 3649SOL    HW211847   2.571   0.012   6.094
 3650SOL     OW11848   2.059   0.976   6.850
 3650SOL    HW111849   2.148   0.931   6.836
 3650SOL    HW211850   1.986   0.911   6.831
 3651SOL     OW11851   3.387   0.999   5.776
 3651SOL    HW111852   3.324   0.923   5.789
 3651SOL    HW211853   3.435   1.017   5.862
 3652SOL     OW11854   3.328   1.417   6.539
 3652SOL    HW111855   3.269   1.423   6.619
 3652SOL    HW211856   3.313   1.329   6.493
 3653SOL     OW11857   3.529   1.714   6.158
 3653SOL    HW111858   3.488   1.691   6.070
 3653SOL    HW211859   3.511   1.640   6.223
 3654SOL     OW11860   2.460   0.729   5.856
 3654SOL    HW111861   2.484   0.798   5.788
 3654SOL    HW211862   2.382   0.762   5.910
 3655SOL     OW11863   3.143   0.345   6.530
 3655SOL    HW111864   3.057   0.295   6.517
 3655SOL    HW211865   3.205   0.291   6.586
 3656SOL     OW11866   3.438   1.662   5.893
 3656SOL    HW111867   3.527   1.708   5.896
 3656SOL    HW211868   3.417   1.638   5.798
 3657SOL     OW11869   2.669   0.605   7.051
 3657SOL    HW111870   2.622   0.602   7.140
 3657SOL    HW211871   2.618   0.550   6.985
 3658SOL     OW11872   2.853   0.410   6.828
 3658SOL    HW111873   2.776   0.444   6.882
 3658SOL    HW211874   2.819   0.359   6.749
 3659SOL     OW11875   2.903   0.701   6.015
 3659SOL    HW111876   2.929   0.697   6.111
 3659SOL    HW211877   2.818   0.650   6.001
 3660SOL     OW11878   1.938   0.811   6.375
 3660SOL    HW111879   2.037   0.799   6.384
 3660SOL    HW211880   1.914   0.906   6.396
 3661SOL     OW11881   1.992   1.821   7.157
 3661SOL    HW111882   1.982   1.806   7.256
 3661SOL    HW211883   1.906   1.857   7.121
 3662SOL     OW11884   2.727   0.348   5.781
 3662SOL    HW111885   2.786   0.411   5.732
 3662SOL    HW211886   2.746   0.254   5.752
 3663SOL     OW11887   3.224   1.144   6.131
 3663SOL    HW111888   3.307   1.115   6.083
 3663SOL    HW211889   3.175   1.211   6.075
 3664SOL     OW11890   2.412   0.196   6.471
 3664SOL    HW111891   2.407   0.191   6.571
 3664SOL    HW211892   2.414   0.292   6.442
 3665SOL     OW11893   2.870   1.456   6.063
 3665SOL    HW111894   2.824   1.528   6.011
 3665SOL    HW211895   2.866   1.476   6.161
 3666SOL     OW11896   2.213   1.801   6.439
 3666SOL    HW111897   2.263   1.715   6.445
 3666SOL    HW211898   2.278   1.878   6.436
 3667SOL     OW11899   3.657   1.066   6.459
 3667SOL    HW111900   3.595   1.051   6.383
 3667SOL    HW211901   3.605   1.077   6.544
 3668SOL     OW11902   2.183   0.943   5.828
 3668SOL    HW111903   2.265   0.982   5.786
 3668SOL    HW211904   2.156   0.861   5.779
 3669SOL     OW11905   3.320   0.735   6.314
 3669SOL    HW111906   3.315   0.670   6.389
 3669SOL    HW211907   3.400   0.794   6.327
 3670SOL     OW11908   2.973   1.776   5.823
 3670SOL    HW111909   2.913   1.714   5.873
 3670SOL    HW211910   3.004   1.732   5.738
 3671SOL     OW11911   3.494   1.377   5.667
 3671SOL    HW111912   3.462   1.471   5.657
 3671SOL    HW211913   3.418   1.314   5.655
 3672SOL     OW11914   2.326   1.743   5.909
 3672SOL    HW111915   2.359   1.782   5.995
 3672SOL    HW211916   2.402   1.736   5.844
 3673SOL     OW11917   3.262   0.107   6.012
 3673SOL    HW111918   3.238   0.070   5.922
 3673SOL    HW211919   3.361   0.123   6.016
 3674SOL     OW11920   2.111   1.785   6.827
 3674SOL    HW111921   2.168   1.720   6.877
 3674SOL    HW211922   2.095   1.752   6.734
 3675SOL     OW11923   2.802   1.698   6.490
 3675SOL    HW111924   2.882   1.641   6.511
 3675SOL    HW211925   2.753   1.658   6.413
 3676SOL     OW11926   2.244   0.700   6.066
 3676SOL    HW111927   2.289   0.610   6.063
 3676SOL    HW211928   2.150   0.689   6.099
 3677SOL     OW11929   2.476   0.122   5.703
 3677SOL    HW111930   2.574   0.100   5.710
 3677SOL    HW211931   2.445   0.105   5.610
 3678SOL     OW11932   2.750   1.514   6.781
 3678SOL    HW111933   2.727   1.489   6.687
 3678SOL    HW211934   2.811   1.445   6.820
 3679SOL     OW11935   2.665   1.402   6.510
 3679SOL    HW111936   2.755   1.416   6.468
 3679SOL    HW211937   2.594   1.404   6.439
 3680SOL     OW11938   2.784   0.503   6.485
 3680SOL    HW111939   2.759   0.494   6.389
 3680SOL    HW211940   2.832   0.421   6.516
 3681SOL     OW11941   2.401   0.064   6.098
 3681SOL    HW111942   2.320   0.065   6.156
 3681SOL    HW211943   2.404   0.147   6.043
 3682SOL     OW11944   3.296   1.188   5.627
 3682SOL    HW111945   3.328   1.112   5.684
 3682SOL    HW211946   3.204   1.215   5.657
 3683SOL     OW11947   2.159   0.035   5.757
 3683SOL    HW111948   2.208   0.119   5.736
 3683SOL    HW211949   2.221  -0.030   5.802
 3684SOL     OW11950   2.797   0.236   6.066
 3684SOL    HW111951   2.749   0.277   5.988
 3684SOL    HW211952   2.896   0.234   6.047
 3685SOL     OW11953   3.089   1.570   6.379
 3685SOL    HW111954   3.110   1.644   6.314
 3685SOL    HW211955   3.157   1.570   6.452
 3686SOL     OW11956   2.321   1.152   6.327
 3686SOL    HW111957   2.250   1.125   6.392
 3686SOL    HW211958   2.295   1.124   6.234
 3687SOL     OW11959   3.133   1.797   6.177
 3687SOL    HW111960   3.177   1.861   6.113
 3687SOL    HW211961   3.083   1.849   6.247
 3688SOL     OW11962   2.894   0.549   5.602
 3688SOL    HW111963   2.853   0.631   5.563
 3688SOL    HW211964   2.958   0.575   5.675
 3689SOL     OW11965   2.423   0.222   6.733
 3689SOL    HW111966   2.461   0.138   6.770
 3689SOL    HW211967   2.335   0.241   6.777
 3690SOL     OW11968   2.728   0.454   6.228
 3690SOL    HW111969   2.696   0.526   6.166
 3690SOL    HW211970   2.752   0.373   6.175
 3691SOL     OW11971   2.879   0.039   6.339
 3691SOL    HW111972   2.807   0.044   6.270
 3691SOL    HW211973   2.855  -0.030   6.408
 3692SOL     OW11974   3.291   1.173   6.453
 3692SOL    HW111975   3.236   1.089   6.446
 3692SOL    HW211976   3.317   1.202   6.361
 3693SOL     OW11977   3.328   0.590   6.578
 3693SOL    HW111978   3.298   0.495   6.585
 3693SOL    HW211979   3.401   0.606   6.644
 3694SOL     OW11980   3.719   0.833   5.963
 3694SOL    HW111981   3.761   0.769   6.027
 3694SOL    HW211982   3.681   0.782   5.885
 3695SOL     OW11983   2.350   1.385   5.760
 3695SOL    HW111984   2.263   1.370   5.807
 3695SOL    HW211985   2.333   1.411   5.665
 3696SOL     OW11986   3.526   1.280   6.243
 3696SOL    HW111987   3.625   1.288   6.257
 3696SOL    HW211988   3.481   1.364   6.274
 3697SOL     OW11989   3.252   0.575   5.664
 3697SOL    HW111990   3.198   0.554   5.745
 3697SOL    HW211991   3.343   0.534   5.673
 3698SOL     OW11992   2.389   0.256   5.914
 3698SOL    HW111993   2.416   0.197   5.839
 3698SOL    HW211994   2.389   0.351   5.883
 3699SOL     OW11995   3.616   1.223   7.174
 3699SOL    HW111996   3.707   1.184   7.161
 3699SOL    HW211997   3.624   1.319   7.198
 3700SOL     OW11998   2.973   1.195   6.686
 3700SOL    HW111999   2.933   1.239   6.767
 3700SOL    HW212000   2.932   1.232   6.603
 3701SOL     OW12001   3.500   1.099   6.665
 3701SOL    HW112002   3.505   1.180   6.724
 3701SOL    HW212003   3.414   1.101   6.614
 3702SOL     OW12004   2.567   1.050   5.954
 3702SOL    HW112005   2.553   1.057   6.053
 3702SOL    HW212006   2.651   0.999   5.936
 3703SOL     OW12007   2.272   0.813   6.837
 3703SOL    HW112008   2.358   0.825   6.887
 3703SOL    HW212009   2.230   0.726   6.864
 3704SOL     OW12010   3.136   0.386   6.848
 3704SOL    HW112011   3.157   0.460   6.912
 3704SOL    HW212012   3.047   0.403   6.805
 3705SOL     OW12013   1.926   1.564   6.917
 3705SOL    HW112014   1.880   1.646   6.883
 3705SOL    HW212015   2.024   1.583   6.926
 3706SOL     OW12016   2.229   1.100   6.087
 3706SOL    HW112017   2.222   1.183   6.031
 3706SOL    HW212018   2.233   1.020   6.027
 3707SOL     OW12019   2.428   0.537   6.451
 3707SOL    HW112020   2.440   0.603   6.377
 3707SOL    HW212021   2.474   0.571   6.534
 3708SOL     OW12022   3.114   1.348   5.974
 3708SOL    HW112023   3.164   1.425   6.014
 3708SOL    HW212024   3.019   1.350   6.006
 3709SOL     OW12025   3.134   1.445   6.728
 3709SOL    HW112026   3.181   1.458   6.815
 3709SOL    HW212027   3.068   1.371   6.737
 3710SOL     OW12028   3.444   0.639   6.058
 3710SOL    HW112029   3.413   0.700   6.131
 3710SOL    HW212030   3.494   0.691   5.989
 3711SOL     OW12031   2.216   1.510   6.915
 3711SOL    HW112032   2.195   1.466   6.828
 3711SOL    HW212033   2.313   1.536   6.918
 3712SOL     OW12034   2.435   0.870   6.615
 3712SOL    HW112035   2.479   0.959   6.606
 3712SOL    HW212036   2.372   0.870   6.692
 3713SOL     OW12037   3.222   0.862   6.631
 3713SOL    HW112038   3.147   0.862   6.565
 3713SOL    HW212039   3.259   0.770   6.640
 3714SOL     OW12040   3.071   0.525   5.861
 3714SOL    HW112041   3.084   0.441   5.915
 3714SOL    HW212042   3.042   0.599   5.921
 3715SOL     OW12043   2.169   0.213   6.817
 3715SOL    HW112044   2.146   0.250   6.907
 3715SOL    HW212045   2.139   0.118   6.811
 3716SOL     OW12046   1.899   1.310   6.868
 3716SOL    HW112047   1.952   1.261   6.936
 3716SOL    HW212048   1.921   1.408   6.873
 3717SOL     OW12049   2.594   0.634   6.650
 3717SOL    HW112050   2.653   0.608   6.574
 3717SOL    HW212051   2.566   0.730   6.639
 3718SOL     OW12052   2.169   0.063   6.204
 3718SOL    HW112053   2.158   0.157   6.237
 3718SOL    HW212054   2.164   0.000   6.281
 3719SOL     OW12055   3.484   0.367   5.960
 3719SOL    HW112056   3.486   0.291   6.024
 3719SOL    HW212057   3.436   0.444   6.000
 3720SOL     OW12058   2.885   0.766   6.552
 3720SOL    HW112059   2.900   0.787   6.648
 3720SOL    HW212060   2.855   0.671   6.543
 3721SOL     OW12061   3.402   0.274   5.711
 3721SOL    HW112062   3.341   0.199   5.734
 3721SOL    HW212063   3.424   0.326   5.794
 3722SOL     OW12064   3.165   0.838   5.628
 3722SOL    HW112065   3.199   0.745   5.643
 3722SOL    HW212066   3.183   0.865   5.533
 3723SOL     OW12067   2.930   1.333   6.435
 3723SOL    HW112068   2.937   1.249   6.380
 3723SOL    HW212069   2.992   1.402   6.399
 3724SOL     OW12070   2.181   0.810   6.535
 3724SOL    HW112071   2.274   0.846   6.540
 3724SOL    HW212072   2.175   0.725   6.587
 3725SOL     OW12073   2.201   0.509   6.592
 3725SOL    HW112074   2.149   0.426   6.575
 3725SOL    HW212075   2.278   0.514   6.528
 3726SOL     OW12076   3.022   0.207   7.063
 3726SOL    HW112077   3.022   0.271   7.140
 3726SOL    HW212078   3.050   0.255   6.980
 3727SOL     OW12079   1.870   1.326   5.786
 3727SOL    HW112080   1.777   1.347   5.755
 3727SOL    HW212081   1.880   1.227   5.799
 3728SOL     OW12082   1.950   1.801   6.513
 3728SOL    HW112083   1.908   1.715   6.486
 3728SOL    HW212084   2.044   1.804   6.479
 3729SOL     OW12085   2.366   1.568   6.496
 3729SOL    HW112086   2.432   1.642   6.505
 3729SOL    HW212087   2.410   1.489   6.454
 3730SOL     OW12088   2.864   0.796   6.824
 3730SOL    HW112089   2.905   0.764   6.910
 3730SOL    HW212090   2.768   0.769   6.821
 3731SOL     OW12091   1.902   0.544   6.700
 3731SOL    HW112092   1.987   0.511   6.659
 3731SOL    HW212093   1.915   0.559   6.798
 3732SOL     OW12094   2.677   0.572   5.911
 3732SOL    HW112095   2.684   0.483   5.865
 3732SOL    HW212096   2.583   0.606   5.903
 3733SOL     OW12097   3.519   0.604   6.792
 3733SOL    HW112098   3.481   0.535   6.854
 3733SOL    HW212099   3.601   0.568   6.748
 3734SOL     OW12100   2.533   0.464   6.855
 3734SOL    HW112101   2.499   0.375   6.825
 3734SOL    HW212102   2.559   0.518   6.775
 3735SOL     OW12103   2.792   1.678   7.051
 3735SOL    HW112104   2.768   1.660   6.956
 3735SOL    HW212105   2.822   1.772   7.061
 3736SOL     OW12106   2.335   0.500   5.777
 3736SOL    HW112107   2.396   0.580   5.781
 3736SOL    HW212108   2.240   0.531   5.784
 3737SOL     OW12109   2.021   1.137   7.052
 3737SOL    HW112110   2.043   1.076   7.128
 3737SOL    HW212111   2.031   1.088   6.966
 3738SOL     OW12112   3.209   1.059   6.820
 3738SOL    HW112113   3.233   0.996   6.746
 3738SOL    HW212114   3.119   1.099   6.802
 3739SOL     OW12115   3.164   0.855   5.895
 3739SOL    HW112116   3.078   0.824   5.937
 3739SOL    HW212117   3.160   0.841   5.796
 3740SOL     OW12118   3.621   1.747   6.740
 3740SOL    HW112119   3.682   1.777   6.667
 3740SOL    HW212120   3.583   1.658   6.718
 3741SOL     OW12121   3.114   1.731   6.714
 3741SOL    HW112122   3.198   1.736   6.660
 3741SOL    HW212123   3.091   1.635   6.732
 3742SOL     OW12124   1.945   1.258   6.608
 3742SOL    HW112125   1.940   1.257   6.708
 3742SOL    HW212126   1.862   1.217   6.570
 3743SOL     OW12127   3.588   0.135   6.109
 3743SOL    HW112128   3.661   0.118   6.042
 3743SOL    HW212129   3.557   0.048   6.147
 3744SOL     OW12130   3.250   1.573   6.063
 3744SOL    HW112131   3.317   1.585   5.989
 3744SOL    HW212132   3.210   1.662   6.086
 3745SOL     OW12133   3.142   0.927   6.258
 3745SOL    HW112134   3.202   0.846   6.260
 3745SOL    HW212135   3.182   0.996   6.198
 3746SOL     OW12136   2.534   1.616   5.740
 3746SOL    HW112137   2.543   1.626   5.641
 3746SOL    HW212138   2.494   1.527   5.761
 3747SOL     OW12139   3.703   0.175   6.549
 3747SOL    HW112140   3.742   0.090   6.513
 3747SOL    HW212141   3.605   0.177   6.530
 3748SOL     OW12142   2.125   0.326   6.306
 3748SOL    HW112143   2.046   0.377   6.272
 3748SOL    HW212144   2.116   0.311   6.404
 3749SOL     OW12145   3.056   1.612   5.617
 3749SOL    HW112146   3.062   1.519   5.654
 3749SOL    HW212147   2.997   1.612   5.537
 3750SOL     OW12148   2.684   1.002   6.958
 3750SOL    HW112149   2.724   1.001   6.866
 3750SOL    HW212150   2.694   1.094   6.998
 3751SOL     OW12151   2.778   0.910   5.877
 3751SOL    HW112152   2.841   0.948   5.809
 3751SOL    HW212153   2.818   0.827   5.916
 3752SOL     OW12154   3.366   1.607   5.630
 3752SOL    HW112155   3.274   1.644   5.637
 3752SOL    HW212156   3.404   1.627   5.540
 3753SOL     OW12157   3.476   1.292   6.875
 3753SOL    HW112158   3.536   1.295   6.955
 3753SOL    HW212159   3.401   1.356   6.888
 3754SOL     OW12160   2.901   1.098   6.282
 3754SOL    HW112161   2.831   1.051   6.336
 3754SOL    HW212162   2.960   1.030   6.239
 3755SOL     OW12163   2.876   0.236   6.557
 3755SOL    HW112164   2.868   0.200   6.464
 3755SOL    HW212165   2.874   0.160   6.622
 3756SOL     OW12166   2.452   1.487   6.077
 3756SOL    HW112167   2.494   1.429   6.007
 3756SOL    HW212168   2.408   1.566   6.033
 3757SOL     OW12169   3.571   0.385   6.967
 3757SOL    HW112170   3.644   0.454   6.971
 3757SOL    HW212171   3.599   0.310   6.908
 3758SOL     OW12172   2.117   1.348   5.876
 3758SOL    HW112173   2.021   1.349   5.849
 3758SOL    HW212174   2.129   1.401   5.960
 3759SOL     OW12175   1.937   0.345   5.619
 3759SOL    HW112176   1.845   0.317   5.590
 3759SOL    HW212177   1.968   0.422   5.563
 3760SOL     OW12178   1.934   0.166   5.904
 3760SOL    HW112179   1.917   0.249   5.850
 3760SOL    HW212180   2.024   0.129   5.882
 3761SOL     OW12181   3.045   1.335   5.705
 3761SOL    HW112182   2.946   1.324   5.707
 3761SOL    HW212183   3.079   1.350   5.798
 3762SOL     OW12184   3.355   1.767   6.545
 3762SOL    HW112185   3.388   1.831   6.476
 3762SOL    HW212186   3.421   1.761   6.620
 3763SOL     OW12187   3.312   1.220   7.219
 3763SOL    HW112188   3.303   1.210   7.318
 3763SOL    HW212189   3.408   1.213   7.193
 3764SOL     OW12190   2.252   1.741   7.146
 3764SOL    HW112191   2.161   1.782   7.144
 3764SOL    HW212192   2.245   1.647   7.178
 3765SOL     OW12193   3.536   0.883   6.840
 3765SOL    HW112194   3.509   0.794   6.803
 3765SOL    HW212195   3.537   0.951   6.767
 3766SOL     OW12196   3.087   0.325   6.035
 3766SOL    HW112197   3.152   0.251   6.024
 3766SOL    HW212198   3.107   0.375   6.119
 3767SOL     OW12199   2.456   0.745   6.238
 3767SOL    HW112200   2.506   0.830   6.219
 3767SOL    HW212201   2.368   0.747   6.190
 3768SOL     OW12202   3.592   0.934   7.103
 3768SOL    HW112203   3.630   1.025   7.118
 3768SOL    HW212204   3.584   0.917   7.004
 3769SOL     OW12205   2.721   1.374   5.602
 3769SOL    HW112206   2.675   1.389   5.690
 3769SOL    HW212207   2.765   1.459   5.572
 3770SOL     OW12208   2.523   1.790   6.539
 3770SOL    HW112209   2.477   1.878   6.526
 3770SOL    HW212210   2.622   1.802   6.532
 3771SOL     OW12211   2.721   0.956   6.447
 3771SOL    HW112212   2.775   0.887   6.495
 3771SOL    HW212213   2.689   1.025   6.513
 3772SOL     OW12214   2.945   0.984   5.673
 3772SOL    HW112215   2.922   1.037   5.591
 3772SOL    HW212216   3.026   0.928   5.654
 3773SOL     OW12217   3.723   1.569   6.437
 3773SOL    HW112218   3.652   1.557   6.367
 3773SOL    HW212219   3.724   1.490   6.497
 3774SOL     OW12220   1.941   1.240   6.239
 3774SOL    HW112221   1.940   1.193   6.327
 3774SOL    HW212222   2.023   1.212   6.188
 3775SOL     OW12223   3.686   0.192   6.813
 3775SOL    HW112224   3.682   0.102   6.857
 3775SOL    HW212225   3.689   0.181   6.714
 3776SOL     OW12226   2.290   0.424   6.106
 3776SOL    HW112227   2.320   0.352   6.044
 3776SOL    HW212228   2.251   0.384   6.189
 3777SOL     OW12229   3.567   1.487   6.690
 3777SOL    HW112230   3.474   1.462   6.663
 3777SOL    HW212231   3.593   1.437   6.772
 3778SOL     OW12232   2.179   0.547   6.866
 3778SOL    HW112233   2.217   0.488   6.938
 3778SOL    HW212234   2.219   0.521   6.778
 3779SOL     OW12235   2.674   1.586   6.273
 3779SOL    HW112236   2.706   1.596   6.179
 3779SOL    HW212237   2.595   1.524   6.275
 3780SOL     OW12238   3.286   0.214   6.698
 3780SOL    HW112239   3.338   0.149   6.753
 3780SOL    HW212240   3.237   0.277   6.759
 3781SOL     OW12241   2.863   0.034   6.740
 3781SOL    HW112242   2.800  -0.038   6.709
 3781SOL    HW212243   2.956  -0.002   6.740
 3782SOL     OW12244   2.632   1.330   5.887
 3782SOL    HW112245   2.586   1.243   5.904
 3782SOL    HW212246   2.723   1.327   5.928
 3783SOL     OW12247   2.480   1.567   6.870
 3783SOL    HW112248   2.475   1.649   6.927
 3783SOL    HW212249   2.569   1.564   6.825
 3784SOL     OW12250   3.214   0.052   5.754
 3784SOL    HW112251   3.249   0.011   5.670
 3784SOL    HW212252   3.124   0.014   5.774
 3785SOL     OW12253   3.162   0.453   6.277
 3785SOL    HW112254   3.103   0.533   6.281
 3785SOL    HW212255   3.177   0.418   6.370
 3786SOL     OW12256   3.455   0.221   6.468
 3786SOL    HW112257   3.371   0.220   6.522
 3786SOL    HW212258   3.457   0.304   6.412
 3787SOL     OW12259   1.901   1.077   5.886
 3787SOL    HW112260   2.000   1.066   5.877
 3787SOL    HW212261   1.861   0.991   5.918
 3788SOL     OW12262   2.737   1.646   5.923
 3788SOL    HW112263   2.660   1.611   5.869
 3788SOL    HW212264   2.705   1.717   5.985
 3789SOL     OW12265   2.092   2.490   0.113
 3789SOL    HW112266   1.999   2.488   0.150
 3789SOL    HW212267   2.093   2.451   0.021
 3790SOL     OW12268   2.087   2.137   0.996
 3790SOL    HW112269   2.122   2.120   1.088
 3790SOL    HW212270   1.999   2.092   0.984
 3791SOL     OW12271   1.881   2.230   0.647
 3791SOL    HW112272   1.799   2.273   0.686
 3791SOL    HW212273   1.853   2.157   0.584
 3792SOL     OW12274   2.431   3.137   1.165
 3792SOL    HW112275   2.338   3.130   1.128
 3792SOL    HW212276   2.442   3.226   1.209
 3793SOL     OW12277   3.417   3.373   0.703
 3793SOL    HW112278   3.360   3.357   0.784
 3793SOL    HW212279   3.358   3.383   0.623
 3794SOL     OW12280   2.997   2.565   0.717
 3794SOL    HW112281   3.054   2.643   0.692
 3794SOL    HW212282   2.937   2.591   0.793
 3795SOL     OW12283   3.617   2.469   0.231
 3795SOL    HW112284   3.605   2.456   0.132
 3795SOL    HW212285   3.587   2.388   0.280
 3796SOL     OW12286   2.547   2.874   0.665
 3796SOL    HW112287   2.616   2.858   0.735
 3796SOL    HW212288   2.474   2.931   0.703
 3797SOL     OW12289   2.197   3.297   1.061
 3797SOL    HW112290   2.119   3.266   1.008
 3797SOL    HW212291   2.255   3.355   1.004
 3798SOL     OW12292   3.322   3.367   1.339
 3798SOL    HW112293   3.346   3.461   1.365
 3798SOL    HW212294   3.306   3.313   1.421
 3799SOL     OW12295   2.300   2.254   1.499
 3799SOL    HW112296   2.382   2.198   1.508
 3799SOL    HW212297   2.219   2.196   1.503
 3800SOL     OW12298   3.465   2.309   0.737
 3800SOL    HW112299   3.391   2.355   0.687
 3800SOL    HW212300   3.516   2.377   0.790
 3801SOL     OW12301   2.093   3.575   0.483
 3801SOL    HW112302   2.127   3.652   0.537
 3801SOL    HW212303   2.137   3.575   0.393
 3802SOL     OW12304   2.989   3.203   1.690
 3802SOL    HW112305   3.036   3.203   1.778
 3802SOL    HW212306   2.941   3.116   1.679
 3803SOL     OW12307   2.092   3.296   0.538
 3803SOL    HW112308   2.066   3.392   0.538
 3803SOL    HW212309   2.021   3.242   0.583
 3804SOL     OW12310   2.102   2.953   0.886
 3804SOL    HW112311   2.116   2.869   0.938
 3804SOL    HW212312   2.047   3.017   0.941
 3805SOL     OW12313   2.482   3.648   1.439
 3805SOL    HW112314   2.390   3.631   1.474
 3805SOL    HW212315   2.510   3.740   1.465
 3806SOL     OW12316   2.468   2.826   0.123
 3806SOL    HW112317   2.475   2.910   0.069
 3806SOL    HW212318   2.514   2.839   0.211
 3807SOL     OW12319   3.456   1.976   1.480
 3807SOL    HW112320   3.438   2.043   1.408
 3807SOL    HW212321   3.453   2.022   1.569
 3808SOL     OW12322   1.984   2.505   0.563
 3808SOL    HW112323   1.939   2.417   0.580
 3808SOL    HW212324   1.983   2.559   0.647
 3809SOL     OW12325   3.704   3.629   0.359
 3809SOL    HW112326   3.758   3.600   0.439
 3809SOL    HW212327   3.734   3.719   0.330
 3810SOL     OW12328   3.551   2.784   0.612
 3810SOL    HW112329   3.646   2.755   0.620
 3810SOL    HW212330   3.543   2.849   0.537
 3811SOL     OW12331   3.503   2.970   0.432
 3811SOL    HW112332   3.589   2.972   0.380
 3811SOL    HW212333   3.517   3.017   0.520
 3812SOL     OW12334   1.975   2.599   1.597
 3812SOL    HW112335   2.063   2.586   1.642
 3812SOL    HW212336   1.962   2.696   1.575
 3813SOL     OW12337   2.475   3.227   0.726
 3813SOL    HW112338   2.426   3.140   0.735
 3813SOL    HW212339   2.452   3.270   0.639
 3814SOL     OW12340   3.155   3.090   1.423
 3814SOL    HW112341   3.192   3.017   1.365
 3814SOL    HW212342   3.207   3.095   1.508
 3815SOL     OW12343   2.671   1.866   0.502
 3815SOL    HW112344   2.711   1.957   0.493
 3815SOL    HW212345   2.571   1.874   0.508
 3816SOL     OW12346   2.059   2.838   1.264
 3816SOL    HW112347   2.148   2.793   1.250
 3816SOL    HW212348   1.986   2.773   1.245
 3817SOL     OW12349   3.387   2.861   0.190
 3817SOL    HW112350   3.324   2.785   0.203
 3817SOL    HW212351   3.435   2.879   0.276
 3818SOL     OW12352   3.049   3.654   1.616
 3818SOL    HW112353   3.073   3.714   1.540
 3818SOL    HW212354   3.056   3.559   1.586
 3819SOL     OW12355   2.179   2.113   1.801
 3819SOL    HW112356   2.250   2.184   1.807
 3819SOL    HW212357   2.091   2.152   1.829
 3820SOL     OW12358   3.529   3.576   0.572
 3820SOL    HW112359   3.488   3.553   0.484
 3820SOL    HW212360   3.511   3.502   0.637
 3821SOL     OW12361   2.460   2.591   0.270
 3821SOL    HW112362   2.484   2.660   0.202
 3821SOL    HW212363   2.382   2.624   0.324
 3822SOL     OW12364   3.143   2.207   0.944
 3822SOL    HW112365   3.057   2.157   0.931
 3822SOL    HW212366   3.205   2.153   1.000
 3823SOL     OW12367   3.438   3.524   0.307
 3823SOL    HW112368   3.527   3.570   0.310
 3823SOL    HW212369   3.417   3.500   0.212
 3824SOL     OW12370   2.669   2.467   1.465
 3824SOL    HW112371   2.622   2.464   1.554
 3824SOL    HW212372   2.618   2.412   1.399
 3825SOL     OW12373   3.256   2.331   1.674
 3825SOL    HW112374   3.236   2.374   1.762
 3825SOL    HW212375   3.334   2.269   1.683
 3826SOL     OW12376   2.835   2.752   1.572
 3826SOL    HW112377   2.881   2.668   1.543
 3826SOL    HW212378   2.779   2.786   1.497
 3827SOL     OW12379   2.853   2.272   1.242
 3827SOL    HW112380   2.776   2.306   1.296
 3827SOL    HW212381   2.819   2.221   1.163
 3828SOL     OW12382   2.903   2.563   0.429
 3828SOL    HW112383   2.929   2.559   0.525
 3828SOL    HW212384   2.818   2.512   0.415
 3829SOL     OW12385   1.938   2.673   0.789
 3829SOL    HW112386   2.037   2.661   0.798
 3829SOL    HW212387   1.914   2.768   0.810
 3830SOL     OW12388   1.992   3.683   1.571
 3830SOL    HW112389   1.982   3.668   1.670
 3830SOL    HW212390   1.906   3.719   1.535
 3831SOL     OW12391   2.727   2.210   0.195
 3831SOL    HW112392   2.786   2.273   0.146
 3831SOL    HW212393   2.746   2.116   0.166
 3832SOL     OW12394   3.224   3.006   0.545
 3832SOL    HW112395   3.307   2.977   0.497
 3832SOL    HW212396   3.175   3.073   0.489
 3833SOL     OW12397   2.412   2.058   0.885
 3833SOL    HW112398   2.407   2.053   0.985
 3833SOL    HW212399   2.414   2.154   0.856
 3834SOL     OW12400   2.870   3.318   0.477
 3834SOL    HW112401   2.824   3.390   0.425
 3834SOL    HW212402   2.866   3.338   0.575
 3835SOL     OW12403   2.213   3.663   0.853
 3835SOL    HW112404   2.263   3.577   0.859
 3835SOL    HW212405   2.278   3.740   0.850
 3836SOL     OW12406   3.657   2.928   0.873
 3836SOL    HW112407   3.595   2.913   0.797
 3836SOL    HW212408   3.605   2.939   0.958
 3837SOL     OW12409   3.089   3.412   1.506
 3837SOL    HW112410   3.095   3.335   1.570
 3837SOL    HW212411   3.037   3.386   1.426
 3838SOL     OW12412   2.183   2.805   0.242
 3838SOL    HW112413   2.265   2.844   0.200
 3838SOL    HW212414   2.156   2.723   0.193
 3839SOL     OW12415   3.320   2.597   0.728
 3839SOL    HW112416   3.315   2.532   0.803
 3839SOL    HW212417   3.400   2.656   0.741
 3840SOL     OW12418   2.323   3.128   1.727
 3840SOL    HW112419   2.273   3.129   1.641
 3840SOL    HW212420   2.260   3.110   1.803
 3841SOL     OW12421   2.973   3.638   0.237
 3841SOL    HW112422   2.913   3.576   0.287
 3841SOL    HW212423   3.004   3.594   0.152
 3842SOL     OW12424   2.064   2.147   1.498
 3842SOL    HW112425   1.984   2.207   1.485
 3842SOL    HW212426   2.054   2.098   1.584
 3843SOL     OW12427   3.494   3.239   0.081
 3843SOL    HW112428   3.462   3.333   0.071
 3843SOL    HW212429   3.418   3.176   0.069
 3844SOL     OW12430   2.326   3.605   0.323
 3844SOL    HW112431   2.359   3.644   0.409
 3844SOL    HW212432   2.402   3.598   0.258
 3845SOL     OW12433   2.111   3.647   1.241
 3845SOL    HW112434   2.168   3.582   1.291
 3845SOL    HW212435   2.095   3.614   1.148
 3846SOL     OW12436   2.244   2.562   0.480
 3846SOL    HW112437   2.289   2.472   0.477
 3846SOL    HW212438   2.150   2.551   0.513
 3847SOL     OW12439   3.409   2.084   1.729
 3847SOL    HW112440   3.404   2.121   1.821
 3847SOL    HW212441   3.337   2.015   1.717
 3848SOL     OW12442   2.643   2.126   1.749
 3848SOL    HW112443   2.710   2.065   1.792
 3848SOL    HW212444   2.570   2.145   1.814
 3849SOL     OW12445   2.750   3.376   1.195
 3849SOL    HW112446   2.727   3.351   1.101
 3849SOL    HW212447   2.811   3.307   1.234
 3850SOL     OW12448   3.213   2.452   1.433
 3850SOL    HW112449   3.241   2.409   1.518
 3850SOL    HW212450   3.238   2.548   1.434
 3851SOL     OW12451   2.784   2.365   0.899
 3851SOL    HW112452   2.759   2.356   0.803
 3851SOL    HW212453   2.832   2.283   0.930
 3852SOL     OW12454   2.401   1.926   0.512
 3852SOL    HW112455   2.320   1.927   0.570
 3852SOL    HW212456   2.404   2.009   0.457
 3853SOL     OW12457   3.296   3.050   0.041
 3853SOL    HW112458   3.328   2.974   0.098
 3853SOL    HW212459   3.204   3.077   0.071
 3854SOL     OW12460   2.797   2.098   0.480
 3854SOL    HW112461   2.749   2.139   0.402
 3854SOL    HW212462   2.896   2.096   0.461
 3855SOL     OW12463   2.938   2.545   1.464
 3855SOL    HW112464   2.858   2.484   1.467
 3855SOL    HW212465   3.019   2.492   1.440
 3856SOL     OW12466   2.321   3.014   0.741
 3856SOL    HW112467   2.250   2.987   0.806
 3856SOL    HW212468   2.295   2.986   0.648
 3857SOL     OW12469   3.133   3.659   0.591
 3857SOL    HW112470   3.177   3.723   0.527
 3857SOL    HW212471   3.083   3.711   0.661
 3858SOL     OW12472   2.894   2.411   0.016
 3858SOL    HW112473   2.853   2.493  -0.023
 3858SOL    HW212474   2.958   2.437   0.089
 3859SOL     OW12475   1.940   2.418   1.386
 3859SOL    HW112476   2.032   2.417   1.345
 3859SOL    HW212477   1.934   2.492   1.453
 3860SOL     OW12478   2.423   2.084   1.147
 3860SOL    HW112479   2.461   2.000   1.184
 3860SOL    HW212480   2.335   2.103   1.191
 3861SOL     OW12481   2.728   2.316   0.642
 3861SOL    HW112482   2.696   2.388   0.580
 3861SOL    HW212483   2.752   2.235   0.589
 3862SOL     OW12484   2.879   1.901   0.753
 3862SOL    HW112485   2.807   1.906   0.684
 3862SOL    HW212486   2.855   1.832   0.822
 3863SOL     OW12487   3.291   3.035   0.867
 3863SOL    HW112488   3.236   2.951   0.860
 3863SOL    HW212489   3.317   3.064   0.775
 3864SOL     OW12490   3.328   2.452   0.992
 3864SOL    HW112491   3.298   2.357   0.999
 3864SOL    HW212492   3.401   2.468   1.058
 3865SOL     OW12493   3.719   2.695   0.377
 3865SOL    HW112494   3.761   2.631   0.441
 3865SOL    HW212495   3.681   2.644   0.299
 3866SOL     OW12496   2.350   3.247   0.174
 3866SOL    HW112497   2.263   3.232   0.221
 3866SOL    HW212498   2.333   3.273   0.079
 3867SOL     OW12499   3.526   3.142   0.657
 3867SOL    HW112500   3.625   3.150   0.671
 3867SOL    HW212501   3.481   3.226   0.688
 3868SOL     OW12502   3.252   2.437   0.078
 3868SOL    HW112503   3.198   2.416   0.159
 3868SOL    HW212504   3.343   2.396   0.087
 3869SOL     OW12505   2.389   2.118   0.328
 3869SOL    HW112506   2.416   2.059   0.253
 3869SOL    HW212507   2.389   2.213   0.297
 3870SOL     OW12508   3.616   3.085   1.588
 3870SOL    HW112509   3.707   3.046   1.575
 3870SOL    HW212510   3.624   3.181   1.612
 3871SOL     OW12511   2.926   3.209   1.340
 3871SOL    HW112512   2.846   3.186   1.395
 3871SOL    HW212513   3.009   3.183   1.389
 3872SOL     OW12514   3.454   3.491   1.625
 3872SOL    HW112515   3.481   3.525   1.535
 3872SOL    HW212516   3.533   3.453   1.671
 3873SOL     OW12517   2.777   1.951   1.402
 3873SOL    HW112518   2.802   1.931   1.307
 3873SOL    HW212519   2.849   2.007   1.444
 3874SOL     OW12520   2.842   2.978   1.719
 3874SOL    HW112521   2.743   2.984   1.729
 3874SOL    HW212522   2.865   2.898   1.663
 3875SOL     OW12523   2.567   2.912   0.368
 3875SOL    HW112524   2.553   2.919   0.467
 3875SOL    HW212525   2.651   2.861   0.350
 3876SOL     OW12526   2.272   2.675   1.251
 3876SOL    HW112527   2.358   2.687   1.301
 3876SOL    HW212528   2.230   2.588   1.278
 3877SOL     OW12529   3.136   2.248   1.262
 3877SOL    HW112530   3.157   2.322   1.326
 3877SOL    HW212531   3.047   2.265   1.219
 3878SOL     OW12532   1.926   3.426   1.331
 3878SOL    HW112533   1.880   3.508   1.297
 3878SOL    HW212534   2.024   3.445   1.340
 3879SOL     OW12535   2.229   2.962   0.501
 3879SOL    HW112536   2.222   3.045   0.445
 3879SOL    HW212537   2.233   2.882   0.441
 3880SOL     OW12538   2.428   2.399   0.865
 3880SOL    HW112539   2.440   2.465   0.791
 3880SOL    HW212540   2.474   2.433   0.948
 3881SOL     OW12541   3.114   3.210   0.388
 3881SOL    HW112542   3.164   3.287   0.428
 3881SOL    HW212543   3.019   3.212   0.420
 3882SOL     OW12544   3.444   2.501   0.472
 3882SOL    HW112545   3.413   2.562   0.545
 3882SOL    HW212546   3.494   2.553   0.403
 3883SOL     OW12547   2.216   3.372   1.329
 3883SOL    HW112548   2.195   3.328   1.242
 3883SOL    HW212549   2.313   3.398   1.332
 3884SOL     OW12550   2.264   2.613   1.598
 3884SOL    HW112551   2.332   2.668   1.551
 3884SOL    HW212552   2.304   2.525   1.625
 3885SOL     OW12553   3.449   2.641   1.670
 3885SOL    HW112554   3.357   2.679   1.665
 3885SOL    HW212555   3.509   2.688   1.605
 3886SOL     OW12556   2.875   1.967   1.770
 3886SOL    HW112557   2.881   2.052   1.718
 3886SOL    HW212558   2.907   1.891   1.713
 3887SOL     OW12559   2.366   1.912   1.740
 3887SOL    HW112560   2.324   1.855   1.670
 3887SOL    HW212561   2.300   1.981   1.772
 3888SOL     OW12562   2.435   2.732   1.029
 3888SOL    HW112563   2.479   2.821   1.020
 3888SOL    HW212564   2.372   2.732   1.106
 3889SOL     OW12565   3.222   2.724   1.045
 3889SOL    HW112566   3.147   2.724   0.979
 3889SOL    HW212567   3.259   2.632   1.054
 3890SOL     OW12568   3.071   2.387   0.275
 3890SOL    HW112569   3.084   2.303   0.329
 3890SOL    HW212570   3.042   2.461   0.335
 3891SOL     OW12571   2.169   2.075   1.231
 3891SOL    HW112572   2.146   2.112   1.321
 3891SOL    HW212573   2.139   1.980   1.225
 3892SOL     OW12574   1.899   3.172   1.282
 3892SOL    HW112575   1.952   3.123   1.350
 3892SOL    HW212576   1.921   3.270   1.287
 3893SOL     OW12577   2.594   2.496   1.064
 3893SOL    HW112578   2.653   2.470   0.988
 3893SOL    HW212579   2.566   2.592   1.053
 3894SOL     OW12580   3.590   2.797   1.854
 3894SOL    HW112581   3.544   2.790   1.765
 3894SOL    HW212582   3.528   2.841   1.920
 3895SOL     OW12583   2.169   1.925   0.618
 3895SOL    HW112584   2.158   2.019   0.651
 3895SOL    HW212585   2.164   1.862   0.695
 3896SOL     OW12586   3.484   2.229   0.374
 3896SOL    HW112587   3.486   2.153   0.438
 3896SOL    HW212588   3.436   2.306   0.414
 3897SOL     OW12589   2.885   2.628   0.966
 3897SOL    HW112590   2.900   2.649   1.062
 3897SOL    HW212591   2.855   2.533   0.957
 3898SOL     OW12592   2.842   3.435   1.700
 3898SOL    HW112593   2.822   3.479   1.612
 3898SOL    HW212594   2.881   3.344   1.684
 3899SOL     OW12595   3.721   3.380   1.605
 3899SOL    HW112596   3.735   3.407   1.510
 3899SOL    HW212597   3.804   3.402   1.658
 3900SOL     OW12598   2.212   2.760   1.804
 3900SOL    HW112599   2.288   2.804   1.852
 3900SOL    HW212600   2.247   2.713   1.722
 3901SOL     OW12601   3.402   2.136   0.125
 3901SOL    HW112602   3.341   2.061   0.148
 3901SOL    HW212603   3.424   2.188   0.208
 3902SOL     OW12604   3.165   2.700   0.042
 3902SOL    HW112605   3.199   2.607   0.057
 3902SOL    HW212606   3.183   2.727  -0.053
 3903SOL     OW12607   2.181   2.672   0.949
 3903SOL    HW112608   2.274   2.708   0.954
 3903SOL    HW212609   2.175   2.587   1.001
 3904SOL     OW12610   2.201   2.371   1.006
 3904SOL    HW112611   2.149   2.288   0.989
 3904SOL    HW212612   2.278   2.376   0.942
 3905SOL     OW12613   3.000   2.242   1.678
 3905SOL    HW112614   2.955   2.305   1.742
 3905SOL    HW212615   3.093   2.273   1.661
 3906SOL     OW12616   3.022   2.069   1.477
 3906SOL    HW112617   3.022   2.133   1.554
 3906SOL    HW212618   3.050   2.117   1.394
 3907SOL     OW12619   1.950   3.663   0.927
 3907SOL    HW112620   1.908   3.577   0.900
 3907SOL    HW212621   2.044   3.666   0.893
 3908SOL     OW12622   2.366   3.430   0.910
 3908SOL    HW112623   2.432   3.504   0.919
 3908SOL    HW212624   2.410   3.351   0.868
 3909SOL     OW12625   2.864   2.658   1.238
 3909SOL    HW112626   2.905   2.626   1.324
 3909SOL    HW212627   2.768   2.631   1.235
 3910SOL     OW12628   1.902   2.406   1.114
 3910SOL    HW112629   1.987   2.373   1.073
 3910SOL    HW212630   1.915   2.421   1.212
 3911SOL     OW12631   2.051   2.382   1.722
 3911SOL    HW112632   2.110   2.342   1.652
 3911SOL    HW212633   1.993   2.453   1.681
 3912SOL     OW12634   3.231   2.812   1.660
 3912SOL    HW112635   3.270   2.901   1.680
 3912SOL    HW212636   3.241   2.792   1.563
 3913SOL     OW12637   2.677   2.434   0.325
 3913SOL    HW112638   2.684   2.345   0.279
 3913SOL    HW212639   2.583   2.468   0.317
 3914SOL     OW12640   3.519   2.466   1.206
 3914SOL    HW112641   3.481   2.397   1.268
 3914SOL    HW212642   3.601   2.430   1.162
 3915SOL     OW12643   2.533   2.326   1.269
 3915SOL    HW112644   2.499   2.237   1.239
 3915SOL    HW212645   2.559   2.380   1.189
 3916SOL     OW12646   2.792   3.540   1.465
 3916SOL    HW112647   2.768   3.522   1.370
 3916SOL    HW212648   2.822   3.634   1.475
 3917SOL     OW12649   2.335   2.362   0.191
 3917SOL    HW112650   2.396   2.442   0.195
 3917SOL    HW212651   2.240   2.393   0.198
 3918SOL     OW12652   2.021   2.999   1.466
 3918SOL    HW112653   2.043   2.938   1.542
 3918SOL    HW212654   2.031   2.950   1.380
 3919SOL     OW12655   3.209   2.921   1.234
 3919SOL    HW112656   3.233   2.858   1.160
 3919SOL    HW212657   3.119   2.961   1.216
 3920SOL     OW12658   3.164   2.717   0.309
 3920SOL    HW112659   3.078   2.686   0.351
 3920SOL    HW212660   3.160   2.703   0.210
 3921SOL     OW12661   3.114   3.593   1.128
 3921SOL    HW112662   3.198   3.598   1.074
 3921SOL    HW212663   3.091   3.497   1.146
 3922SOL     OW12664   1.945   3.120   1.022
 3922SOL    HW112665   1.940   3.119   1.122
 3922SOL    HW212666   1.862   3.079   0.984
 3923SOL     OW12667   2.550   3.524   1.716
 3923SOL    HW112668   2.494   3.605   1.725
 3923SOL    HW212669   2.602   3.528   1.630
 3924SOL     OW12670   2.765   1.948   0.133
 3924SOL    HW112671   2.816   1.949   0.047
 3924SOL    HW212672   2.821   1.906   0.204
 3925SOL     OW12673   3.588   1.997   0.523
 3925SOL    HW112674   3.661   1.980   0.456
 3925SOL    HW212675   3.557   1.910   0.561
 3926SOL     OW12676   3.250   3.435   0.477
 3926SOL    HW112677   3.317   3.447   0.403
 3926SOL    HW212678   3.210   3.524   0.500
 3927SOL     OW12679   1.992   3.656   1.851
 3927SOL    HW112680   1.951   3.582   1.904
 3927SOL    HW212681   2.056   3.707   1.909
 3928SOL     OW12682   3.142   2.789   0.672
 3928SOL    HW112683   3.202   2.708   0.674
 3928SOL    HW212684   3.182   2.858   0.612
 3929SOL     OW12685   2.692   3.135   1.422
 3929SOL    HW112686   2.687   3.168   1.517
 3929SOL    HW212687   2.606   3.154   1.376
 3930SOL     OW12688   2.534   3.478   0.154
 3930SOL    HW112689   2.543   3.488   0.055
 3930SOL    HW212690   2.494   3.389   0.175
 3931SOL     OW12691   3.512   3.582   1.394
 3931SOL    HW112692   3.565   3.592   1.310
 3931SOL    HW212693   3.485   3.672   1.428
 3932SOL     OW12694   3.703   2.037   0.963
 3932SOL    HW112695   3.742   1.952   0.927
 3932SOL    HW212696   3.605   2.039   0.944
 3933SOL     OW12697   2.125   2.188   0.720
 3933SOL    HW112698   2.046   2.239   0.686
 3933SOL    HW212699   2.116   2.173   0.818
 3934SOL     OW12700   3.056   3.474   0.031
 3934SOL    HW112701   3.062   3.381   0.068
 3934SOL    HW212702   2.997   3.474  -0.049
 3935SOL     OW12703   2.684   2.864   1.372
 3935SOL    HW112704   2.724   2.863   1.280
 3935SOL    HW212705   2.694   2.956   1.412
 3936SOL     OW12706   2.778   2.772   0.291
 3936SOL    HW112707   2.841   2.810   0.223
 3936SOL    HW212708   2.818   2.689   0.330
 3937SOL     OW12709   3.366   3.469   0.044
 3937SOL    HW112710   3.274   3.506   0.051
 3937SOL    HW212711   3.404   3.489  -0.046
 3938SOL     OW12712   2.234   3.150   1.490
 3938SOL    HW112713   2.221   3.243   1.456
 3938SOL    HW212714   2.150   3.098   1.477
 3939SOL     OW12715   2.901   2.960   0.696
 3939SOL    HW112716   2.831   2.913   0.750
 3939SOL    HW212717   2.960   2.892   0.653
 3940SOL     OW12718   2.876   2.098   0.971
 3940SOL    HW112719   2.868   2.062   0.878
 3940SOL    HW212720   2.874   2.022   1.036
 3941SOL     OW12721   2.452   3.349   0.491
 3941SOL    HW112722   2.494   3.291   0.421
 3941SOL    HW212723   2.408   3.428   0.447
 3942SOL     OW12724   3.571   2.247   1.381
 3942SOL    HW112725   3.644   2.316   1.385
 3942SOL    HW212726   3.599   2.172   1.322
 3943SOL     OW12727   2.117   3.210   0.290
 3943SOL    HW112728   2.021   3.211   0.263
 3943SOL    HW212729   2.129   3.263   0.374
 3944SOL     OW12730   1.967   2.875   1.726
 3944SOL    HW112731   1.890   2.842   1.780
 3944SOL    HW212732   2.052   2.845   1.768
 3945SOL     OW12733   2.534   2.065   1.489
 3945SOL    HW112734   2.624   2.049   1.449
 3945SOL    HW212735   2.542   2.070   1.588
 3946SOL     OW12736   1.937   2.207   0.033
 3946SOL    HW112737   1.845   2.179   0.004
 3946SOL    HW212738   1.968   2.284  -0.023
 3947SOL     OW12739   3.302   2.718   1.398
 3947SOL    HW112740   3.245   2.770   1.335
 3947SOL    HW212741   3.398   2.730   1.374
 3948SOL     OW12742   1.934   2.028   0.318
 3948SOL    HW112743   1.917   2.111   0.264
 3948SOL    HW212744   2.024   1.991   0.296
 3949SOL     OW12745   3.045   3.197   0.119
 3949SOL    HW112746   2.946   3.186   0.121
 3949SOL    HW212747   3.079   3.212   0.212
 3950SOL     OW12748   2.475   2.704   1.431
 3950SOL    HW112749   2.531   2.785   1.414
 3950SOL    HW212750   2.534   2.624   1.434
 3951SOL     OW12751   2.578   2.427   1.708
 3951SOL    HW112752   2.597   2.492   1.782
 3951SOL    HW212753   2.638   2.347   1.717
 3952SOL     OW12754   3.312   3.082   1.633
 3952SOL    HW112755   3.303   3.072   1.732
 3952SOL    HW212756   3.408   3.075   1.607
 3953SOL     OW12757   2.252   3.603   1.560
 3953SOL    HW112758   2.161   3.644   1.558
 3953SOL    HW212759   2.245   3.509   1.592
 3954SOL     OW12760   3.536   2.745   1.254
 3954SOL    HW112761   3.509   2.656   1.217
 3954SOL    HW212762   3.537   2.813   1.181
 3955SOL     OW12763   3.087   2.187   0.449
 3955SOL    HW112764   3.152   2.113   0.438
 3955SOL    HW212765   3.107   2.237   0.533
 3956SOL     OW12766   2.456   2.607   0.652
 3956SOL    HW112767   2.506   2.692   0.633
 3956SOL    HW212768   2.368   2.609   0.604
 3957SOL     OW12769   3.639   2.204   1.642
 3957SOL    HW112770   3.622   2.235   1.548
 3957SOL    HW212771   3.555   2.167   1.680
 3958SOL     OW12772   3.592   2.796   1.517
 3958SOL    HW112773   3.630   2.887   1.532
 3958SOL    HW212774   3.584   2.779   1.418
 3959SOL     OW12775   2.721   3.236   0.016
 3959SOL    HW112776   2.675   3.251   0.104
 3959SOL    HW212777   2.765   3.321  -0.014
 3960SOL     OW12778   2.523   3.652   0.953
 3960SOL    HW112779   2.477   3.740   0.940
 3960SOL    HW212780   2.622   3.664   0.946
 3961SOL     OW12781   2.721   2.818   0.861
 3961SOL    HW112782   2.775   2.749   0.909
 3961SOL    HW212783   2.689   2.887   0.927
 3962SOL     OW12784   2.945   2.846   0.087
 3962SOL    HW112785   2.922   2.899   0.005
 3962SOL    HW212786   3.026   2.790   0.068
 3963SOL     OW12787   2.083   3.176   1.844
 3963SOL    HW112788   2.018   3.103   1.823
 3963SOL    HW212789   2.087   3.190   1.942
 3964SOL     OW12790   1.941   3.102   0.653
 3964SOL    HW112791   1.940   3.055   0.741
 3964SOL    HW212792   2.023   3.074   0.602
 3965SOL     OW12793   2.534   3.253   1.624
 3965SOL    HW112794   2.456   3.203   1.662
 3965SOL    HW212795   2.531   3.348   1.655
 3966SOL     OW12796   3.686   2.054   1.227
 3966SOL    HW112797   3.682   1.964   1.271
 3966SOL    HW212798   3.689   2.043   1.128
 3967SOL     OW12799   2.290   2.286   0.520
 3967SOL    HW112800   2.320   2.214   0.458
 3967SOL    HW212801   2.251   2.246   0.603
 3968SOL     OW12802   2.179   2.409   1.280
 3968SOL    HW112803   2.217   2.350   1.352
 3968SOL    HW212804   2.219   2.383   1.192
 3969SOL     OW12805   3.286   2.076   1.112
 3969SOL    HW112806   3.338   2.011   1.167
 3969SOL    HW212807   3.237   2.139   1.173
 3970SOL     OW12808   2.863   1.896   1.154
 3970SOL    HW112809   2.800   1.824   1.123
 3970SOL    HW212810   2.956   1.860   1.154
 3971SOL     OW12811   2.632   3.192   0.301
 3971SOL    HW112812   2.586   3.105   0.318
 3971SOL    HW212813   2.723   3.189   0.342
 3972SOL     OW12814   2.480   3.429   1.284
 3972SOL    HW112815   2.475   3.511   1.341
 3972SOL    HW212816   2.569   3.426   1.239
 3973SOL     OW12817   3.214   1.914   0.168
 3973SOL    HW112818   3.249   1.873   0.084
 3973SOL    HW212819   3.124   1.876   0.188
 3974SOL     OW12820   3.162   2.315   0.691
 3974SOL    HW112821   3.103   2.395   0.695
 3974SOL    HW212822   3.177   2.280   0.784
 3975SOL     OW12823   3.455   2.083   0.882
 3975SOL    HW112824   3.371   2.082   0.936
 3975SOL    HW212825   3.457   2.166   0.826
 3976SOL     OW12826   1.901   2.939   0.300
 3976SOL    HW112827   2.000   2.928   0.291
 3976SOL    HW212828   1.861   2.853   0.332
 3977SOL     OW12829   2.737   3.508   0.337
 3977SOL    HW112830   2.660   3.473   0.283
 3977SOL    HW212831   2.705   3.579   0.399
 3978SOL     OW12832   2.092   2.490   1.975
 3978SOL    HW112833   1.999   2.488   2.012
 3978SOL    HW212834   2.093   2.451   1.883
 3979SOL     OW12835   2.087   2.137   2.858
 3979SOL    HW112836   2.122   2.120   2.950
 3979SOL    HW212837   1.999   2.092   2.846
 3980SOL     OW12838   1.881   2.230   2.509
 3980SOL    HW112839   1.799   2.273   2.548
 3980SOL    HW212840   1.853   2.157   2.446
 3981SOL     OW12841   3.417   3.373   2.565
 3981SOL    HW112842   3.360   3.357   2.646
 3981SOL    HW212843   3.358   3.383   2.485
 3982SOL     OW12844   2.197   3.297   2.923
 3982SOL    HW112845   2.119   3.266   2.870
 3982SOL    HW212846   2.255   3.355   2.866
 3983SOL     OW12847   3.322   3.367   3.201
 3983SOL    HW112848   3.346   3.461   3.227
 3983SOL    HW212849   3.306   3.313   3.283
 3984SOL     OW12850   2.300   2.254   3.361
 3984SOL    HW112851   2.382   2.198   3.370
 3984SOL    HW212852   2.219   2.196   3.365
 3985SOL     OW12853   2.093   3.575   2.345
 3985SOL    HW112854   2.127   3.652   2.399
 3985SOL    HW212855   2.137   3.575   2.255
 3986SOL     OW12856   2.989   3.203   3.552
 3986SOL    HW112857   3.036   3.203   3.640
 3986SOL    HW212858   2.941   3.116   3.541
 3987SOL     OW12859   2.092   3.296   2.400
 3987SOL    HW112860   2.066   3.392   2.400
 3987SOL    HW212861   2.021   3.242   2.445
 3988SOL     OW12862   2.102   2.953   2.748
 3988SOL    HW112863   2.116   2.869   2.800
 3988SOL    HW212864   2.047   3.017   2.803
 3989SOL     OW12865   3.456   1.976   3.342
 3989SOL    HW112866   3.438   2.043   3.270
 3989SOL    HW212867   3.453   2.022   3.431
 3990SOL     OW12868   1.984   2.505   2.425
 3990SOL    HW112869   1.939   2.417   2.442
 3990SOL    HW212870   1.983   2.559   2.509
 3991SOL     OW12871   3.704   3.629   2.221
 3991SOL    HW112872   3.758   3.600   2.301
 3991SOL    HW212873   3.734   3.719   2.192
 3992SOL     OW12874   1.889   3.458   1.979
 3992SOL    HW112875   1.870   3.362   2.000
 3992SOL    HW212876   1.856   3.516   2.054
 3993SOL     OW12877   3.551   2.784   2.474
 3993SOL    HW112878   3.646   2.755   2.482
 3993SOL    HW212879   3.543   2.849   2.399
 3994SOL     OW12880   3.503   2.970   2.294
 3994SOL    HW112881   3.589   2.972   2.242
 3994SOL    HW212882   3.517   3.017   2.382
 3995SOL     OW12883   1.975   2.599   3.459
 3995SOL    HW112884   2.063   2.586   3.504
 3995SOL    HW212885   1.962   2.696   3.437
 3996SOL     OW12886   3.155   3.090   3.285
 3996SOL    HW112887   3.192   3.017   3.227
 3996SOL    HW212888   3.207   3.095   3.370
 3997SOL     OW12889   2.671   1.866   2.364
 3997SOL    HW112890   2.711   1.957   2.355
 3997SOL    HW212891   2.571   1.874   2.370
 3998SOL     OW12892   2.059   2.838   3.126
 3998SOL    HW112893   2.148   2.793   3.112
 3998SOL    HW212894   1.986   2.773   3.107
 3999SOL     OW12895   3.387   2.861   2.052
 3999SOL    HW112896   3.324   2.785   2.065
 3999SOL    HW212897   3.435   2.879   2.138
 4000SOL     OW12898   3.049   3.654   3.478
 4000SOL    HW112899   3.073   3.714   3.402
 4000SOL    HW212900   3.056   3.559   3.448
 4001SOL     OW12901   2.179   2.113   3.663
 4001SOL    HW112902   2.250   2.184   3.669
 4001SOL    HW212903   2.091   2.152   3.691
 4002SOL     OW12904   3.328   3.279   2.815
 4002SOL    HW112905   3.269   3.285   2.895
 4002SOL    HW212906   3.313   3.191   2.769
 4003SOL     OW12907   3.529   3.576   2.434
 4003SOL    HW112908   3.488   3.553   2.346
 4003SOL    HW212909   3.511   3.502   2.499
 4004SOL     OW12910   2.460   2.591   2.132
 4004SOL    HW112911   2.484   2.660   2.064
 4004SOL    HW212912   2.382   2.624   2.186
 4005SOL     OW12913   3.143   2.207   2.806
 4005SOL    HW112914   3.057   2.157   2.793
 4005SOL    HW212915   3.205   2.153   2.862
 4006SOL     OW12916   3.438   3.524   2.169
 4006SOL    HW112917   3.527   3.570   2.172
 4006SOL    HW212918   3.417   3.500   2.074
 4007SOL     OW12919   2.669   2.467   3.327
 4007SOL    HW112920   2.622   2.464   3.416
 4007SOL    HW212921   2.618   2.412   3.261
 4008SOL     OW12922   2.853   2.272   3.104
 4008SOL    HW112923   2.776   2.306   3.158
 4008SOL    HW212924   2.819   2.221   3.025
 4009SOL     OW12925   1.938   2.673   2.651
 4009SOL    HW112926   2.037   2.661   2.660
 4009SOL    HW212927   1.914   2.768   2.672
 4010SOL     OW12928   1.992   3.683   3.433
 4010SOL    HW112929   1.982   3.668   3.532
 4010SOL    HW212930   1.906   3.719   3.397
 4011SOL     OW12931   3.224   3.006   2.407
 4011SOL    HW112932   3.307   2.977   2.359
 4011SOL    HW212933   3.175   3.073   2.351
 4012SOL     OW12934   2.412   2.058   2.747
 4012SOL    HW112935   2.407   2.053   2.847
 4012SOL    HW212936   2.414   2.154   2.718
 4013SOL     OW12937   2.870   3.318   2.339
 4013SOL    HW112938   2.824   3.390   2.287
 4013SOL    HW212939   2.866   3.338   2.437
 4014SOL     OW12940   2.213   3.663   2.715
 4014SOL    HW112941   2.263   3.577   2.721
 4014SOL    HW212942   2.278   3.740   2.712
 4015SOL     OW12943   3.657   2.928   2.735
 4015SOL    HW112944   3.595   2.913   2.659
 4015SOL    HW212945   3.605   2.939   2.820
 4016SOL     OW12946   3.089   3.412   3.368
 4016SOL    HW112947   3.095   3.335   3.432
 4016SOL    HW212948   3.037   3.386   3.288
 4017SOL     OW12949   2.183   2.805   2.104
 4017SOL    HW112950   2.265   2.844   2.062
 4017SOL    HW212951   2.156   2.723   2.055
 4018SOL     OW12952   2.323   3.128   3.589
 4018SOL    HW112953   2.273   3.129   3.503
 4018SOL    HW212954   2.260   3.110   3.665
 4019SOL     OW12955   2.973   3.638   2.099
 4019SOL    HW112956   2.913   3.576   2.149
 4019SOL    HW212957   3.004   3.594   2.014
 4020SOL     OW12958   2.064   2.147   3.360
 4020SOL    HW112959   1.984   2.207   3.347
 4020SOL    HW212960   2.054   2.098   3.446
 4021SOL     OW12961   3.494   3.239   1.943
 4021SOL    HW112962   3.462   3.333   1.933
 4021SOL    HW212963   3.418   3.176   1.931
 4022SOL     OW12964   3.262   1.969   2.288
 4022SOL    HW112965   3.238   1.932   2.198
 4022SOL    HW212966   3.361   1.985   2.292
 4023SOL     OW12967   2.111   3.647   3.103
 4023SOL    HW112968   2.168   3.582   3.153
 4023SOL    HW212969   2.095   3.614   3.010
 4024SOL     OW12970   2.802   3.560   2.766
 4024SOL    HW112971   2.882   3.503   2.787
 4024SOL    HW212972   2.753   3.520   2.689
 4025SOL     OW12973   2.244   2.562   2.342
 4025SOL    HW112974   2.289   2.472   2.339
 4025SOL    HW212975   2.150   2.551   2.375
 4026SOL     OW12976   3.409   2.084   3.591
 4026SOL    HW112977   3.404   2.121   3.683
 4026SOL    HW212978   3.337   2.015   3.579
 4027SOL     OW12979   2.476   1.984   1.979
 4027SOL    HW112980   2.574   1.962   1.986
 4027SOL    HW212981   2.445   1.967   1.886
 4028SOL     OW12982   2.643   2.126   3.611
 4028SOL    HW112983   2.710   2.065   3.654
 4028SOL    HW212984   2.570   2.145   3.676
 4029SOL     OW12985   2.750   3.376   3.057
 4029SOL    HW112986   2.727   3.351   2.963
 4029SOL    HW212987   2.811   3.307   3.096
 4030SOL     OW12988   2.784   2.365   2.761
 4030SOL    HW112989   2.759   2.356   2.665
 4030SOL    HW212990   2.832   2.283   2.792
 4031SOL     OW12991   2.401   1.926   2.374
 4031SOL    HW112992   2.320   1.927   2.432
 4031SOL    HW212993   2.404   2.009   2.319
 4032SOL     OW12994   3.296   3.050   1.903
 4032SOL    HW112995   3.328   2.974   1.960
 4032SOL    HW212996   3.204   3.077   1.933
 4033SOL     OW12997   2.159   1.897   2.033
 4033SOL    HW112998   2.208   1.981   2.012
 4033SOL    HW212999   2.221   1.832   2.078
 4034SOL     OW13000   2.797   2.098   2.342
 4034SOL    HW113001   2.749   2.139   2.264
 4034SOL    HW213002   2.896   2.096   2.323
 4035SOL     OW13003   3.089   3.432   2.655
 4035SOL    HW113004   3.110   3.506   2.590
 4035SOL    HW213005   3.157   3.432   2.728
 4036SOL     OW13006   2.321   3.014   2.603
 4036SOL    HW113007   2.250   2.987   2.668
 4036SOL    HW213008   2.295   2.986   2.510
 4037SOL     OW13009   3.133   3.659   2.453
 4037SOL    HW113010   3.177   3.723   2.389
 4037SOL    HW213011   3.083   3.711   2.523
 4038SOL     OW13012   1.940   2.418   3.248
 4038SOL    HW113013   2.032   2.417   3.207
 4038SOL    HW213014   1.934   2.492   3.315
 4039SOL     OW13015   2.423   2.084   3.009
 4039SOL    HW113016   2.461   2.000   3.046
 4039SOL    HW213017   2.335   2.103   3.053
 4040SOL     OW13018   2.728   2.316   2.504
 4040SOL    HW113019   2.696   2.388   2.442
 4040SOL    HW213020   2.752   2.235   2.451
 4041SOL     OW13021   2.879   1.901   2.615
 4041SOL    HW113022   2.807   1.906   2.546
 4041SOL    HW213023   2.855   1.832   2.684
 4042SOL     OW13024   3.291   3.035   2.729
 4042SOL    HW113025   3.236   2.951   2.722
 4042SOL    HW213026   3.317   3.064   2.637
 4043SOL     OW13027   3.526   3.142   2.519
 4043SOL    HW113028   3.625   3.150   2.533
 4043SOL    HW213029   3.481   3.226   2.550
 4044SOL     OW13030   2.389   2.118   2.190
 4044SOL    HW113031   2.416   2.059   2.115
 4044SOL    HW213032   2.389   2.213   2.159
 4045SOL     OW13033   3.616   3.085   3.450
 4045SOL    HW113034   3.707   3.046   3.437
 4045SOL    HW213035   3.624   3.181   3.474
 4046SOL     OW13036   2.926   3.209   3.202
 4046SOL    HW113037   2.846   3.186   3.257
 4046SOL    HW213038   3.009   3.183   3.251
 4047SOL     OW13039   3.454   3.491   3.487
 4047SOL    HW113040   3.481   3.525   3.397
 4047SOL    HW213041   3.533   3.453   3.533
 4048SOL     OW13042   2.973   3.057   2.962
 4048SOL    HW113043   2.933   3.101   3.043
 4048SOL    HW213044   2.932   3.094   2.879
 4049SOL     OW13045   3.500   2.961   2.941
 4049SOL    HW113046   3.505   3.042   3.000
 4049SOL    HW213047   3.414   2.963   2.890
 4050SOL     OW13048   2.777   1.951   3.264
 4050SOL    HW113049   2.802   1.931   3.169
 4050SOL    HW213050   2.849   2.007   3.306
 4051SOL     OW13051   2.272   2.675   3.113
 4051SOL    HW113052   2.358   2.687   3.163
 4051SOL    HW213053   2.230   2.588   3.140
 4052SOL     OW13054   3.136   2.248   3.124
 4052SOL    HW113055   3.157   2.322   3.188
 4052SOL    HW213056   3.047   2.265   3.081
 4053SOL     OW13057   1.926   3.426   3.193
 4053SOL    HW113058   1.880   3.508   3.159
 4053SOL    HW213059   2.024   3.445   3.202
 4054SOL     OW13060   2.229   2.962   2.363
 4054SOL    HW113061   2.222   3.045   2.307
 4054SOL    HW213062   2.233   2.882   2.303
 4055SOL     OW13063   2.428   2.399   2.727
 4055SOL    HW113064   2.440   2.465   2.653
 4055SOL    HW213065   2.474   2.433   2.810
 4056SOL     OW13066   3.114   3.210   2.250
 4056SOL    HW113067   3.164   3.287   2.290
 4056SOL    HW213068   3.019   3.212   2.282
 4057SOL     OW13069   3.134   3.307   3.004
 4057SOL    HW113070   3.181   3.320   3.091
 4057SOL    HW213071   3.068   3.233   3.013
 4058SOL     OW13072   2.264   2.613   3.460
 4058SOL    HW113073   2.332   2.668   3.413
 4058SOL    HW213074   2.304   2.525   3.487
 4059SOL     OW13075   3.449   2.641   3.532
 4059SOL    HW113076   3.357   2.679   3.527
 4059SOL    HW213077   3.509   2.688   3.467
 4060SOL     OW13078   2.875   1.967   3.632
 4060SOL    HW113079   2.881   2.052   3.580
 4060SOL    HW213080   2.907   1.891   3.575
 4061SOL     OW13081   2.366   1.912   3.602
 4061SOL    HW113082   2.324   1.855   3.532
 4061SOL    HW213083   2.300   1.981   3.634
 4062SOL     OW13084   2.435   2.732   2.891
 4062SOL    HW113085   2.479   2.821   2.882
 4062SOL    HW213086   2.372   2.732   2.968
 4063SOL     OW13087   2.169   2.075   3.093
 4063SOL    HW113088   2.146   2.112   3.183
 4063SOL    HW213089   2.139   1.980   3.087
 4064SOL     OW13090   1.899   3.172   3.144
 4064SOL    HW113091   1.952   3.123   3.212
 4064SOL    HW213092   1.921   3.270   3.149
 4065SOL     OW13093   2.594   2.496   2.926
 4065SOL    HW113094   2.653   2.470   2.850
 4065SOL    HW213095   2.566   2.592   2.915
 4066SOL     OW13096   3.590   2.797   3.716
 4066SOL    HW113097   3.544   2.790   3.627
 4066SOL    HW213098   3.528   2.841   3.782
 4067SOL     OW13099   2.169   1.925   2.480
 4067SOL    HW113100   2.158   2.019   2.513
 4067SOL    HW213101   2.164   1.862   2.557
 4068SOL     OW13102   2.842   3.435   3.562
 4068SOL    HW113103   2.822   3.479   3.474
 4068SOL    HW213104   2.881   3.344   3.546
 4069SOL     OW13105   3.721   3.380   3.467
 4069SOL    HW113106   3.735   3.407   3.372
 4069SOL    HW213107   3.804   3.402   3.520
 4070SOL     OW13108   2.212   2.760   3.666
 4070SOL    HW113109   2.288   2.804   3.714
 4070SOL    HW213110   2.247   2.713   3.584
 4071SOL     OW13111   3.402   2.136   1.987
 4071SOL    HW113112   3.341   2.061   2.010
 4071SOL    HW213113   3.424   2.188   2.070
 4072SOL     OW13114   3.165   2.700   1.904
 4072SOL    HW113115   3.199   2.607   1.919
 4072SOL    HW213116   3.183   2.727   1.809
 4073SOL     OW13117   2.930   3.195   2.711
 4073SOL    HW113118   2.937   3.111   2.656
 4073SOL    HW213119   2.992   3.264   2.675
 4074SOL     OW13120   2.181   2.672   2.811
 4074SOL    HW113121   2.274   2.708   2.816
 4074SOL    HW213122   2.175   2.587   2.863
 4075SOL     OW13123   2.201   2.371   2.868
 4075SOL    HW113124   2.149   2.288   2.851
 4075SOL    HW213125   2.278   2.376   2.804
 4076SOL     OW13126   3.000   2.242   3.540
 4076SOL    HW113127   2.955   2.305   3.604
 4076SOL    HW213128   3.093   2.273   3.523
 4077SOL     OW13129   3.022   2.069   3.339
 4077SOL    HW113130   3.022   2.133   3.416
 4077SOL    HW213131   3.050   2.117   3.256
 4078SOL     OW13132   1.870   3.188   2.062
 4078SOL    HW113133   1.777   3.209   2.031
 4078SOL    HW213134   1.880   3.089   2.075
 4079SOL     OW13135   1.950   3.663   2.789
 4079SOL    HW113136   1.908   3.577   2.762
 4079SOL    HW213137   2.044   3.666   2.755
 4080SOL     OW13138   1.902   2.406   2.976
 4080SOL    HW113139   1.987   2.373   2.935
 4080SOL    HW213140   1.915   2.421   3.074
 4081SOL     OW13141   2.051   2.382   3.584
 4081SOL    HW113142   2.110   2.342   3.514
 4081SOL    HW213143   1.993   2.453   3.543
 4082SOL     OW13144   3.231   2.812   3.522
 4082SOL    HW113145   3.270   2.901   3.542
 4082SOL    HW213146   3.241   2.792   3.425
 4083SOL     OW13147   2.677   2.434   2.187
 4083SOL    HW113148   2.684   2.345   2.141
 4083SOL    HW213149   2.583   2.468   2.179
 4084SOL     OW13150   2.114   3.426   3.606
 4084SOL    HW113151   2.084   3.483   3.682
 4084SOL    HW213152   2.107   3.329   3.632
 4085SOL     OW13153   2.533   2.326   3.131
 4085SOL    HW113154   2.499   2.237   3.101
 4085SOL    HW213155   2.559   2.380   3.051
 4086SOL     OW13156   2.792   3.540   3.327
 4086SOL    HW113157   2.768   3.522   3.232
 4086SOL    HW213158   2.822   3.634   3.337
 4087SOL     OW13159   2.335   2.362   2.053
 4087SOL    HW113160   2.396   2.442   2.057
 4087SOL    HW213161   2.240   2.393   2.060
 4088SOL     OW13162   2.021   2.999   3.328
 4088SOL    HW113163   2.043   2.938   3.404
 4088SOL    HW213164   2.031   2.950   3.242
 4089SOL     OW13165   3.209   2.921   3.096
 4089SOL    HW113166   3.233   2.858   3.022
 4089SOL    HW213167   3.119   2.961   3.078
 4090SOL     OW13168   3.621   3.609   3.016
 4090SOL    HW113169   3.682   3.639   2.943
 4090SOL    HW213170   3.583   3.520   2.994
 4091SOL     OW13171   3.114   3.593   2.990
 4091SOL    HW113172   3.198   3.598   2.936
 4091SOL    HW213173   3.091   3.497   3.008
 4092SOL     OW13174   1.945   3.120   2.884
 4092SOL    HW113175   1.940   3.119   2.984
 4092SOL    HW213176   1.862   3.079   2.846
 4093SOL     OW13177   3.588   1.997   2.385
 4093SOL    HW113178   3.661   1.980   2.318
 4093SOL    HW213179   3.557   1.910   2.423
 4094SOL     OW13180   3.250   3.435   2.339
 4094SOL    HW113181   3.317   3.447   2.265
 4094SOL    HW213182   3.210   3.524   2.362
 4095SOL     OW13183   1.992   3.656   3.713
 4095SOL    HW113184   1.951   3.582   3.766
 4095SOL    HW213185   2.056   3.707   3.771
 4096SOL     OW13186   3.142   2.789   2.534
 4096SOL    HW113187   3.202   2.708   2.536
 4096SOL    HW213188   3.182   2.858   2.474
 4097SOL     OW13189   3.512   3.582   3.256
 4097SOL    HW113190   3.565   3.592   3.172
 4097SOL    HW213191   3.485   3.672   3.290
 4098SOL     OW13192   3.703   2.037   2.825
 4098SOL    HW113193   3.742   1.952   2.789
 4098SOL    HW213194   3.605   2.039   2.806
 4099SOL     OW13195   2.125   2.188   2.582
 4099SOL    HW113196   2.046   2.239   2.548
 4099SOL    HW213197   2.116   2.173   2.680
 4100SOL     OW13198   3.056   3.474   1.893
 4100SOL    HW113199   3.062   3.381   1.930
 4100SOL    HW213200   2.997   3.474   1.813
 4101SOL     OW13201   3.366   3.469   1.906
 4101SOL    HW113202   3.274   3.506   1.913
 4101SOL    HW213203   3.404   3.489   1.816
 4102SOL     OW13204   2.234   3.150   3.352
 4102SOL    HW113205   2.221   3.243   3.318
 4102SOL    HW213206   2.150   3.098   3.339
 4103SOL     OW13207   3.476   3.154   3.151
 4103SOL    HW113208   3.536   3.157   3.231
 4103SOL    HW213209   3.401   3.218   3.164
 4104SOL     OW13210   2.901   2.960   2.558
 4104SOL    HW113211   2.831   2.913   2.612
 4104SOL    HW213212   2.960   2.892   2.515
 4105SOL     OW13213   2.876   2.098   2.833
 4105SOL    HW113214   2.868   2.062   2.740
 4105SOL    HW213215   2.874   2.022   2.898
 4106SOL     OW13216   2.117   3.210   2.152
 4106SOL    HW113217   2.021   3.211   2.125
 4106SOL    HW213218   2.129   3.263   2.236
 4107SOL     OW13219   1.967   2.875   3.588
 4107SOL    HW113220   1.890   2.842   3.642
 4107SOL    HW213221   2.052   2.845   3.630
 4108SOL     OW13222   2.534   2.065   3.351
 4108SOL    HW113223   2.624   2.049   3.311
 4108SOL    HW213224   2.542   2.070   3.450
 4109SOL     OW13225   1.937   2.207   1.895
 4109SOL    HW113226   1.845   2.179   1.866
 4109SOL    HW213227   1.968   2.284   1.839
 4110SOL     OW13228   3.302   2.718   3.260
 4110SOL    HW113229   3.245   2.770   3.197
 4110SOL    HW213230   3.398   2.730   3.236
 4111SOL     OW13231   1.934   2.028   2.180
 4111SOL    HW113232   1.917   2.111   2.126
 4111SOL    HW213233   2.024   1.991   2.158
 4112SOL     OW13234   3.045   3.197   1.981
 4112SOL    HW113235   2.946   3.186   1.983
 4112SOL    HW213236   3.079   3.212   2.074
 4113SOL     OW13237   2.475   2.704   3.293
 4113SOL    HW113238   2.531   2.785   3.276
 4113SOL    HW213239   2.534   2.624   3.296
 4114SOL     OW13240   3.355   3.629   2.821
 4114SOL    HW113241   3.388   3.693   2.752
 4114SOL    HW213242   3.421   3.623   2.896
 4115SOL     OW13243   2.578   2.427   3.570
 4115SOL    HW113244   2.597   2.492   3.644
 4115SOL    HW213245   2.638   2.347   3.579
 4116SOL     OW13246   3.312   3.082   3.495
 4116SOL    HW113247   3.303   3.072   3.594
 4116SOL    HW213248   3.408   3.075   3.469
 4117SOL     OW13249   2.252   3.603   3.422
 4117SOL    HW113250   2.161   3.644   3.420
 4117SOL    HW213251   2.245   3.509   3.454
 4118SOL     OW13252   3.536   2.745   3.116
 4118SOL    HW113253   3.509   2.656   3.079
 4118SOL    HW213254   3.537   2.813   3.043
 4119SOL     OW13255   3.087   2.187   2.311
 4119SOL    HW113256   3.152   2.113   2.300
 4119SOL    HW213257   3.107   2.237   2.395
 4120SOL     OW13258   2.456   2.607   2.514
 4120SOL    HW113259   2.506   2.692   2.495
 4120SOL    HW213260   2.368   2.609   2.466
 4121SOL     OW13261   3.639   2.204   3.504
 4121SOL    HW113262   3.622   2.235   3.410
 4121SOL    HW213263   3.555   2.167   3.542
 4122SOL     OW13264   3.592   2.796   3.379
 4122SOL    HW113265   3.630   2.887   3.394
 4122SOL    HW213266   3.584   2.779   3.280
 4123SOL     OW13267   2.721   3.236   1.878
 4123SOL    HW113268   2.675   3.251   1.966
 4123SOL    HW213269   2.765   3.321   1.848
 4124SOL     OW13270   2.945   2.846   1.949
 4124SOL    HW113271   2.922   2.899   1.867
 4124SOL    HW213272   3.026   2.790   1.930
 4125SOL     OW13273   3.723   3.431   2.713
 4125SOL    HW113274   3.652   3.419   2.643
 4125SOL    HW213275   3.724   3.352   2.773
 4126SOL     OW13276   2.083   3.176   3.706
 4126SOL    HW113277   2.018   3.103   3.685
 4126SOL    HW213278   2.087   3.190   3.804
 4127SOL     OW13279   1.941   3.102   2.515
 4127SOL    HW113280   1.940   3.055   2.603
 4127SOL    HW213281   2.023   3.074   2.464
 4128SOL     OW13282   3.686   2.054   3.089
 4128SOL    HW113283   3.682   1.964   3.133
 4128SOL    HW213284   3.689   2.043   2.990
 4129SOL     OW13285   2.290   2.286   2.382
 4129SOL    HW113286   2.320   2.214   2.320
 4129SOL    HW213287   2.251   2.246   2.465
 4130SOL     OW13288   3.567   3.349   2.966
 4130SOL    HW113289   3.474   3.324   2.939
 4130SOL    HW213290   3.593   3.299   3.048
 4131SOL     OW13291   2.179   2.409   3.142
 4131SOL    HW113292   2.217   2.350   3.214
 4131SOL    HW213293   2.219   2.383   3.054
 4132SOL     OW13294   2.674   3.448   2.549
 4132SOL    HW113295   2.706   3.458   2.455
 4132SOL    HW213296   2.595   3.386   2.551
 4133SOL     OW13297   3.286   2.076   2.974
 4133SOL    HW113298   3.338   2.011   3.029
 4133SOL    HW213299   3.237   2.139   3.035
 4134SOL     OW13300   2.863   1.896   3.016
 4134SOL    HW113301   2.800   1.824   2.985
 4134SOL    HW213302   2.956   1.860   3.016
 4135SOL     OW13303   3.214   1.914   2.030
 4135SOL    HW113304   3.249   1.873   1.946
 4135SOL    HW213305   3.124   1.876   2.050
 4136SOL     OW13306   3.455   2.083   2.744
 4136SOL    HW113307   3.371   2.082   2.798
 4136SOL    HW213308   3.457   2.166   2.688
 4137SOL     OW13309   1.901   2.939   2.162
 4137SOL    HW113310   2.000   2.928   2.153
 4137SOL    HW213311   1.861   2.853   2.194
 4138SOL     OW13312   2.737   3.508   2.199
 4138SOL    HW113313   2.660   3.473   2.145
 4138SOL    HW213314   2.705   3.579   2.261
 4139SOL     OW13315   2.092   2.490   3.837
 4139SOL    HW113316   1.999   2.488   3.874
 4139SOL    HW213317   2.093   2.451   3.745
 4140SOL     OW13318   2.087   2.137   4.720
 4140SOL    HW113319   2.122   2.120   4.812
 4140SOL    HW213320   1.999   2.092   4.708
 4141SOL     OW13321   1.881   2.230   4.371
 4141SOL    HW113322   1.799   2.273   4.410
 4141SOL    HW213323   1.853   2.157   4.308
 4142SOL     OW13324   3.417   3.373   4.427
 4142SOL    HW113325   3.360   3.357   4.508
 4142SOL    HW213326   3.358   3.383   4.347
 4143SOL     OW13327   2.712   2.660   5.547
 4143SOL    HW113328   2.708   2.736   5.612
 4143SOL    HW213329   2.734   2.696   5.456
 4144SOL     OW13330   2.548   3.023   5.527
 4144SOL    HW113331   2.608   3.102   5.541
 4144SOL    HW213332   2.462   3.054   5.486
 4145SOL     OW13333   2.197   3.297   4.785
 4145SOL    HW113334   2.119   3.266   4.732
 4145SOL    HW213335   2.255   3.355   4.728
 4146SOL     OW13336   3.322   3.367   5.063
 4146SOL    HW113337   3.346   3.461   5.089
 4146SOL    HW213338   3.306   3.313   5.145
 4147SOL     OW13339   2.300   2.254   5.223
 4147SOL    HW113340   2.382   2.198   5.232
 4147SOL    HW213341   2.219   2.196   5.227
 4148SOL     OW13342   2.093   3.575   4.207
 4148SOL    HW113343   2.127   3.652   4.261
 4148SOL    HW213344   2.137   3.575   4.117
 4149SOL     OW13345   2.989   3.203   5.414
 4149SOL    HW113346   3.036   3.203   5.502
 4149SOL    HW213347   2.941   3.116   5.403
 4150SOL     OW13348   2.092   3.296   4.262
 4150SOL    HW113349   2.066   3.392   4.262
 4150SOL    HW213350   2.021   3.242   4.307
 4151SOL     OW13351   2.102   2.953   4.610
 4151SOL    HW113352   2.116   2.869   4.662
 4151SOL    HW213353   2.047   3.017   4.665
 4152SOL     OW13354   2.468   2.826   3.847
 4152SOL    HW113355   2.475   2.910   3.793
 4152SOL    HW213356   2.514   2.839   3.935
 4153SOL     OW13357   3.456   1.976   5.204
 4153SOL    HW113358   3.438   2.043   5.132
 4153SOL    HW213359   3.453   2.022   5.293
 4154SOL     OW13360   1.984   2.505   4.287
 4154SOL    HW113361   1.939   2.417   4.304
 4154SOL    HW213362   1.983   2.559   4.371
 4155SOL     OW13363   3.704   3.629   4.083
 4155SOL    HW113364   3.758   3.600   4.163
 4155SOL    HW213365   3.734   3.719   4.054
 4156SOL     OW13366   1.889   3.458   3.841
 4156SOL    HW113367   1.870   3.362   3.862
 4156SOL    HW213368   1.856   3.516   3.916
 4157SOL     OW13369   3.551   2.784   4.336
 4157SOL    HW113370   3.646   2.755   4.344
 4157SOL    HW213371   3.543   2.849   4.261
 4158SOL     OW13372   3.503   2.970   4.156
 4158SOL    HW113373   3.589   2.972   4.104
 4158SOL    HW213374   3.517   3.017   4.244
 4159SOL     OW13375   1.975   2.599   5.321
 4159SOL    HW113376   2.063   2.586   5.366
 4159SOL    HW213377   1.962   2.696   5.299
 4160SOL     OW13378   3.155   3.090   5.147
 4160SOL    HW113379   3.192   3.017   5.089
 4160SOL    HW213380   3.207   3.095   5.232
 4161SOL     OW13381   2.671   1.866   4.226
 4161SOL    HW113382   2.711   1.957   4.217
 4161SOL    HW213383   2.571   1.874   4.232
 4162SOL     OW13384   2.059   2.838   4.988
 4162SOL    HW113385   2.148   2.793   4.974
 4162SOL    HW213386   1.986   2.773   4.969
 4163SOL     OW13387   3.387   2.861   3.914
 4163SOL    HW113388   3.324   2.785   3.927
 4163SOL    HW213389   3.435   2.879   4.000
 4164SOL     OW13390   3.049   3.654   5.340
 4164SOL    HW113391   3.073   3.714   5.264
 4164SOL    HW213392   3.056   3.559   5.310
 4165SOL     OW13393   2.179   2.113   5.525
 4165SOL    HW113394   2.250   2.184   5.531
 4165SOL    HW213395   2.091   2.152   5.553
 4166SOL     OW13396   3.328   3.279   4.677
 4166SOL    HW113397   3.269   3.285   4.757
 4166SOL    HW213398   3.313   3.191   4.631
 4167SOL     OW13399   3.529   3.576   4.296
 4167SOL    HW113400   3.488   3.553   4.208
 4167SOL    HW213401   3.511   3.502   4.361
 4168SOL     OW13402   2.460   2.591   3.994
 4168SOL    HW113403   2.484   2.660   3.926
 4168SOL    HW213404   2.382   2.624   4.048
 4169SOL     OW13405   3.143   2.207   4.668
 4169SOL    HW113406   3.057   2.157   4.655
 4169SOL    HW213407   3.205   2.153   4.724
 4170SOL     OW13408   3.438   3.524   4.031
 4170SOL    HW113409   3.527   3.570   4.034
 4170SOL    HW213410   3.417   3.500   3.936
 4171SOL     OW13411   2.669   2.467   5.189
 4171SOL    HW113412   2.622   2.464   5.278
 4171SOL    HW213413   2.618   2.412   5.123
 4172SOL     OW13414   2.835   2.752   5.296
 4172SOL    HW113415   2.881   2.668   5.267
 4172SOL    HW213416   2.779   2.786   5.221
 4173SOL     OW13417   2.853   2.272   4.966
 4173SOL    HW113418   2.776   2.306   5.020
 4173SOL    HW213419   2.819   2.221   4.887
 4174SOL     OW13420   1.938   2.673   4.513
 4174SOL    HW113421   2.037   2.661   4.522
 4174SOL    HW213422   1.914   2.768   4.534
 4175SOL     OW13423   1.992   3.683   5.295
 4175SOL    HW113424   1.982   3.668   5.394
 4175SOL    HW213425   1.906   3.719   5.259
 4176SOL     OW13426   2.727   2.210   3.919
 4176SOL    HW113427   2.786   2.273   3.870
 4176SOL    HW213428   2.746   2.116   3.890
 4177SOL     OW13429   3.581   2.447   5.555
 4177SOL    HW113430   3.555   2.536   5.519
 4177SOL    HW213431   3.579   2.379   5.482
 4178SOL     OW13432   3.224   3.006   4.269
 4178SOL    HW113433   3.307   2.977   4.221
 4178SOL    HW213434   3.175   3.073   4.213
 4179SOL     OW13435   2.412   2.058   4.609
 4179SOL    HW113436   2.407   2.053   4.709
 4179SOL    HW213437   2.414   2.154   4.580
 4180SOL     OW13438   2.870   3.318   4.201
 4180SOL    HW113439   2.824   3.390   4.149
 4180SOL    HW213440   2.866   3.338   4.299
 4181SOL     OW13441   2.213   3.663   4.577
 4181SOL    HW113442   2.263   3.577   4.583
 4181SOL    HW213443   2.278   3.740   4.574
 4182SOL     OW13444   3.657   2.928   4.597
 4182SOL    HW113445   3.595   2.913   4.521
 4182SOL    HW213446   3.605   2.939   4.682
 4183SOL     OW13447   3.089   3.412   5.230
 4183SOL    HW113448   3.095   3.335   5.294
 4183SOL    HW213449   3.037   3.386   5.150
 4184SOL     OW13450   2.183   2.805   3.966
 4184SOL    HW113451   2.265   2.844   3.924
 4184SOL    HW213452   2.156   2.723   3.917
 4185SOL     OW13453   2.323   3.128   5.451
 4185SOL    HW113454   2.273   3.129   5.365
 4185SOL    HW213455   2.260   3.110   5.527
 4186SOL     OW13456   2.973   3.638   3.961
 4186SOL    HW113457   2.913   3.576   4.011
 4186SOL    HW213458   3.004   3.594   3.876
 4187SOL     OW13459   2.064   2.147   5.222
 4187SOL    HW113460   1.984   2.207   5.209
 4187SOL    HW213461   2.054   2.098   5.308
 4188SOL     OW13462   3.494   3.239   3.805
 4188SOL    HW113463   3.462   3.333   3.795
 4188SOL    HW213464   3.418   3.176   3.793
 4189SOL     OW13465   3.262   1.969   4.150
 4189SOL    HW113466   3.238   1.932   4.060
 4189SOL    HW213467   3.361   1.985   4.154
 4190SOL     OW13468   2.111   3.647   4.965
 4190SOL    HW113469   2.168   3.582   5.015
 4190SOL    HW213470   2.095   3.614   4.872
 4191SOL     OW13471   2.802   3.560   4.628
 4191SOL    HW113472   2.882   3.503   4.649
 4191SOL    HW213473   2.753   3.520   4.551
 4192SOL     OW13474   2.244   2.562   4.204
 4192SOL    HW113475   2.289   2.472   4.201
 4192SOL    HW213476   2.150   2.551   4.237
 4193SOL     OW13477   3.409   2.084   5.453
 4193SOL    HW113478   3.404   2.121   5.545
 4193SOL    HW213479   3.337   2.015   5.441
 4194SOL     OW13480   2.476   1.984   3.841
 4194SOL    HW113481   2.574   1.962   3.848
 4194SOL    HW213482   2.445   1.967   3.748
 4195SOL     OW13483   2.643   2.126   5.473
 4195SOL    HW113484   2.710   2.065   5.516
 4195SOL    HW213485   2.570   2.145   5.538
 4196SOL     OW13486   2.750   3.376   4.919
 4196SOL    HW113487   2.727   3.351   4.825
 4196SOL    HW213488   2.811   3.307   4.958
 4197SOL     OW13489   2.784   2.365   4.623
 4197SOL    HW113490   2.759   2.356   4.527
 4197SOL    HW213491   2.832   2.283   4.654
 4198SOL     OW13492   2.401   1.926   4.236
 4198SOL    HW113493   2.320   1.927   4.294
 4198SOL    HW213494   2.404   2.009   4.181
 4199SOL     OW13495   3.296   3.050   3.765
 4199SOL    HW113496   3.328   2.974   3.822
 4199SOL    HW213497   3.204   3.077   3.795
 4200SOL     OW13498   2.159   1.897   3.895
 4200SOL    HW113499   2.208   1.981   3.874
 4200SOL    HW213500   2.221   1.832   3.940
 4201SOL     OW13501   2.797   2.098   4.204
 4201SOL    HW113502   2.749   2.139   4.126
 4201SOL    HW213503   2.896   2.096   4.185
 4202SOL     OW13504   3.089   3.432   4.517
 4202SOL    HW113505   3.110   3.506   4.452
 4202SOL    HW213506   3.157   3.432   4.590
 4203SOL     OW13507   2.321   3.014   4.465
 4203SOL    HW113508   2.250   2.987   4.530
 4203SOL    HW213509   2.295   2.986   4.372
 4204SOL     OW13510   3.133   3.659   4.315
 4204SOL    HW113511   3.177   3.723   4.251
 4204SOL    HW213512   3.083   3.711   4.385
 4205SOL     OW13513   1.940   2.418   5.110
 4205SOL    HW113514   2.032   2.417   5.069
 4205SOL    HW213515   1.934   2.492   5.177
 4206SOL     OW13516   2.423   2.084   4.871
 4206SOL    HW113517   2.461   2.000   4.908
 4206SOL    HW213518   2.335   2.103   4.915
 4207SOL     OW13519   2.728   2.316   4.366
 4207SOL    HW113520   2.696   2.388   4.304
 4207SOL    HW213521   2.752   2.235   4.313
 4208SOL     OW13522   2.879   1.901   4.477
 4208SOL    HW113523   2.807   1.906   4.408
 4208SOL    HW213524   2.855   1.832   4.546
 4209SOL     OW13525   3.291   3.035   4.591
 4209SOL    HW113526   3.236   2.951   4.584
 4209SOL    HW213527   3.317   3.064   4.499
 4210SOL     OW13528   3.526   3.142   4.381
 4210SOL    HW113529   3.625   3.150   4.395
 4210SOL    HW213530   3.481   3.226   4.412
 4211SOL     OW13531   2.389   2.118   4.052
 4211SOL    HW113532   2.416   2.059   3.977
 4211SOL    HW213533   2.389   2.213   4.021
 4212SOL     OW13534   3.616   3.085   5.312
 4212SOL    HW113535   3.707   3.046   5.299
 4212SOL    HW213536   3.624   3.181   5.336
 4213SOL     OW13537   2.926   3.209   5.064
 4213SOL    HW113538   2.846   3.186   5.119
 4213SOL    HW213539   3.009   3.183   5.113
 4214SOL     OW13540   3.454   3.491   5.349
 4214SOL    HW113541   3.481   3.525   5.259
 4214SOL    HW213542   3.533   3.453   5.395
 4215SOL     OW13543   2.973   3.057   4.824
 4215SOL    HW113544   2.933   3.101   4.905
 4215SOL    HW213545   2.932   3.094   4.741
 4216SOL     OW13546   3.500   2.961   4.803
 4216SOL    HW113547   3.505   3.042   4.862
 4216SOL    HW213548   3.414   2.963   4.752
 4217SOL     OW13549   2.777   1.951   5.126
 4217SOL    HW113550   2.802   1.931   5.031
 4217SOL    HW213551   2.849   2.007   5.168
 4218SOL     OW13552   2.842   2.978   5.443
 4218SOL    HW113553   2.743   2.984   5.453
 4218SOL    HW213554   2.865   2.898   5.387
 4219SOL     OW13555   2.272   2.675   4.975
 4219SOL    HW113556   2.358   2.687   5.025
 4219SOL    HW213557   2.230   2.588   5.002
 4220SOL     OW13558   1.926   3.426   5.055
 4220SOL    HW113559   1.880   3.508   5.021
 4220SOL    HW213560   2.024   3.445   5.064
 4221SOL     OW13561   2.229   2.962   4.225
 4221SOL    HW113562   2.222   3.045   4.169
 4221SOL    HW213563   2.233   2.882   4.165
 4222SOL     OW13564   2.428   2.399   4.589
 4222SOL    HW113565   2.440   2.465   4.515
 4222SOL    HW213566   2.474   2.433   4.672
 4223SOL     OW13567   3.114   3.210   4.112
 4223SOL    HW113568   3.164   3.287   4.152
 4223SOL    HW213569   3.019   3.212   4.144
 4224SOL     OW13570   3.134   3.307   4.866
 4224SOL    HW113571   3.181   3.320   4.953
 4224SOL    HW213572   3.068   3.233   4.875
 4225SOL     OW13573   2.216   3.372   5.053
 4225SOL    HW113574   2.195   3.328   4.966
 4225SOL    HW213575   2.313   3.398   5.056
 4226SOL     OW13576   2.264   2.613   5.322
 4226SOL    HW113577   2.332   2.668   5.275
 4226SOL    HW213578   2.304   2.525   5.349
 4227SOL     OW13579   3.449   2.641   5.394
 4227SOL    HW113580   3.357   2.679   5.389
 4227SOL    HW213581   3.509   2.688   5.329
 4228SOL     OW13582   2.875   1.967   5.494
 4228SOL    HW113583   2.881   2.052   5.442
 4228SOL    HW213584   2.907   1.891   5.437
 4229SOL     OW13585   2.366   1.912   5.464
 4229SOL    HW113586   2.324   1.855   5.394
 4229SOL    HW213587   2.300   1.981   5.496
 4230SOL     OW13588   2.435   2.732   4.753
 4230SOL    HW113589   2.479   2.821   4.744
 4230SOL    HW213590   2.372   2.732   4.830
 4231SOL     OW13591   2.169   2.075   4.955
 4231SOL    HW113592   2.146   2.112   5.045
 4231SOL    HW213593   2.139   1.980   4.949
 4232SOL     OW13594   1.899   3.172   5.006
 4232SOL    HW113595   1.952   3.123   5.074
 4232SOL    HW213596   1.921   3.270   5.011
 4233SOL     OW13597   2.594   2.496   4.788
 4233SOL    HW113598   2.653   2.470   4.712
 4233SOL    HW213599   2.566   2.592   4.777
 4234SOL     OW13600   3.590   2.797   5.578
 4234SOL    HW113601   3.544   2.790   5.489
 4234SOL    HW213602   3.528   2.841   5.644
 4235SOL     OW13603   2.169   1.925   4.342
 4235SOL    HW113604   2.158   2.019   4.375
 4235SOL    HW213605   2.164   1.862   4.419
 4236SOL     OW13606   3.484   2.229   4.098
 4236SOL    HW113607   3.486   2.153   4.162
 4236SOL    HW213608   3.436   2.306   4.138
 4237SOL     OW13609   2.842   3.435   5.424
 4237SOL    HW113610   2.822   3.479   5.336
 4237SOL    HW213611   2.881   3.344   5.408
 4238SOL     OW13612   3.721   3.380   5.329
 4238SOL    HW113613   3.735   3.407   5.234
 4238SOL    HW213614   3.804   3.402   5.382
 4239SOL     OW13615   2.212   2.760   5.528
 4239SOL    HW113616   2.288   2.804   5.576
 4239SOL    HW213617   2.247   2.713   5.446
 4240SOL     OW13618   3.402   2.136   3.849
 4240SOL    HW113619   3.341   2.061   3.872
 4240SOL    HW213620   3.424   2.188   3.932
 4241SOL     OW13621   2.930   3.195   4.573
 4241SOL    HW113622   2.937   3.111   4.518
 4241SOL    HW213623   2.992   3.264   4.537
 4242SOL     OW13624   2.181   2.672   4.673
 4242SOL    HW113625   2.274   2.708   4.678
 4242SOL    HW213626   2.175   2.587   4.725
 4243SOL     OW13627   2.201   2.371   4.730
 4243SOL    HW113628   2.149   2.288   4.713
 4243SOL    HW213629   2.278   2.376   4.666
 4244SOL     OW13630   3.000   2.242   5.402
 4244SOL    HW113631   2.955   2.305   5.466
 4244SOL    HW213632   3.093   2.273   5.385
 4245SOL     OW13633   3.022   2.069   5.201
 4245SOL    HW113634   3.022   2.133   5.278
 4245SOL    HW213635   3.050   2.117   5.118
 4246SOL     OW13636   1.870   3.188   3.924
 4246SOL    HW113637   1.777   3.209   3.893
 4246SOL    HW213638   1.880   3.089   3.937
 4247SOL     OW13639   1.950   3.663   4.651
 4247SOL    HW113640   1.908   3.577   4.624
 4247SOL    HW213641   2.044   3.666   4.617
 4248SOL     OW13642   1.902   2.406   4.838
 4248SOL    HW113643   1.987   2.373   4.797
 4248SOL    HW213644   1.915   2.421   4.936
 4249SOL     OW13645   2.051   2.382   5.446
 4249SOL    HW113646   2.110   2.342   5.376
 4249SOL    HW213647   1.993   2.453   5.405
 4250SOL     OW13648   3.231   2.812   5.384
 4250SOL    HW113649   3.270   2.901   5.404
 4250SOL    HW213650   3.241   2.792   5.287
 4251SOL     OW13651   2.677   2.434   4.049
 4251SOL    HW113652   2.684   2.345   4.003
 4251SOL    HW213653   2.583   2.468   4.041
 4252SOL     OW13654   2.114   3.426   5.468
 4252SOL    HW113655   2.084   3.483   5.544
 4252SOL    HW213656   2.107   3.329   5.494
 4253SOL     OW13657   2.533   2.326   4.993
 4253SOL    HW113658   2.499   2.237   4.963
 4253SOL    HW213659   2.559   2.380   4.913
 4254SOL     OW13660   2.792   3.540   5.189
 4254SOL    HW113661   2.768   3.522   5.094
 4254SOL    HW213662   2.822   3.634   5.199
 4255SOL     OW13663   2.335   2.362   3.915
 4255SOL    HW113664   2.396   2.442   3.919
 4255SOL    HW213665   2.240   2.393   3.922
 4256SOL     OW13666   2.021   2.999   5.190
 4256SOL    HW113667   2.043   2.938   5.266
 4256SOL    HW213668   2.031   2.950   5.104
 4257SOL     OW13669   3.209   2.921   4.958
 4257SOL    HW113670   3.233   2.858   4.884
 4257SOL    HW213671   3.119   2.961   4.940
 4258SOL     OW13672   3.621   3.609   4.878
 4258SOL    HW113673   3.682   3.639   4.805
 4258SOL    HW213674   3.583   3.520   4.856
 4259SOL     OW13675   3.114   3.593   4.852
 4259SOL    HW113676   3.198   3.598   4.798
 4259SOL    HW213677   3.091   3.497   4.870
 4260SOL     OW13678   1.945   3.120   4.746
 4260SOL    HW113679   1.940   3.119   4.846
 4260SOL    HW213680   1.862   3.079   4.708
 4261SOL     OW13681   2.550   3.524   5.440
 4261SOL    HW113682   2.494   3.605   5.449
 4261SOL    HW213683   2.602   3.528   5.354
 4262SOL     OW13684   3.588   1.997   4.247
 4262SOL    HW113685   3.661   1.980   4.180
 4262SOL    HW213686   3.557   1.910   4.285
 4263SOL     OW13687   3.250   3.435   4.201
 4263SOL    HW113688   3.317   3.447   4.127
 4263SOL    HW213689   3.210   3.524   4.224
 4264SOL     OW13690   1.992   3.656   5.575
 4264SOL    HW113691   1.951   3.582   5.628
 4264SOL    HW213692   2.056   3.707   5.633
 4265SOL     OW13693   3.142   2.789   4.396
 4265SOL    HW113694   3.202   2.708   4.398
 4265SOL    HW213695   3.182   2.858   4.336
 4266SOL     OW13696   3.512   3.582   5.118
 4266SOL    HW113697   3.565   3.592   5.034
 4266SOL    HW213698   3.485   3.672   5.152
 4267SOL     OW13699   3.703   2.037   4.687
 4267SOL    HW113700   3.742   1.952   4.651
 4267SOL    HW213701   3.605   2.039   4.668
 4268SOL     OW13702   2.125   2.188   4.444
 4268SOL    HW113703   2.046   2.239   4.410
 4268SOL    HW213704   2.116   2.173   4.542
 4269SOL     OW13705   3.056   3.474   3.755
 4269SOL    HW113706   3.062   3.381   3.792
 4269SOL    HW213707   2.997   3.474   3.675
 4270SOL     OW13708   3.366   3.469   3.768
 4270SOL    HW113709   3.274   3.506   3.775
 4270SOL    HW213710   3.404   3.489   3.678
 4271SOL     OW13711   2.234   3.150   5.214
 4271SOL    HW113712   2.221   3.243   5.180
 4271SOL    HW213713   2.150   3.098   5.201
 4272SOL     OW13714   3.476   3.154   5.013
 4272SOL    HW113715   3.536   3.157   5.093
 4272SOL    HW213716   3.401   3.218   5.026
 4273SOL     OW13717   2.876   2.098   4.695
 4273SOL    HW113718   2.868   2.062   4.602
 4273SOL    HW213719   2.874   2.022   4.760
 4274SOL     OW13720   3.571   2.247   5.105
 4274SOL    HW113721   3.644   2.316   5.109
 4274SOL    HW213722   3.599   2.172   5.046
 4275SOL     OW13723   2.117   3.210   4.014
 4275SOL    HW113724   2.021   3.211   3.987
 4275SOL    HW213725   2.129   3.263   4.098
 4276SOL     OW13726   1.967   2.875   5.450
 4276SOL    HW113727   1.890   2.842   5.504
 4276SOL    HW213728   2.052   2.845   5.492
 4277SOL     OW13729   2.534   2.065   5.213
 4277SOL    HW113730   2.624   2.049   5.173
 4277SOL    HW213731   2.542   2.070   5.312
 4278SOL     OW13732   1.937   2.207   3.757
 4278SOL    HW113733   1.845   2.179   3.728
 4278SOL    HW213734   1.968   2.284   3.701
 4279SOL     OW13735   3.302   2.718   5.122
 4279SOL    HW113736   3.245   2.770   5.059
 4279SOL    HW213737   3.398   2.730   5.098
 4280SOL     OW13738   1.934   2.028   4.042
 4280SOL    HW113739   1.917   2.111   3.988
 4280SOL    HW213740   2.024   1.991   4.020
 4281SOL     OW13741   3.045   3.197   3.843
 4281SOL    HW113742   2.946   3.186   3.845
 4281SOL    HW213743   3.079   3.212   3.936
 4282SOL     OW13744   2.475   2.704   5.155
 4282SOL    HW113745   2.531   2.785   5.138
 4282SOL    HW213746   2.534   2.624   5.158
 4283SOL     OW13747   3.355   3.629   4.683
 4283SOL    HW113748   3.388   3.693   4.614
 4283SOL    HW213749   3.421   3.623   4.758
 4284SOL     OW13750   2.578   2.427   5.432
 4284SOL    HW113751   2.597   2.492   5.506
 4284SOL    HW213752   2.638   2.347   5.441
 4285SOL     OW13753   3.312   3.082   5.357
 4285SOL    HW113754   3.303   3.072   5.456
 4285SOL    HW213755   3.408   3.075   5.331
 4286SOL     OW13756   2.252   3.603   5.284
 4286SOL    HW113757   2.161   3.644   5.282
 4286SOL    HW213758   2.245   3.509   5.316
 4287SOL     OW13759   3.536   2.745   4.978
 4287SOL    HW113760   3.509   2.656   4.941
 4287SOL    HW213761   3.537   2.813   4.905
 4288SOL     OW13762   3.087   2.187   4.173
 4288SOL    HW113763   3.152   2.113   4.162
 4288SOL    HW213764   3.107   2.237   4.257
 4289SOL     OW13765   2.456   2.607   4.376
 4289SOL    HW113766   2.506   2.692   4.357
 4289SOL    HW213767   2.368   2.609   4.328
 4290SOL     OW13768   3.639   2.204   5.366
 4290SOL    HW113769   3.622   2.235   5.272
 4290SOL    HW213770   3.555   2.167   5.404
 4291SOL     OW13771   3.592   2.796   5.241
 4291SOL    HW113772   3.630   2.887   5.256
 4291SOL    HW213773   3.584   2.779   5.142
 4292SOL     OW13774   2.721   3.236   3.740
 4292SOL    HW113775   2.675   3.251   3.828
 4292SOL    HW213776   2.765   3.321   3.710
 4293SOL     OW13777   2.945   2.846   3.811
 4293SOL    HW113778   2.922   2.899   3.729
 4293SOL    HW213779   3.026   2.790   3.792
 4294SOL     OW13780   3.723   3.431   4.575
 4294SOL    HW113781   3.652   3.419   4.505
 4294SOL    HW213782   3.724   3.352   4.635
 4295SOL     OW13783   2.083   3.176   5.568
 4295SOL    HW113784   2.018   3.103   5.547
 4295SOL    HW213785   2.087   3.190   5.666
 4296SOL     OW13786   1.941   3.102   4.377
 4296SOL    HW113787   1.940   3.055   4.465
 4296SOL    HW213788   2.023   3.074   4.326
 4297SOL     OW13789   2.534   3.253   5.348
 4297SOL    HW113790   2.456   3.203   5.386
 4297SOL    HW213791   2.531   3.348   5.379
 4298SOL     OW13792   3.686   2.054   4.951
 4298SOL    HW113793   3.682   1.964   4.995
 4298SOL    HW213794   3.689   2.043   4.852
 4299SOL     OW13795   2.290   2.286   4.244
 4299SOL    HW113796   2.320   2.214   4.182
 4299SOL    HW213797   2.251   2.246   4.327
 4300SOL     OW13798   3.567   3.349   4.828
 4300SOL    HW113799   3.474   3.324   4.801
 4300SOL    HW213800   3.593   3.299   4.910
 4301SOL     OW13801   2.179   2.409   5.004
 4301SOL    HW113802   2.217   2.350   5.076
 4301SOL    HW213803   2.219   2.383   4.916
 4302SOL     OW13804   3.286   2.076   4.836
 4302SOL    HW113805   3.338   2.011   4.891
 4302SOL    HW213806   3.237   2.139   4.897
 4303SOL     OW13807   2.863   1.896   4.878
 4303SOL    HW113808   2.800   1.824   4.847
 4303SOL    HW213809   2.956   1.860   4.878
 4304SOL     OW13810   3.214   1.914   3.892
 4304SOL    HW113811   3.249   1.873   3.808
 4304SOL    HW213812   3.124   1.876   3.912
 4305SOL     OW13813   3.162   2.315   4.415
 4305SOL    HW113814   3.103   2.395   4.419
 4305SOL    HW213815   3.177   2.280   4.508
 4306SOL     OW13816   3.455   2.083   4.606
 4306SOL    HW113817   3.371   2.082   4.660
 4306SOL    HW213818   3.457   2.166   4.550
 4307SOL     OW13819   1.901   2.939   4.024
 4307SOL    HW113820   2.000   2.928   4.015
 4307SOL    HW213821   1.861   2.853   4.056
 4308SOL     OW13822   2.737   3.508   4.061
 4308SOL    HW113823   2.660   3.473   4.007
 4308SOL    HW213824   2.705   3.579   4.123
 4309SOL     OW13825   2.092   2.490   5.699
 4309SOL    HW113826   1.999   2.488   5.736
 4309SOL    HW213827   2.093   2.451   5.607
 4310SOL     OW13828   2.087   2.137   6.582
 4310SOL    HW113829   2.122   2.120   6.674
 4310SOL    HW213830   1.999   2.092   6.570
 4311SOL     OW13831   1.881   2.230   6.233
 4311SOL    HW113832   1.799   2.273   6.272
 4311SOL    HW213833   1.853   2.157   6.170
 4312SOL     OW13834   2.431   3.137   6.751
 4312SOL    HW113835   2.338   3.130   6.714
 4312SOL    HW213836   2.442   3.226   6.795
 4313SOL     OW13837   3.417   3.373   6.289
 4313SOL    HW113838   3.360   3.357   6.370
 4313SOL    HW213839   3.358   3.383   6.209
 4314SOL     OW13840   2.997   2.565   6.303
 4314SOL    HW113841   3.054   2.643   6.278
 4314SOL    HW213842   2.937   2.591   6.379
 4315SOL     OW13843   3.617   2.469   5.817
 4315SOL    HW113844   3.605   2.456   5.718
 4315SOL    HW213845   3.587   2.388   5.866
 4316SOL     OW13846   2.630   3.006   6.609
 4316SOL    HW113847   2.552   3.023   6.669
 4316SOL    HW213848   2.664   3.093   6.573
 4317SOL     OW13849   2.547   2.874   6.251
 4317SOL    HW113850   2.616   2.858   6.321
 4317SOL    HW213851   2.474   2.931   6.289
 4318SOL     OW13852   2.197   3.297   6.647
 4318SOL    HW113853   2.119   3.266   6.594
 4318SOL    HW213854   2.255   3.355   6.590
 4319SOL     OW13855   3.465   2.309   6.323
 4319SOL    HW113856   3.391   2.355   6.273
 4319SOL    HW213857   3.516   2.377   6.376
 4320SOL     OW13858   2.093   3.575   6.069
 4320SOL    HW113859   2.127   3.652   6.123
 4320SOL    HW213860   2.137   3.575   5.979
 4321SOL     OW13861   2.092   3.296   6.124
 4321SOL    HW113862   2.066   3.392   6.124
 4321SOL    HW213863   2.021   3.242   6.169
 4322SOL     OW13864   2.102   2.953   6.472
 4322SOL    HW113865   2.116   2.869   6.524
 4322SOL    HW213866   2.047   3.017   6.527
 4323SOL     OW13867   2.482   3.648   7.025
 4323SOL    HW113868   2.390   3.631   7.060
 4323SOL    HW213869   2.510   3.740   7.051
 4324SOL     OW13870   2.468   2.826   5.709
 4324SOL    HW113871   2.475   2.910   5.655
 4324SOL    HW213872   2.514   2.839   5.797
 4325SOL     OW13873   1.984   2.505   6.149
 4325SOL    HW113874   1.939   2.417   6.166
 4325SOL    HW213875   1.983   2.559   6.233
 4326SOL     OW13876   3.704   3.629   5.945
 4326SOL    HW113877   3.758   3.600   6.025
 4326SOL    HW213878   3.734   3.719   5.916
 4327SOL     OW13879   1.889   3.458   5.703
 4327SOL    HW113880   1.870   3.362   5.724
 4327SOL    HW213881   1.856   3.516   5.778
 4328SOL     OW13882   3.551   2.784   6.198
 4328SOL    HW113883   3.646   2.755   6.206
 4328SOL    HW213884   3.543   2.849   6.123
 4329SOL     OW13885   3.503   2.970   6.018
 4329SOL    HW113886   3.589   2.972   5.966
 4329SOL    HW213887   3.517   3.017   6.106
 4330SOL     OW13888   2.475   3.227   6.312
 4330SOL    HW113889   2.426   3.140   6.321
 4330SOL    HW213890   2.452   3.270   6.225
 4331SOL     OW13891   2.671   1.866   6.088
 4331SOL    HW113892   2.711   1.957   6.079
 4331SOL    HW213893   2.571   1.874   6.094
 4332SOL     OW13894   2.059   2.838   6.850
 4332SOL    HW113895   2.148   2.793   6.836
 4332SOL    HW213896   1.986   2.773   6.831
 4333SOL     OW13897   3.387   2.861   5.776
 4333SOL    HW113898   3.324   2.785   5.789
 4333SOL    HW213899   3.435   2.879   5.862
 4334SOL     OW13900   3.328   3.279   6.539
 4334SOL    HW113901   3.269   3.285   6.619
 4334SOL    HW213902   3.313   3.191   6.493
 4335SOL     OW13903   3.529   3.576   6.158
 4335SOL    HW113904   3.488   3.553   6.070
 4335SOL    HW213905   3.511   3.502   6.223
 4336SOL     OW13906   2.460   2.591   5.856
 4336SOL    HW113907   2.484   2.660   5.788
 4336SOL    HW213908   2.382   2.624   5.910
 4337SOL     OW13909   3.143   2.207   6.530
 4337SOL    HW113910   3.057   2.157   6.517
 4337SOL    HW213911   3.205   2.153   6.586
 4338SOL     OW13912   3.438   3.524   5.893
 4338SOL    HW113913   3.527   3.570   5.896
 4338SOL    HW213914   3.417   3.500   5.798
 4339SOL     OW13915   2.669   2.467   7.051
 4339SOL    HW113916   2.622   2.464   7.140
 4339SOL    HW213917   2.618   2.412   6.985
 4340SOL     OW13918   2.853   2.272   6.828
 4340SOL    HW113919   2.776   2.306   6.882
 4340SOL    HW213920   2.819   2.221   6.749
 4341SOL     OW13921   2.903   2.563   6.015
 4341SOL    HW113922   2.929   2.559   6.111
 4341SOL    HW213923   2.818   2.512   6.001
 4342SOL     OW13924   1.938   2.673   6.375
 4342SOL    HW113925   2.037   2.661   6.384
 4342SOL    HW213926   1.914   2.768   6.396
 4343SOL     OW13927   1.992   3.683   7.157
 4343SOL    HW113928   1.982   3.668   7.256
 4343SOL    HW213929   1.906   3.719   7.121
 4344SOL     OW13930   2.727   2.210   5.781
 4344SOL    HW113931   2.786   2.273   5.732
 4344SOL    HW213932   2.746   2.116   5.752
 4345SOL     OW13933   3.224   3.006   6.131
 4345SOL    HW113934   3.307   2.977   6.083
 4345SOL    HW213935   3.175   3.073   6.075
 4346SOL     OW13936   2.412   2.058   6.471
 4346SOL    HW113937   2.407   2.053   6.571
 4346SOL    HW213938   2.414   2.154   6.442
 4347SOL     OW13939   2.870   3.318   6.063
 4347SOL    HW113940   2.824   3.390   6.011
 4347SOL    HW213941   2.866   3.338   6.161
 4348SOL     OW13942   2.213   3.663   6.439
 4348SOL    HW113943   2.263   3.577   6.445
 4348SOL    HW213944   2.278   3.740   6.436
 4349SOL     OW13945   3.657   2.928   6.459
 4349SOL    HW113946   3.595   2.913   6.383
 4349SOL    HW213947   3.605   2.939   6.544
 4350SOL     OW13948   2.183   2.805   5.828
 4350SOL    HW113949   2.265   2.844   5.786
 4350SOL    HW213950   2.156   2.723   5.779
 4351SOL     OW13951   3.320   2.597   6.314
 4351SOL    HW113952   3.315   2.532   6.389
 4351SOL    HW213953   3.400   2.656   6.327
 4352SOL     OW13954   2.973   3.638   5.823
 4352SOL    HW113955   2.913   3.576   5.873
 4352SOL    HW213956   3.004   3.594   5.738
 4353SOL     OW13957   3.494   3.239   5.667
 4353SOL    HW113958   3.462   3.333   5.657
 4353SOL    HW213959   3.418   3.176   5.655
 4354SOL     OW13960   2.326   3.605   5.909
 4354SOL    HW113961   2.359   3.644   5.995
 4354SOL    HW213962   2.402   3.598   5.844
 4355SOL     OW13963   3.262   1.969   6.012
 4355SOL    HW113964   3.238   1.932   5.922
 4355SOL    HW213965   3.361   1.985   6.016
 4356SOL     OW13966   2.111   3.647   6.827
 4356SOL    HW113967   2.168   3.582   6.877
 4356SOL    HW213968   2.095   3.614   6.734
 4357SOL     OW13969   2.802   3.560   6.490
 4357SOL    HW113970   2.882   3.503   6.511
 4357SOL    HW213971   2.753   3.520   6.413
 4358SOL     OW13972   2.244   2.562   6.066
 4358SOL    HW113973   2.289   2.472   6.063
 4358SOL    HW213974   2.150   2.551   6.099
 4359SOL     OW13975   2.476   1.984   5.703
 4359SOL    HW113976   2.574   1.962   5.710
 4359SOL    HW213977   2.445   1.967   5.610
 4360SOL     OW13978   2.750   3.376   6.781
 4360SOL    HW113979   2.727   3.351   6.687
 4360SOL    HW213980   2.811   3.307   6.820
 4361SOL     OW13981   2.665   3.264   6.510
 4361SOL    HW113982   2.755   3.278   6.468
 4361SOL    HW213983   2.594   3.266   6.439
 4362SOL     OW13984   2.784   2.365   6.485
 4362SOL    HW113985   2.759   2.356   6.389
 4362SOL    HW213986   2.832   2.283   6.516
 4363SOL     OW13987   2.401   1.926   6.098
 4363SOL    HW113988   2.320   1.927   6.156
 4363SOL    HW213989   2.404   2.009   6.043
 4364SOL     OW13990   3.296   3.050   5.627
 4364SOL    HW113991   3.328   2.974   5.684
 4364SOL    HW213992   3.204   3.077   5.657
 4365SOL     OW13993   2.159   1.897   5.757
 4365SOL    HW113994   2.208   1.981   5.736
 4365SOL    HW213995   2.221   1.832   5.802
 4366SOL     OW13996   2.797   2.098   6.066
 4366SOL    HW113997   2.749   2.139   5.988
 4366SOL    HW213998   2.896   2.096   6.047
 4367SOL     OW13999   3.089   3.432   6.379
 4367SOL    HW114000   3.110   3.506   6.314
 4367SOL    HW214001   3.157   3.432   6.452
 4368SOL     OW14002   2.321   3.014   6.327
 4368SOL    HW114003   2.250   2.987   6.392
 4368SOL    HW214004   2.295   2.986   6.234
 4369SOL     OW14005   3.133   3.659   6.177
 4369SOL    HW114006   3.177   3.723   6.113
 4369SOL    HW214007   3.083   3.711   6.247
 4370SOL     OW14008   2.894   2.411   5.602
 4370SOL    HW114009   2.853   2.493   5.563
 4370SOL    HW214010   2.958   2.437   5.675
 4371SOL     OW14011   2.423   2.084   6.733
 4371SOL    HW114012   2.461   2.000   6.770
 4371SOL    HW214013   2.335   2.103   6.777
 4372SOL     OW14014   2.728   2.316   6.228
 4372SOL    HW114015   2.696   2.388   6.166
 4372SOL    HW214016   2.752   2.235   6.175
 4373SOL     OW14017   2.879   1.901   6.339
 4373SOL    HW114018   2.807   1.906   6.270
 4373SOL    HW214019   2.855   1.832   6.408
 4374SOL     OW14020   3.291   3.035   6.453
 4374SOL    HW114021   3.236   2.951   6.446
 4374SOL    HW214022   3.317   3.064   6.361
 4375SOL     OW14023   3.328   2.452   6.578
 4375SOL    HW114024   3.298   2.357   6.585
 4375SOL    HW214025   3.401   2.468   6.644
 4376SOL     OW14026   3.719   2.695   5.963
 4376SOL    HW114027   3.761   2.631   6.027
 4376SOL    HW214028   3.681   2.644   5.885
 4377SOL     OW14029   2.350   3.247   5.760
 4377SOL    HW114030   2.263   3.232   5.807
 4377SOL    HW214031   2.333   3.273   5.665
 4378SOL     OW14032   3.526   3.142   6.243
 4378SOL    HW114033   3.625   3.150   6.257
 4378SOL    HW214034   3.481   3.226   6.274
 4379SOL     OW14035   3.252   2.437   5.664
 4379SOL    HW114036   3.198   2.416   5.745
 4379SOL    HW214037   3.343   2.396   5.673
 4380SOL     OW14038   2.389   2.118   5.914
 4380SOL    HW114039   2.416   2.059   5.839
 4380SOL    HW214040   2.389   2.213   5.883
 4381SOL     OW14041   3.616   3.085   7.174
 4381SOL    HW114042   3.707   3.046   7.161
 4381SOL    HW214043   3.624   3.181   7.198
 4382SOL     OW14044   2.973   3.057   6.686
 4382SOL    HW114045   2.933   3.101   6.767
 4382SOL    HW214046   2.932   3.094   6.603
 4383SOL     OW14047   3.500   2.961   6.665
 4383SOL    HW114048   3.505   3.042   6.724
 4383SOL    HW214049   3.414   2.963   6.614
 4384SOL     OW14050   2.567   2.912   5.954
 4384SOL    HW114051   2.553   2.919   6.053
 4384SOL    HW214052   2.651   2.861   5.936
 4385SOL     OW14053   2.272   2.675   6.837
 4385SOL    HW114054   2.358   2.687   6.887
 4385SOL    HW214055   2.230   2.588   6.864
 4386SOL     OW14056   3.136   2.248   6.848
 4386SOL    HW114057   3.157   2.322   6.912
 4386SOL    HW214058   3.047   2.265   6.805
 4387SOL     OW14059   1.926   3.426   6.917
 4387SOL    HW114060   1.880   3.508   6.883
 4387SOL    HW214061   2.024   3.445   6.926
 4388SOL     OW14062   2.229   2.962   6.087
 4388SOL    HW114063   2.222   3.045   6.031
 4388SOL    HW214064   2.233   2.882   6.027
 4389SOL     OW14065   2.428   2.399   6.451
 4389SOL    HW114066   2.440   2.465   6.377
 4389SOL    HW214067   2.474   2.433   6.534
 4390SOL     OW14068   3.114   3.210   5.974
 4390SOL    HW114069   3.164   3.287   6.014
 4390SOL    HW214070   3.019   3.212   6.006
 4391SOL     OW14071   3.134   3.307   6.728
 4391SOL    HW114072   3.181   3.320   6.815
 4391SOL    HW214073   3.068   3.233   6.737
 4392SOL     OW14074   3.444   2.501   6.058
 4392SOL    HW114075   3.413   2.562   6.131
 4392SOL    HW214076   3.494   2.553   5.989
 4393SOL     OW14077   2.216   3.372   6.915
 4393SOL    HW114078   2.195   3.328   6.828
 4393SOL    HW214079   2.313   3.398   6.918
 4394SOL     OW14080   2.435   2.732   6.615
 4394SOL    HW114081   2.479   2.821   6.606
 4394SOL    HW214082   2.372   2.732   6.692
 4395SOL     OW14083   3.222   2.724   6.631
 4395SOL    HW114084   3.147   2.724   6.565
 4395SOL    HW214085   3.259   2.632   6.640
 4396SOL     OW14086   3.071   2.387   5.861
 4396SOL    HW114087   3.084   2.303   5.915
 4396SOL    HW214088   3.042   2.461   5.921
 4397SOL     OW14089   2.169   2.075   6.817
 4397SOL    HW114090   2.146   2.112   6.907
 4397SOL    HW214091   2.139   1.980   6.811
 4398SOL     OW14092   1.899   3.172   6.868
 4398SOL    HW114093   1.952   3.123   6.936
 4398SOL    HW214094   1.921   3.270   6.873
 4399SOL     OW14095   2.594   2.496   6.650
 4399SOL    HW114096   2.653   2.470   6.574
 4399SOL    HW214097   2.566   2.592   6.639
 4400SOL     OW14098   2.169   1.925   6.204
 4400SOL    HW114099   2.158   2.019   6.237
 4400SOL    HW214100   2.164   1.862   6.281
 4401SOL     OW14101   3.484   2.229   5.960
 4401SOL    HW114102   3.486   2.153   6.024
 4401SOL    HW214103   3.436   2.306   6.000
 4402SOL     OW14104   2.885   2.628   6.552
 4402SOL    HW114105   2.900   2.649   6.648
 4402SOL    HW214106   2.855   2.533   6.543
 4403SOL     OW14107   3.402   2.136   5.711
 4403SOL    HW114108   3.341   2.061   5.734
 4403SOL    HW214109   3.424   2.188   5.794
 4404SOL     OW14110   3.165   2.700   5.628
 4404SOL    HW114111   3.199   2.607   5.643
 4404SOL    HW214112   3.183   2.727   5.533
 4405SOL     OW14113   2.930   3.195   6.435
 4405SOL    HW114114   2.937   3.111   6.380
 4405SOL    HW214115   2.992   3.264   6.399
 4406SOL     OW14116   2.181   2.672   6.535
 4406SOL    HW114117   2.274   2.708   6.540
 4406SOL    HW214118   2.175   2.587   6.587
 4407SOL     OW14119   2.201   2.371   6.592
 4407SOL    HW114120   2.149   2.288   6.575
 4407SOL    HW214121   2.278   2.376   6.528
 4408SOL     OW14122   3.022   2.069   7.063
 4408SOL    HW114123   3.022   2.133   7.140
 4408SOL    HW214124   3.050   2.117   6.980
 4409SOL     OW14125   1.870   3.188   5.786
 4409SOL    HW114126   1.777   3.209   5.755
 4409SOL    HW214127   1.880   3.089   5.799
 4410SOL     OW14128   1.950   3.663   6.513
 4410SOL    HW114129   1.908   3.577   6.486
 4410SOL    HW214130   2.044   3.666   6.479
 4411SOL     OW14131   2.366   3.430   6.496
 4411SOL    HW114132   2.432   3.504   6.505
 4411SOL    HW214133   2.410   3.351   6.454
 4412SOL     OW14134   2.864   2.658   6.824
 4412SOL    HW114135   2.905   2.626   6.910
 4412SOL    HW214136   2.768   2.631   6.821
 4413SOL     OW14137   1.902   2.406   6.700
 4413SOL    HW114138   1.987   2.373   6.659
 4413SOL    HW214139   1.915   2.421   6.798
 4414SOL     OW14140   2.677   2.434   5.911
 4414SOL    HW114141   2.684   2.345   5.865
 4414SOL    HW214142   2.583   2.468   5.903
 4415SOL     OW14143   3.519   2.466   6.792
 4415SOL    HW114144   3.481   2.397   6.854
 4415SOL    HW214145   3.601   2.430   6.748
 4416SOL     OW14146   2.533   2.326   6.855
 4416SOL    HW114147   2.499   2.237   6.825
 4416SOL    HW214148   2.559   2.380   6.775
 4417SOL     OW14149   2.792   3.540   7.051
 4417SOL    HW114150   2.768   3.522   6.956
 4417SOL    HW214151   2.822   3.634   7.061
 4418SOL     OW14152   2.335   2.362   5.777
 4418SOL    HW114153   2.396   2.442   5.781
 4418SOL    HW214154   2.240   2.393   5.784
 4419SOL     OW14155   2.021   2.999   7.052
 4419SOL    HW114156   2.043   2.938   7.128
 4419SOL    HW214157   2.031   2.950   6.966
 4420SOL     OW14158   3.209   2.921   6.820
 4420SOL    HW114159   3.233   2.858   6.746
 4420SOL    HW214160   3.119   2.961   6.802
 4421SOL     OW14161   3.164   2.717   5.895
 4421SOL    HW114162   3.078   2.686   5.937
 4421SOL    HW214163   3.160   2.703   5.796
 4422SOL     OW14164   3.621   3.609   6.740
 4422SOL    HW114165   3.682   3.639   6.667
 4422SOL    HW214166   3.583   3.520   6.718
 4423SOL     OW14167   3.114   3.593   6.714
 4423SOL    HW114168   3.198   3.598   6.660
 4423SOL    HW214169   3.091   3.497   6.732
 4424SOL     OW14170   1.945   3.120   6.608
 4424SOL    HW114171   1.940   3.119   6.708
 4424SOL    HW214172   1.862   3.079   6.570
 4425SOL     OW14173   3.588   1.997   6.109
 4425SOL    HW114174   3.661   1.980   6.042
 4425SOL    HW214175   3.557   1.910   6.147
 4426SOL     OW14176   3.250   3.435   6.063
 4426SOL    HW114177   3.317   3.447   5.989
 4426SOL    HW214178   3.210   3.524   6.086
 4427SOL     OW14179   3.142   2.789   6.258
 4427SOL    HW114180   3.202   2.708   6.260
 4427SOL    HW214181   3.182   2.858   6.198
 4428SOL     OW14182   2.534   3.478   5.740
 4428SOL    HW114183   2.543   3.488   5.641
 4428SOL    HW214184   2.494   3.389   5.761
 4429SOL     OW14185   3.703   2.037   6.549
 4429SOL    HW114186   3.742   1.952   6.513
 4429SOL    HW214187   3.605   2.039   6.530
 4430SOL     OW14188   2.125   2.188   6.306
 4430SOL    HW114189   2.046   2.239   6.272
 4430SOL    HW214190   2.116   2.173   6.404
 4431SOL     OW14191   3.056   3.474   5.617
 4431SOL    HW114192   3.062   3.381   5.654
 4431SOL    HW214193   2.997   3.474   5.537
 4432SOL     OW14194   2.684   2.864   6.958
 4432SOL    HW114195   2.724   2.863   6.866
 4432SOL    HW214196   2.694   2.956   6.998
 4433SOL     OW14197   2.778   2.772   5.877
 4433SOL    HW114198   2.841   2.810   5.809
 4433SOL    HW214199   2.818   2.689   5.916
 4434SOL     OW14200   3.366   3.469   5.630
 4434SOL    HW114201   3.274   3.506   5.637
 4434SOL    HW214202   3.404   3.489   5.540
 4435SOL     OW14203   3.476   3.154   6.875
 4435SOL    HW114204   3.536   3.157   6.955
 4435SOL    HW214205   3.401   3.218   6.888
 4436SOL     OW14206   2.901   2.960   6.282
 4436SOL    HW114207   2.831   2.913   6.336
 4436SOL    HW214208   2.960   2.892   6.239
 4437SOL     OW14209   2.876   2.098   6.557
 4437SOL    HW114210   2.868   2.062   6.464
 4437SOL    HW214211   2.874   2.022   6.622
 4438SOL     OW14212   2.452   3.349   6.077
 4438SOL    HW114213   2.494   3.291   6.007
 4438SOL    HW214214   2.408   3.428   6.033
 4439SOL     OW14215   3.571   2.247   6.967
 4439SOL    HW114216   3.644   2.316   6.971
 4439SOL    HW214217   3.599   2.172   6.908
 4440SOL     OW14218   2.117   3.210   5.876
 4440SOL    HW114219   2.021   3.211   5.849
 4440SOL    HW214220   2.129   3.263   5.960
 4441SOL     OW14221   2.534   2.065   7.075
 4441SOL    HW114222   2.624   2.049   7.035
 4441SOL    HW214223   2.542   2.070   7.174
 4442SOL     OW14224   1.937   2.207   5.619
 4442SOL    HW114225   1.845   2.179   5.590
 4442SOL    HW214226   1.968   2.284   5.563
 4443SOL     OW14227   1.934   2.028   5.904
 4443SOL    HW114228   1.917   2.111   5.850
 4443SOL    HW214229   2.024   1.991   5.882
 4444SOL     OW14230   3.045   3.197   5.705
 4444SOL    HW114231   2.946   3.186   5.707
 4444SOL    HW214232   3.079   3.212   5.798
 4445SOL     OW14233   3.355   3.629   6.545
 4445SOL    HW114234   3.388   3.693   6.476
 4445SOL    HW214235   3.421   3.623   6.620
 4446SOL     OW14236   3.312   3.082   7.219
 4446SOL    HW114237   3.303   3.072   7.318
 4446SOL    HW214238   3.408   3.075   7.193
 4447SOL     OW14239   2.252   3.603   7.146
 4447SOL    HW114240   2.161   3.644   7.144
 4447SOL    HW214241   2.245   3.509   7.178
 4448SOL     OW14242   3.536   2.745   6.840
 4448SOL    HW114243   3.509   2.656   6.803
 4448SOL    HW214244   3.537   2.813   6.767
 4449SOL     OW14245   3.087   2.187   6.035
 4449SOL    HW114246   3.152   2.113   6.024
 4449SOL    HW214247   3.107   2.237   6.119
 4450SOL     OW14248   2.456   2.607   6.238
 4450SOL    HW114249   2.506   2.692   6.219
 4450SOL    HW214250   2.368   2.609   6.190
 4451SOL     OW14251   3.592   2.796   7.103
 4451SOL    HW114252   3.630   2.887   7.118
 4451SOL    HW214253   3.584   2.779   7.004
 4452SOL     OW14254   2.721   3.236   5.602
 4452SOL    HW114255   2.675   3.251   5.690
 4452SOL    HW214256   2.765   3.321   5.572
 4453SOL     OW14257   2.523   3.652   6.539
 4453SOL    HW114258   2.477   3.740   6.526
 4453SOL    HW214259   2.622   3.664   6.532
 4454SOL     OW14260   2.721   2.818   6.447
 4454SOL    HW114261   2.775   2.749   6.495
 4454SOL    HW214262   2.689   2.887   6.513
 4455SOL     OW14263   2.945   2.846   5.673
 4455SOL    HW114264   2.922   2.899   5.591
 4455SOL    HW214265   3.026   2.790   5.654
 4456SOL     OW14266   3.723   3.431   6.437
 4456SOL    HW114267   3.652   3.419   6.367
 4456SOL    HW214268   3.724   3.352   6.497
 4457SOL     OW14269   1.941   3.102   6.239
 4457SOL    HW114270   1.940   3.055   6.327
 4457SOL    HW214271   2.023   3.074   6.188
 4458SOL     OW14272   3.686   2.054   6.813
 4458SOL    HW114273   3.682   1.964   6.857
 4458SOL    HW214274   3.689   2.043   6.714
 4459SOL     OW14275   2.290   2.286   6.106
 4459SOL    HW114276   2.320   2.214   6.044
 4459SOL    HW214277   2.251   2.246   6.189
 4460SOL     OW14278   3.567   3.349   6.690
 4460SOL    HW114279   3.474   3.324   6.663
 4460SOL    HW214280   3.593   3.299   6.772
 4461SOL     OW14281   2.179   2.409   6.866
 4461SOL    HW114282   2.217   2.350   6.938
 4461SOL    HW214283   2.219   2.383   6.778
 4462SOL     OW14284   2.674   3.448   6.273
 4462SOL    HW114285   2.706   3.458   6.179
 4462SOL    HW214286   2.595   3.386   6.275
 4463SOL     OW14287   3.286   2.076   6.698
 4463SOL    HW114288   3.338   2.011   6.753
 4463SOL    HW214289   3.237   2.139   6.759
 4464SOL     OW14290   2.863   1.896   6.740
 4464SOL    HW114291   2.800   1.824   6.709
 4464SOL    HW214292   2.956   1.860   6.740
 4465SOL     OW14293   2.632   3.192   5.887
 4465SOL    HW114294   2.586   3.105   5.904
 4465SOL    HW214295   2.723   3.189   5.928
 4466SOL     OW14296   2.480   3.429   6.870
 4466SOL    HW114297   2.475   3.511   6.927
 4466SOL    HW214298   2.569   3.426   6.825
 4467SOL     OW14299   3.214   1.914   5.754
 4467SOL    HW114300   3.249   1.873   5.670
 4467SOL    HW214301   3.124   1.876   5.774
 4468SOL     OW14302   3.162   2.315   6.277
 4468SOL    HW114303   3.103   2.395   6.281
 4468SOL    HW214304   3.177   2.280   6.370
 4469SOL     OW14305   3.455   2.083   6.468
 4469SOL    HW114306   3.371   2.082   6.522
 4469SOL    HW214307   3.457   2.166   6.412
 4470SOL     OW14308   1.901   2.939   5.886
 4470SOL    HW114309   2.000   2.928   5.877
 4470SOL    HW214310   1.861   2.853   5.918
 4471SOL     OW14311   2.737   3.508   5.923
 4471SOL    HW114312   2.660   3.473   5.869
 4471SOL    HW214313   2.705   3.579   5.985
 4472SOL     OW14314   2.092   4.352   0.113
 4472SOL    HW114315   1.999   4.350   0.150
 4472SOL    HW214316   2.093   4.313   0.021
 4473SOL     OW14317   2.087   3.999   0.996
 4473SOL    HW114318   2.122   3.982   1.088
 4473SOL    HW214319   1.999   3.954   0.984
 4474SOL     OW14320   1.881   4.092   0.647
 4474SOL    HW114321   1.799   4.135   0.686
 4474SOL    HW214322   1.853   4.019   0.584
 4475SOL     OW14323   2.431   4.999   1.165
 4475SOL    HW114324   2.338   4.992   1.128
 4475SOL    HW214325   2.442   5.088   1.209
 4476SOL     OW14326   3.417   5.235   0.703
 4476SOL    HW114327   3.360   5.219   0.784
 4476SOL    HW214328   3.358   5.245   0.623
 4477SOL     OW14329   2.997   4.427   0.717
 4477SOL    HW114330   3.054   4.505   0.692
 4477SOL    HW214331   2.937   4.453   0.793
 4478SOL     OW14332   3.617   4.331   0.231
 4478SOL    HW114333   3.605   4.318   0.132
 4478SOL    HW214334   3.587   4.250   0.280
 4479SOL     OW14335   2.630   4.868   1.023
 4479SOL    HW114336   2.552   4.885   1.083
 4479SOL    HW214337   2.664   4.955   0.987
 4480SOL     OW14338   2.547   4.736   0.665
 4480SOL    HW114339   2.616   4.720   0.735
 4480SOL    HW214340   2.474   4.793   0.703
 4481SOL     OW14341   2.548   4.885   1.803
 4481SOL    HW114342   2.608   4.964   1.817
 4481SOL    HW214343   2.462   4.916   1.762
 4482SOL     OW14344   2.197   5.159   1.061
 4482SOL    HW114345   2.119   5.128   1.008
 4482SOL    HW214346   2.255   5.217   1.004
 4483SOL     OW14347   3.322   5.229   1.339
 4483SOL    HW114348   3.346   5.323   1.365
 4483SOL    HW214349   3.306   5.175   1.421
 4484SOL     OW14350   2.300   4.116   1.499
 4484SOL    HW114351   2.382   4.060   1.508
 4484SOL    HW214352   2.219   4.058   1.503
 4485SOL     OW14353   3.465   4.171   0.737
 4485SOL    HW114354   3.391   4.217   0.687
 4485SOL    HW214355   3.516   4.239   0.790
 4486SOL     OW14356   2.093   5.437   0.483
 4486SOL    HW114357   2.127   5.514   0.537
 4486SOL    HW214358   2.137   5.437   0.393
 4487SOL     OW14359   2.989   5.065   1.690
 4487SOL    HW114360   3.036   5.065   1.778
 4487SOL    HW214361   2.941   4.978   1.679
 4488SOL     OW14362   2.092   5.158   0.538
 4488SOL    HW114363   2.066   5.254   0.538
 4488SOL    HW214364   2.021   5.104   0.583
 4489SOL     OW14365   2.102   4.815   0.886
 4489SOL    HW114366   2.116   4.731   0.938
 4489SOL    HW214367   2.047   4.879   0.941
 4490SOL     OW14368   2.482   5.510   1.439
 4490SOL    HW114369   2.390   5.493   1.474
 4490SOL    HW214370   2.510   5.602   1.465
 4491SOL     OW14371   2.468   4.688   0.123
 4491SOL    HW114372   2.475   4.772   0.069
 4491SOL    HW214373   2.514   4.701   0.211
 4492SOL     OW14374   3.456   3.838   1.480
 4492SOL    HW114375   3.438   3.905   1.408
 4492SOL    HW214376   3.453   3.884   1.569
 4493SOL     OW14377   1.984   4.367   0.563
 4493SOL    HW114378   1.939   4.279   0.580
 4493SOL    HW214379   1.983   4.421   0.647
 4494SOL     OW14380   3.704   5.491   0.359
 4494SOL    HW114381   3.758   5.462   0.439
 4494SOL    HW214382   3.734   5.581   0.330
 4495SOL     OW14383   3.551   4.646   0.612
 4495SOL    HW114384   3.646   4.617   0.620
 4495SOL    HW214385   3.543   4.711   0.537
 4496SOL     OW14386   3.503   4.832   0.432
 4496SOL    HW114387   3.589   4.834   0.380
 4496SOL    HW214388   3.517   4.879   0.520
 4497SOL     OW14389   1.975   4.461   1.597
 4497SOL    HW114390   2.063   4.448   1.642
 4497SOL    HW214391   1.962   4.558   1.575
 4498SOL     OW14392   2.475   5.089   0.726
 4498SOL    HW114393   2.426   5.002   0.735
 4498SOL    HW214394   2.452   5.132   0.639
 4499SOL     OW14395   3.155   4.952   1.423
 4499SOL    HW114396   3.192   4.879   1.365
 4499SOL    HW214397   3.207   4.957   1.508
 4500SOL     OW14398   2.671   3.728   0.502
 4500SOL    HW114399   2.711   3.819   0.493
 4500SOL    HW214400   2.571   3.736   0.508
 4501SOL     OW14401   2.059   4.700   1.264
 4501SOL    HW114402   2.148   4.655   1.250
 4501SOL    HW214403   1.986   4.635   1.245
 4502SOL     OW14404   3.387   4.723   0.190
 4502SOL    HW114405   3.324   4.647   0.203
 4502SOL    HW214406   3.435   4.741   0.276
 4503SOL     OW14407   3.049   5.516   1.616
 4503SOL    HW114408   3.073   5.576   1.540
 4503SOL    HW214409   3.056   5.421   1.586
 4504SOL     OW14410   2.179   3.975   1.801
 4504SOL    HW114411   2.250   4.046   1.807
 4504SOL    HW214412   2.091   4.014   1.829
 4505SOL     OW14413   3.328   5.141   0.953
 4505SOL    HW114414   3.269   5.147   1.033
 4505SOL    HW214415   3.313   5.053   0.907
 4506SOL     OW14416   3.529   5.438   0.572
 4506SOL    HW114417   3.488   5.415   0.484
 4506SOL    HW214418   3.511   5.364   0.637
 4507SOL     OW14419   2.460   4.453   0.270
 4507SOL    HW114420   2.484   4.522   0.202
 4507SOL    HW214421   2.382   4.486   0.324
 4508SOL     OW14422   3.143   4.069   0.944
 4508SOL    HW114423   3.057   4.019   0.931
 4508SOL    HW214424   3.205   4.015   1.000
 4509SOL     OW14425   3.438   5.386   0.307
 4509SOL    HW114426   3.527   5.432   0.310
 4509SOL    HW214427   3.417   5.362   0.212
 4510SOL     OW14428   2.669   4.329   1.465
 4510SOL    HW114429   2.622   4.326   1.554
 4510SOL    HW214430   2.618   4.274   1.399
 4511SOL     OW14431   3.256   4.193   1.674
 4511SOL    HW114432   3.236   4.236   1.762
 4511SOL    HW214433   3.334   4.131   1.683
 4512SOL     OW14434   2.835   4.614   1.572
 4512SOL    HW114435   2.881   4.530   1.543
 4512SOL    HW214436   2.779   4.648   1.497
 4513SOL     OW14437   2.853   4.134   1.242
 4513SOL    HW114438   2.776   4.168   1.296
 4513SOL    HW214439   2.819   4.083   1.163
 4514SOL     OW14440   2.903   4.425   0.429
 4514SOL    HW114441   2.929   4.421   0.525
 4514SOL    HW214442   2.818   4.374   0.415
 4515SOL     OW14443   1.938   4.535   0.789
 4515SOL    HW114444   2.037   4.523   0.798
 4515SOL    HW214445   1.914   4.630   0.810
 4516SOL     OW14446   1.992   5.545   1.571
 4516SOL    HW114447   1.982   5.530   1.670
 4516SOL    HW214448   1.906   5.581   1.535
 4517SOL     OW14449   2.727   4.072   0.195
 4517SOL    HW114450   2.786   4.135   0.146
 4517SOL    HW214451   2.746   3.978   0.166
 4518SOL     OW14452   3.581   4.309   1.831
 4518SOL    HW114453   3.555   4.398   1.795
 4518SOL    HW214454   3.579   4.241   1.758
 4519SOL     OW14455   3.224   4.868   0.545
 4519SOL    HW114456   3.307   4.839   0.497
 4519SOL    HW214457   3.175   4.935   0.489
 4520SOL     OW14458   2.412   3.920   0.885
 4520SOL    HW114459   2.407   3.915   0.985
 4520SOL    HW214460   2.414   4.016   0.856
 4521SOL     OW14461   2.870   5.180   0.477
 4521SOL    HW114462   2.824   5.252   0.425
 4521SOL    HW214463   2.866   5.200   0.575
 4522SOL     OW14464   2.213   5.525   0.853
 4522SOL    HW114465   2.263   5.439   0.859
 4522SOL    HW214466   2.278   5.602   0.850
 4523SOL     OW14467   3.657   4.790   0.873
 4523SOL    HW114468   3.595   4.775   0.797
 4523SOL    HW214469   3.605   4.801   0.958
 4524SOL     OW14470   3.089   5.274   1.506
 4524SOL    HW114471   3.095   5.197   1.570
 4524SOL    HW214472   3.037   5.248   1.426
 4525SOL     OW14473   2.183   4.667   0.242
 4525SOL    HW114474   2.265   4.706   0.200
 4525SOL    HW214475   2.156   4.585   0.193
 4526SOL     OW14476   3.320   4.459   0.728
 4526SOL    HW114477   3.315   4.394   0.803
 4526SOL    HW214478   3.400   4.518   0.741
 4527SOL     OW14479   2.323   4.990   1.727
 4527SOL    HW114480   2.273   4.991   1.641
 4527SOL    HW214481   2.260   4.972   1.803
 4528SOL     OW14482   2.973   5.500   0.237
 4528SOL    HW114483   2.913   5.438   0.287
 4528SOL    HW214484   3.004   5.456   0.152
 4529SOL     OW14485   2.064   4.009   1.498
 4529SOL    HW114486   1.984   4.069   1.485
 4529SOL    HW214487   2.054   3.960   1.584
 4530SOL     OW14488   3.494   5.101   0.081
 4530SOL    HW114489   3.462   5.195   0.071
 4530SOL    HW214490   3.418   5.038   0.069
 4531SOL     OW14491   2.326   5.467   0.323
 4531SOL    HW114492   2.359   5.506   0.409
 4531SOL    HW214493   2.402   5.460   0.258
 4532SOL     OW14494   2.111   5.509   1.241
 4532SOL    HW114495   2.168   5.444   1.291
 4532SOL    HW214496   2.095   5.476   1.148
 4533SOL     OW14497   2.802   5.422   0.904
 4533SOL    HW114498   2.882   5.365   0.925
 4533SOL    HW214499   2.753   5.382   0.827
 4534SOL     OW14500   2.244   4.424   0.480
 4534SOL    HW114501   2.289   4.334   0.477
 4534SOL    HW214502   2.150   4.413   0.513
 4535SOL     OW14503   3.409   3.946   1.729
 4535SOL    HW114504   3.404   3.983   1.821
 4535SOL    HW214505   3.337   3.877   1.717
 4536SOL     OW14506   2.750   5.238   1.195
 4536SOL    HW114507   2.727   5.213   1.101
 4536SOL    HW214508   2.811   5.169   1.234
 4537SOL     OW14509   3.213   4.314   1.433
 4537SOL    HW114510   3.241   4.271   1.518
 4537SOL    HW214511   3.238   4.410   1.434
 4538SOL     OW14512   2.665   5.126   0.924
 4538SOL    HW114513   2.755   5.140   0.882
 4538SOL    HW214514   2.594   5.128   0.853
 4539SOL     OW14515   2.784   4.227   0.899
 4539SOL    HW114516   2.759   4.218   0.803
 4539SOL    HW214517   2.832   4.145   0.930
 4540SOL     OW14518   2.401   3.788   0.512
 4540SOL    HW114519   2.320   3.789   0.570
 4540SOL    HW214520   2.404   3.871   0.457
 4541SOL     OW14521   3.296   4.912   0.041
 4541SOL    HW114522   3.328   4.836   0.098
 4541SOL    HW214523   3.204   4.939   0.071
 4542SOL     OW14524   2.797   3.960   0.480
 4542SOL    HW114525   2.749   4.001   0.402
 4542SOL    HW214526   2.896   3.958   0.461
 4543SOL     OW14527   2.938   4.407   1.464
 4543SOL    HW114528   2.858   4.346   1.467
 4543SOL    HW214529   3.019   4.354   1.440
 4544SOL     OW14530   3.089   5.294   0.793
 4544SOL    HW114531   3.110   5.368   0.728
 4544SOL    HW214532   3.157   5.294   0.866
 4545SOL     OW14533   2.321   4.876   0.741
 4545SOL    HW114534   2.250   4.849   0.806
 4545SOL    HW214535   2.295   4.848   0.648
 4546SOL     OW14536   3.133   5.521   0.591
 4546SOL    HW114537   3.177   5.585   0.527
 4546SOL    HW214538   3.083   5.573   0.661
 4547SOL     OW14539   2.894   4.273   0.016
 4547SOL    HW114540   2.853   4.355  -0.023
 4547SOL    HW214541   2.958   4.299   0.089
 4548SOL     OW14542   1.940   4.280   1.386
 4548SOL    HW114543   2.032   4.279   1.345
 4548SOL    HW214544   1.934   4.354   1.453
 4549SOL     OW14545   2.423   3.946   1.147
 4549SOL    HW114546   2.461   3.862   1.184
 4549SOL    HW214547   2.335   3.965   1.191
 4550SOL     OW14548   2.728   4.178   0.642
 4550SOL    HW114549   2.696   4.250   0.580
 4550SOL    HW214550   2.752   4.097   0.589
 4551SOL     OW14551   2.879   3.763   0.753
 4551SOL    HW114552   2.807   3.768   0.684
 4551SOL    HW214553   2.855   3.694   0.822
 4552SOL     OW14554   3.291   4.897   0.867
 4552SOL    HW114555   3.236   4.813   0.860
 4552SOL    HW214556   3.317   4.926   0.775
 4553SOL     OW14557   3.328   4.314   0.992
 4553SOL    HW114558   3.298   4.219   0.999
 4553SOL    HW214559   3.401   4.330   1.058
 4554SOL     OW14560   3.719   4.557   0.377
 4554SOL    HW114561   3.761   4.493   0.441
 4554SOL    HW214562   3.681   4.506   0.299
 4555SOL     OW14563   2.350   5.109   0.174
 4555SOL    HW114564   2.263   5.094   0.221
 4555SOL    HW214565   2.333   5.135   0.079
 4556SOL     OW14566   3.526   5.004   0.657
 4556SOL    HW114567   3.625   5.012   0.671
 4556SOL    HW214568   3.481   5.088   0.688
 4557SOL     OW14569   3.252   4.299   0.078
 4557SOL    HW114570   3.198   4.278   0.159
 4557SOL    HW214571   3.343   4.258   0.087
 4558SOL     OW14572   2.389   3.980   0.328
 4558SOL    HW114573   2.416   3.921   0.253
 4558SOL    HW214574   2.389   4.075   0.297
 4559SOL     OW14575   3.616   4.947   1.588
 4559SOL    HW114576   3.707   4.908   1.575
 4559SOL    HW214577   3.624   5.043   1.612
 4560SOL     OW14578   2.926   5.071   1.340
 4560SOL    HW114579   2.846   5.048   1.395
 4560SOL    HW214580   3.009   5.045   1.389
 4561SOL     OW14581   3.454   5.353   1.625
 4561SOL    HW114582   3.481   5.387   1.535
 4561SOL    HW214583   3.533   5.315   1.671
 4562SOL     OW14584   2.973   4.919   1.100
 4562SOL    HW114585   2.933   4.963   1.181
 4562SOL    HW214586   2.932   4.956   1.017
 4563SOL     OW14587   3.500   4.823   1.079
 4563SOL    HW114588   3.505   4.904   1.138
 4563SOL    HW214589   3.414   4.825   1.028
 4564SOL     OW14590   2.777   3.813   1.402
 4564SOL    HW114591   2.802   3.793   1.307
 4564SOL    HW214592   2.849   3.869   1.444
 4565SOL     OW14593   2.842   4.840   1.719
 4565SOL    HW114594   2.743   4.846   1.729
 4565SOL    HW214595   2.865   4.760   1.663
 4566SOL     OW14596   2.567   4.774   0.368
 4566SOL    HW114597   2.553   4.781   0.467
 4566SOL    HW214598   2.651   4.723   0.350
 4567SOL     OW14599   2.272   4.537   1.251
 4567SOL    HW114600   2.358   4.549   1.301
 4567SOL    HW214601   2.230   4.450   1.278
 4568SOL     OW14602   3.136   4.110   1.262
 4568SOL    HW114603   3.157   4.184   1.326
 4568SOL    HW214604   3.047   4.127   1.219
 4569SOL     OW14605   1.926   5.288   1.331
 4569SOL    HW114606   1.880   5.370   1.297
 4569SOL    HW214607   2.024   5.307   1.340
 4570SOL     OW14608   2.229   4.824   0.501
 4570SOL    HW114609   2.222   4.907   0.445
 4570SOL    HW214610   2.233   4.744   0.441
 4571SOL     OW14611   2.428   4.261   0.865
 4571SOL    HW114612   2.440   4.327   0.791
 4571SOL    HW214613   2.474   4.295   0.948
 4572SOL     OW14614   3.114   5.072   0.388
 4572SOL    HW114615   3.164   5.149   0.428
 4572SOL    HW214616   3.019   5.074   0.420
 4573SOL     OW14617   3.134   5.169   1.142
 4573SOL    HW114618   3.181   5.182   1.229
 4573SOL    HW214619   3.068   5.095   1.151
 4574SOL     OW14620   3.444   4.363   0.472
 4574SOL    HW114621   3.413   4.424   0.545
 4574SOL    HW214622   3.494   4.415   0.403
 4575SOL     OW14623   2.216   5.234   1.329
 4575SOL    HW114624   2.195   5.190   1.242
 4575SOL    HW214625   2.313   5.260   1.332
 4576SOL     OW14626   2.264   4.475   1.598
 4576SOL    HW114627   2.332   4.530   1.551
 4576SOL    HW214628   2.304   4.387   1.625
 4577SOL     OW14629   3.449   4.503   1.670
 4577SOL    HW114630   3.357   4.541   1.665
 4577SOL    HW214631   3.509   4.550   1.605
 4578SOL     OW14632   2.875   3.829   1.770
 4578SOL    HW114633   2.881   3.914   1.718
 4578SOL    HW214634   2.907   3.753   1.713
 4579SOL     OW14635   2.366   3.774   1.740
 4579SOL    HW114636   2.324   3.717   1.670
 4579SOL    HW214637   2.300   3.843   1.772
 4580SOL     OW14638   2.435   4.594   1.029
 4580SOL    HW114639   2.479   4.683   1.020
 4580SOL    HW214640   2.372   4.594   1.106
 4581SOL     OW14641   3.222   4.586   1.045
 4581SOL    HW114642   3.147   4.586   0.979
 4581SOL    HW214643   3.259   4.494   1.054
 4582SOL     OW14644   3.071   4.249   0.275
 4582SOL    HW114645   3.084   4.165   0.329
 4582SOL    HW214646   3.042   4.323   0.335
 4583SOL     OW14647   2.169   3.937   1.231
 4583SOL    HW114648   2.146   3.974   1.321
 4583SOL    HW214649   2.139   3.842   1.225
 4584SOL     OW14650   1.899   5.034   1.282
 4584SOL    HW114651   1.952   4.985   1.350
 4584SOL    HW214652   1.921   5.132   1.287
 4585SOL     OW14653   2.594   4.358   1.064
 4585SOL    HW114654   2.653   4.332   0.988
 4585SOL    HW214655   2.566   4.454   1.053
 4586SOL     OW14656   2.169   3.787   0.618
 4586SOL    HW114657   2.158   3.881   0.651
 4586SOL    HW214658   2.164   3.724   0.695
 4587SOL     OW14659   3.484   4.091   0.374
 4587SOL    HW114660   3.486   4.015   0.438
 4587SOL    HW214661   3.436   4.168   0.414
 4588SOL     OW14662   2.885   4.490   0.966
 4588SOL    HW114663   2.900   4.511   1.062
 4588SOL    HW214664   2.855   4.395   0.957
 4589SOL     OW14665   2.842   5.297   1.700
 4589SOL    HW114666   2.822   5.341   1.612
 4589SOL    HW214667   2.881   5.206   1.684
 4590SOL     OW14668   3.721   5.242   1.605
 4590SOL    HW114669   3.735   5.269   1.510
 4590SOL    HW214670   3.804   5.264   1.658
 4591SOL     OW14671   2.212   4.622   1.804
 4591SOL    HW114672   2.288   4.666   1.852
 4591SOL    HW214673   2.247   4.575   1.722
 4592SOL     OW14674   3.402   3.998   0.125
 4592SOL    HW114675   3.341   3.923   0.148
 4592SOL    HW214676   3.424   4.050   0.208
 4593SOL     OW14677   3.165   4.562   0.042
 4593SOL    HW114678   3.199   4.469   0.057
 4593SOL    HW214679   3.183   4.589  -0.053
 4594SOL     OW14680   2.930   5.057   0.849
 4594SOL    HW114681   2.937   4.973   0.794
 4594SOL    HW214682   2.992   5.126   0.813
 4595SOL     OW14683   2.181   4.534   0.949
 4595SOL    HW114684   2.274   4.570   0.954
 4595SOL    HW214685   2.175   4.449   1.001
 4596SOL     OW14686   2.201   4.233   1.006
 4596SOL    HW114687   2.149   4.150   0.989
 4596SOL    HW214688   2.278   4.238   0.942
 4597SOL     OW14689   3.000   4.104   1.678
 4597SOL    HW114690   2.955   4.167   1.742
 4597SOL    HW214691   3.093   4.135   1.661
 4598SOL     OW14692   3.022   3.931   1.477
 4598SOL    HW114693   3.022   3.995   1.554
 4598SOL    HW214694   3.050   3.979   1.394
 4599SOL     OW14695   1.950   5.525   0.927
 4599SOL    HW114696   1.908   5.439   0.900
 4599SOL    HW214697   2.044   5.528   0.893
 4600SOL     OW14698   2.366   5.292   0.910
 4600SOL    HW114699   2.432   5.366   0.919
 4600SOL    HW214700   2.410   5.213   0.868
 4601SOL     OW14701   2.864   4.520   1.238
 4601SOL    HW114702   2.905   4.488   1.324
 4601SOL    HW214703   2.768   4.493   1.235
 4602SOL     OW14704   1.902   4.268   1.114
 4602SOL    HW114705   1.987   4.235   1.073
 4602SOL    HW214706   1.915   4.283   1.212
 4603SOL     OW14707   2.051   4.244   1.722
 4603SOL    HW114708   2.110   4.204   1.652
 4603SOL    HW214709   1.993   4.315   1.681
 4604SOL     OW14710   3.231   4.674   1.660
 4604SOL    HW114711   3.270   4.763   1.680
 4604SOL    HW214712   3.241   4.654   1.563
 4605SOL     OW14713   2.677   4.296   0.325
 4605SOL    HW114714   2.684   4.207   0.279
 4605SOL    HW214715   2.583   4.330   0.317
 4606SOL     OW14716   3.519   4.328   1.206
 4606SOL    HW114717   3.481   4.259   1.268
 4606SOL    HW214718   3.601   4.292   1.162
 4607SOL     OW14719   2.114   5.288   1.744
 4607SOL    HW114720   2.084   5.345   1.820
 4607SOL    HW214721   2.107   5.191   1.770
 4608SOL     OW14722   2.533   4.188   1.269
 4608SOL    HW114723   2.499   4.099   1.239
 4608SOL    HW214724   2.559   4.242   1.189
 4609SOL     OW14725   2.792   5.402   1.465
 4609SOL    HW114726   2.768   5.384   1.370
 4609SOL    HW214727   2.822   5.496   1.475
 4610SOL     OW14728   2.335   4.224   0.191
 4610SOL    HW114729   2.396   4.304   0.195
 4610SOL    HW214730   2.240   4.255   0.198
 4611SOL     OW14731   2.021   4.861   1.466
 4611SOL    HW114732   2.043   4.800   1.542
 4611SOL    HW214733   2.031   4.812   1.380
 4612SOL     OW14734   3.209   4.783   1.234
 4612SOL    HW114735   3.233   4.720   1.160
 4612SOL    HW214736   3.119   4.823   1.216
 4613SOL     OW14737   3.164   4.579   0.309
 4613SOL    HW114738   3.078   4.548   0.351
 4613SOL    HW214739   3.160   4.565   0.210
 4614SOL     OW14740   3.621   5.471   1.154
 4614SOL    HW114741   3.682   5.501   1.081
 4614SOL    HW214742   3.583   5.382   1.132
 4615SOL     OW14743   3.114   5.455   1.128
 4615SOL    HW114744   3.198   5.460   1.074
 4615SOL    HW214745   3.091   5.359   1.146
 4616SOL     OW14746   1.945   4.982   1.022
 4616SOL    HW114747   1.940   4.981   1.122
 4616SOL    HW214748   1.862   4.941   0.984
 4617SOL     OW14749   2.550   5.386   1.716
 4617SOL    HW114750   2.494   5.467   1.725
 4617SOL    HW214751   2.602   5.390   1.630
 4618SOL     OW14752   2.765   3.810   0.133
 4618SOL    HW114753   2.816   3.811   0.047
 4618SOL    HW214754   2.821   3.768   0.204
 4619SOL     OW14755   3.588   3.859   0.523
 4619SOL    HW114756   3.661   3.842   0.456
 4619SOL    HW214757   3.557   3.772   0.561
 4620SOL     OW14758   3.250   5.297   0.477
 4620SOL    HW114759   3.317   5.309   0.403
 4620SOL    HW214760   3.210   5.386   0.500
 4621SOL     OW14761   1.992   5.518   1.851
 4621SOL    HW114762   1.951   5.444   1.904
 4621SOL    HW214763   2.056   5.569   1.909
 4622SOL     OW14764   3.142   4.651   0.672
 4622SOL    HW114765   3.202   4.570   0.674
 4622SOL    HW214766   3.182   4.720   0.612
 4623SOL     OW14767   2.692   4.997   1.422
 4623SOL    HW114768   2.687   5.030   1.517
 4623SOL    HW214769   2.606   5.016   1.376
 4624SOL     OW14770   2.534   5.340   0.154
 4624SOL    HW114771   2.543   5.350   0.055
 4624SOL    HW214772   2.494   5.251   0.175
 4625SOL     OW14773   3.512   5.444   1.394
 4625SOL    HW114774   3.565   5.454   1.310
 4625SOL    HW214775   3.485   5.534   1.428
 4626SOL     OW14776   2.125   4.050   0.720
 4626SOL    HW114777   2.046   4.101   0.686
 4626SOL    HW214778   2.116   4.035   0.818
 4627SOL     OW14779   3.056   5.336   0.031
 4627SOL    HW114780   3.062   5.243   0.068
 4627SOL    HW214781   2.997   5.336  -0.049
 4628SOL     OW14782   2.684   4.726   1.372
 4628SOL    HW114783   2.724   4.725   1.280
 4628SOL    HW214784   2.694   4.818   1.412
 4629SOL     OW14785   2.778   4.634   0.291
 4629SOL    HW114786   2.841   4.672   0.223
 4629SOL    HW214787   2.818   4.551   0.330
 4630SOL     OW14788   3.366   5.331   0.044
 4630SOL    HW114789   3.274   5.368   0.051
 4630SOL    HW214790   3.404   5.351  -0.046
 4631SOL     OW14791   2.234   5.012   1.490
 4631SOL    HW114792   2.221   5.105   1.456
 4631SOL    HW214793   2.150   4.960   1.477
 4632SOL     OW14794   3.476   5.016   1.289
 4632SOL    HW114795   3.536   5.019   1.369
 4632SOL    HW214796   3.401   5.080   1.302
 4633SOL     OW14797   2.901   4.822   0.696
 4633SOL    HW114798   2.831   4.775   0.750
 4633SOL    HW214799   2.960   4.754   0.653
 4634SOL     OW14800   2.876   3.960   0.971
 4634SOL    HW114801   2.868   3.924   0.878
 4634SOL    HW214802   2.874   3.884   1.036
 4635SOL     OW14803   2.452   5.211   0.491
 4635SOL    HW114804   2.494   5.153   0.421
 4635SOL    HW214805   2.408   5.290   0.447
 4636SOL     OW14806   2.117   5.072   0.290
 4636SOL    HW114807   2.021   5.073   0.263
 4636SOL    HW214808   2.129   5.125   0.374
 4637SOL     OW14809   1.967   4.737   1.726
 4637SOL    HW114810   1.890   4.704   1.780
 4637SOL    HW214811   2.052   4.707   1.768
 4638SOL     OW14812   2.534   3.927   1.489
 4638SOL    HW114813   2.624   3.911   1.449
 4638SOL    HW214814   2.542   3.932   1.588
 4639SOL     OW14815   1.937   4.069   0.033
 4639SOL    HW114816   1.845   4.041   0.004
 4639SOL    HW214817   1.968   4.146  -0.023
 4640SOL     OW14818   3.302   4.580   1.398
 4640SOL    HW114819   3.245   4.632   1.335
 4640SOL    HW214820   3.398   4.592   1.374
 4641SOL     OW14821   1.934   3.890   0.318
 4641SOL    HW114822   1.917   3.973   0.264
 4641SOL    HW214823   2.024   3.853   0.296
 4642SOL     OW14824   3.045   5.059   0.119
 4642SOL    HW114825   2.946   5.048   0.121
 4642SOL    HW214826   3.079   5.074   0.212
 4643SOL     OW14827   2.475   4.566   1.431
 4643SOL    HW114828   2.531   4.647   1.414
 4643SOL    HW214829   2.534   4.486   1.434
 4644SOL     OW14830   3.355   5.491   0.959
 4644SOL    HW114831   3.388   5.555   0.890
 4644SOL    HW214832   3.421   5.485   1.034
 4645SOL     OW14833   2.578   4.289   1.708
 4645SOL    HW114834   2.597   4.354   1.782
 4645SOL    HW214835   2.638   4.209   1.717
 4646SOL     OW14836   3.312   4.944   1.633
 4646SOL    HW114837   3.303   4.934   1.732
 4646SOL    HW214838   3.408   4.937   1.607
 4647SOL     OW14839   2.252   5.465   1.560
 4647SOL    HW114840   2.161   5.506   1.558
 4647SOL    HW214841   2.245   5.371   1.592
 4648SOL     OW14842   3.536   4.607   1.254
 4648SOL    HW114843   3.509   4.518   1.217
 4648SOL    HW214844   3.537   4.675   1.181
 4649SOL     OW14845   3.087   4.049   0.449
 4649SOL    HW114846   3.152   3.975   0.438
 4649SOL    HW214847   3.107   4.099   0.533
 4650SOL     OW14848   2.456   4.469   0.652
 4650SOL    HW114849   2.506   4.554   0.633
 4650SOL    HW214850   2.368   4.471   0.604
 4651SOL     OW14851   3.639   4.066   1.642
 4651SOL    HW114852   3.622   4.097   1.548
 4651SOL    HW214853   3.555   4.029   1.680
 4652SOL     OW14854   3.592   4.658   1.517
 4652SOL    HW114855   3.630   4.749   1.532
 4652SOL    HW214856   3.584   4.641   1.418
 4653SOL     OW14857   2.721   5.098   0.016
 4653SOL    HW114858   2.675   5.113   0.104
 4653SOL    HW214859   2.765   5.183  -0.014
 4654SOL     OW14860   2.523   5.514   0.953
 4654SOL    HW114861   2.477   5.602   0.940
 4654SOL    HW214862   2.622   5.526   0.946
 4655SOL     OW14863   2.721   4.680   0.861
 4655SOL    HW114864   2.775   4.611   0.909
 4655SOL    HW214865   2.689   4.749   0.927
 4656SOL     OW14866   2.945   4.708   0.087
 4656SOL    HW114867   2.922   4.761   0.005
 4656SOL    HW214868   3.026   4.652   0.068
 4657SOL     OW14869   3.723   5.293   0.851
 4657SOL    HW114870   3.652   5.281   0.781
 4657SOL    HW214871   3.724   5.214   0.911
 4658SOL     OW14872   2.083   5.038   1.844
 4658SOL    HW114873   2.018   4.965   1.823
 4658SOL    HW214874   2.087   5.052   1.942
 4659SOL     OW14875   1.941   4.964   0.653
 4659SOL    HW114876   1.940   4.917   0.741
 4659SOL    HW214877   2.023   4.936   0.602
 4660SOL     OW14878   2.534   5.115   1.624
 4660SOL    HW114879   2.456   5.065   1.662
 4660SOL    HW214880   2.531   5.210   1.655
 4661SOL     OW14881   2.290   4.148   0.520
 4661SOL    HW114882   2.320   4.076   0.458
 4661SOL    HW214883   2.251   4.108   0.603
 4662SOL     OW14884   3.567   5.211   1.104
 4662SOL    HW114885   3.474   5.186   1.077
 4662SOL    HW214886   3.593   5.161   1.186
 4663SOL     OW14887   2.179   4.271   1.280
 4663SOL    HW114888   2.217   4.212   1.352
 4663SOL    HW214889   2.219   4.245   1.192
 4664SOL     OW14890   2.674   5.310   0.687
 4664SOL    HW114891   2.706   5.320   0.593
 4664SOL    HW214892   2.595   5.248   0.689
 4665SOL     OW14893   3.286   3.938   1.112
 4665SOL    HW114894   3.338   3.873   1.167
 4665SOL    HW214895   3.237   4.001   1.173
 4666SOL     OW14896   2.863   3.758   1.154
 4666SOL    HW114897   2.800   3.686   1.123
 4666SOL    HW214898   2.956   3.722   1.154
 4667SOL     OW14899   2.632   5.054   0.301
 4667SOL    HW114900   2.586   4.967   0.318
 4667SOL    HW214901   2.723   5.051   0.342
 4668SOL     OW14902   2.480   5.291   1.284
 4668SOL    HW114903   2.475   5.373   1.341
 4668SOL    HW214904   2.569   5.288   1.239
 4669SOL     OW14905   3.214   3.776   0.168
 4669SOL    HW114906   3.249   3.735   0.084
 4669SOL    HW214907   3.124   3.738   0.188
 4670SOL     OW14908   3.162   4.177   0.691
 4670SOL    HW114909   3.103   4.257   0.695
 4670SOL    HW214910   3.177   4.142   0.784
 4671SOL     OW14911   3.455   3.945   0.882
 4671SOL    HW114912   3.371   3.944   0.936
 4671SOL    HW214913   3.457   4.028   0.826
 4672SOL     OW14914   1.901   4.801   0.300
 4672SOL    HW114915   2.000   4.790   0.291
 4672SOL    HW214916   1.861   4.715   0.332
 4673SOL     OW14917   2.737   5.370   0.337
 4673SOL    HW114918   2.660   5.335   0.283
 4673SOL    HW214919   2.705   5.441   0.399
 4674SOL     OW14920   2.092   4.352   1.975
 4674SOL    HW114921   1.999   4.350   2.012
 4674SOL    HW214922   2.093   4.313   1.883
 4675SOL     OW14923   2.087   3.999   2.858
 4675SOL    HW114924   2.122   3.982   2.950
 4675SOL    HW214925   1.999   3.954   2.846
 4676SOL     OW14926   1.881   4.092   2.509
 4676SOL    HW114927   1.799   4.135   2.548
 4676SOL    HW214928   1.853   4.019   2.446
 4677SOL     OW14929   2.431   4.999   3.027
 4677SOL    HW114930   2.338   4.992   2.990
 4677SOL    HW214931   2.442   5.088   3.071
 4678SOL     OW14932   3.417   5.235   2.565
 4678SOL    HW114933   3.360   5.219   2.646
 4678SOL    HW214934   3.358   5.245   2.485
 4679SOL     OW14935   3.617   4.331   2.093
 4679SOL    HW114936   3.605   4.318   1.994
 4679SOL    HW214937   3.587   4.250   2.142
 4680SOL     OW14938   2.630   4.868   2.885
 4680SOL    HW114939   2.552   4.885   2.945
 4680SOL    HW214940   2.664   4.955   2.849
 4681SOL     OW14941   2.712   4.522   3.685
 4681SOL    HW114942   2.708   4.598   3.750
 4681SOL    HW214943   2.734   4.558   3.594
 4682SOL     OW14944   2.547   4.736   2.527
 4682SOL    HW114945   2.616   4.720   2.597
 4682SOL    HW214946   2.474   4.793   2.565
 4683SOL     OW14947   2.548   4.885   3.665
 4683SOL    HW114948   2.608   4.964   3.679
 4683SOL    HW214949   2.462   4.916   3.624
 4684SOL     OW14950   2.197   5.159   2.923
 4684SOL    HW114951   2.119   5.128   2.870
 4684SOL    HW214952   2.255   5.217   2.866
 4685SOL     OW14953   3.322   5.229   3.201
 4685SOL    HW114954   3.346   5.323   3.227
 4685SOL    HW214955   3.306   5.175   3.283
 4686SOL     OW14956   2.300   4.116   3.361
 4686SOL    HW114957   2.382   4.060   3.370
 4686SOL    HW214958   2.219   4.058   3.365
 4687SOL     OW14959   3.465   4.171   2.599
 4687SOL    HW114960   3.391   4.217   2.549
 4687SOL    HW214961   3.516   4.239   2.652
 4688SOL     OW14962   2.093   5.437   2.345
 4688SOL    HW114963   2.127   5.514   2.399
 4688SOL    HW214964   2.137   5.437   2.255
 4689SOL     OW14965   2.989   5.065   3.552
 4689SOL    HW114966   3.036   5.065   3.640
 4689SOL    HW214967   2.941   4.978   3.541
 4690SOL     OW14968   2.092   5.158   2.400
 4690SOL    HW114969   2.066   5.254   2.400
 4690SOL    HW214970   2.021   5.104   2.445
 4691SOL     OW14971   2.102   4.815   2.748
 4691SOL    HW114972   2.116   4.731   2.800
 4691SOL    HW214973   2.047   4.879   2.803
 4692SOL     OW14974   2.482   5.510   3.301
 4692SOL    HW114975   2.390   5.493   3.336
 4692SOL    HW214976   2.510   5.602   3.327
 4693SOL     OW14977   2.468   4.688   1.985
 4693SOL    HW114978   2.475   4.772   1.931
 4693SOL    HW214979   2.514   4.701   2.073
 4694SOL     OW14980   3.456   3.838   3.342
 4694SOL    HW114981   3.438   3.905   3.270
 4694SOL    HW214982   3.453   3.884   3.431
 4695SOL     OW14983   1.984   4.367   2.425
 4695SOL    HW114984   1.939   4.279   2.442
 4695SOL    HW214985   1.983   4.421   2.509
 4696SOL     OW14986   3.704   5.491   2.221
 4696SOL    HW114987   3.758   5.462   2.301
 4696SOL    HW214988   3.734   5.581   2.192
 4697SOL     OW14989   1.889   5.320   1.979
 4697SOL    HW114990   1.870   5.224   2.000
 4697SOL    HW214991   1.856   5.378   2.054
 4698SOL     OW14992   3.503   4.832   2.294
 4698SOL    HW114993   3.589   4.834   2.242
 4698SOL    HW214994   3.517   4.879   2.382
 4699SOL     OW14995   1.975   4.461   3.459
 4699SOL    HW114996   2.063   4.448   3.504
 4699SOL    HW214997   1.962   4.558   3.437
 4700SOL     OW14998   2.475   5.089   2.588
 4700SOL    HW114999   2.426   5.002   2.597
 4700SOL    HW215000   2.452   5.132   2.501
 4701SOL     OW15001   3.155   4.952   3.285
 4701SOL    HW115002   3.192   4.879   3.227
 4701SOL    HW215003   3.207   4.957   3.370
 4702SOL     OW15004   2.059   4.700   3.126
 4702SOL    HW115005   2.148   4.655   3.112
 4702SOL    HW215006   1.986   4.635   3.107
 4703SOL     OW15007   3.049   5.516   3.478
 4703SOL    HW115008   3.073   5.576   3.402
 4703SOL    HW215009   3.056   5.421   3.448
 4704SOL     OW15010   2.179   3.975   3.663
 4704SOL    HW115011   2.250   4.046   3.669
 4704SOL    HW215012   2.091   4.014   3.691
 4705SOL     OW15013   3.328   5.141   2.815
 4705SOL    HW115014   3.269   5.147   2.895
 4705SOL    HW215015   3.313   5.053   2.769
 4706SOL     OW15016   3.529   5.438   2.434
 4706SOL    HW115017   3.488   5.415   2.346
 4706SOL    HW215018   3.511   5.364   2.499
 4707SOL     OW15019   2.460   4.453   2.132
 4707SOL    HW115020   2.484   4.522   2.064
 4707SOL    HW215021   2.382   4.486   2.186
 4708SOL     OW15022   3.143   4.069   2.806
 4708SOL    HW115023   3.057   4.019   2.793
 4708SOL    HW215024   3.205   4.015   2.862
 4709SOL     OW15025   3.438   5.386   2.169
 4709SOL    HW115026   3.527   5.432   2.172
 4709SOL    HW215027   3.417   5.362   2.074
 4710SOL     OW15028   3.256   4.193   3.536
 4710SOL    HW115029   3.236   4.236   3.624
 4710SOL    HW215030   3.334   4.131   3.545
 4711SOL     OW15031   1.938   4.535   2.651
 4711SOL    HW115032   2.037   4.523   2.660
 4711SOL    HW215033   1.914   4.630   2.672
 4712SOL     OW15034   1.992   5.545   3.433
 4712SOL    HW115035   1.982   5.530   3.532
 4712SOL    HW215036   1.906   5.581   3.397
 4713SOL     OW15037   3.224   4.868   2.407
 4713SOL    HW115038   3.307   4.839   2.359
 4713SOL    HW215039   3.175   4.935   2.351
 4714SOL     OW15040   2.870   5.180   2.339
 4714SOL    HW115041   2.824   5.252   2.287
 4714SOL    HW215042   2.866   5.200   2.437
 4715SOL     OW15043   2.213   5.525   2.715
 4715SOL    HW115044   2.263   5.439   2.721
 4715SOL    HW215045   2.278   5.602   2.712
 4716SOL     OW15046   3.657   4.790   2.735
 4716SOL    HW115047   3.595   4.775   2.659
 4716SOL    HW215048   3.605   4.801   2.820
 4717SOL     OW15049   3.089   5.274   3.368
 4717SOL    HW115050   3.095   5.197   3.432
 4717SOL    HW215051   3.037   5.248   3.288
 4718SOL     OW15052   2.183   4.667   2.104
 4718SOL    HW115053   2.265   4.706   2.062
 4718SOL    HW215054   2.156   4.585   2.055
 4719SOL     OW15055   2.323   4.990   3.589
 4719SOL    HW115056   2.273   4.991   3.503
 4719SOL    HW215057   2.260   4.972   3.665
 4720SOL     OW15058   2.973   5.500   2.099
 4720SOL    HW115059   2.913   5.438   2.149
 4720SOL    HW215060   3.004   5.456   2.014
 4721SOL     OW15061   2.064   4.009   3.360
 4721SOL    HW115062   1.984   4.069   3.347
 4721SOL    HW215063   2.054   3.960   3.446
 4722SOL     OW15064   3.494   5.101   1.943
 4722SOL    HW115065   3.462   5.195   1.933
 4722SOL    HW215066   3.418   5.038   1.931
 4723SOL     OW15067   2.326   5.467   2.185
 4723SOL    HW115068   2.359   5.506   2.271
 4723SOL    HW215069   2.402   5.460   2.120
 4724SOL     OW15070   3.262   3.831   2.288
 4724SOL    HW115071   3.238   3.794   2.198
 4724SOL    HW215072   3.361   3.847   2.292
 4725SOL     OW15073   2.111   5.509   3.103
 4725SOL    HW115074   2.168   5.444   3.153
 4725SOL    HW215075   2.095   5.476   3.010
 4726SOL     OW15076   2.802   5.422   2.766
 4726SOL    HW115077   2.882   5.365   2.787
 4726SOL    HW215078   2.753   5.382   2.689
 4727SOL     OW15079   2.244   4.424   2.342
 4727SOL    HW115080   2.289   4.334   2.339
 4727SOL    HW215081   2.150   4.413   2.375
 4728SOL     OW15082   3.409   3.946   3.591
 4728SOL    HW115083   3.404   3.983   3.683
 4728SOL    HW215084   3.337   3.877   3.579
 4729SOL     OW15085   2.750   5.238   3.057
 4729SOL    HW115086   2.727   5.213   2.963
 4729SOL    HW215087   2.811   5.169   3.096
 4730SOL     OW15088   2.665   5.126   2.786
 4730SOL    HW115089   2.755   5.140   2.744
 4730SOL    HW215090   2.594   5.128   2.715
 4731SOL     OW15091   3.296   4.912   1.903
 4731SOL    HW115092   3.328   4.836   1.960
 4731SOL    HW215093   3.204   4.939   1.933
 4732SOL     OW15094   2.159   3.759   2.033
 4732SOL    HW115095   2.208   3.843   2.012
 4732SOL    HW215096   2.221   3.694   2.078
 4733SOL     OW15097   3.089   5.294   2.655
 4733SOL    HW115098   3.110   5.368   2.590
 4733SOL    HW215099   3.157   5.294   2.728
 4734SOL     OW15100   2.321   4.876   2.603
 4734SOL    HW115101   2.250   4.849   2.668
 4734SOL    HW215102   2.295   4.848   2.510
 4735SOL     OW15103   3.133   5.521   2.453
 4735SOL    HW115104   3.177   5.585   2.389
 4735SOL    HW215105   3.083   5.573   2.523
 4736SOL     OW15106   1.940   4.280   3.248
 4736SOL    HW115107   2.032   4.279   3.207
 4736SOL    HW215108   1.934   4.354   3.315
 4737SOL     OW15109   2.879   3.763   2.615
 4737SOL    HW115110   2.807   3.768   2.546
 4737SOL    HW215111   2.855   3.694   2.684
 4738SOL     OW15112   3.291   4.897   2.729
 4738SOL    HW115113   3.236   4.813   2.722
 4738SOL    HW215114   3.317   4.926   2.637
 4739SOL     OW15115   3.328   4.314   2.854
 4739SOL    HW115116   3.298   4.219   2.861
 4739SOL    HW215117   3.401   4.330   2.920
 4740SOL     OW15118   2.350   5.109   2.036
 4740SOL    HW115119   2.263   5.094   2.083
 4740SOL    HW215120   2.333   5.135   1.941
 4741SOL     OW15121   3.526   5.004   2.519
 4741SOL    HW115122   3.625   5.012   2.533
 4741SOL    HW215123   3.481   5.088   2.550
 4742SOL     OW15124   3.616   4.947   3.450
 4742SOL    HW115125   3.707   4.908   3.437
 4742SOL    HW215126   3.624   5.043   3.474
 4743SOL     OW15127   2.926   5.071   3.202
 4743SOL    HW115128   2.846   5.048   3.257
 4743SOL    HW215129   3.009   5.045   3.251
 4744SOL     OW15130   3.454   5.353   3.487
 4744SOL    HW115131   3.481   5.387   3.397
 4744SOL    HW215132   3.533   5.315   3.533
 4745SOL     OW15133   2.973   4.919   2.962
 4745SOL    HW115134   2.933   4.963   3.043
 4745SOL    HW215135   2.932   4.956   2.879
 4746SOL     OW15136   3.500   4.823   2.941
 4746SOL    HW115137   3.505   4.904   3.000
 4746SOL    HW215138   3.414   4.825   2.890
 4747SOL     OW15139   2.777   3.813   3.264
 4747SOL    HW115140   2.802   3.793   3.169
 4747SOL    HW215141   2.849   3.869   3.306
 4748SOL     OW15142   2.842   4.840   3.581
 4748SOL    HW115143   2.743   4.846   3.591
 4748SOL    HW215144   2.865   4.760   3.525
 4749SOL     OW15145   2.567   4.774   2.230
 4749SOL    HW115146   2.553   4.781   2.329
 4749SOL    HW215147   2.651   4.723   2.212
 4750SOL     OW15148   2.272   4.537   3.113
 4750SOL    HW115149   2.358   4.549   3.163
 4750SOL    HW215150   2.230   4.450   3.140
 4751SOL     OW15151   3.136   4.110   3.124
 4751SOL    HW115152   3.157   4.184   3.188
 4751SOL    HW215153   3.047   4.127   3.081
 4752SOL     OW15154   1.926   5.288   3.193
 4752SOL    HW115155   1.880   5.370   3.159
 4752SOL    HW215156   2.024   5.307   3.202
 4753SOL     OW15157   2.229   4.824   2.363
 4753SOL    HW115158   2.222   4.907   2.307
 4753SOL    HW215159   2.233   4.744   2.303
 4754SOL     OW15160   2.428   4.261   2.727
 4754SOL    HW115161   2.440   4.327   2.653
 4754SOL    HW215162   2.474   4.295   2.810
 4755SOL     OW15163   3.114   5.072   2.250
 4755SOL    HW115164   3.164   5.149   2.290
 4755SOL    HW215165   3.019   5.074   2.282
 4756SOL     OW15166   3.134   5.169   3.004
 4756SOL    HW115167   3.181   5.182   3.091
 4756SOL    HW215168   3.068   5.095   3.013
 4757SOL     OW15169   2.216   5.234   3.191
 4757SOL    HW115170   2.195   5.190   3.104
 4757SOL    HW215171   2.313   5.260   3.194
 4758SOL     OW15172   2.264   4.475   3.460
 4758SOL    HW115173   2.332   4.530   3.413
 4758SOL    HW215174   2.304   4.387   3.487
 4759SOL     OW15175   2.875   3.829   3.632
 4759SOL    HW115176   2.881   3.914   3.580
 4759SOL    HW215177   2.907   3.753   3.575
 4760SOL     OW15178   2.435   4.594   2.891
 4760SOL    HW115179   2.479   4.683   2.882
 4760SOL    HW215180   2.372   4.594   2.968
 4761SOL     OW15181   2.169   3.937   3.093
 4761SOL    HW115182   2.146   3.974   3.183
 4761SOL    HW215183   2.139   3.842   3.087
 4762SOL     OW15184   1.899   5.034   3.144
 4762SOL    HW115185   1.952   4.985   3.212
 4762SOL    HW215186   1.921   5.132   3.149
 4763SOL     OW15187   2.169   3.787   2.480
 4763SOL    HW115188   2.158   3.881   2.513
 4763SOL    HW215189   2.164   3.724   2.557
 4764SOL     OW15190   3.484   4.091   2.236
 4764SOL    HW115191   3.486   4.015   2.300
 4764SOL    HW215192   3.436   4.168   2.276
 4765SOL     OW15193   2.842   5.297   3.562
 4765SOL    HW115194   2.822   5.341   3.474
 4765SOL    HW215195   2.881   5.206   3.546
 4766SOL     OW15196   3.721   5.242   3.467
 4766SOL    HW115197   3.735   5.269   3.372
 4766SOL    HW215198   3.804   5.264   3.520
 4767SOL     OW15199   2.212   4.622   3.666
 4767SOL    HW115200   2.288   4.666   3.714
 4767SOL    HW215201   2.247   4.575   3.584
 4768SOL     OW15202   3.402   3.998   1.987
 4768SOL    HW115203   3.341   3.923   2.010
 4768SOL    HW215204   3.424   4.050   2.070
 4769SOL     OW15205   2.930   5.057   2.711
 4769SOL    HW115206   2.937   4.973   2.656
 4769SOL    HW215207   2.992   5.126   2.675
 4770SOL     OW15208   2.181   4.534   2.811
 4770SOL    HW115209   2.274   4.570   2.816
 4770SOL    HW215210   2.175   4.449   2.863
 4771SOL     OW15211   2.201   4.233   2.868
 4771SOL    HW115212   2.149   4.150   2.851
 4771SOL    HW215213   2.278   4.238   2.804
 4772SOL     OW15214   3.000   4.104   3.540
 4772SOL    HW115215   2.955   4.167   3.604
 4772SOL    HW215216   3.093   4.135   3.523
 4773SOL     OW15217   3.022   3.931   3.339
 4773SOL    HW115218   3.022   3.995   3.416
 4773SOL    HW215219   3.050   3.979   3.256
 4774SOL     OW15220   1.870   5.050   2.062
 4774SOL    HW115221   1.777   5.071   2.031
 4774SOL    HW215222   1.880   4.951   2.075
 4775SOL     OW15223   1.950   5.525   2.789
 4775SOL    HW115224   1.908   5.439   2.762
 4775SOL    HW215225   2.044   5.528   2.755
 4776SOL     OW15226   2.366   5.292   2.772
 4776SOL    HW115227   2.432   5.366   2.781
 4776SOL    HW215228   2.410   5.213   2.730
 4777SOL     OW15229   1.902   4.268   2.976
 4777SOL    HW115230   1.987   4.235   2.935
 4777SOL    HW215231   1.915   4.283   3.074
 4778SOL     OW15232   2.051   4.244   3.584
 4778SOL    HW115233   2.110   4.204   3.514
 4778SOL    HW215234   1.993   4.315   3.543
 4779SOL     OW15235   3.519   4.328   3.068
 4779SOL    HW115236   3.481   4.259   3.130
 4779SOL    HW215237   3.601   4.292   3.024
 4780SOL     OW15238   2.114   5.288   3.606
 4780SOL    HW115239   2.084   5.345   3.682
 4780SOL    HW215240   2.107   5.191   3.632
 4781SOL     OW15241   2.792   5.402   3.327
 4781SOL    HW115242   2.768   5.384   3.232
 4781SOL    HW215243   2.822   5.496   3.337
 4782SOL     OW15244   2.335   4.224   2.053
 4782SOL    HW115245   2.396   4.304   2.057
 4782SOL    HW215246   2.240   4.255   2.060
 4783SOL     OW15247   2.021   4.861   3.328
 4783SOL    HW115248   2.043   4.800   3.404
 4783SOL    HW215249   2.031   4.812   3.242
 4784SOL     OW15250   3.209   4.783   3.096
 4784SOL    HW115251   3.233   4.720   3.022
 4784SOL    HW215252   3.119   4.823   3.078
 4785SOL     OW15253   3.621   5.471   3.016
 4785SOL    HW115254   3.682   5.501   2.943
 4785SOL    HW215255   3.583   5.382   2.994
 4786SOL     OW15256   3.114   5.455   2.990
 4786SOL    HW115257   3.198   5.460   2.936
 4786SOL    HW215258   3.091   5.359   3.008
 4787SOL     OW15259   1.945   4.982   2.884
 4787SOL    HW115260   1.940   4.981   2.984
 4787SOL    HW215261   1.862   4.941   2.846
 4788SOL     OW15262   2.550   5.386   3.578
 4788SOL    HW115263   2.494   5.467   3.587
 4788SOL    HW215264   2.602   5.390   3.492
 4789SOL     OW15265   3.588   3.859   2.385
 4789SOL    HW115266   3.661   3.842   2.318
 4789SOL    HW215267   3.557   3.772   2.423
 4790SOL     OW15268   3.250   5.297   2.339
 4790SOL    HW115269   3.317   5.309   2.265
 4790SOL    HW215270   3.210   5.386   2.362
 4791SOL     OW15271   1.992   5.518   3.713
 4791SOL    HW115272   1.951   5.444   3.766
 4791SOL    HW215273   2.056   5.569   3.771
 4792SOL     OW15274   2.692   4.997   3.284
 4792SOL    HW115275   2.687   5.030   3.379
 4792SOL    HW215276   2.606   5.016   3.238
 4793SOL     OW15277   2.534   5.340   2.016
 4793SOL    HW115278   2.543   5.350   1.917
 4793SOL    HW215279   2.494   5.251   2.037
 4794SOL     OW15280   3.512   5.444   3.256
 4794SOL    HW115281   3.565   5.454   3.172
 4794SOL    HW215282   3.485   5.534   3.290
 4795SOL     OW15283   3.703   3.899   2.825
 4795SOL    HW115284   3.742   3.814   2.789
 4795SOL    HW215285   3.605   3.901   2.806
 4796SOL     OW15286   2.125   4.050   2.582
 4796SOL    HW115287   2.046   4.101   2.548
 4796SOL    HW215288   2.116   4.035   2.680
 4797SOL     OW15289   3.056   5.336   1.893
 4797SOL    HW115290   3.062   5.243   1.930
 4797SOL    HW215291   2.997   5.336   1.813
 4798SOL     OW15292   2.684   4.726   3.234
 4798SOL    HW115293   2.724   4.725   3.142
 4798SOL    HW215294   2.694   4.818   3.274
 4799SOL     OW15295   2.778   4.634   2.153
 4799SOL    HW115296   2.841   4.672   2.085
 4799SOL    HW215297   2.818   4.551   2.192
 4800SOL     OW15298   3.366   5.331   1.906
 4800SOL    HW115299   3.274   5.368   1.913
 4800SOL    HW215300   3.404   5.351   1.816
 4801SOL     OW15301   2.234   5.012   3.352
 4801SOL    HW115302   2.221   5.105   3.318
 4801SOL    HW215303   2.150   4.960   3.339
 4802SOL     OW15304   3.476   5.016   3.151
 4802SOL    HW115305   3.536   5.019   3.231
 4802SOL    HW215306   3.401   5.080   3.164
 4803SOL     OW15307   2.901   4.822   2.558
 4803SOL    HW115308   2.831   4.775   2.612
 4803SOL    HW215309   2.960   4.754   2.515
 4804SOL     OW15310   2.876   3.960   2.833
 4804SOL    HW115311   2.868   3.924   2.740
 4804SOL    HW215312   2.874   3.884   2.898
 4805SOL     OW15313   2.452   5.211   2.353
 4805SOL    HW115314   2.494   5.153   2.283
 4805SOL    HW215315   2.408   5.290   2.309
 4806SOL     OW15316   3.571   4.109   3.243
 4806SOL    HW115317   3.644   4.178   3.247
 4806SOL    HW215318   3.599   4.034   3.184
 4807SOL     OW15319   2.117   5.072   2.152
 4807SOL    HW115320   2.021   5.073   2.125
 4807SOL    HW215321   2.129   5.125   2.236
 4808SOL     OW15322   1.967   4.737   3.588
 4808SOL    HW115323   1.890   4.704   3.642
 4808SOL    HW215324   2.052   4.707   3.630
 4809SOL     OW15325   1.937   4.069   1.895
 4809SOL    HW115326   1.845   4.041   1.866
 4809SOL    HW215327   1.968   4.146   1.839
 4810SOL     OW15328   1.934   3.890   2.180
 4810SOL    HW115329   1.917   3.973   2.126
 4810SOL    HW215330   2.024   3.853   2.158
 4811SOL     OW15331   3.045   5.059   1.981
 4811SOL    HW115332   2.946   5.048   1.983
 4811SOL    HW215333   3.079   5.074   2.074
 4812SOL     OW15334   2.475   4.566   3.293
 4812SOL    HW115335   2.531   4.647   3.276
 4812SOL    HW215336   2.534   4.486   3.296
 4813SOL     OW15337   3.355   5.491   2.821
 4813SOL    HW115338   3.388   5.555   2.752
 4813SOL    HW215339   3.421   5.485   2.896
 4814SOL     OW15340   3.312   4.944   3.495
 4814SOL    HW115341   3.303   4.934   3.594
 4814SOL    HW215342   3.408   4.937   3.469
 4815SOL     OW15343   2.252   5.465   3.422
 4815SOL    HW115344   2.161   5.506   3.420
 4815SOL    HW215345   2.245   5.371   3.454
 4816SOL     OW15346   3.087   4.049   2.311
 4816SOL    HW115347   3.152   3.975   2.300
 4816SOL    HW215348   3.107   4.099   2.395
 4817SOL     OW15349   2.456   4.469   2.514
 4817SOL    HW115350   2.506   4.554   2.495
 4817SOL    HW215351   2.368   4.471   2.466
 4818SOL     OW15352   3.639   4.066   3.504
 4818SOL    HW115353   3.622   4.097   3.410
 4818SOL    HW215354   3.555   4.029   3.542
 4819SOL     OW15355   2.721   5.098   1.878
 4819SOL    HW115356   2.675   5.113   1.966
 4819SOL    HW215357   2.765   5.183   1.848
 4820SOL     OW15358   2.523   5.514   2.815
 4820SOL    HW115359   2.477   5.602   2.802
 4820SOL    HW215360   2.622   5.526   2.808
 4821SOL     OW15361   2.721   4.680   2.723
 4821SOL    HW115362   2.775   4.611   2.771
 4821SOL    HW215363   2.689   4.749   2.789
 4822SOL     OW15364   2.945   4.708   1.949
 4822SOL    HW115365   2.922   4.761   1.867
 4822SOL    HW215366   3.026   4.652   1.930
 4823SOL     OW15367   3.723   5.293   2.713
 4823SOL    HW115368   3.652   5.281   2.643
 4823SOL    HW215369   3.724   5.214   2.773
 4824SOL     OW15370   2.083   5.038   3.706
 4824SOL    HW115371   2.018   4.965   3.685
 4824SOL    HW215372   2.087   5.052   3.804
 4825SOL     OW15373   1.941   4.964   2.515
 4825SOL    HW115374   1.940   4.917   2.603
 4825SOL    HW215375   2.023   4.936   2.464
 4826SOL     OW15376   2.534   5.115   3.486
 4826SOL    HW115377   2.456   5.065   3.524
 4826SOL    HW215378   2.531   5.210   3.517
 4827SOL     OW15379   3.686   3.916   3.089
 4827SOL    HW115380   3.682   3.826   3.133
 4827SOL    HW215381   3.689   3.905   2.990
 4828SOL     OW15382   2.290   4.148   2.382
 4828SOL    HW115383   2.320   4.076   2.320
 4828SOL    HW215384   2.251   4.108   2.465
 4829SOL     OW15385   3.567   5.211   2.966
 4829SOL    HW115386   3.474   5.186   2.939
 4829SOL    HW215387   3.593   5.161   3.048
 4830SOL     OW15388   2.179   4.271   3.142
 4830SOL    HW115389   2.217   4.212   3.214
 4830SOL    HW215390   2.219   4.245   3.054
 4831SOL     OW15391   2.674   5.310   2.549
 4831SOL    HW115392   2.706   5.320   2.455
 4831SOL    HW215393   2.595   5.248   2.551
 4832SOL     OW15394   3.286   3.938   2.974
 4832SOL    HW115395   3.338   3.873   3.029
 4832SOL    HW215396   3.237   4.001   3.035
 4833SOL     OW15397   2.863   3.758   3.016
 4833SOL    HW115398   2.800   3.686   2.985
 4833SOL    HW215399   2.956   3.722   3.016
 4834SOL     OW15400   2.632   5.054   2.163
 4834SOL    HW115401   2.586   4.967   2.180
 4834SOL    HW215402   2.723   5.051   2.204
 4835SOL     OW15403   2.480   5.291   3.146
 4835SOL    HW115404   2.475   5.373   3.203
 4835SOL    HW215405   2.569   5.288   3.101
 4836SOL     OW15406   3.214   3.776   2.030
 4836SOL    HW115407   3.249   3.735   1.946
 4836SOL    HW215408   3.124   3.738   2.050
 4837SOL     OW15409   3.162   4.177   2.553
 4837SOL    HW115410   3.103   4.257   2.557
 4837SOL    HW215411   3.177   4.142   2.646
 4838SOL     OW15412   3.455   3.945   2.744
 4838SOL    HW115413   3.371   3.944   2.798
 4838SOL    HW215414   3.457   4.028   2.688
 4839SOL     OW15415   1.901   4.801   2.162
 4839SOL    HW115416   2.000   4.790   2.153
 4839SOL    HW215417   1.861   4.715   2.194
 4840SOL     OW15418   2.737   5.370   2.199
 4840SOL    HW115419   2.660   5.335   2.145
 4840SOL    HW215420   2.705   5.441   2.261
 4841SOL     OW15421   2.092   4.352   3.837
 4841SOL    HW115422   1.999   4.350   3.874
 4841SOL    HW215423   2.093   4.313   3.745
 4842SOL     OW15424   2.087   3.999   4.720
 4842SOL    HW115425   2.122   3.982   4.812
 4842SOL    HW215426   1.999   3.954   4.708
 4843SOL     OW15427   1.881   4.092   4.371
 4843SOL    HW115428   1.799   4.135   4.410
 4843SOL    HW215429   1.853   4.019   4.308
 4844SOL     OW15430   2.431   4.999   4.889
 4844SOL    HW115431   2.338   4.992   4.852
 4844SOL    HW215432   2.442   5.088   4.933
 4845SOL     OW15433   3.417   5.235   4.427
 4845SOL    HW115434   3.360   5.219   4.508
 4845SOL    HW215435   3.358   5.245   4.347
 4846SOL     OW15436   3.617   4.331   3.955
 4846SOL    HW115437   3.605   4.318   3.856
 4846SOL    HW215438   3.587   4.250   4.004
 4847SOL     OW15439   2.630   4.868   4.747
 4847SOL    HW115440   2.552   4.885   4.807
 4847SOL    HW215441   2.664   4.955   4.711
 4848SOL     OW15442   2.712   4.522   5.547
 4848SOL    HW115443   2.708   4.598   5.612
 4848SOL    HW215444   2.734   4.558   5.456
 4849SOL     OW15445   2.547   4.736   4.389
 4849SOL    HW115446   2.616   4.720   4.459
 4849SOL    HW215447   2.474   4.793   4.427
 4850SOL     OW15448   2.548   4.885   5.527
 4850SOL    HW115449   2.608   4.964   5.541
 4850SOL    HW215450   2.462   4.916   5.486
 4851SOL     OW15451   2.197   5.159   4.785
 4851SOL    HW115452   2.119   5.128   4.732
 4851SOL    HW215453   2.255   5.217   4.728
 4852SOL     OW15454   3.322   5.229   5.063
 4852SOL    HW115455   3.346   5.323   5.089
 4852SOL    HW215456   3.306   5.175   5.145
 4853SOL     OW15457   3.465   4.171   4.461
 4853SOL    HW115458   3.391   4.217   4.411
 4853SOL    HW215459   3.516   4.239   4.514
 4854SOL     OW15460   2.093   5.437   4.207
 4854SOL    HW115461   2.127   5.514   4.261
 4854SOL    HW215462   2.137   5.437   4.117
 4855SOL     OW15463   2.989   5.065   5.414
 4855SOL    HW115464   3.036   5.065   5.502
 4855SOL    HW215465   2.941   4.978   5.403
 4856SOL     OW15466   2.092   5.158   4.262
 4856SOL    HW115467   2.066   5.254   4.262
 4856SOL    HW215468   2.021   5.104   4.307
 4857SOL     OW15469   2.102   4.815   4.610
 4857SOL    HW115470   2.116   4.731   4.662
 4857SOL    HW215471   2.047   4.879   4.665
 4858SOL     OW15472   2.482   5.510   5.163
 4858SOL    HW115473   2.390   5.493   5.198
 4858SOL    HW215474   2.510   5.602   5.189
 4859SOL     OW15475   2.468   4.688   3.847
 4859SOL    HW115476   2.475   4.772   3.793
 4859SOL    HW215477   2.514   4.701   3.935
 4860SOL     OW15478   3.456   3.838   5.204
 4860SOL    HW115479   3.438   3.905   5.132
 4860SOL    HW215480   3.453   3.884   5.293
 4861SOL     OW15481   1.984   4.367   4.287
 4861SOL    HW115482   1.939   4.279   4.304
 4861SOL    HW215483   1.983   4.421   4.371
 4862SOL     OW15484   3.704   5.491   4.083
 4862SOL    HW115485   3.758   5.462   4.163
 4862SOL    HW215486   3.734   5.581   4.054
 4863SOL     OW15487   1.889   5.320   3.841
 4863SOL    HW115488   1.870   5.224   3.862
 4863SOL    HW215489   1.856   5.378   3.916
 4864SOL     OW15490   3.503   4.832   4.156
 4864SOL    HW115491   3.589   4.834   4.104
 4864SOL    HW215492   3.517   4.879   4.244
 4865SOL     OW15493   1.975   4.461   5.321
 4865SOL    HW115494   2.063   4.448   5.366
 4865SOL    HW215495   1.962   4.558   5.299
 4866SOL     OW15496   2.475   5.089   4.450
 4866SOL    HW115497   2.426   5.002   4.459
 4866SOL    HW215498   2.452   5.132   4.363
 4867SOL     OW15499   3.155   4.952   5.147
 4867SOL    HW115500   3.192   4.879   5.089
 4867SOL    HW215501   3.207   4.957   5.232
 4868SOL     OW15502   2.059   4.700   4.988
 4868SOL    HW115503   2.148   4.655   4.974
 4868SOL    HW215504   1.986   4.635   4.969
 4869SOL     OW15505   3.049   5.516   5.340
 4869SOL    HW115506   3.073   5.576   5.264
 4869SOL    HW215507   3.056   5.421   5.310
 4870SOL     OW15508   2.179   3.975   5.525
 4870SOL    HW115509   2.250   4.046   5.531
 4870SOL    HW215510   2.091   4.014   5.553
 4871SOL     OW15511   3.328   5.141   4.677
 4871SOL    HW115512   3.269   5.147   4.757
 4871SOL    HW215513   3.313   5.053   4.631
 4872SOL     OW15514   3.529   5.438   4.296
 4872SOL    HW115515   3.488   5.415   4.208
 4872SOL    HW215516   3.511   5.364   4.361
 4873SOL     OW15517   2.460   4.453   3.994
 4873SOL    HW115518   2.484   4.522   3.926
 4873SOL    HW215519   2.382   4.486   4.048
 4874SOL     OW15520   3.143   4.069   4.668
 4874SOL    HW115521   3.057   4.019   4.655
 4874SOL    HW215522   3.205   4.015   4.724
 4875SOL     OW15523   3.438   5.386   4.031
 4875SOL    HW115524   3.527   5.432   4.034
 4875SOL    HW215525   3.417   5.362   3.936
 4876SOL     OW15526   3.256   4.193   5.398
 4876SOL    HW115527   3.236   4.236   5.486
 4876SOL    HW215528   3.334   4.131   5.407
 4877SOL     OW15529   1.938   4.535   4.513
 4877SOL    HW115530   2.037   4.523   4.522
 4877SOL    HW215531   1.914   4.630   4.534
 4878SOL     OW15532   1.992   5.545   5.295
 4878SOL    HW115533   1.982   5.530   5.394
 4878SOL    HW215534   1.906   5.581   5.259
 4879SOL     OW15535   3.581   4.309   5.555
 4879SOL    HW115536   3.555   4.398   5.519
 4879SOL    HW215537   3.579   4.241   5.482
 4880SOL     OW15538   3.224   4.868   4.269
 4880SOL    HW115539   3.307   4.839   4.221
 4880SOL    HW215540   3.175   4.935   4.213
 4881SOL     OW15541   2.870   5.180   4.201
 4881SOL    HW115542   2.824   5.252   4.149
 4881SOL    HW215543   2.866   5.200   4.299
 4882SOL     OW15544   2.213   5.525   4.577
 4882SOL    HW115545   2.263   5.439   4.583
 4882SOL    HW215546   2.278   5.602   4.574
 4883SOL     OW15547   3.657   4.790   4.597
 4883SOL    HW115548   3.595   4.775   4.521
 4883SOL    HW215549   3.605   4.801   4.682
 4884SOL     OW15550   3.089   5.274   5.230
 4884SOL    HW115551   3.095   5.197   5.294
 4884SOL    HW215552   3.037   5.248   5.150
 4885SOL     OW15553   2.183   4.667   3.966
 4885SOL    HW115554   2.265   4.706   3.924
 4885SOL    HW215555   2.156   4.585   3.917
 4886SOL     OW15556   2.323   4.990   5.451
 4886SOL    HW115557   2.273   4.991   5.365
 4886SOL    HW215558   2.260   4.972   5.527
 4887SOL     OW15559   2.973   5.500   3.961
 4887SOL    HW115560   2.913   5.438   4.011
 4887SOL    HW215561   3.004   5.456   3.876
 4888SOL     OW15562   2.064   4.009   5.222
 4888SOL    HW115563   1.984   4.069   5.209
 4888SOL    HW215564   2.054   3.960   5.308
 4889SOL     OW15565   3.494   5.101   3.805
 4889SOL    HW115566   3.462   5.195   3.795
 4889SOL    HW215567   3.418   5.038   3.793
 4890SOL     OW15568   2.326   5.467   4.047
 4890SOL    HW115569   2.359   5.506   4.133
 4890SOL    HW215570   2.402   5.460   3.982
 4891SOL     OW15571   3.262   3.831   4.150
 4891SOL    HW115572   3.238   3.794   4.060
 4891SOL    HW215573   3.361   3.847   4.154
 4892SOL     OW15574   2.111   5.509   4.965
 4892SOL    HW115575   2.168   5.444   5.015
 4892SOL    HW215576   2.095   5.476   4.872
 4893SOL     OW15577   2.802   5.422   4.628
 4893SOL    HW115578   2.882   5.365   4.649
 4893SOL    HW215579   2.753   5.382   4.551
 4894SOL     OW15580   2.244   4.424   4.204
 4894SOL    HW115581   2.289   4.334   4.201
 4894SOL    HW215582   2.150   4.413   4.237
 4895SOL     OW15583   3.409   3.946   5.453
 4895SOL    HW115584   3.404   3.983   5.545
 4895SOL    HW215585   3.337   3.877   5.441
 4896SOL     OW15586   2.643   3.988   5.473
 4896SOL    HW115587   2.710   3.927   5.516
 4896SOL    HW215588   2.570   4.007   5.538
 4897SOL     OW15589   2.750   5.238   4.919
 4897SOL    HW115590   2.727   5.213   4.825
 4897SOL    HW215591   2.811   5.169   4.958
 4898SOL     OW15592   2.665   5.126   4.648
 4898SOL    HW115593   2.755   5.140   4.606
 4898SOL    HW215594   2.594   5.128   4.577
 4899SOL     OW15595   3.296   4.912   3.765
 4899SOL    HW115596   3.328   4.836   3.822
 4899SOL    HW215597   3.204   4.939   3.795
 4900SOL     OW15598   2.159   3.759   3.895
 4900SOL    HW115599   2.208   3.843   3.874
 4900SOL    HW215600   2.221   3.694   3.940
 4901SOL     OW15601   3.089   5.294   4.517
 4901SOL    HW115602   3.110   5.368   4.452
 4901SOL    HW215603   3.157   5.294   4.590
 4902SOL     OW15604   2.321   4.876   4.465
 4902SOL    HW115605   2.250   4.849   4.530
 4902SOL    HW215606   2.295   4.848   4.372
 4903SOL     OW15607   3.133   5.521   4.315
 4903SOL    HW115608   3.177   5.585   4.251
 4903SOL    HW215609   3.083   5.573   4.385
 4904SOL     OW15610   1.940   4.280   5.110
 4904SOL    HW115611   2.032   4.279   5.069
 4904SOL    HW215612   1.934   4.354   5.177
 4905SOL     OW15613   2.879   3.763   4.477
 4905SOL    HW115614   2.807   3.768   4.408
 4905SOL    HW215615   2.855   3.694   4.546
 4906SOL     OW15616   3.291   4.897   4.591
 4906SOL    HW115617   3.236   4.813   4.584
 4906SOL    HW215618   3.317   4.926   4.499
 4907SOL     OW15619   3.328   4.314   4.716
 4907SOL    HW115620   3.298   4.219   4.723
 4907SOL    HW215621   3.401   4.330   4.782
 4908SOL     OW15622   2.350   5.109   3.898
 4908SOL    HW115623   2.263   5.094   3.945
 4908SOL    HW215624   2.333   5.135   3.803
 4909SOL     OW15625   3.526   5.004   4.381
 4909SOL    HW115626   3.625   5.012   4.395
 4909SOL    HW215627   3.481   5.088   4.412
 4910SOL     OW15628   3.252   4.299   3.802
 4910SOL    HW115629   3.198   4.278   3.883
 4910SOL    HW215630   3.343   4.258   3.811
 4911SOL     OW15631   3.616   4.947   5.312
 4911SOL    HW115632   3.707   4.908   5.299
 4911SOL    HW215633   3.624   5.043   5.336
 4912SOL     OW15634   2.926   5.071   5.064
 4912SOL    HW115635   2.846   5.048   5.119
 4912SOL    HW215636   3.009   5.045   5.113
 4913SOL     OW15637   3.454   5.353   5.349
 4913SOL    HW115638   3.481   5.387   5.259
 4913SOL    HW215639   3.533   5.315   5.395
 4914SOL     OW15640   2.973   4.919   4.824
 4914SOL    HW115641   2.933   4.963   4.905
 4914SOL    HW215642   2.932   4.956   4.741
 4915SOL     OW15643   3.500   4.823   4.803
 4915SOL    HW115644   3.505   4.904   4.862
 4915SOL    HW215645   3.414   4.825   4.752
 4916SOL     OW15646   2.777   3.813   5.126
 4916SOL    HW115647   2.802   3.793   5.031
 4916SOL    HW215648   2.849   3.869   5.168
 4917SOL     OW15649   2.842   4.840   5.443
 4917SOL    HW115650   2.743   4.846   5.453
 4917SOL    HW215651   2.865   4.760   5.387
 4918SOL     OW15652   2.567   4.774   4.092
 4918SOL    HW115653   2.553   4.781   4.191
 4918SOL    HW215654   2.651   4.723   4.074
 4919SOL     OW15655   2.272   4.537   4.975
 4919SOL    HW115656   2.358   4.549   5.025
 4919SOL    HW215657   2.230   4.450   5.002
 4920SOL     OW15658   3.136   4.110   4.986
 4920SOL    HW115659   3.157   4.184   5.050
 4920SOL    HW215660   3.047   4.127   4.943
 4921SOL     OW15661   1.926   5.288   5.055
 4921SOL    HW115662   1.880   5.370   5.021
 4921SOL    HW215663   2.024   5.307   5.064
 4922SOL     OW15664   2.229   4.824   4.225
 4922SOL    HW115665   2.222   4.907   4.169
 4922SOL    HW215666   2.233   4.744   4.165
 4923SOL     OW15667   2.428   4.261   4.589
 4923SOL    HW115668   2.440   4.327   4.515
 4923SOL    HW215669   2.474   4.295   4.672
 4924SOL     OW15670   3.114   5.072   4.112
 4924SOL    HW115671   3.164   5.149   4.152
 4924SOL    HW215672   3.019   5.074   4.144
 4925SOL     OW15673   3.134   5.169   4.866
 4925SOL    HW115674   3.181   5.182   4.953
 4925SOL    HW215675   3.068   5.095   4.875
 4926SOL     OW15676   2.216   5.234   5.053
 4926SOL    HW115677   2.195   5.190   4.966
 4926SOL    HW215678   2.313   5.260   5.056
 4927SOL     OW15679   2.264   4.475   5.322
 4927SOL    HW115680   2.332   4.530   5.275
 4927SOL    HW215681   2.304   4.387   5.349
 4928SOL     OW15682   3.449   4.503   5.394
 4928SOL    HW115683   3.357   4.541   5.389
 4928SOL    HW215684   3.509   4.550   5.329
 4929SOL     OW15685   2.875   3.829   5.494
 4929SOL    HW115686   2.881   3.914   5.442
 4929SOL    HW215687   2.907   3.753   5.437
 4930SOL     OW15688   2.366   3.774   5.464
 4930SOL    HW115689   2.324   3.717   5.394
 4930SOL    HW215690   2.300   3.843   5.496
 4931SOL     OW15691   2.435   4.594   4.753
 4931SOL    HW115692   2.479   4.683   4.744
 4931SOL    HW215693   2.372   4.594   4.830
 4932SOL     OW15694   1.899   5.034   5.006
 4932SOL    HW115695   1.952   4.985   5.074
 4932SOL    HW215696   1.921   5.132   5.011
 4933SOL     OW15697   3.590   4.659   5.578
 4933SOL    HW115698   3.544   4.652   5.489
 4933SOL    HW215699   3.528   4.703   5.644
 4934SOL     OW15700   2.169   3.787   4.342
 4934SOL    HW115701   2.158   3.881   4.375
 4934SOL    HW215702   2.164   3.724   4.419
 4935SOL     OW15703   3.484   4.091   4.098
 4935SOL    HW115704   3.486   4.015   4.162
 4935SOL    HW215705   3.436   4.168   4.138
 4936SOL     OW15706   2.842   5.297   5.424
 4936SOL    HW115707   2.822   5.341   5.336
 4936SOL    HW215708   2.881   5.206   5.408
 4937SOL     OW15709   3.721   5.242   5.329
 4937SOL    HW115710   3.735   5.269   5.234
 4937SOL    HW215711   3.804   5.264   5.382
 4938SOL     OW15712   2.212   4.622   5.528
 4938SOL    HW115713   2.288   4.666   5.576
 4938SOL    HW215714   2.247   4.575   5.446
 4939SOL     OW15715   3.402   3.998   3.849
 4939SOL    HW115716   3.341   3.923   3.872
 4939SOL    HW215717   3.424   4.050   3.932
 4940SOL     OW15718   2.930   5.057   4.573
 4940SOL    HW115719   2.937   4.973   4.518
 4940SOL    HW215720   2.992   5.126   4.537
 4941SOL     OW15721   2.181   4.534   4.673
 4941SOL    HW115722   2.274   4.570   4.678
 4941SOL    HW215723   2.175   4.449   4.725
 4942SOL     OW15724   2.201   4.233   4.730
 4942SOL    HW115725   2.149   4.150   4.713
 4942SOL    HW215726   2.278   4.238   4.666
 4943SOL     OW15727   3.000   4.104   5.402
 4943SOL    HW115728   2.955   4.167   5.466
 4943SOL    HW215729   3.093   4.135   5.385
 4944SOL     OW15730   3.022   3.931   5.201
 4944SOL    HW115731   3.022   3.995   5.278
 4944SOL    HW215732   3.050   3.979   5.118
 4945SOL     OW15733   1.870   5.050   3.924
 4945SOL    HW115734   1.777   5.071   3.893
 4945SOL    HW215735   1.880   4.951   3.937
 4946SOL     OW15736   1.950   5.525   4.651
 4946SOL    HW115737   1.908   5.439   4.624
 4946SOL    HW215738   2.044   5.528   4.617
 4947SOL     OW15739   2.366   5.292   4.634
 4947SOL    HW115740   2.432   5.366   4.643
 4947SOL    HW215741   2.410   5.213   4.592
 4948SOL     OW15742   1.902   4.268   4.838
 4948SOL    HW115743   1.987   4.235   4.797
 4948SOL    HW215744   1.915   4.283   4.936
 4949SOL     OW15745   2.051   4.244   5.446
 4949SOL    HW115746   2.110   4.204   5.376
 4949SOL    HW215747   1.993   4.315   5.405
 4950SOL     OW15748   3.231   4.674   5.384
 4950SOL    HW115749   3.270   4.763   5.404
 4950SOL    HW215750   3.241   4.654   5.287
 4951SOL     OW15751   3.519   4.328   4.930
 4951SOL    HW115752   3.481   4.259   4.992
 4951SOL    HW215753   3.601   4.292   4.886
 4952SOL     OW15754   2.114   5.288   5.468
 4952SOL    HW115755   2.084   5.345   5.544
 4952SOL    HW215756   2.107   5.191   5.494
 4953SOL     OW15757   2.792   5.402   5.189
 4953SOL    HW115758   2.768   5.384   5.094
 4953SOL    HW215759   2.822   5.496   5.199
 4954SOL     OW15760   2.335   4.224   3.915
 4954SOL    HW115761   2.396   4.304   3.919
 4954SOL    HW215762   2.240   4.255   3.922
 4955SOL     OW15763   2.021   4.861   5.190
 4955SOL    HW115764   2.043   4.800   5.266
 4955SOL    HW215765   2.031   4.812   5.104
 4956SOL     OW15766   3.209   4.783   4.958
 4956SOL    HW115767   3.233   4.720   4.884
 4956SOL    HW215768   3.119   4.823   4.940
 4957SOL     OW15769   3.621   5.471   4.878
 4957SOL    HW115770   3.682   5.501   4.805
 4957SOL    HW215771   3.583   5.382   4.856
 4958SOL     OW15772   3.114   5.455   4.852
 4958SOL    HW115773   3.198   5.460   4.798
 4958SOL    HW215774   3.091   5.359   4.870
 4959SOL     OW15775   1.945   4.982   4.746
 4959SOL    HW115776   1.940   4.981   4.846
 4959SOL    HW215777   1.862   4.941   4.708
 4960SOL     OW15778   2.550   5.386   5.440
 4960SOL    HW115779   2.494   5.467   5.449
 4960SOL    HW215780   2.602   5.390   5.354
 4961SOL     OW15781   3.588   3.859   4.247
 4961SOL    HW115782   3.661   3.842   4.180
 4961SOL    HW215783   3.557   3.772   4.285
 4962SOL     OW15784   3.250   5.297   4.201
 4962SOL    HW115785   3.317   5.309   4.127
 4962SOL    HW215786   3.210   5.386   4.224
 4963SOL     OW15787   1.992   5.518   5.575
 4963SOL    HW115788   1.951   5.444   5.628
 4963SOL    HW215789   2.056   5.569   5.633
 4964SOL     OW15790   2.692   4.997   5.146
 4964SOL    HW115791   2.687   5.030   5.241
 4964SOL    HW215792   2.606   5.016   5.100
 4965SOL     OW15793   2.534   5.340   3.878
 4965SOL    HW115794   2.543   5.350   3.779
 4965SOL    HW215795   2.494   5.251   3.899
 4966SOL     OW15796   3.512   5.444   5.118
 4966SOL    HW115797   3.565   5.454   5.034
 4966SOL    HW215798   3.485   5.534   5.152
 4967SOL     OW15799   3.703   3.899   4.687
 4967SOL    HW115800   3.742   3.814   4.651
 4967SOL    HW215801   3.605   3.901   4.668
 4968SOL     OW15802   2.125   4.050   4.444
 4968SOL    HW115803   2.046   4.101   4.410
 4968SOL    HW215804   2.116   4.035   4.542
 4969SOL     OW15805   3.056   5.336   3.755
 4969SOL    HW115806   3.062   5.243   3.792
 4969SOL    HW215807   2.997   5.336   3.675
 4970SOL     OW15808   2.684   4.726   5.096
 4970SOL    HW115809   2.724   4.725   5.004
 4970SOL    HW215810   2.694   4.818   5.136
 4971SOL     OW15811   2.778   4.634   4.015
 4971SOL    HW115812   2.841   4.672   3.947
 4971SOL    HW215813   2.818   4.551   4.054
 4972SOL     OW15814   3.366   5.331   3.768
 4972SOL    HW115815   3.274   5.368   3.775
 4972SOL    HW215816   3.404   5.351   3.678
 4973SOL     OW15817   2.234   5.012   5.214
 4973SOL    HW115818   2.221   5.105   5.180
 4973SOL    HW215819   2.150   4.960   5.201
 4974SOL     OW15820   3.476   5.016   5.013
 4974SOL    HW115821   3.536   5.019   5.093
 4974SOL    HW215822   3.401   5.080   5.026
 4975SOL     OW15823   2.901   4.822   4.420
 4975SOL    HW115824   2.831   4.775   4.474
 4975SOL    HW215825   2.960   4.754   4.377
 4976SOL     OW15826   2.876   3.960   4.695
 4976SOL    HW115827   2.868   3.924   4.602
 4976SOL    HW215828   2.874   3.884   4.760
 4977SOL     OW15829   2.452   5.211   4.215
 4977SOL    HW115830   2.494   5.153   4.145
 4977SOL    HW215831   2.408   5.290   4.171
 4978SOL     OW15832   3.571   4.109   5.105
 4978SOL    HW115833   3.644   4.178   5.109
 4978SOL    HW215834   3.599   4.034   5.046
 4979SOL     OW15835   2.117   5.072   4.014
 4979SOL    HW115836   2.021   5.073   3.987
 4979SOL    HW215837   2.129   5.125   4.098
 4980SOL     OW15838   1.967   4.737   5.450
 4980SOL    HW115839   1.890   4.704   5.504
 4980SOL    HW215840   2.052   4.707   5.492
 4981SOL     OW15841   1.937   4.069   3.757
 4981SOL    HW115842   1.845   4.041   3.728
 4981SOL    HW215843   1.968   4.146   3.701
 4982SOL     OW15844   1.934   3.890   4.042
 4982SOL    HW115845   1.917   3.973   3.988
 4982SOL    HW215846   2.024   3.853   4.020
 4983SOL     OW15847   3.045   5.059   3.843
 4983SOL    HW115848   2.946   5.048   3.845
 4983SOL    HW215849   3.079   5.074   3.936
 4984SOL     OW15850   2.475   4.566   5.155
 4984SOL    HW115851   2.531   4.647   5.138
 4984SOL    HW215852   2.534   4.486   5.158
 4985SOL     OW15853   3.355   5.491   4.683
 4985SOL    HW115854   3.388   5.555   4.614
 4985SOL    HW215855   3.421   5.485   4.758
 4986SOL     OW15856   2.578   4.289   5.432
 4986SOL    HW115857   2.597   4.354   5.506
 4986SOL    HW215858   2.638   4.209   5.441
 4987SOL     OW15859   3.312   4.944   5.357
 4987SOL    HW115860   3.303   4.934   5.456
 4987SOL    HW215861   3.408   4.937   5.331
 4988SOL     OW15862   2.252   5.465   5.284
 4988SOL    HW115863   2.161   5.506   5.282
 4988SOL    HW215864   2.245   5.371   5.316
 4989SOL     OW15865   3.087   4.049   4.173
 4989SOL    HW115866   3.152   3.975   4.162
 4989SOL    HW215867   3.107   4.099   4.257
 4990SOL     OW15868   2.456   4.469   4.376
 4990SOL    HW115869   2.506   4.554   4.357
 4990SOL    HW215870   2.368   4.471   4.328
 4991SOL     OW15871   3.639   4.066   5.366
 4991SOL    HW115872   3.622   4.097   5.272
 4991SOL    HW215873   3.555   4.029   5.404
 4992SOL     OW15874   2.721   5.098   3.740
 4992SOL    HW115875   2.675   5.113   3.828
 4992SOL    HW215876   2.765   5.183   3.710
 4993SOL     OW15877   2.523   5.514   4.677
 4993SOL    HW115878   2.477   5.602   4.664
 4993SOL    HW215879   2.622   5.526   4.670
 4994SOL     OW15880   2.721   4.680   4.585
 4994SOL    HW115881   2.775   4.611   4.633
 4994SOL    HW215882   2.689   4.749   4.651
 4995SOL     OW15883   2.945   4.708   3.811
 4995SOL    HW115884   2.922   4.761   3.729
 4995SOL    HW215885   3.026   4.652   3.792
 4996SOL     OW15886   3.723   5.293   4.575
 4996SOL    HW115887   3.652   5.281   4.505
 4996SOL    HW215888   3.724   5.214   4.635
 4997SOL     OW15889   2.083   5.038   5.568
 4997SOL    HW115890   2.018   4.965   5.547
 4997SOL    HW215891   2.087   5.052   5.666
 4998SOL     OW15892   1.941   4.964   4.377
 4998SOL    HW115893   1.940   4.917   4.465
 4998SOL    HW215894   2.023   4.936   4.326
 4999SOL     OW15895   2.534   5.115   5.348
 4999SOL    HW115896   2.456   5.065   5.386
 4999SOL    HW215897   2.531   5.210   5.379
 5000SOL     OW15898   3.686   3.916   4.951
 5000SOL    HW115899   3.682   3.826   4.995
 5000SOL    HW215900   3.689   3.905   4.852
 5001SOL     OW15901   2.290   4.148   4.244
 5001SOL    HW115902   2.320   4.076   4.182
 5001SOL    HW215903   2.251   4.108   4.327
 5002SOL     OW15904   3.567   5.211   4.828
 5002SOL    HW115905   3.474   5.186   4.801
 5002SOL    HW215906   3.593   5.161   4.910
 5003SOL     OW15907   2.179   4.271   5.004
 5003SOL    HW115908   2.217   4.212   5.076
 5003SOL    HW215909   2.219   4.245   4.916
 5004SOL     OW15910   2.674   5.310   4.411
 5004SOL    HW115911   2.706   5.320   4.317
 5004SOL    HW215912   2.595   5.248   4.413
 5005SOL     OW15913   3.286   3.938   4.836
 5005SOL    HW115914   3.338   3.873   4.891
 5005SOL    HW215915   3.237   4.001   4.897
 5006SOL     OW15916   2.863   3.758   4.878
 5006SOL    HW115917   2.800   3.686   4.847
 5006SOL    HW215918   2.956   3.722   4.878
 5007SOL     OW15919   2.632   5.054   4.025
 5007SOL    HW115920   2.586   4.967   4.042
 5007SOL    HW215921   2.723   5.051   4.066
 5008SOL     OW15922   2.480   5.291   5.008
 5008SOL    HW115923   2.475   5.373   5.065
 5008SOL    HW215924   2.569   5.288   4.963
 5009SOL     OW15925   3.214   3.776   3.892
 5009SOL    HW115926   3.249   3.735   3.808
 5009SOL    HW215927   3.124   3.738   3.912
 5010SOL     OW15928   3.162   4.177   4.415
 5010SOL    HW115929   3.103   4.257   4.419
 5010SOL    HW215930   3.177   4.142   4.508
 5011SOL     OW15931   3.455   3.945   4.606
 5011SOL    HW115932   3.371   3.944   4.660
 5011SOL    HW215933   3.457   4.028   4.550
 5012SOL     OW15934   1.901   4.801   4.024
 5012SOL    HW115935   2.000   4.790   4.015
 5012SOL    HW215936   1.861   4.715   4.056
 5013SOL     OW15937   2.737   5.370   4.061
 5013SOL    HW115938   2.660   5.335   4.007
 5013SOL    HW215939   2.705   5.441   4.123
 5014SOL     OW15940   2.092   4.352   5.699
 5014SOL    HW115941   1.999   4.350   5.736
 5014SOL    HW215942   2.093   4.313   5.607
 5015SOL     OW15943   2.087   3.999   6.582
 5015SOL    HW115944   2.122   3.982   6.674
 5015SOL    HW215945   1.999   3.954   6.570
 5016SOL     OW15946   1.881   4.092   6.233
 5016SOL    HW115947   1.799   4.135   6.272
 5016SOL    HW215948   1.853   4.019   6.170
 5017SOL     OW15949   2.431   4.999   6.751
 5017SOL    HW115950   2.338   4.992   6.714
 5017SOL    HW215951   2.442   5.088   6.795
 5018SOL     OW15952   3.417   5.235   6.289
 5018SOL    HW115953   3.360   5.219   6.370
 5018SOL    HW215954   3.358   5.245   6.209
 5019SOL     OW15955   2.997   4.427   6.303
 5019SOL    HW115956   3.054   4.505   6.278
 5019SOL    HW215957   2.937   4.453   6.379
 5020SOL     OW15958   3.617   4.331   5.817
 5020SOL    HW115959   3.605   4.318   5.718
 5020SOL    HW215960   3.587   4.250   5.866
 5021SOL     OW15961   2.630   4.868   6.609
 5021SOL    HW115962   2.552   4.885   6.669
 5021SOL    HW215963   2.664   4.955   6.573
 5022SOL     OW15964   2.547   4.736   6.251
 5022SOL    HW115965   2.616   4.720   6.321
 5022SOL    HW215966   2.474   4.793   6.289
 5023SOL     OW15967   2.197   5.159   6.647
 5023SOL    HW115968   2.119   5.128   6.594
 5023SOL    HW215969   2.255   5.217   6.590
 5024SOL     OW15970   3.465   4.171   6.323
 5024SOL    HW115971   3.391   4.217   6.273
 5024SOL    HW215972   3.516   4.239   6.376
 5025SOL     OW15973   2.093   5.437   6.069
 5025SOL    HW115974   2.127   5.514   6.123
 5025SOL    HW215975   2.137   5.437   5.979
 5026SOL     OW15976   2.092   5.158   6.124
 5026SOL    HW115977   2.066   5.254   6.124
 5026SOL    HW215978   2.021   5.104   6.169
 5027SOL     OW15979   2.102   4.815   6.472
 5027SOL    HW115980   2.116   4.731   6.524
 5027SOL    HW215981   2.047   4.879   6.527
 5028SOL     OW15982   2.482   5.510   7.025
 5028SOL    HW115983   2.390   5.493   7.060
 5028SOL    HW215984   2.510   5.602   7.051
 5029SOL     OW15985   2.468   4.688   5.709
 5029SOL    HW115986   2.475   4.772   5.655
 5029SOL    HW215987   2.514   4.701   5.797
 5030SOL     OW15988   1.984   4.367   6.149
 5030SOL    HW115989   1.939   4.279   6.166
 5030SOL    HW215990   1.983   4.421   6.233
 5031SOL     OW15991   3.704   5.491   5.945
 5031SOL    HW115992   3.758   5.462   6.025
 5031SOL    HW215993   3.734   5.581   5.916
 5032SOL     OW15994   1.889   5.320   5.703
 5032SOL    HW115995   1.870   5.224   5.724
 5032SOL    HW215996   1.856   5.378   5.778
 5033SOL     OW15997   3.551   4.646   6.198
 5033SOL    HW115998   3.646   4.617   6.206
 5033SOL    HW215999   3.543   4.711   6.123
 5034SOL     OW16000   3.503   4.832   6.018
 5034SOL    HW116001   3.589   4.834   5.966
 5034SOL    HW216002   3.517   4.879   6.106
 5035SOL     OW16003   2.475   5.089   6.312
 5035SOL    HW116004   2.426   5.002   6.321
 5035SOL    HW216005   2.452   5.132   6.225
 5036SOL     OW16006   2.671   3.728   6.088
 5036SOL    HW116007   2.711   3.819   6.079
 5036SOL    HW216008   2.571   3.736   6.094
 5037SOL     OW16009   2.059   4.700   6.850
 5037SOL    HW116010   2.148   4.655   6.836
 5037SOL    HW216011   1.986   4.635   6.831
 5038SOL     OW16012   3.387   4.723   5.776
 5038SOL    HW116013   3.324   4.647   5.789
 5038SOL    HW216014   3.435   4.741   5.862
 5039SOL     OW16015   3.328   5.141   6.539
 5039SOL    HW116016   3.269   5.147   6.619
 5039SOL    HW216017   3.313   5.053   6.493
 5040SOL     OW16018   3.529   5.438   6.158
 5040SOL    HW116019   3.488   5.415   6.070
 5040SOL    HW216020   3.511   5.364   6.223
 5041SOL     OW16021   2.460   4.453   5.856
 5041SOL    HW116022   2.484   4.522   5.788
 5041SOL    HW216023   2.382   4.486   5.910
 5042SOL     OW16024   3.143   4.069   6.530
 5042SOL    HW116025   3.057   4.019   6.517
 5042SOL    HW216026   3.205   4.015   6.586
 5043SOL     OW16027   3.438   5.386   5.893
 5043SOL    HW116028   3.527   5.432   5.896
 5043SOL    HW216029   3.417   5.362   5.798
 5044SOL     OW16030   2.669   4.329   7.051
 5044SOL    HW116031   2.622   4.326   7.140
 5044SOL    HW216032   2.618   4.274   6.985
 5045SOL     OW16033   2.853   4.134   6.828
 5045SOL    HW116034   2.776   4.168   6.882
 5045SOL    HW216035   2.819   4.083   6.749
 5046SOL     OW16036   2.903   4.425   6.015
 5046SOL    HW116037   2.929   4.421   6.111
 5046SOL    HW216038   2.818   4.374   6.001
 5047SOL     OW16039   1.938   4.535   6.375
 5047SOL    HW116040   2.037   4.523   6.384
 5047SOL    HW216041   1.914   4.630   6.396
 5048SOL     OW16042   1.992   5.545   7.157
 5048SOL    HW116043   1.982   5.530   7.256
 5048SOL    HW216044   1.906   5.581   7.121
 5049SOL     OW16045   2.727   4.072   5.781
 5049SOL    HW116046   2.786   4.135   5.732
 5049SOL    HW216047   2.746   3.978   5.752
 5050SOL     OW16048   3.224   4.868   6.131
 5050SOL    HW116049   3.307   4.839   6.083
 5050SOL    HW216050   3.175   4.935   6.075
 5051SOL     OW16051   2.412   3.920   6.471
 5051SOL    HW116052   2.407   3.915   6.571
 5051SOL    HW216053   2.414   4.016   6.442
 5052SOL     OW16054   2.870   5.180   6.063
 5052SOL    HW116055   2.824   5.252   6.011
 5052SOL    HW216056   2.866   5.200   6.161
 5053SOL     OW16057   2.213   5.525   6.439
 5053SOL    HW116058   2.263   5.439   6.445
 5053SOL    HW216059   2.278   5.602   6.436
 5054SOL     OW16060   3.657   4.790   6.459
 5054SOL    HW116061   3.595   4.775   6.383
 5054SOL    HW216062   3.605   4.801   6.544
 5055SOL     OW16063   2.183   4.667   5.828
 5055SOL    HW116064   2.265   4.706   5.786
 5055SOL    HW216065   2.156   4.585   5.779
 5056SOL     OW16066   3.320   4.459   6.314
 5056SOL    HW116067   3.315   4.394   6.389
 5056SOL    HW216068   3.400   4.518   6.327
 5057SOL     OW16069   2.973   5.500   5.823
 5057SOL    HW116070   2.913   5.438   5.873
 5057SOL    HW216071   3.004   5.456   5.738
 5058SOL     OW16072   3.494   5.101   5.667
 5058SOL    HW116073   3.462   5.195   5.657
 5058SOL    HW216074   3.418   5.038   5.655
 5059SOL     OW16075   2.326   5.467   5.909
 5059SOL    HW116076   2.359   5.506   5.995
 5059SOL    HW216077   2.402   5.460   5.844
 5060SOL     OW16078   3.262   3.831   6.012
 5060SOL    HW116079   3.238   3.794   5.922
 5060SOL    HW216080   3.361   3.847   6.016
 5061SOL     OW16081   2.111   5.509   6.827
 5061SOL    HW116082   2.168   5.444   6.877
 5061SOL    HW216083   2.095   5.476   6.734
 5062SOL     OW16084   2.802   5.422   6.490
 5062SOL    HW116085   2.882   5.365   6.511
 5062SOL    HW216086   2.753   5.382   6.413
 5063SOL     OW16087   2.244   4.424   6.066
 5063SOL    HW116088   2.289   4.334   6.063
 5063SOL    HW216089   2.150   4.413   6.099
 5064SOL     OW16090   2.476   3.846   5.703
 5064SOL    HW116091   2.574   3.824   5.710
 5064SOL    HW216092   2.445   3.829   5.610
 5065SOL     OW16093   2.750   5.238   6.781
 5065SOL    HW116094   2.727   5.213   6.687
 5065SOL    HW216095   2.811   5.169   6.820
 5066SOL     OW16096   2.665   5.126   6.510
 5066SOL    HW116097   2.755   5.140   6.468
 5066SOL    HW216098   2.594   5.128   6.439
 5067SOL     OW16099   2.784   4.227   6.485
 5067SOL    HW116100   2.759   4.218   6.389
 5067SOL    HW216101   2.832   4.145   6.516
 5068SOL     OW16102   2.401   3.788   6.098
 5068SOL    HW116103   2.320   3.789   6.156
 5068SOL    HW216104   2.404   3.871   6.043
 5069SOL     OW16105   3.296   4.912   5.627
 5069SOL    HW116106   3.328   4.836   5.684
 5069SOL    HW216107   3.204   4.939   5.657
 5070SOL     OW16108   2.159   3.759   5.757
 5070SOL    HW116109   2.208   3.843   5.736
 5070SOL    HW216110   2.221   3.694   5.802
 5071SOL     OW16111   2.797   3.960   6.066
 5071SOL    HW116112   2.749   4.001   5.988
 5071SOL    HW216113   2.896   3.958   6.047
 5072SOL     OW16114   3.089   5.294   6.379
 5072SOL    HW116115   3.110   5.368   6.314
 5072SOL    HW216116   3.157   5.294   6.452
 5073SOL     OW16117   2.321   4.876   6.327
 5073SOL    HW116118   2.250   4.849   6.392
 5073SOL    HW216119   2.295   4.848   6.234
 5074SOL     OW16120   3.133   5.521   6.177
 5074SOL    HW116121   3.177   5.585   6.113
 5074SOL    HW216122   3.083   5.573   6.247
 5075SOL     OW16123   2.894   4.273   5.602
 5075SOL    HW116124   2.853   4.355   5.563
 5075SOL    HW216125   2.958   4.299   5.675
 5076SOL     OW16126   2.423   3.946   6.733
 5076SOL    HW116127   2.461   3.862   6.770
 5076SOL    HW216128   2.335   3.965   6.777
 5077SOL     OW16129   2.728   4.178   6.228
 5077SOL    HW116130   2.696   4.250   6.166
 5077SOL    HW216131   2.752   4.097   6.175
 5078SOL     OW16132   2.879   3.763   6.339
 5078SOL    HW116133   2.807   3.768   6.270
 5078SOL    HW216134   2.855   3.694   6.408
 5079SOL     OW16135   3.291   4.897   6.453
 5079SOL    HW116136   3.236   4.813   6.446
 5079SOL    HW216137   3.317   4.926   6.361
 5080SOL     OW16138   3.328   4.314   6.578
 5080SOL    HW116139   3.298   4.219   6.585
 5080SOL    HW216140   3.401   4.330   6.644
 5081SOL     OW16141   3.719   4.557   5.963
 5081SOL    HW116142   3.761   4.493   6.027
 5081SOL    HW216143   3.681   4.506   5.885
 5082SOL     OW16144   2.350   5.109   5.760
 5082SOL    HW116145   2.263   5.094   5.807
 5082SOL    HW216146   2.333   5.135   5.665
 5083SOL     OW16147   3.526   5.004   6.243
 5083SOL    HW116148   3.625   5.012   6.257
 5083SOL    HW216149   3.481   5.088   6.274
 5084SOL     OW16150   3.252   4.299   5.664
 5084SOL    HW116151   3.198   4.278   5.745
 5084SOL    HW216152   3.343   4.258   5.673
 5085SOL     OW16153   2.389   3.980   5.914
 5085SOL    HW116154   2.416   3.921   5.839
 5085SOL    HW216155   2.389   4.075   5.883
 5086SOL     OW16156   3.616   4.947   7.174
 5086SOL    HW116157   3.707   4.908   7.161
 5086SOL    HW216158   3.624   5.043   7.198
 5087SOL     OW16159   2.973   4.919   6.686
 5087SOL    HW116160   2.933   4.963   6.767
 5087SOL    HW216161   2.932   4.956   6.603
 5088SOL     OW16162   3.500   4.823   6.665
 5088SOL    HW116163   3.505   4.904   6.724
 5088SOL    HW216164   3.414   4.825   6.614
 5089SOL     OW16165   2.567   4.774   5.954
 5089SOL    HW116166   2.553   4.781   6.053
 5089SOL    HW216167   2.651   4.723   5.936
 5090SOL     OW16168   2.272   4.537   6.837
 5090SOL    HW116169   2.358   4.549   6.887
 5090SOL    HW216170   2.230   4.450   6.864
 5091SOL     OW16171   3.136   4.110   6.848
 5091SOL    HW116172   3.157   4.184   6.912
 5091SOL    HW216173   3.047   4.127   6.805
 5092SOL     OW16174   1.926   5.288   6.917
 5092SOL    HW116175   1.880   5.370   6.883
 5092SOL    HW216176   2.024   5.307   6.926
 5093SOL     OW16177   2.229   4.824   6.087
 5093SOL    HW116178   2.222   4.907   6.031
 5093SOL    HW216179   2.233   4.744   6.027
 5094SOL     OW16180   2.428   4.261   6.451
 5094SOL    HW116181   2.440   4.327   6.377
 5094SOL    HW216182   2.474   4.295   6.534
 5095SOL     OW16183   3.114   5.072   5.974
 5095SOL    HW116184   3.164   5.149   6.014
 5095SOL    HW216185   3.019   5.074   6.006
 5096SOL     OW16186   3.134   5.169   6.728
 5096SOL    HW116187   3.181   5.182   6.815
 5096SOL    HW216188   3.068   5.095   6.737
 5097SOL     OW16189   3.444   4.363   6.058
 5097SOL    HW116190   3.413   4.424   6.131
 5097SOL    HW216191   3.494   4.415   5.989
 5098SOL     OW16192   2.216   5.234   6.915
 5098SOL    HW116193   2.195   5.190   6.828
 5098SOL    HW216194   2.313   5.260   6.918
 5099SOL     OW16195   2.435   4.594   6.615
 5099SOL    HW116196   2.479   4.683   6.606
 5099SOL    HW216197   2.372   4.594   6.692
 5100SOL     OW16198   3.222   4.586   6.631
 5100SOL    HW116199   3.147   4.586   6.565
 5100SOL    HW216200   3.259   4.494   6.640
 5101SOL     OW16201   3.071   4.249   5.861
 5101SOL    HW116202   3.084   4.165   5.915
 5101SOL    HW216203   3.042   4.323   5.921
 5102SOL     OW16204   2.169   3.937   6.817
 5102SOL    HW116205   2.146   3.974   6.907
 5102SOL    HW216206   2.139   3.842   6.811
 5103SOL     OW16207   1.899   5.034   6.868
 5103SOL    HW116208   1.952   4.985   6.936
 5103SOL    HW216209   1.921   5.132   6.873
 5104SOL     OW16210   2.594   4.358   6.650
 5104SOL    HW116211   2.653   4.332   6.574
 5104SOL    HW216212   2.566   4.454   6.639
 5105SOL     OW16213   2.169   3.787   6.204
 5105SOL    HW116214   2.158   3.881   6.237
 5105SOL    HW216215   2.164   3.724   6.281
 5106SOL     OW16216   3.484   4.091   5.960
 5106SOL    HW116217   3.486   4.015   6.024
 5106SOL    HW216218   3.436   4.168   6.000
 5107SOL     OW16219   2.885   4.490   6.552
 5107SOL    HW116220   2.900   4.511   6.648
 5107SOL    HW216221   2.855   4.395   6.543
 5108SOL     OW16222   3.402   3.998   5.711
 5108SOL    HW116223   3.341   3.923   5.734
 5108SOL    HW216224   3.424   4.050   5.794
 5109SOL     OW16225   3.165   4.562   5.628
 5109SOL    HW116226   3.199   4.469   5.643
 5109SOL    HW216227   3.183   4.589   5.533
 5110SOL     OW16228   2.930   5.057   6.435
 5110SOL    HW116229   2.937   4.973   6.380
 5110SOL    HW216230   2.992   5.126   6.399
 5111SOL     OW16231   2.181   4.534   6.535
 5111SOL    HW116232   2.274   4.570   6.540
 5111SOL    HW216233   2.175   4.449   6.587
 5112SOL     OW16234   2.201   4.233   6.592
 5112SOL    HW116235   2.149   4.150   6.575
 5112SOL    HW216236   2.278   4.238   6.528
 5113SOL     OW16237   3.022   3.931   7.063
 5113SOL    HW116238   3.022   3.995   7.140
 5113SOL    HW216239   3.050   3.979   6.980
 5114SOL     OW16240   1.870   5.050   5.786
 5114SOL    HW116241   1.777   5.071   5.755
 5114SOL    HW216242   1.880   4.951   5.799
 5115SOL     OW16243   1.950   5.525   6.513
 5115SOL    HW116244   1.908   5.439   6.486
 5115SOL    HW216245   2.044   5.528   6.479
 5116SOL     OW16246   2.366   5.292   6.496
 5116SOL    HW116247   2.432   5.366   6.505
 5116SOL    HW216248   2.410   5.213   6.454
 5117SOL     OW16249   2.864   4.520   6.824
 5117SOL    HW116250   2.905   4.488   6.910
 5117SOL    HW216251   2.768   4.493   6.821
 5118SOL     OW16252   1.902   4.268   6.700
 5118SOL    HW116253   1.987   4.235   6.659
 5118SOL    HW216254   1.915   4.283   6.798
 5119SOL     OW16255   2.677   4.296   5.911
 5119SOL    HW116256   2.684   4.207   5.865
 5119SOL    HW216257   2.583   4.330   5.903
 5120SOL     OW16258   3.519   4.328   6.792
 5120SOL    HW116259   3.481   4.259   6.854
 5120SOL    HW216260   3.601   4.292   6.748
 5121SOL     OW16261   2.533   4.188   6.855
 5121SOL    HW116262   2.499   4.099   6.825
 5121SOL    HW216263   2.559   4.242   6.775
 5122SOL     OW16264   2.792   5.402   7.051
 5122SOL    HW116265   2.768   5.384   6.956
 5122SOL    HW216266   2.822   5.496   7.061
 5123SOL     OW16267   2.335   4.224   5.777
 5123SOL    HW116268   2.396   4.304   5.781
 5123SOL    HW216269   2.240   4.255   5.784
 5124SOL     OW16270   2.021   4.861   7.052
 5124SOL    HW116271   2.043   4.800   7.128
 5124SOL    HW216272   2.031   4.812   6.966
 5125SOL     OW16273   3.209   4.783   6.820
 5125SOL    HW116274   3.233   4.720   6.746
 5125SOL    HW216275   3.119   4.823   6.802
 5126SOL     OW16276   3.164   4.579   5.895
 5126SOL    HW116277   3.078   4.548   5.937
 5126SOL    HW216278   3.160   4.565   5.796
 5127SOL     OW16279   3.621   5.471   6.740
 5127SOL    HW116280   3.682   5.501   6.667
 5127SOL    HW216281   3.583   5.382   6.718
 5128SOL     OW16282   3.114   5.455   6.714
 5128SOL    HW116283   3.198   5.460   6.660
 5128SOL    HW216284   3.091   5.359   6.732
 5129SOL     OW16285   1.945   4.982   6.608
 5129SOL    HW116286   1.940   4.981   6.708
 5129SOL    HW216287   1.862   4.941   6.570
 5130SOL     OW16288   3.588   3.859   6.109
 5130SOL    HW116289   3.661   3.842   6.042
 5130SOL    HW216290   3.557   3.772   6.147
 5131SOL     OW16291   3.250   5.297   6.063
 5131SOL    HW116292   3.317   5.309   5.989
 5131SOL    HW216293   3.210   5.386   6.086
 5132SOL     OW16294   3.142   4.651   6.258
 5132SOL    HW116295   3.202   4.570   6.260
 5132SOL    HW216296   3.182   4.720   6.198
 5133SOL     OW16297   2.534   5.340   5.740
 5133SOL    HW116298   2.543   5.350   5.641
 5133SOL    HW216299   2.494   5.251   5.761
 5134SOL     OW16300   3.703   3.899   6.549
 5134SOL    HW116301   3.742   3.814   6.513
 5134SOL    HW216302   3.605   3.901   6.530
 5135SOL     OW16303   2.125   4.050   6.306
 5135SOL    HW116304   2.046   4.101   6.272
 5135SOL    HW216305   2.116   4.035   6.404
 5136SOL     OW16306   3.056   5.336   5.617
 5136SOL    HW116307   3.062   5.243   5.654
 5136SOL    HW216308   2.997   5.336   5.537
 5137SOL     OW16309   2.684   4.726   6.958
 5137SOL    HW116310   2.724   4.725   6.866
 5137SOL    HW216311   2.694   4.818   6.998
 5138SOL     OW16312   2.778   4.634   5.877
 5138SOL    HW116313   2.841   4.672   5.809
 5138SOL    HW216314   2.818   4.551   5.916
 5139SOL     OW16315   3.366   5.331   5.630
 5139SOL    HW116316   3.274   5.368   5.637
 5139SOL    HW216317   3.404   5.351   5.540
 5140SOL     OW16318   3.476   5.016   6.875
 5140SOL    HW116319   3.536   5.019   6.955
 5140SOL    HW216320   3.401   5.080   6.888
 5141SOL     OW16321   2.901   4.822   6.282
 5141SOL    HW116322   2.831   4.775   6.336
 5141SOL    HW216323   2.960   4.754   6.239
 5142SOL     OW16324   2.876   3.960   6.557
 5142SOL    HW116325   2.868   3.924   6.464
 5142SOL    HW216326   2.874   3.884   6.622
 5143SOL     OW16327   2.452   5.211   6.077
 5143SOL    HW116328   2.494   5.153   6.007
 5143SOL    HW216329   2.408   5.290   6.033
 5144SOL     OW16330   3.571   4.109   6.967
 5144SOL    HW116331   3.644   4.178   6.971
 5144SOL    HW216332   3.599   4.034   6.908
 5145SOL     OW16333   2.117   5.072   5.876
 5145SOL    HW116334   2.021   5.073   5.849
 5145SOL    HW216335   2.129   5.125   5.960
 5146SOL     OW16336   2.534   3.927   7.075
 5146SOL    HW116337   2.624   3.911   7.035
 5146SOL    HW216338   2.542   3.932   7.174
 5147SOL     OW16339   1.937   4.069   5.619
 5147SOL    HW116340   1.845   4.041   5.590
 5147SOL    HW216341   1.968   4.146   5.563
 5148SOL     OW16342   1.934   3.890   5.904
 5148SOL    HW116343   1.917   3.973   5.850
 5148SOL    HW216344   2.024   3.853   5.882
 5149SOL     OW16345   3.045   5.059   5.705
 5149SOL    HW116346   2.946   5.048   5.707
 5149SOL    HW216347   3.079   5.074   5.798
 5150SOL     OW16348   3.355   5.491   6.545
 5150SOL    HW116349   3.388   5.555   6.476
 5150SOL    HW216350   3.421   5.485   6.620
 5151SOL     OW16351   3.312   4.944   7.219
 5151SOL    HW116352   3.303   4.934   7.318
 5151SOL    HW216353   3.408   4.937   7.193
 5152SOL     OW16354   2.252   5.465   7.146
 5152SOL    HW116355   2.161   5.506   7.144
 5152SOL    HW216356   2.245   5.371   7.178
 5153SOL     OW16357   3.536   4.607   6.840
 5153SOL    HW116358   3.509   4.518   6.803
 5153SOL    HW216359   3.537   4.675   6.767
 5154SOL     OW16360   3.087   4.049   6.035
 5154SOL    HW116361   3.152   3.975   6.024
 5154SOL    HW216362   3.107   4.099   6.119
 5155SOL     OW16363   2.456   4.469   6.238
 5155SOL    HW116364   2.506   4.554   6.219
 5155SOL    HW216365   2.368   4.471   6.190
 5156SOL     OW16366   3.592   4.658   7.103
 5156SOL    HW116367   3.630   4.749   7.118
 5156SOL    HW216368   3.584   4.641   7.004
 5157SOL     OW16369   2.721   5.098   5.602
 5157SOL    HW116370   2.675   5.113   5.690
 5157SOL    HW216371   2.765   5.183   5.572
 5158SOL     OW16372   2.523   5.514   6.539
 5158SOL    HW116373   2.477   5.602   6.526
 5158SOL    HW216374   2.622   5.526   6.532
 5159SOL     OW16375   2.721   4.680   6.447
 5159SOL    HW116376   2.775   4.611   6.495
 5159SOL    HW216377   2.689   4.749   6.513
 5160SOL     OW16378   2.945   4.708   5.673
 5160SOL    HW116379   2.922   4.761   5.591
 5160SOL    HW216380   3.026   4.652   5.654
 5161SOL     OW16381   3.723   5.293   6.437
 5161SOL    HW116382   3.652   5.281   6.367
 5161SOL    HW216383   3.724   5.214   6.497
 5162SOL     OW16384   1.941   4.964   6.239
 5162SOL    HW116385   1.940   4.917   6.327
 5162SOL    HW216386   2.023   4.936   6.188
 5163SOL     OW16387   3.686   3.916   6.813
 5163SOL    HW116388   3.682   3.826   6.857
 5163SOL    HW216389   3.689   3.905   6.714
 5164SOL     OW16390   2.290   4.148   6.106
 5164SOL    HW116391   2.320   4.076   6.044
 5164SOL    HW216392   2.251   4.108   6.189
 5165SOL     OW16393   3.567   5.211   6.690
 5165SOL    HW116394   3.474   5.186   6.663
 5165SOL    HW216395   3.593   5.161   6.772
 5166SOL     OW16396   2.179   4.271   6.866
 5166SOL    HW116397   2.217   4.212   6.938
 5166SOL    HW216398   2.219   4.245   6.778
 5167SOL     OW16399   2.674   5.310   6.273
 5167SOL    HW116400   2.706   5.320   6.179
 5167SOL    HW216401   2.595   5.248   6.275
 5168SOL     OW16402   3.286   3.938   6.698
 5168SOL    HW116403   3.338   3.873   6.753
 5168SOL    HW216404   3.237   4.001   6.759
 5169SOL     OW16405   2.863   3.758   6.740
 5169SOL    HW116406   2.800   3.686   6.709
 5169SOL    HW216407   2.956   3.722   6.740
 5170SOL     OW16408   2.632   5.054   5.887
 5170SOL    HW116409   2.586   4.967   5.904
 5170SOL    HW216410   2.723   5.051   5.928
 5171SOL     OW16411   2.480   5.291   6.870
 5171SOL    HW116412   2.475   5.373   6.927
 5171SOL    HW216413   2.569   5.288   6.825
 5172SOL     OW16414   3.214   3.776   5.754
 5172SOL    HW116415   3.249   3.735   5.670
 5172SOL    HW216416   3.124   3.738   5.774
 5173SOL     OW16417   3.162   4.177   6.277
 5173SOL    HW116418   3.103   4.257   6.281
 5173SOL    HW216419   3.177   4.142   6.370
 5174SOL     OW16420   3.455   3.945   6.468
 5174SOL    HW116421   3.371   3.944   6.522
 5174SOL    HW216422   3.457   4.028   6.412
 5175SOL     OW16423   1.901   4.801   5.886
 5175SOL    HW116424   2.000   4.790   5.877
 5175SOL    HW216425   1.861   4.715   5.918
 5176SOL     OW16426   2.737   5.370   5.923
 5176SOL    HW116427   2.660   5.335   5.869
 5176SOL    HW216428   2.705   5.441   5.985
 5177SOL     OW16429   2.092   6.214   0.113
 5177SOL    HW116430   1.999   6.212   0.150
 5177SOL    HW216431   2.093   6.175   0.021
 5178SOL     OW16432   2.087   5.861   0.996
 5178SOL    HW116433   2.122   5.844   1.088
 5178SOL    HW216434   1.999   5.816   0.984
 5179SOL     OW16435   1.881   5.954   0.647
 5179SOL    HW116436   1.799   5.997   0.686
 5179SOL    HW216437   1.853   5.881   0.584
 5180SOL     OW16438   2.431   6.861   1.165
 5180SOL    HW116439   2.338   6.854   1.128
 5180SOL    HW216440   2.442   6.950   1.209
 5181SOL     OW16441   3.417   7.097   0.703
 5181SOL    HW116442   3.360   7.081   0.784
 5181SOL    HW216443   3.358   7.107   0.623
 5182SOL     OW16444   2.997   6.289   0.717
 5182SOL    HW116445   3.054   6.367   0.692
 5182SOL    HW216446   2.937   6.315   0.793
 5183SOL     OW16447   3.617   6.193   0.231
 5183SOL    HW116448   3.605   6.180   0.132
 5183SOL    HW216449   3.587   6.112   0.280
 5184SOL     OW16450   2.630   6.730   1.023
 5184SOL    HW116451   2.552   6.747   1.083
 5184SOL    HW216452   2.664   6.817   0.987
 5185SOL     OW16453   2.712   6.384   1.823
 5185SOL    HW116454   2.708   6.460   1.888
 5185SOL    HW216455   2.734   6.420   1.732
 5186SOL     OW16456   2.547   6.598   0.665
 5186SOL    HW116457   2.616   6.582   0.735
 5186SOL    HW216458   2.474   6.655   0.703
 5187SOL     OW16459   2.548   6.747   1.803
 5187SOL    HW116460   2.608   6.826   1.817
 5187SOL    HW216461   2.462   6.778   1.762
 5188SOL     OW16462   2.197   7.021   1.061
 5188SOL    HW116463   2.119   6.990   1.008
 5188SOL    HW216464   2.255   7.079   1.004
 5189SOL     OW16465   2.300   5.978   1.499
 5189SOL    HW116466   2.382   5.922   1.508
 5189SOL    HW216467   2.219   5.920   1.503
 5190SOL     OW16468   3.465   6.033   0.737
 5190SOL    HW116469   3.391   6.079   0.687
 5190SOL    HW216470   3.516   6.101   0.790
 5191SOL     OW16471   2.102   6.677   0.886
 5191SOL    HW116472   2.116   6.593   0.938
 5191SOL    HW216473   2.047   6.741   0.941
 5192SOL     OW16474   2.468   6.550   0.123
 5192SOL    HW116475   2.475   6.634   0.069
 5192SOL    HW216476   2.514   6.563   0.211
 5193SOL     OW16477   3.456   5.700   1.480
 5193SOL    HW116478   3.438   5.767   1.408
 5193SOL    HW216479   3.453   5.746   1.569
 5194SOL     OW16480   1.984   6.229   0.563
 5194SOL    HW116481   1.939   6.141   0.580
 5194SOL    HW216482   1.983   6.283   0.647
 5195SOL     OW16483   3.551   6.508   0.612
 5195SOL    HW116484   3.646   6.479   0.620
 5195SOL    HW216485   3.543   6.573   0.537
 5196SOL     OW16486   3.503   6.694   0.432
 5196SOL    HW116487   3.589   6.696   0.380
 5196SOL    HW216488   3.517   6.741   0.520
 5197SOL     OW16489   1.975   6.323   1.597
 5197SOL    HW116490   2.063   6.310   1.642
 5197SOL    HW216491   1.962   6.420   1.575
 5198SOL     OW16492   3.155   6.814   1.423
 5198SOL    HW116493   3.192   6.741   1.365
 5198SOL    HW216494   3.207   6.819   1.508
 5199SOL     OW16495   2.671   5.590   0.502
 5199SOL    HW116496   2.711   5.681   0.493
 5199SOL    HW216497   2.571   5.598   0.508
 5200SOL     OW16498   2.059   6.562   1.264
 5200SOL    HW116499   2.148   6.517   1.250
 5200SOL    HW216500   1.986   6.497   1.245
 5201SOL     OW16501   3.387   6.585   0.190
 5201SOL    HW116502   3.324   6.509   0.203
 5201SOL    HW216503   3.435   6.603   0.276
 5202SOL     OW16504   2.179   5.837   1.801
 5202SOL    HW116505   2.250   5.908   1.807
 5202SOL    HW216506   2.091   5.876   1.829
 5203SOL     OW16507   3.328   7.003   0.953
 5203SOL    HW116508   3.269   7.009   1.033
 5203SOL    HW216509   3.313   6.915   0.907
 5204SOL     OW16510   2.460   6.315   0.270
 5204SOL    HW116511   2.484   6.384   0.202
 5204SOL    HW216512   2.382   6.348   0.324
 5205SOL     OW16513   3.143   5.931   0.944
 5205SOL    HW116514   3.057   5.881   0.931
 5205SOL    HW216515   3.205   5.877   1.000
 5206SOL     OW16516   2.669   6.191   1.465
 5206SOL    HW116517   2.622   6.188   1.554
 5206SOL    HW216518   2.618   6.136   1.399
 5207SOL     OW16519   3.256   6.055   1.674
 5207SOL    HW116520   3.236   6.098   1.762
 5207SOL    HW216521   3.334   5.993   1.683
 5208SOL     OW16522   2.835   6.476   1.572
 5208SOL    HW116523   2.881   6.392   1.543
 5208SOL    HW216524   2.779   6.510   1.497
 5209SOL     OW16525   2.853   5.996   1.242
 5209SOL    HW116526   2.776   6.030   1.296
 5209SOL    HW216527   2.819   5.945   1.163
 5210SOL     OW16528   2.903   6.287   0.429
 5210SOL    HW116529   2.929   6.283   0.525
 5210SOL    HW216530   2.818   6.236   0.415
 5211SOL     OW16531   1.938   6.397   0.789
 5211SOL    HW116532   2.037   6.385   0.798
 5211SOL    HW216533   1.914   6.492   0.810
 5212SOL     OW16534   2.727   5.934   0.195
 5212SOL    HW116535   2.786   5.997   0.146
 5212SOL    HW216536   2.746   5.840   0.166
 5213SOL     OW16537   3.581   6.171   1.831
 5213SOL    HW116538   3.555   6.260   1.795
 5213SOL    HW216539   3.579   6.103   1.758
 5214SOL     OW16540   3.224   6.730   0.545
 5214SOL    HW116541   3.307   6.701   0.497
 5214SOL    HW216542   3.175   6.797   0.489
 5215SOL     OW16543   2.412   5.782   0.885
 5215SOL    HW116544   2.407   5.777   0.985
 5215SOL    HW216545   2.414   5.878   0.856
 5216SOL     OW16546   3.657   6.652   0.873
 5216SOL    HW116547   3.595   6.637   0.797
 5216SOL    HW216548   3.605   6.663   0.958
 5217SOL     OW16549   2.183   6.529   0.242
 5217SOL    HW116550   2.265   6.568   0.200
 5217SOL    HW216551   2.156   6.447   0.193
 5218SOL     OW16552   3.320   6.321   0.728
 5218SOL    HW116553   3.315   6.256   0.803
 5218SOL    HW216554   3.400   6.380   0.741
 5219SOL     OW16555   2.064   5.871   1.498
 5219SOL    HW116556   1.984   5.931   1.485
 5219SOL    HW216557   2.054   5.822   1.584
 5220SOL     OW16558   3.494   6.963   0.081
 5220SOL    HW116559   3.462   7.057   0.071
 5220SOL    HW216560   3.418   6.900   0.069
 5221SOL     OW16561   2.244   6.286   0.480
 5221SOL    HW116562   2.289   6.196   0.477
 5221SOL    HW216563   2.150   6.275   0.513
 5222SOL     OW16564   3.409   5.808   1.729
 5222SOL    HW116565   3.404   5.845   1.821
 5222SOL    HW216566   3.337   5.739   1.717
 5223SOL     OW16567   2.643   5.850   1.749
 5223SOL    HW116568   2.710   5.789   1.792
 5223SOL    HW216569   2.570   5.869   1.814
 5224SOL     OW16570   3.213   6.176   1.433
 5224SOL    HW116571   3.241   6.133   1.518
 5224SOL    HW216572   3.238   6.272   1.434
 5225SOL     OW16573   2.784   6.089   0.899
 5225SOL    HW116574   2.759   6.080   0.803
 5225SOL    HW216575   2.832   6.007   0.930
 5226SOL     OW16576   2.401   5.650   0.512
 5226SOL    HW116577   2.320   5.651   0.570
 5226SOL    HW216578   2.404   5.733   0.457
 5227SOL     OW16579   3.296   6.774   0.041
 5227SOL    HW116580   3.328   6.698   0.098
 5227SOL    HW216581   3.204   6.801   0.071
 5228SOL     OW16582   2.797   5.822   0.480
 5228SOL    HW116583   2.749   5.863   0.402
 5228SOL    HW216584   2.896   5.820   0.461
 5229SOL     OW16585   2.938   6.269   1.464
 5229SOL    HW116586   2.858   6.208   1.467
 5229SOL    HW216587   3.019   6.216   1.440
 5230SOL     OW16588   3.089   7.156   0.793
 5230SOL    HW116589   3.110   7.230   0.728
 5230SOL    HW216590   3.157   7.156   0.866
 5231SOL     OW16591   2.321   6.738   0.741
 5231SOL    HW116592   2.250   6.711   0.806
 5231SOL    HW216593   2.295   6.710   0.648
 5232SOL     OW16594   2.894   6.135   0.016
 5232SOL    HW116595   2.853   6.217  -0.023
 5232SOL    HW216596   2.958   6.161   0.089
 5233SOL     OW16597   1.940   6.142   1.386
 5233SOL    HW116598   2.032   6.141   1.345
 5233SOL    HW216599   1.934   6.216   1.453
 5234SOL     OW16600   2.423   5.808   1.147
 5234SOL    HW116601   2.461   5.724   1.184
 5234SOL    HW216602   2.335   5.827   1.191
 5235SOL     OW16603   2.728   6.040   0.642
 5235SOL    HW116604   2.696   6.112   0.580
 5235SOL    HW216605   2.752   5.959   0.589
 5236SOL     OW16606   2.879   5.625   0.753
 5236SOL    HW116607   2.807   5.630   0.684
 5236SOL    HW216608   2.855   5.556   0.822
 5237SOL     OW16609   3.291   6.759   0.867
 5237SOL    HW116610   3.236   6.675   0.860
 5237SOL    HW216611   3.317   6.788   0.775
 5238SOL     OW16612   3.328   6.176   0.992
 5238SOL    HW116613   3.298   6.081   0.999
 5238SOL    HW216614   3.401   6.192   1.058
 5239SOL     OW16615   3.719   6.419   0.377
 5239SOL    HW116616   3.761   6.355   0.441
 5239SOL    HW216617   3.681   6.368   0.299
 5240SOL     OW16618   3.526   6.866   0.657
 5240SOL    HW116619   3.625   6.874   0.671
 5240SOL    HW216620   3.481   6.950   0.688
 5241SOL     OW16621   3.252   6.161   0.078
 5241SOL    HW116622   3.198   6.140   0.159
 5241SOL    HW216623   3.343   6.120   0.087
 5242SOL     OW16624   2.389   5.842   0.328
 5242SOL    HW116625   2.416   5.783   0.253
 5242SOL    HW216626   2.389   5.937   0.297
 5243SOL     OW16627   3.616   6.809   1.588
 5243SOL    HW116628   3.707   6.770   1.575
 5243SOL    HW216629   3.624   6.905   1.612
 5244SOL     OW16630   2.926   6.933   1.340
 5244SOL    HW116631   2.846   6.910   1.395
 5244SOL    HW216632   3.009   6.907   1.389
 5245SOL     OW16633   2.973   6.781   1.100
 5245SOL    HW116634   2.933   6.825   1.181
 5245SOL    HW216635   2.932   6.818   1.017
 5246SOL     OW16636   3.500   6.685   1.079
 5246SOL    HW116637   3.505   6.766   1.138
 5246SOL    HW216638   3.414   6.687   1.028
 5247SOL     OW16639   2.777   5.675   1.402
 5247SOL    HW116640   2.802   5.655   1.307
 5247SOL    HW216641   2.849   5.731   1.444
 5248SOL     OW16642   2.842   6.702   1.719
 5248SOL    HW116643   2.743   6.708   1.729
 5248SOL    HW216644   2.865   6.622   1.663
 5249SOL     OW16645   2.567   6.636   0.368
 5249SOL    HW116646   2.553   6.643   0.467
 5249SOL    HW216647   2.651   6.585   0.350
 5250SOL     OW16648   2.272   6.399   1.251
 5250SOL    HW116649   2.358   6.411   1.301
 5250SOL    HW216650   2.230   6.312   1.278
 5251SOL     OW16651   3.136   5.972   1.262
 5251SOL    HW116652   3.157   6.046   1.326
 5251SOL    HW216653   3.047   5.989   1.219
 5252SOL     OW16654   2.229   6.686   0.501
 5252SOL    HW116655   2.222   6.769   0.445
 5252SOL    HW216656   2.233   6.606   0.441
 5253SOL     OW16657   2.428   6.123   0.865
 5253SOL    HW116658   2.440   6.189   0.791
 5253SOL    HW216659   2.474   6.157   0.948
 5254SOL     OW16660   3.444   6.225   0.472
 5254SOL    HW116661   3.413   6.286   0.545
 5254SOL    HW216662   3.494   6.277   0.403
 5255SOL     OW16663   2.264   6.337   1.598
 5255SOL    HW116664   2.332   6.392   1.551
 5255SOL    HW216665   2.304   6.249   1.625
 5256SOL     OW16666   3.449   6.365   1.670
 5256SOL    HW116667   3.357   6.403   1.665
 5256SOL    HW216668   3.509   6.412   1.605
 5257SOL     OW16669   2.875   5.691   1.770
 5257SOL    HW116670   2.881   5.776   1.718
 5257SOL    HW216671   2.907   5.615   1.713
 5258SOL     OW16672   2.366   5.636   1.740
 5258SOL    HW116673   2.324   5.579   1.670
 5258SOL    HW216674   2.300   5.705   1.772
 5259SOL     OW16675   2.435   6.456   1.029
 5259SOL    HW116676   2.479   6.545   1.020
 5259SOL    HW216677   2.372   6.456   1.106
 5260SOL     OW16678   3.222   6.448   1.045
 5260SOL    HW116679   3.147   6.448   0.979
 5260SOL    HW216680   3.259   6.356   1.054
 5261SOL     OW16681   3.071   6.111   0.275
 5261SOL    HW116682   3.084   6.027   0.329
 5261SOL    HW216683   3.042   6.185   0.335
 5262SOL     OW16684   2.169   5.799   1.231
 5262SOL    HW116685   2.146   5.836   1.321
 5262SOL    HW216686   2.139   5.704   1.225
 5263SOL     OW16687   1.899   6.896   1.282
 5263SOL    HW116688   1.952   6.847   1.350
 5263SOL    HW216689   1.921   6.994   1.287
 5264SOL     OW16690   2.594   6.220   1.064
 5264SOL    HW116691   2.653   6.194   0.988
 5264SOL    HW216692   2.566   6.316   1.053
 5265SOL     OW16693   3.590   6.521   1.854
 5265SOL    HW116694   3.544   6.514   1.765
 5265SOL    HW216695   3.528   6.565   1.920
 5266SOL     OW16696   2.169   5.649   0.618
 5266SOL    HW116697   2.158   5.743   0.651
 5266SOL    HW216698   2.164   5.586   0.695
 5267SOL     OW16699   3.484   5.953   0.374
 5267SOL    HW116700   3.486   5.877   0.438
 5267SOL    HW216701   3.436   6.030   0.414
 5268SOL     OW16702   2.885   6.352   0.966
 5268SOL    HW116703   2.900   6.373   1.062
 5268SOL    HW216704   2.855   6.257   0.957
 5269SOL     OW16705   3.721   7.104   1.605
 5269SOL    HW116706   3.735   7.131   1.510
 5269SOL    HW216707   3.804   7.126   1.658
 5270SOL     OW16708   2.212   6.484   1.804
 5270SOL    HW116709   2.288   6.528   1.852
 5270SOL    HW216710   2.247   6.437   1.722
 5271SOL     OW16711   3.402   5.860   0.125
 5271SOL    HW116712   3.341   5.785   0.148
 5271SOL    HW216713   3.424   5.912   0.208
 5272SOL     OW16714   3.165   6.424   0.042
 5272SOL    HW116715   3.199   6.331   0.057
 5272SOL    HW216716   3.183   6.451  -0.053
 5273SOL     OW16717   2.181   6.396   0.949
 5273SOL    HW116718   2.274   6.432   0.954
 5273SOL    HW216719   2.175   6.311   1.001
 5274SOL     OW16720   2.201   6.095   1.006
 5274SOL    HW116721   2.149   6.012   0.989
 5274SOL    HW216722   2.278   6.100   0.942
 5275SOL     OW16723   3.000   5.966   1.678
 5275SOL    HW116724   2.955   6.029   1.742
 5275SOL    HW216725   3.093   5.997   1.661
 5276SOL     OW16726   3.022   5.793   1.477
 5276SOL    HW116727   3.022   5.857   1.554
 5276SOL    HW216728   3.050   5.841   1.394
 5277SOL     OW16729   2.864   6.382   1.238
 5277SOL    HW116730   2.905   6.350   1.324
 5277SOL    HW216731   2.768   6.355   1.235
 5278SOL     OW16732   1.902   6.130   1.114
 5278SOL    HW116733   1.987   6.097   1.073
 5278SOL    HW216734   1.915   6.145   1.212
 5279SOL     OW16735   2.051   6.106   1.722
 5279SOL    HW116736   2.110   6.066   1.652
 5279SOL    HW216737   1.993   6.177   1.681
 5280SOL     OW16738   3.231   6.536   1.660
 5280SOL    HW116739   3.270   6.625   1.680
 5280SOL    HW216740   3.241   6.516   1.563
 5281SOL     OW16741   2.677   6.158   0.325
 5281SOL    HW116742   2.684   6.069   0.279
 5281SOL    HW216743   2.583   6.192   0.317
 5282SOL     OW16744   3.519   6.190   1.206
 5282SOL    HW116745   3.481   6.121   1.268
 5282SOL    HW216746   3.601   6.154   1.162
 5283SOL     OW16747   2.533   6.050   1.269
 5283SOL    HW116748   2.499   5.961   1.239
 5283SOL    HW216749   2.559   6.104   1.189
 5284SOL     OW16750   2.335   6.086   0.191
 5284SOL    HW116751   2.396   6.166   0.195
 5284SOL    HW216752   2.240   6.117   0.198
 5285SOL     OW16753   2.021   6.723   1.466
 5285SOL    HW116754   2.043   6.662   1.542
 5285SOL    HW216755   2.031   6.674   1.380
 5286SOL     OW16756   3.209   6.645   1.234
 5286SOL    HW116757   3.233   6.582   1.160
 5286SOL    HW216758   3.119   6.685   1.216
 5287SOL     OW16759   3.164   6.441   0.309
 5287SOL    HW116760   3.078   6.410   0.351
 5287SOL    HW216761   3.160   6.427   0.210
 5288SOL     OW16762   1.945   6.844   1.022
 5288SOL    HW116763   1.940   6.843   1.122
 5288SOL    HW216764   1.862   6.803   0.984
 5289SOL     OW16765   2.765   5.672   0.133
 5289SOL    HW116766   2.816   5.673   0.047
 5289SOL    HW216767   2.821   5.630   0.204
 5290SOL     OW16768   3.588   5.721   0.523
 5290SOL    HW116769   3.661   5.704   0.456
 5290SOL    HW216770   3.557   5.634   0.561
 5291SOL     OW16771   3.142   6.513   0.672
 5291SOL    HW116772   3.202   6.432   0.674
 5291SOL    HW216773   3.182   6.582   0.612
 5292SOL     OW16774   2.692   6.859   1.422
 5292SOL    HW116775   2.687   6.892   1.517
 5292SOL    HW216776   2.606   6.878   1.376
 5293SOL     OW16777   3.703   5.761   0.963
 5293SOL    HW116778   3.742   5.676   0.927
 5293SOL    HW216779   3.605   5.763   0.944
 5294SOL     OW16780   2.125   5.912   0.720
 5294SOL    HW116781   2.046   5.963   0.686
 5294SOL    HW216782   2.116   5.897   0.818
 5295SOL     OW16783   2.684   6.588   1.372
 5295SOL    HW116784   2.724   6.587   1.280
 5295SOL    HW216785   2.694   6.680   1.412
 5296SOL     OW16786   2.778   6.496   0.291
 5296SOL    HW116787   2.841   6.534   0.223
 5296SOL    HW216788   2.818   6.413   0.330
 5297SOL     OW16789   2.234   6.874   1.490
 5297SOL    HW116790   2.221   6.967   1.456
 5297SOL    HW216791   2.150   6.822   1.477
 5298SOL     OW16792   3.476   6.878   1.289
 5298SOL    HW116793   3.536   6.881   1.369
 5298SOL    HW216794   3.401   6.942   1.302
 5299SOL     OW16795   2.901   6.684   0.696
 5299SOL    HW116796   2.831   6.637   0.750
 5299SOL    HW216797   2.960   6.616   0.653
 5300SOL     OW16798   2.876   5.822   0.971
 5300SOL    HW116799   2.868   5.786   0.878
 5300SOL    HW216800   2.874   5.746   1.036
 5301SOL     OW16801   3.571   5.971   1.381
 5301SOL    HW116802   3.644   6.040   1.385
 5301SOL    HW216803   3.599   5.896   1.322
 5302SOL     OW16804   1.967   6.599   1.726
 5302SOL    HW116805   1.890   6.566   1.780
 5302SOL    HW216806   2.052   6.569   1.768
 5303SOL     OW16807   2.534   5.789   1.489
 5303SOL    HW116808   2.624   5.773   1.449
 5303SOL    HW216809   2.542   5.794   1.588
 5304SOL     OW16810   1.937   5.931   0.033
 5304SOL    HW116811   1.845   5.903   0.004
 5304SOL    HW216812   1.968   6.008  -0.023
 5305SOL     OW16813   3.302   6.442   1.398
 5305SOL    HW116814   3.245   6.494   1.335
 5305SOL    HW216815   3.398   6.454   1.374
 5306SOL     OW16816   1.934   5.752   0.318
 5306SOL    HW116817   1.917   5.835   0.264
 5306SOL    HW216818   2.024   5.715   0.296
 5307SOL     OW16819   2.475   6.428   1.431
 5307SOL    HW116820   2.531   6.509   1.414
 5307SOL    HW216821   2.534   6.348   1.434
 5308SOL     OW16822   2.578   6.151   1.708
 5308SOL    HW116823   2.597   6.216   1.782
 5308SOL    HW216824   2.638   6.071   1.717
 5309SOL     OW16825   3.312   6.806   1.633
 5309SOL    HW116826   3.303   6.796   1.732
 5309SOL    HW216827   3.408   6.799   1.607
 5310SOL     OW16828   3.536   6.469   1.254
 5310SOL    HW116829   3.509   6.380   1.217
 5310SOL    HW216830   3.537   6.537   1.181
 5311SOL     OW16831   3.087   5.911   0.449
 5311SOL    HW116832   3.152   5.837   0.438
 5311SOL    HW216833   3.107   5.961   0.533
 5312SOL     OW16834   2.456   6.331   0.652
 5312SOL    HW116835   2.506   6.416   0.633
 5312SOL    HW216836   2.368   6.333   0.604
 5313SOL     OW16837   3.639   5.928   1.642
 5313SOL    HW116838   3.622   5.959   1.548
 5313SOL    HW216839   3.555   5.891   1.680
 5314SOL     OW16840   3.592   6.520   1.517
 5314SOL    HW116841   3.630   6.611   1.532
 5314SOL    HW216842   3.584   6.503   1.418
 5315SOL     OW16843   2.721   6.542   0.861
 5315SOL    HW116844   2.775   6.473   0.909
 5315SOL    HW216845   2.689   6.611   0.927
 5316SOL     OW16846   2.945   6.570   0.087
 5316SOL    HW116847   2.922   6.623   0.005
 5316SOL    HW216848   3.026   6.514   0.068
 5317SOL     OW16849   2.083   6.900   1.844
 5317SOL    HW116850   2.018   6.827   1.823
 5317SOL    HW216851   2.087   6.914   1.942
 5318SOL     OW16852   1.941   6.826   0.653
 5318SOL    HW116853   1.940   6.779   0.741
 5318SOL    HW216854   2.023   6.798   0.602
 5319SOL     OW16855   2.534   6.977   1.624
 5319SOL    HW116856   2.456   6.927   1.662
 5319SOL    HW216857   2.531   7.072   1.655
 5320SOL     OW16858   3.686   5.778   1.227
 5320SOL    HW116859   3.682   5.688   1.271
 5320SOL    HW216860   3.689   5.767   1.128
 5321SOL     OW16861   2.290   6.010   0.520
 5321SOL    HW116862   2.320   5.938   0.458
 5321SOL    HW216863   2.251   5.970   0.603
 5322SOL     OW16864   3.567   7.073   1.104
 5322SOL    HW116865   3.474   7.048   1.077
 5322SOL    HW216866   3.593   7.023   1.186
 5323SOL     OW16867   2.179   6.133   1.280
 5323SOL    HW116868   2.217   6.074   1.352
 5323SOL    HW216869   2.219   6.107   1.192
 5324SOL     OW16870   3.286   5.800   1.112
 5324SOL    HW116871   3.338   5.735   1.167
 5324SOL    HW216872   3.237   5.863   1.173
 5325SOL     OW16873   2.863   5.620   1.154
 5325SOL    HW116874   2.800   5.548   1.123
 5325SOL    HW216875   2.956   5.584   1.154
 5326SOL     OW16876   2.632   6.916   0.301
 5326SOL    HW116877   2.586   6.829   0.318
 5326SOL    HW216878   2.723   6.913   0.342
 5327SOL     OW16879   3.214   5.638   0.168
 5327SOL    HW116880   3.249   5.597   0.084
 5327SOL    HW216881   3.124   5.600   0.188
 5328SOL     OW16882   3.162   6.039   0.691
 5328SOL    HW116883   3.103   6.119   0.695
 5328SOL    HW216884   3.177   6.004   0.784
 5329SOL     OW16885   3.455   5.807   0.882
 5329SOL    HW116886   3.371   5.806   0.936
 5329SOL    HW216887   3.457   5.890   0.826
 5330SOL     OW16888   1.901   6.663   0.300
 5330SOL    HW116889   2.000   6.652   0.291
 5330SOL    HW216890   1.861   6.577   0.332
 5331SOL     OW16891   2.092   6.214   1.975
 5331SOL    HW116892   1.999   6.212   2.012
 5331SOL    HW216893   2.093   6.175   1.883
 5332SOL     OW16894   2.087   5.861   2.858
 5332SOL    HW116895   2.122   5.844   2.950
 5332SOL    HW216896   1.999   5.816   2.846
 5333SOL     OW16897   1.881   5.954   2.509
 5333SOL    HW116898   1.799   5.997   2.548
 5333SOL    HW216899   1.853   5.881   2.446
 5334SOL     OW16900   2.431   6.861   3.027
 5334SOL    HW116901   2.338   6.854   2.990
 5334SOL    HW216902   2.442   6.950   3.071
 5335SOL     OW16903   3.417   7.097   2.565
 5335SOL    HW116904   3.360   7.081   2.646
 5335SOL    HW216905   3.358   7.107   2.485
 5336SOL     OW16906   2.997   6.289   2.579
 5336SOL    HW116907   3.054   6.367   2.554
 5336SOL    HW216908   2.937   6.315   2.655
 5337SOL     OW16909   3.617   6.193   2.093
 5337SOL    HW116910   3.605   6.180   1.994
 5337SOL    HW216911   3.587   6.112   2.142
 5338SOL     OW16912   2.630   6.730   2.885
 5338SOL    HW116913   2.552   6.747   2.945
 5338SOL    HW216914   2.664   6.817   2.849
 5339SOL     OW16915   2.712   6.384   3.685
 5339SOL    HW116916   2.708   6.460   3.750
 5339SOL    HW216917   2.734   6.420   3.594
 5340SOL     OW16918   2.547   6.598   2.527
 5340SOL    HW116919   2.616   6.582   2.597
 5340SOL    HW216920   2.474   6.655   2.565
 5341SOL     OW16921   2.548   6.747   3.665
 5341SOL    HW116922   2.608   6.826   3.679
 5341SOL    HW216923   2.462   6.778   3.624
 5342SOL     OW16924   2.197   7.021   2.923
 5342SOL    HW116925   2.119   6.990   2.870
 5342SOL    HW216926   2.255   7.079   2.866
 5343SOL     OW16927   2.300   5.978   3.361
 5343SOL    HW116928   2.382   5.922   3.370
 5343SOL    HW216929   2.219   5.920   3.365
 5344SOL     OW16930   3.465   6.033   2.599
 5344SOL    HW116931   3.391   6.079   2.549
 5344SOL    HW216932   3.516   6.101   2.652
 5345SOL     OW16933   2.102   6.677   2.748
 5345SOL    HW116934   2.116   6.593   2.800
 5345SOL    HW216935   2.047   6.741   2.803
 5346SOL     OW16936   2.468   6.550   1.985
 5346SOL    HW116937   2.475   6.634   1.931
 5346SOL    HW216938   2.514   6.563   2.073
 5347SOL     OW16939   3.456   5.700   3.342
 5347SOL    HW116940   3.438   5.767   3.270
 5347SOL    HW216941   3.453   5.746   3.431
 5348SOL     OW16942   1.984   6.229   2.425
 5348SOL    HW116943   1.939   6.141   2.442
 5348SOL    HW216944   1.983   6.283   2.509
 5349SOL     OW16945   3.551   6.508   2.474
 5349SOL    HW116946   3.646   6.479   2.482
 5349SOL    HW216947   3.543   6.573   2.399
 5350SOL     OW16948   3.503   6.694   2.294
 5350SOL    HW116949   3.589   6.696   2.242
 5350SOL    HW216950   3.517   6.741   2.382
 5351SOL     OW16951   1.975   6.323   3.459
 5351SOL    HW116952   2.063   6.310   3.504
 5351SOL    HW216953   1.962   6.420   3.437
 5352SOL     OW16954   3.155   6.814   3.285
 5352SOL    HW116955   3.192   6.741   3.227
 5352SOL    HW216956   3.207   6.819   3.370
 5353SOL     OW16957   2.671   5.590   2.364
 5353SOL    HW116958   2.711   5.681   2.355
 5353SOL    HW216959   2.571   5.598   2.370
 5354SOL     OW16960   2.059   6.562   3.126
 5354SOL    HW116961   2.148   6.517   3.112
 5354SOL    HW216962   1.986   6.497   3.107
 5355SOL     OW16963   3.387   6.585   2.052
 5355SOL    HW116964   3.324   6.509   2.065
 5355SOL    HW216965   3.435   6.603   2.138
 5356SOL     OW16966   2.179   5.837   3.663
 5356SOL    HW116967   2.250   5.908   3.669
 5356SOL    HW216968   2.091   5.876   3.691
 5357SOL     OW16969   3.328   7.003   2.815
 5357SOL    HW116970   3.269   7.009   2.895
 5357SOL    HW216971   3.313   6.915   2.769
 5358SOL     OW16972   2.460   6.315   2.132
 5358SOL    HW116973   2.484   6.384   2.064
 5358SOL    HW216974   2.382   6.348   2.186
 5359SOL     OW16975   3.143   5.931   2.806
 5359SOL    HW116976   3.057   5.881   2.793
 5359SOL    HW216977   3.205   5.877   2.862
 5360SOL     OW16978   2.669   6.191   3.327
 5360SOL    HW116979   2.622   6.188   3.416
 5360SOL    HW216980   2.618   6.136   3.261
 5361SOL     OW16981   3.256   6.055   3.536
 5361SOL    HW116982   3.236   6.098   3.624
 5361SOL    HW216983   3.334   5.993   3.545
 5362SOL     OW16984   2.835   6.476   3.434
 5362SOL    HW116985   2.881   6.392   3.405
 5362SOL    HW216986   2.779   6.510   3.359
 5363SOL     OW16987   2.853   5.996   3.104
 5363SOL    HW116988   2.776   6.030   3.158
 5363SOL    HW216989   2.819   5.945   3.025
 5364SOL     OW16990   2.903   6.287   2.291
 5364SOL    HW116991   2.929   6.283   2.387
 5364SOL    HW216992   2.818   6.236   2.277
 5365SOL     OW16993   1.938   6.397   2.651
 5365SOL    HW116994   2.037   6.385   2.660
 5365SOL    HW216995   1.914   6.492   2.672
 5366SOL     OW16996   2.727   5.934   2.057
 5366SOL    HW116997   2.786   5.997   2.008
 5366SOL    HW216998   2.746   5.840   2.028
 5367SOL     OW16999   3.581   6.171   3.693
 5367SOL    HW117000   3.555   6.260   3.657
 5367SOL    HW217001   3.579   6.103   3.620
 5368SOL     OW17002   3.224   6.730   2.407
 5368SOL    HW117003   3.307   6.701   2.359
 5368SOL    HW217004   3.175   6.797   2.351
 5369SOL     OW17005   2.412   5.782   2.747
 5369SOL    HW117006   2.407   5.777   2.847
 5369SOL    HW217007   2.414   5.878   2.718
 5370SOL     OW17008   3.657   6.652   2.735
 5370SOL    HW117009   3.595   6.637   2.659
 5370SOL    HW217010   3.605   6.663   2.820
 5371SOL     OW17011   2.183   6.529   2.104
 5371SOL    HW117012   2.265   6.568   2.062
 5371SOL    HW217013   2.156   6.447   2.055
 5372SOL     OW17014   3.320   6.321   2.590
 5372SOL    HW117015   3.315   6.256   2.665
 5372SOL    HW217016   3.400   6.380   2.603
 5373SOL     OW17017   2.064   5.871   3.360
 5373SOL    HW117018   1.984   5.931   3.347
 5373SOL    HW217019   2.054   5.822   3.446
 5374SOL     OW17020   3.494   6.963   1.943
 5374SOL    HW117021   3.462   7.057   1.933
 5374SOL    HW217022   3.418   6.900   1.931
 5375SOL     OW17023   3.262   5.693   2.288
 5375SOL    HW117024   3.238   5.656   2.198
 5375SOL    HW217025   3.361   5.709   2.292
 5376SOL     OW17026   2.244   6.286   2.342
 5376SOL    HW117027   2.289   6.196   2.339
 5376SOL    HW217028   2.150   6.275   2.375
 5377SOL     OW17029   3.409   5.808   3.591
 5377SOL    HW117030   3.404   5.845   3.683
 5377SOL    HW217031   3.337   5.739   3.579
 5378SOL     OW17032   2.476   5.708   1.979
 5378SOL    HW117033   2.574   5.686   1.986
 5378SOL    HW217034   2.445   5.691   1.886
 5379SOL     OW17035   2.643   5.850   3.611
 5379SOL    HW117036   2.710   5.789   3.654
 5379SOL    HW217037   2.570   5.869   3.676
 5380SOL     OW17038   3.213   6.176   3.295
 5380SOL    HW117039   3.241   6.133   3.380
 5380SOL    HW217040   3.238   6.272   3.296
 5381SOL     OW17041   2.784   6.089   2.761
 5381SOL    HW117042   2.759   6.080   2.665
 5381SOL    HW217043   2.832   6.007   2.792
 5382SOL     OW17044   2.401   5.650   2.374
 5382SOL    HW117045   2.320   5.651   2.432
 5382SOL    HW217046   2.404   5.733   2.319
 5383SOL     OW17047   3.296   6.774   1.903
 5383SOL    HW117048   3.328   6.698   1.960
 5383SOL    HW217049   3.204   6.801   1.933
 5384SOL     OW17050   2.159   5.621   2.033
 5384SOL    HW117051   2.208   5.705   2.012
 5384SOL    HW217052   2.221   5.556   2.078
 5385SOL     OW17053   2.797   5.822   2.342
 5385SOL    HW117054   2.749   5.863   2.264
 5385SOL    HW217055   2.896   5.820   2.323
 5386SOL     OW17056   2.938   6.269   3.326
 5386SOL    HW117057   2.858   6.208   3.329
 5386SOL    HW217058   3.019   6.216   3.302
 5387SOL     OW17059   3.089   7.156   2.655
 5387SOL    HW117060   3.110   7.230   2.590
 5387SOL    HW217061   3.157   7.156   2.728
 5388SOL     OW17062   2.321   6.738   2.603
 5388SOL    HW117063   2.250   6.711   2.668
 5388SOL    HW217064   2.295   6.710   2.510
 5389SOL     OW17065   2.894   6.135   1.878
 5389SOL    HW117066   2.853   6.217   1.839
 5389SOL    HW217067   2.958   6.161   1.951
 5390SOL     OW17068   1.940   6.142   3.248
 5390SOL    HW117069   2.032   6.141   3.207
 5390SOL    HW217070   1.934   6.216   3.315
 5391SOL     OW17071   2.423   5.808   3.009
 5391SOL    HW117072   2.461   5.724   3.046
 5391SOL    HW217073   2.335   5.827   3.053
 5392SOL     OW17074   2.728   6.040   2.504
 5392SOL    HW117075   2.696   6.112   2.442
 5392SOL    HW217076   2.752   5.959   2.451
 5393SOL     OW17077   2.879   5.625   2.615
 5393SOL    HW117078   2.807   5.630   2.546
 5393SOL    HW217079   2.855   5.556   2.684
 5394SOL     OW17080   3.291   6.759   2.729
 5394SOL    HW117081   3.236   6.675   2.722
 5394SOL    HW217082   3.317   6.788   2.637
 5395SOL     OW17083   3.328   6.176   2.854
 5395SOL    HW117084   3.298   6.081   2.861
 5395SOL    HW217085   3.401   6.192   2.920
 5396SOL     OW17086   3.719   6.419   2.239
 5396SOL    HW117087   3.761   6.355   2.303
 5396SOL    HW217088   3.681   6.368   2.161
 5397SOL     OW17089   3.526   6.866   2.519
 5397SOL    HW117090   3.625   6.874   2.533
 5397SOL    HW217091   3.481   6.950   2.550
 5398SOL     OW17092   3.252   6.161   1.940
 5398SOL    HW117093   3.198   6.140   2.021
 5398SOL    HW217094   3.343   6.120   1.949
 5399SOL     OW17095   2.389   5.842   2.190
 5399SOL    HW117096   2.416   5.783   2.115
 5399SOL    HW217097   2.389   5.937   2.159
 5400SOL     OW17098   3.616   6.809   3.450
 5400SOL    HW117099   3.707   6.770   3.437
 5400SOL    HW217100   3.624   6.905   3.474
 5401SOL     OW17101   2.926   6.933   3.202
 5401SOL    HW117102   2.846   6.910   3.257
 5401SOL    HW217103   3.009   6.907   3.251
 5402SOL     OW17104   2.973   6.781   2.962
 5402SOL    HW117105   2.933   6.825   3.043
 5402SOL    HW217106   2.932   6.818   2.879
 5403SOL     OW17107   3.500   6.685   2.941
 5403SOL    HW117108   3.505   6.766   3.000
 5403SOL    HW217109   3.414   6.687   2.890
 5404SOL     OW17110   2.777   5.675   3.264
 5404SOL    HW117111   2.802   5.655   3.169
 5404SOL    HW217112   2.849   5.731   3.306
 5405SOL     OW17113   2.842   6.702   3.581
 5405SOL    HW117114   2.743   6.708   3.591
 5405SOL    HW217115   2.865   6.622   3.525
 5406SOL     OW17116   2.567   6.636   2.230
 5406SOL    HW117117   2.553   6.643   2.329
 5406SOL    HW217118   2.651   6.585   2.212
 5407SOL     OW17119   2.272   6.399   3.113
 5407SOL    HW117120   2.358   6.411   3.163
 5407SOL    HW217121   2.230   6.312   3.140
 5408SOL     OW17122   3.136   5.972   3.124
 5408SOL    HW117123   3.157   6.046   3.188
 5408SOL    HW217124   3.047   5.989   3.081
 5409SOL     OW17125   2.229   6.686   2.363
 5409SOL    HW117126   2.222   6.769   2.307
 5409SOL    HW217127   2.233   6.606   2.303
 5410SOL     OW17128   2.428   6.123   2.727
 5410SOL    HW117129   2.440   6.189   2.653
 5410SOL    HW217130   2.474   6.157   2.810
 5411SOL     OW17131   3.444   6.225   2.334
 5411SOL    HW117132   3.413   6.286   2.407
 5411SOL    HW217133   3.494   6.277   2.265
 5412SOL     OW17134   2.264   6.337   3.460
 5412SOL    HW117135   2.332   6.392   3.413
 5412SOL    HW217136   2.304   6.249   3.487
 5413SOL     OW17137   3.449   6.365   3.532
 5413SOL    HW117138   3.357   6.403   3.527
 5413SOL    HW217139   3.509   6.412   3.467
 5414SOL     OW17140   2.875   5.691   3.632
 5414SOL    HW117141   2.881   5.776   3.580
 5414SOL    HW217142   2.907   5.615   3.575
 5415SOL     OW17143   2.366   5.636   3.602
 5415SOL    HW117144   2.324   5.579   3.532
 5415SOL    HW217145   2.300   5.705   3.634
 5416SOL     OW17146   2.435   6.456   2.891
 5416SOL    HW117147   2.479   6.545   2.882
 5416SOL    HW217148   2.372   6.456   2.968
 5417SOL     OW17149   3.222   6.448   2.907
 5417SOL    HW117150   3.147   6.448   2.841
 5417SOL    HW217151   3.259   6.356   2.916
 5418SOL     OW17152   3.071   6.111   2.137
 5418SOL    HW117153   3.084   6.027   2.191
 5418SOL    HW217154   3.042   6.185   2.197
 5419SOL     OW17155   2.169   5.799   3.093
 5419SOL    HW117156   2.146   5.836   3.183
 5419SOL    HW217157   2.139   5.704   3.087
 5420SOL     OW17158   1.899   6.896   3.144
 5420SOL    HW117159   1.952   6.847   3.212
 5420SOL    HW217160   1.921   6.994   3.149
 5421SOL     OW17161   2.594   6.220   2.926
 5421SOL    HW117162   2.653   6.194   2.850
 5421SOL    HW217163   2.566   6.316   2.915
 5422SOL     OW17164   3.590   6.521   3.716
 5422SOL    HW117165   3.544   6.514   3.627
 5422SOL    HW217166   3.528   6.565   3.782
 5423SOL     OW17167   2.169   5.649   2.480
 5423SOL    HW117168   2.158   5.743   2.513
 5423SOL    HW217169   2.164   5.586   2.557
 5424SOL     OW17170   3.484   5.953   2.236
 5424SOL    HW117171   3.486   5.877   2.300
 5424SOL    HW217172   3.436   6.030   2.276
 5425SOL     OW17173   2.885   6.352   2.828
 5425SOL    HW117174   2.900   6.373   2.924
 5425SOL    HW217175   2.855   6.257   2.819
 5426SOL     OW17176   3.721   7.104   3.467
 5426SOL    HW117177   3.735   7.131   3.372
 5426SOL    HW217178   3.804   7.126   3.520
 5427SOL     OW17179   2.212   6.484   3.666
 5427SOL    HW117180   2.288   6.528   3.714
 5427SOL    HW217181   2.247   6.437   3.584
 5428SOL     OW17182   3.402   5.860   1.987
 5428SOL    HW117183   3.341   5.785   2.010
 5428SOL    HW217184   3.424   5.912   2.070
 5429SOL     OW17185   3.165   6.424   1.904
 5429SOL    HW117186   3.199   6.331   1.919
 5429SOL    HW217187   3.183   6.451   1.809
 5430SOL     OW17188   2.181   6.396   2.811
 5430SOL    HW117189   2.274   6.432   2.816
 5430SOL    HW217190   2.175   6.311   2.863
 5431SOL     OW17191   2.201   6.095   2.868
 5431SOL    HW117192   2.149   6.012   2.851
 5431SOL    HW217193   2.278   6.100   2.804
 5432SOL     OW17194   3.000   5.966   3.540
 5432SOL    HW117195   2.955   6.029   3.604
 5432SOL    HW217196   3.093   5.997   3.523
 5433SOL     OW17197   3.022   5.793   3.339
 5433SOL    HW117198   3.022   5.857   3.416
 5433SOL    HW217199   3.050   5.841   3.256
 5434SOL     OW17200   1.870   6.912   2.062
 5434SOL    HW117201   1.777   6.933   2.031
 5434SOL    HW217202   1.880   6.813   2.075
 5435SOL     OW17203   2.864   6.382   3.100
 5435SOL    HW117204   2.905   6.350   3.186
 5435SOL    HW217205   2.768   6.355   3.097
 5436SOL     OW17206   1.902   6.130   2.976
 5436SOL    HW117207   1.987   6.097   2.935
 5436SOL    HW217208   1.915   6.145   3.074
 5437SOL     OW17209   2.051   6.106   3.584
 5437SOL    HW117210   2.110   6.066   3.514
 5437SOL    HW217211   1.993   6.177   3.543
 5438SOL     OW17212   3.231   6.536   3.522
 5438SOL    HW117213   3.270   6.625   3.542
 5438SOL    HW217214   3.241   6.516   3.425
 5439SOL     OW17215   2.677   6.158   2.187
 5439SOL    HW117216   2.684   6.069   2.141
 5439SOL    HW217217   2.583   6.192   2.179
 5440SOL     OW17218   3.519   6.190   3.068
 5440SOL    HW117219   3.481   6.121   3.130
 5440SOL    HW217220   3.601   6.154   3.024
 5441SOL     OW17221   2.533   6.050   3.131
 5441SOL    HW117222   2.499   5.961   3.101
 5441SOL    HW217223   2.559   6.104   3.051
 5442SOL     OW17224   2.335   6.086   2.053
 5442SOL    HW117225   2.396   6.166   2.057
 5442SOL    HW217226   2.240   6.117   2.060
 5443SOL     OW17227   2.021   6.723   3.328
 5443SOL    HW117228   2.043   6.662   3.404
 5443SOL    HW217229   2.031   6.674   3.242
 5444SOL     OW17230   3.209   6.645   3.096
 5444SOL    HW117231   3.233   6.582   3.022
 5444SOL    HW217232   3.119   6.685   3.078
 5445SOL     OW17233   3.164   6.441   2.171
 5445SOL    HW117234   3.078   6.410   2.213
 5445SOL    HW217235   3.160   6.427   2.072
 5446SOL     OW17236   1.945   6.844   2.884
 5446SOL    HW117237   1.940   6.843   2.984
 5446SOL    HW217238   1.862   6.803   2.846
 5447SOL     OW17239   3.588   5.721   2.385
 5447SOL    HW117240   3.661   5.704   2.318
 5447SOL    HW217241   3.557   5.634   2.423
 5448SOL     OW17242   3.142   6.513   2.534
 5448SOL    HW117243   3.202   6.432   2.536
 5448SOL    HW217244   3.182   6.582   2.474
 5449SOL     OW17245   2.692   6.859   3.284
 5449SOL    HW117246   2.687   6.892   3.379
 5449SOL    HW217247   2.606   6.878   3.238
 5450SOL     OW17248   3.703   5.761   2.825
 5450SOL    HW117249   3.742   5.676   2.789
 5450SOL    HW217250   3.605   5.763   2.806
 5451SOL     OW17251   2.125   5.912   2.582
 5451SOL    HW117252   2.046   5.963   2.548
 5451SOL    HW217253   2.116   5.897   2.680
 5452SOL     OW17254   3.056   7.198   1.893
 5452SOL    HW117255   3.062   7.105   1.930
 5452SOL    HW217256   2.997   7.198   1.813
 5453SOL     OW17257   2.684   6.588   3.234
 5453SOL    HW117258   2.724   6.587   3.142
 5453SOL    HW217259   2.694   6.680   3.274
 5454SOL     OW17260   2.778   6.496   2.153
 5454SOL    HW117261   2.841   6.534   2.085
 5454SOL    HW217262   2.818   6.413   2.192
 5455SOL     OW17263   2.234   6.874   3.352
 5455SOL    HW117264   2.221   6.967   3.318
 5455SOL    HW217265   2.150   6.822   3.339
 5456SOL     OW17266   3.476   6.878   3.151
 5456SOL    HW117267   3.536   6.881   3.231
 5456SOL    HW217268   3.401   6.942   3.164
 5457SOL     OW17269   2.901   6.684   2.558
 5457SOL    HW117270   2.831   6.637   2.612
 5457SOL    HW217271   2.960   6.616   2.515
 5458SOL     OW17272   2.876   5.822   2.833
 5458SOL    HW117273   2.868   5.786   2.740
 5458SOL    HW217274   2.874   5.746   2.898
 5459SOL     OW17275   3.571   5.971   3.243
 5459SOL    HW117276   3.644   6.040   3.247
 5459SOL    HW217277   3.599   5.896   3.184
 5460SOL     OW17278   1.967   6.599   3.588
 5460SOL    HW117279   1.890   6.566   3.642
 5460SOL    HW217280   2.052   6.569   3.630
 5461SOL     OW17281   2.534   5.789   3.351
 5461SOL    HW117282   2.624   5.773   3.311
 5461SOL    HW217283   2.542   5.794   3.450
 5462SOL     OW17284   1.937   5.931   1.895
 5462SOL    HW117285   1.845   5.903   1.866
 5462SOL    HW217286   1.968   6.008   1.839
 5463SOL     OW17287   3.302   6.442   3.260
 5463SOL    HW117288   3.245   6.494   3.197
 5463SOL    HW217289   3.398   6.454   3.236
 5464SOL     OW17290   1.934   5.752   2.180
 5464SOL    HW117291   1.917   5.835   2.126
 5464SOL    HW217292   2.024   5.715   2.158
 5465SOL     OW17293   2.475   6.428   3.293
 5465SOL    HW117294   2.531   6.509   3.276
 5465SOL    HW217295   2.534   6.348   3.296
 5466SOL     OW17296   2.578   6.151   3.570
 5466SOL    HW117297   2.597   6.216   3.644
 5466SOL    HW217298   2.638   6.071   3.579
 5467SOL     OW17299   3.312   6.806   3.495
 5467SOL    HW117300   3.303   6.796   3.594
 5467SOL    HW217301   3.408   6.799   3.469
 5468SOL     OW17302   3.536   6.469   3.116
 5468SOL    HW117303   3.509   6.380   3.079
 5468SOL    HW217304   3.537   6.537   3.043
 5469SOL     OW17305   3.087   5.911   2.311
 5469SOL    HW117306   3.152   5.837   2.300
 5469SOL    HW217307   3.107   5.961   2.395
 5470SOL     OW17308   2.456   6.331   2.514
 5470SOL    HW117309   2.506   6.416   2.495
 5470SOL    HW217310   2.368   6.333   2.466
 5471SOL     OW17311   3.639   5.928   3.504
 5471SOL    HW117312   3.622   5.959   3.410
 5471SOL    HW217313   3.555   5.891   3.542
 5472SOL     OW17314   3.592   6.520   3.379
 5472SOL    HW117315   3.630   6.611   3.394
 5472SOL    HW217316   3.584   6.503   3.280
 5473SOL     OW17317   2.721   6.542   2.723
 5473SOL    HW117318   2.775   6.473   2.771
 5473SOL    HW217319   2.689   6.611   2.789
 5474SOL     OW17320   2.945   6.570   1.949
 5474SOL    HW117321   2.922   6.623   1.867
 5474SOL    HW217322   3.026   6.514   1.930
 5475SOL     OW17323   2.083   6.900   3.706
 5475SOL    HW117324   2.018   6.827   3.685
 5475SOL    HW217325   2.087   6.914   3.804
 5476SOL     OW17326   1.941   6.826   2.515
 5476SOL    HW117327   1.940   6.779   2.603
 5476SOL    HW217328   2.023   6.798   2.464
 5477SOL     OW17329   2.534   6.977   3.486
 5477SOL    HW117330   2.456   6.927   3.524
 5477SOL    HW217331   2.531   7.072   3.517
 5478SOL     OW17332   3.686   5.778   3.089
 5478SOL    HW117333   3.682   5.688   3.133
 5478SOL    HW217334   3.689   5.767   2.990
 5479SOL     OW17335   2.290   6.010   2.382
 5479SOL    HW117336   2.320   5.938   2.320
 5479SOL    HW217337   2.251   5.970   2.465
 5480SOL     OW17338   3.567   7.073   2.966
 5480SOL    HW117339   3.474   7.048   2.939
 5480SOL    HW217340   3.593   7.023   3.048
 5481SOL     OW17341   2.179   6.133   3.142
 5481SOL    HW117342   2.217   6.074   3.214
 5481SOL    HW217343   2.219   6.107   3.054
 5482SOL     OW17344   3.286   5.800   2.974
 5482SOL    HW117345   3.338   5.735   3.029
 5482SOL    HW217346   3.237   5.863   3.035
 5483SOL     OW17347   2.863   5.620   3.016
 5483SOL    HW117348   2.800   5.548   2.985
 5483SOL    HW217349   2.956   5.584   3.016
 5484SOL     OW17350   2.632   6.916   2.163
 5484SOL    HW117351   2.586   6.829   2.180
 5484SOL    HW217352   2.723   6.913   2.204
 5485SOL     OW17353   3.214   5.638   2.030
 5485SOL    HW117354   3.249   5.597   1.946
 5485SOL    HW217355   3.124   5.600   2.050
 5486SOL     OW17356   3.162   6.039   2.553
 5486SOL    HW117357   3.103   6.119   2.557
 5486SOL    HW217358   3.177   6.004   2.646
 5487SOL     OW17359   3.455   5.807   2.744
 5487SOL    HW117360   3.371   5.806   2.798
 5487SOL    HW217361   3.457   5.890   2.688
 5488SOL     OW17362   1.901   6.663   2.162
 5488SOL    HW117363   2.000   6.652   2.153
 5488SOL    HW217364   1.861   6.577   2.194
 5489SOL     OW17365   2.092   6.214   3.837
 5489SOL    HW117366   1.999   6.212   3.874
 5489SOL    HW217367   2.093   6.175   3.745
 5490SOL     OW17368   2.087   5.861   4.720
 5490SOL    HW117369   2.122   5.844   4.812
 5490SOL    HW217370   1.999   5.816   4.708
 5491SOL     OW17371   1.881   5.954   4.371
 5491SOL    HW117372   1.799   5.997   4.410
 5491SOL    HW217373   1.853   5.881   4.308
 5492SOL     OW17374   2.431   6.861   4.889
 5492SOL    HW117375   2.338   6.854   4.852
 5492SOL    HW217376   2.442   6.950   4.933
 5493SOL     OW17377   3.417   7.097   4.427
 5493SOL    HW117378   3.360   7.081   4.508
 5493SOL    HW217379   3.358   7.107   4.347
 5494SOL     OW17380   2.997   6.289   4.441
 5494SOL    HW117381   3.054   6.367   4.416
 5494SOL    HW217382   2.937   6.315   4.517
 5495SOL     OW17383   3.617   6.193   3.955
 5495SOL    HW117384   3.605   6.180   3.856
 5495SOL    HW217385   3.587   6.112   4.004
 5496SOL     OW17386   2.630   6.730   4.747
 5496SOL    HW117387   2.552   6.747   4.807
 5496SOL    HW217388   2.664   6.817   4.711
 5497SOL     OW17389   2.712   6.384   5.547
 5497SOL    HW117390   2.708   6.460   5.612
 5497SOL    HW217391   2.734   6.420   5.456
 5498SOL     OW17392   2.547   6.598   4.389
 5498SOL    HW117393   2.616   6.582   4.459
 5498SOL    HW217394   2.474   6.655   4.427
 5499SOL     OW17395   2.548   6.747   5.527
 5499SOL    HW117396   2.608   6.826   5.541
 5499SOL    HW217397   2.462   6.778   5.486
 5500SOL     OW17398   2.197   7.021   4.785
 5500SOL    HW117399   2.119   6.990   4.732
 5500SOL    HW217400   2.255   7.079   4.728
 5501SOL     OW17401   2.300   5.978   5.223
 5501SOL    HW117402   2.382   5.922   5.232
 5501SOL    HW217403   2.219   5.920   5.227
 5502SOL     OW17404   3.465   6.033   4.461
 5502SOL    HW117405   3.391   6.079   4.411
 5502SOL    HW217406   3.516   6.101   4.514
 5503SOL     OW17407   2.102   6.677   4.610
 5503SOL    HW117408   2.116   6.593   4.662
 5503SOL    HW217409   2.047   6.741   4.665
 5504SOL     OW17410   2.468   6.550   3.847
 5504SOL    HW117411   2.475   6.634   3.793
 5504SOL    HW217412   2.514   6.563   3.935
 5505SOL     OW17413   3.456   5.700   5.204
 5505SOL    HW117414   3.438   5.767   5.132
 5505SOL    HW217415   3.453   5.746   5.293
 5506SOL     OW17416   1.984   6.229   4.287
 5506SOL    HW117417   1.939   6.141   4.304
 5506SOL    HW217418   1.983   6.283   4.371
 5507SOL     OW17419   3.551   6.508   4.336
 5507SOL    HW117420   3.646   6.479   4.344
 5507SOL    HW217421   3.543   6.573   4.261
 5508SOL     OW17422   3.503   6.694   4.156
 5508SOL    HW117423   3.589   6.696   4.104
 5508SOL    HW217424   3.517   6.741   4.244
 5509SOL     OW17425   1.975   6.323   5.321
 5509SOL    HW117426   2.063   6.310   5.366
 5509SOL    HW217427   1.962   6.420   5.299
 5510SOL     OW17428   3.155   6.814   5.147
 5510SOL    HW117429   3.192   6.741   5.089
 5510SOL    HW217430   3.207   6.819   5.232
 5511SOL     OW17431   2.671   5.590   4.226
 5511SOL    HW117432   2.711   5.681   4.217
 5511SOL    HW217433   2.571   5.598   4.232
 5512SOL     OW17434   3.387   6.585   3.914
 5512SOL    HW117435   3.324   6.509   3.927
 5512SOL    HW217436   3.435   6.603   4.000
 5513SOL     OW17437   2.179   5.837   5.525
 5513SOL    HW117438   2.250   5.908   5.531
 5513SOL    HW217439   2.091   5.876   5.553
 5514SOL     OW17440   3.328   7.003   4.677
 5514SOL    HW117441   3.269   7.009   4.757
 5514SOL    HW217442   3.313   6.915   4.631
 5515SOL     OW17443   2.460   6.315   3.994
 5515SOL    HW117444   2.484   6.384   3.926
 5515SOL    HW217445   2.382   6.348   4.048
 5516SOL     OW17446   3.143   5.931   4.668
 5516SOL    HW117447   3.057   5.881   4.655
 5516SOL    HW217448   3.205   5.877   4.724
 5517SOL     OW17449   2.669   6.191   5.189
 5517SOL    HW117450   2.622   6.188   5.278
 5517SOL    HW217451   2.618   6.136   5.123
 5518SOL     OW17452   3.256   6.055   5.398
 5518SOL    HW117453   3.236   6.098   5.486
 5518SOL    HW217454   3.334   5.993   5.407
 5519SOL     OW17455   2.835   6.476   5.296
 5519SOL    HW117456   2.881   6.392   5.267
 5519SOL    HW217457   2.779   6.510   5.221
 5520SOL     OW17458   2.853   5.996   4.966
 5520SOL    HW117459   2.776   6.030   5.020
 5520SOL    HW217460   2.819   5.945   4.887
 5521SOL     OW17461   2.903   6.287   4.153
 5521SOL    HW117462   2.929   6.283   4.249
 5521SOL    HW217463   2.818   6.236   4.139
 5522SOL     OW17464   1.938   6.397   4.513
 5522SOL    HW117465   2.037   6.385   4.522
 5522SOL    HW217466   1.914   6.492   4.534
 5523SOL     OW17467   2.727   5.934   3.919
 5523SOL    HW117468   2.786   5.997   3.870
 5523SOL    HW217469   2.746   5.840   3.890
 5524SOL     OW17470   3.581   6.171   5.555
 5524SOL    HW117471   3.555   6.260   5.519
 5524SOL    HW217472   3.579   6.103   5.482
 5525SOL     OW17473   3.224   6.730   4.269
 5525SOL    HW117474   3.307   6.701   4.221
 5525SOL    HW217475   3.175   6.797   4.213
 5526SOL     OW17476   2.412   5.782   4.609
 5526SOL    HW117477   2.407   5.777   4.709
 5526SOL    HW217478   2.414   5.878   4.580
 5527SOL     OW17479   3.657   6.652   4.597
 5527SOL    HW117480   3.595   6.637   4.521
 5527SOL    HW217481   3.605   6.663   4.682
 5528SOL     OW17482   2.183   6.529   3.966
 5528SOL    HW117483   2.265   6.568   3.924
 5528SOL    HW217484   2.156   6.447   3.917
 5529SOL     OW17485   3.320   6.321   4.452
 5529SOL    HW117486   3.315   6.256   4.527
 5529SOL    HW217487   3.400   6.380   4.465
 5530SOL     OW17488   2.064   5.871   5.222
 5530SOL    HW117489   1.984   5.931   5.209
 5530SOL    HW217490   2.054   5.822   5.308
 5531SOL     OW17491   3.494   6.963   3.805
 5531SOL    HW117492   3.462   7.057   3.795
 5531SOL    HW217493   3.418   6.900   3.793
 5532SOL     OW17494   3.262   5.693   4.150
 5532SOL    HW117495   3.238   5.656   4.060
 5532SOL    HW217496   3.361   5.709   4.154
 5533SOL     OW17497   2.244   6.286   4.204
 5533SOL    HW117498   2.289   6.196   4.201
 5533SOL    HW217499   2.150   6.275   4.237
 5534SOL     OW17500   3.409   5.808   5.453
 5534SOL    HW117501   3.404   5.845   5.545
 5534SOL    HW217502   3.337   5.739   5.441
 5535SOL     OW17503   2.476   5.708   3.841
 5535SOL    HW117504   2.574   5.686   3.848
 5535SOL    HW217505   2.445   5.691   3.748
 5536SOL     OW17506   2.643   5.850   5.473
 5536SOL    HW117507   2.710   5.789   5.516
 5536SOL    HW217508   2.570   5.869   5.538
 5537SOL     OW17509   3.213   6.176   5.157
 5537SOL    HW117510   3.241   6.133   5.242
 5537SOL    HW217511   3.238   6.272   5.158
 5538SOL     OW17512   2.784   6.089   4.623
 5538SOL    HW117513   2.759   6.080   4.527
 5538SOL    HW217514   2.832   6.007   4.654
 5539SOL     OW17515   2.401   5.650   4.236
 5539SOL    HW117516   2.320   5.651   4.294
 5539SOL    HW217517   2.404   5.733   4.181
 5540SOL     OW17518   3.296   6.774   3.765
 5540SOL    HW117519   3.328   6.698   3.822
 5540SOL    HW217520   3.204   6.801   3.795
 5541SOL     OW17521   2.159   5.621   3.895
 5541SOL    HW117522   2.208   5.705   3.874
 5541SOL    HW217523   2.221   5.556   3.940
 5542SOL     OW17524   2.797   5.822   4.204
 5542SOL    HW117525   2.749   5.863   4.126
 5542SOL    HW217526   2.896   5.820   4.185
 5543SOL     OW17527   2.938   6.269   5.188
 5543SOL    HW117528   2.858   6.208   5.191
 5543SOL    HW217529   3.019   6.216   5.164
 5544SOL     OW17530   3.089   7.156   4.517
 5544SOL    HW117531   3.110   7.230   4.452
 5544SOL    HW217532   3.157   7.156   4.590
 5545SOL     OW17533   2.321   6.738   4.465
 5545SOL    HW117534   2.250   6.711   4.530
 5545SOL    HW217535   2.295   6.710   4.372
 5546SOL     OW17536   2.894   6.135   3.740
 5546SOL    HW117537   2.853   6.217   3.701
 5546SOL    HW217538   2.958   6.161   3.813
 5547SOL     OW17539   1.940   6.142   5.110
 5547SOL    HW117540   2.032   6.141   5.069
 5547SOL    HW217541   1.934   6.216   5.177
 5548SOL     OW17542   2.423   5.808   4.871
 5548SOL    HW117543   2.461   5.724   4.908
 5548SOL    HW217544   2.335   5.827   4.915
 5549SOL     OW17545   2.728   6.040   4.366
 5549SOL    HW117546   2.696   6.112   4.304
 5549SOL    HW217547   2.752   5.959   4.313
 5550SOL     OW17548   2.879   5.625   4.477
 5550SOL    HW117549   2.807   5.630   4.408
 5550SOL    HW217550   2.855   5.556   4.546
 5551SOL     OW17551   3.291   6.759   4.591
 5551SOL    HW117552   3.236   6.675   4.584
 5551SOL    HW217553   3.317   6.788   4.499
 5552SOL     OW17554   3.328   6.176   4.716
 5552SOL    HW117555   3.298   6.081   4.723
 5552SOL    HW217556   3.401   6.192   4.782
 5553SOL     OW17557   3.719   6.419   4.101
 5553SOL    HW117558   3.761   6.355   4.165
 5553SOL    HW217559   3.681   6.368   4.023
 5554SOL     OW17560   3.526   6.866   4.381
 5554SOL    HW117561   3.625   6.874   4.395
 5554SOL    HW217562   3.481   6.950   4.412
 5555SOL     OW17563   3.252   6.161   3.802
 5555SOL    HW117564   3.198   6.140   3.883
 5555SOL    HW217565   3.343   6.120   3.811
 5556SOL     OW17566   2.389   5.842   4.052
 5556SOL    HW117567   2.416   5.783   3.977
 5556SOL    HW217568   2.389   5.937   4.021
 5557SOL     OW17569   3.616   6.809   5.312
 5557SOL    HW117570   3.707   6.770   5.299
 5557SOL    HW217571   3.624   6.905   5.336
 5558SOL     OW17572   2.926   6.933   5.064
 5558SOL    HW117573   2.846   6.910   5.119
 5558SOL    HW217574   3.009   6.907   5.113
 5559SOL     OW17575   2.973   6.781   4.824
 5559SOL    HW117576   2.933   6.825   4.905
 5559SOL    HW217577   2.932   6.818   4.741
 5560SOL     OW17578   3.500   6.685   4.803
 5560SOL    HW117579   3.505   6.766   4.862
 5560SOL    HW217580   3.414   6.687   4.752
 5561SOL     OW17581   2.777   5.675   5.126
 5561SOL    HW117582   2.802   5.655   5.031
 5561SOL    HW217583   2.849   5.731   5.168
 5562SOL     OW17584   2.842   6.702   5.443
 5562SOL    HW117585   2.743   6.708   5.453
 5562SOL    HW217586   2.865   6.622   5.387
 5563SOL     OW17587   2.567   6.636   4.092
 5563SOL    HW117588   2.553   6.643   4.191
 5563SOL    HW217589   2.651   6.585   4.074
 5564SOL     OW17590   2.272   6.399   4.975
 5564SOL    HW117591   2.358   6.411   5.025
 5564SOL    HW217592   2.230   6.312   5.002
 5565SOL     OW17593   3.136   5.972   4.986
 5565SOL    HW117594   3.157   6.046   5.050
 5565SOL    HW217595   3.047   5.989   4.943
 5566SOL     OW17596   2.229   6.686   4.225
 5566SOL    HW117597   2.222   6.769   4.169
 5566SOL    HW217598   2.233   6.606   4.165
 5567SOL     OW17599   2.428   6.123   4.589
 5567SOL    HW117600   2.440   6.189   4.515
 5567SOL    HW217601   2.474   6.157   4.672
 5568SOL     OW17602   3.444   6.225   4.196
 5568SOL    HW117603   3.413   6.286   4.269
 5568SOL    HW217604   3.494   6.277   4.127
 5569SOL     OW17605   2.264   6.337   5.322
 5569SOL    HW117606   2.332   6.392   5.275
 5569SOL    HW217607   2.304   6.249   5.349
 5570SOL     OW17608   3.449   6.365   5.394
 5570SOL    HW117609   3.357   6.403   5.389
 5570SOL    HW217610   3.509   6.412   5.329
 5571SOL     OW17611   2.875   5.691   5.494
 5571SOL    HW117612   2.881   5.776   5.442
 5571SOL    HW217613   2.907   5.615   5.437
 5572SOL     OW17614   2.366   5.636   5.464
 5572SOL    HW117615   2.324   5.579   5.394
 5572SOL    HW217616   2.300   5.705   5.496
 5573SOL     OW17617   2.435   6.456   4.753
 5573SOL    HW117618   2.479   6.545   4.744
 5573SOL    HW217619   2.372   6.456   4.830
 5574SOL     OW17620   3.222   6.448   4.769
 5574SOL    HW117621   3.147   6.448   4.703
 5574SOL    HW217622   3.259   6.356   4.778
 5575SOL     OW17623   3.071   6.111   3.999
 5575SOL    HW117624   3.084   6.027   4.053
 5575SOL    HW217625   3.042   6.185   4.059
 5576SOL     OW17626   2.169   5.799   4.955
 5576SOL    HW117627   2.146   5.836   5.045
 5576SOL    HW217628   2.139   5.704   4.949
 5577SOL     OW17629   1.899   6.896   5.006
 5577SOL    HW117630   1.952   6.847   5.074
 5577SOL    HW217631   1.921   6.994   5.011
 5578SOL     OW17632   2.594   6.220   4.788
 5578SOL    HW117633   2.653   6.194   4.712
 5578SOL    HW217634   2.566   6.316   4.777
 5579SOL     OW17635   3.590   6.521   5.578
 5579SOL    HW117636   3.544   6.514   5.489
 5579SOL    HW217637   3.528   6.565   5.644
 5580SOL     OW17638   2.169   5.649   4.342
 5580SOL    HW117639   2.158   5.743   4.375
 5580SOL    HW217640   2.164   5.586   4.419
 5581SOL     OW17641   3.484   5.953   4.098
 5581SOL    HW117642   3.486   5.877   4.162
 5581SOL    HW217643   3.436   6.030   4.138
 5582SOL     OW17644   2.885   6.352   4.690
 5582SOL    HW117645   2.900   6.373   4.786
 5582SOL    HW217646   2.855   6.257   4.681
 5583SOL     OW17647   3.721   7.104   5.329
 5583SOL    HW117648   3.735   7.131   5.234
 5583SOL    HW217649   3.804   7.126   5.382
 5584SOL     OW17650   2.212   6.484   5.528
 5584SOL    HW117651   2.288   6.528   5.576
 5584SOL    HW217652   2.247   6.437   5.446
 5585SOL     OW17653   3.402   5.860   3.849
 5585SOL    HW117654   3.341   5.785   3.872
 5585SOL    HW217655   3.424   5.912   3.932
 5586SOL     OW17656   3.165   6.424   3.766
 5586SOL    HW117657   3.199   6.331   3.781
 5586SOL    HW217658   3.183   6.451   3.671
 5587SOL     OW17659   2.181   6.396   4.673
 5587SOL    HW117660   2.274   6.432   4.678
 5587SOL    HW217661   2.175   6.311   4.725
 5588SOL     OW17662   2.201   6.095   4.730
 5588SOL    HW117663   2.149   6.012   4.713
 5588SOL    HW217664   2.278   6.100   4.666
 5589SOL     OW17665   3.000   5.966   5.402
 5589SOL    HW117666   2.955   6.029   5.466
 5589SOL    HW217667   3.093   5.997   5.385
 5590SOL     OW17668   3.022   5.793   5.201
 5590SOL    HW117669   3.022   5.857   5.278
 5590SOL    HW217670   3.050   5.841   5.118
 5591SOL     OW17671   1.870   6.912   3.924
 5591SOL    HW117672   1.777   6.933   3.893
 5591SOL    HW217673   1.880   6.813   3.937
 5592SOL     OW17674   2.864   6.382   4.962
 5592SOL    HW117675   2.905   6.350   5.048
 5592SOL    HW217676   2.768   6.355   4.959
 5593SOL     OW17677   1.902   6.130   4.838
 5593SOL    HW117678   1.987   6.097   4.797
 5593SOL    HW217679   1.915   6.145   4.936
 5594SOL     OW17680   2.051   6.106   5.446
 5594SOL    HW117681   2.110   6.066   5.376
 5594SOL    HW217682   1.993   6.177   5.405
 5595SOL     OW17683   3.231   6.536   5.384
 5595SOL    HW117684   3.270   6.625   5.404
 5595SOL    HW217685   3.241   6.516   5.287
 5596SOL     OW17686   2.677   6.158   4.049
 5596SOL    HW117687   2.684   6.069   4.003
 5596SOL    HW217688   2.583   6.192   4.041
 5597SOL     OW17689   3.519   6.190   4.930
 5597SOL    HW117690   3.481   6.121   4.992
 5597SOL    HW217691   3.601   6.154   4.886
 5598SOL     OW17692   2.533   6.050   4.993
 5598SOL    HW117693   2.499   5.961   4.963
 5598SOL    HW217694   2.559   6.104   4.913
 5599SOL     OW17695   2.335   6.086   3.915
 5599SOL    HW117696   2.396   6.166   3.919
 5599SOL    HW217697   2.240   6.117   3.922
 5600SOL     OW17698   2.021   6.723   5.190
 5600SOL    HW117699   2.043   6.662   5.266
 5600SOL    HW217700   2.031   6.674   5.104
 5601SOL     OW17701   3.209   6.645   4.958
 5601SOL    HW117702   3.233   6.582   4.884
 5601SOL    HW217703   3.119   6.685   4.940
 5602SOL     OW17704   3.164   6.441   4.033
 5602SOL    HW117705   3.078   6.410   4.075
 5602SOL    HW217706   3.160   6.427   3.934
 5603SOL     OW17707   1.945   6.844   4.746
 5603SOL    HW117708   1.940   6.843   4.846
 5603SOL    HW217709   1.862   6.803   4.708
 5604SOL     OW17710   3.588   5.721   4.247
 5604SOL    HW117711   3.661   5.704   4.180
 5604SOL    HW217712   3.557   5.634   4.285
 5605SOL     OW17713   3.142   6.513   4.396
 5605SOL    HW117714   3.202   6.432   4.398
 5605SOL    HW217715   3.182   6.582   4.336
 5606SOL     OW17716   2.692   6.859   5.146
 5606SOL    HW117717   2.687   6.892   5.241
 5606SOL    HW217718   2.606   6.878   5.100
 5607SOL     OW17719   3.703   5.761   4.687
 5607SOL    HW117720   3.742   5.676   4.651
 5607SOL    HW217721   3.605   5.763   4.668
 5608SOL     OW17722   2.125   5.912   4.444
 5608SOL    HW117723   2.046   5.963   4.410
 5608SOL    HW217724   2.116   5.897   4.542
 5609SOL     OW17725   3.056   7.198   3.755
 5609SOL    HW117726   3.062   7.105   3.792
 5609SOL    HW217727   2.997   7.198   3.675
 5610SOL     OW17728   2.684   6.588   5.096
 5610SOL    HW117729   2.724   6.587   5.004
 5610SOL    HW217730   2.694   6.680   5.136
 5611SOL     OW17731   2.778   6.496   4.015
 5611SOL    HW117732   2.841   6.534   3.947
 5611SOL    HW217733   2.818   6.413   4.054
 5612SOL     OW17734   2.234   6.874   5.214
 5612SOL    HW117735   2.221   6.967   5.180
 5612SOL    HW217736   2.150   6.822   5.201
 5613SOL     OW17737   3.476   6.878   5.013
 5613SOL    HW117738   3.536   6.881   5.093
 5613SOL    HW217739   3.401   6.942   5.026
 5614SOL     OW17740   2.901   6.684   4.420
 5614SOL    HW117741   2.831   6.637   4.474
 5614SOL    HW217742   2.960   6.616   4.377
 5615SOL     OW17743   2.876   5.822   4.695
 5615SOL    HW117744   2.868   5.786   4.602
 5615SOL    HW217745   2.874   5.746   4.760
 5616SOL     OW17746   3.571   5.971   5.105
 5616SOL    HW117747   3.644   6.040   5.109
 5616SOL    HW217748   3.599   5.896   5.046
 5617SOL     OW17749   1.967   6.599   5.450
 5617SOL    HW117750   1.890   6.566   5.504
 5617SOL    HW217751   2.052   6.569   5.492
 5618SOL     OW17752   2.534   5.789   5.213
 5618SOL    HW117753   2.624   5.773   5.173
 5618SOL    HW217754   2.542   5.794   5.312
 5619SOL     OW17755   1.937   5.931   3.757
 5619SOL    HW117756   1.845   5.903   3.728
 5619SOL    HW217757   1.968   6.008   3.701
 5620SOL     OW17758   3.302   6.442   5.122
 5620SOL    HW117759   3.245   6.494   5.059
 5620SOL    HW217760   3.398   6.454   5.098
 5621SOL     OW17761   1.934   5.752   4.042
 5621SOL    HW117762   1.917   5.835   3.988
 5621SOL    HW217763   2.024   5.715   4.020
 5622SOL     OW17764   2.475   6.428   5.155
 5622SOL    HW117765   2.531   6.509   5.138
 5622SOL    HW217766   2.534   6.348   5.158
 5623SOL     OW17767   2.578   6.151   5.432
 5623SOL    HW117768   2.597   6.216   5.506
 5623SOL    HW217769   2.638   6.071   5.441
 5624SOL     OW17770   3.312   6.806   5.357
 5624SOL    HW117771   3.303   6.796   5.456
 5624SOL    HW217772   3.408   6.799   5.331
 5625SOL     OW17773   3.536   6.469   4.978
 5625SOL    HW117774   3.509   6.380   4.941
 5625SOL    HW217775   3.537   6.537   4.905
 5626SOL     OW17776   3.087   5.911   4.173
 5626SOL    HW117777   3.152   5.837   4.162
 5626SOL    HW217778   3.107   5.961   4.257
 5627SOL     OW17779   2.456   6.331   4.376
 5627SOL    HW117780   2.506   6.416   4.357
 5627SOL    HW217781   2.368   6.333   4.328
 5628SOL     OW17782   3.639   5.928   5.366
 5628SOL    HW117783   3.622   5.959   5.272
 5628SOL    HW217784   3.555   5.891   5.404
 5629SOL     OW17785   3.592   6.520   5.241
 5629SOL    HW117786   3.630   6.611   5.256
 5629SOL    HW217787   3.584   6.503   5.142
 5630SOL     OW17788   2.721   6.542   4.585
 5630SOL    HW117789   2.775   6.473   4.633
 5630SOL    HW217790   2.689   6.611   4.651
 5631SOL     OW17791   2.945   6.570   3.811
 5631SOL    HW117792   2.922   6.623   3.729
 5631SOL    HW217793   3.026   6.514   3.792
 5632SOL     OW17794   2.083   6.900   5.568
 5632SOL    HW117795   2.018   6.827   5.547
 5632SOL    HW217796   2.087   6.914   5.666
 5633SOL     OW17797   1.941   6.826   4.377
 5633SOL    HW117798   1.940   6.779   4.465
 5633SOL    HW217799   2.023   6.798   4.326
 5634SOL     OW17800   2.534   6.977   5.348
 5634SOL    HW117801   2.456   6.927   5.386
 5634SOL    HW217802   2.531   7.072   5.379
 5635SOL     OW17803   3.686   5.778   4.951
 5635SOL    HW117804   3.682   5.688   4.995
 5635SOL    HW217805   3.689   5.767   4.852
 5636SOL     OW17806   2.290   6.010   4.244
 5636SOL    HW117807   2.320   5.938   4.182
 5636SOL    HW217808   2.251   5.970   4.327
 5637SOL     OW17809   3.567   7.073   4.828
 5637SOL    HW117810   3.474   7.048   4.801
 5637SOL    HW217811   3.593   7.023   4.910
 5638SOL     OW17812   2.179   6.133   5.004
 5638SOL    HW117813   2.217   6.074   5.076
 5638SOL    HW217814   2.219   6.107   4.916
 5639SOL     OW17815   3.286   5.800   4.836
 5639SOL    HW117816   3.338   5.735   4.891
 5639SOL    HW217817   3.237   5.863   4.897
 5640SOL     OW17818   2.863   5.620   4.878
 5640SOL    HW117819   2.800   5.548   4.847
 5640SOL    HW217820   2.956   5.584   4.878
 5641SOL     OW17821   2.632   6.916   4.025
 5641SOL    HW117822   2.586   6.829   4.042
 5641SOL    HW217823   2.723   6.913   4.066
 5642SOL     OW17824   3.214   5.638   3.892
 5642SOL    HW117825   3.249   5.597   3.808
 5642SOL    HW217826   3.124   5.600   3.912
 5643SOL     OW17827   3.162   6.039   4.415
 5643SOL    HW117828   3.103   6.119   4.419
 5643SOL    HW217829   3.177   6.004   4.508
 5644SOL     OW17830   3.455   5.807   4.606
 5644SOL    HW117831   3.371   5.806   4.660
 5644SOL    HW217832   3.457   5.890   4.550
 5645SOL     OW17833   1.901   6.663   4.024
 5645SOL    HW117834   2.000   6.652   4.015
 5645SOL    HW217835   1.861   6.577   4.056
 5646SOL     OW17836   2.092   6.214   5.699
 5646SOL    HW117837   1.999   6.212   5.736
 5646SOL    HW217838   2.093   6.175   5.607
 5647SOL     OW17839   2.087   5.861   6.582
 5647SOL    HW117840   2.122   5.844   6.674
 5647SOL    HW217841   1.999   5.816   6.570
 5648SOL     OW17842   1.881   5.954   6.233
 5648SOL    HW117843   1.799   5.997   6.272
 5648SOL    HW217844   1.853   5.881   6.170
 5649SOL     OW17845   2.431   6.861   6.751
 5649SOL    HW117846   2.338   6.854   6.714
 5649SOL    HW217847   2.442   6.950   6.795
 5650SOL     OW17848   3.417   7.097   6.289
 5650SOL    HW117849   3.360   7.081   6.370
 5650SOL    HW217850   3.358   7.107   6.209
 5651SOL     OW17851   2.997   6.289   6.303
 5651SOL    HW117852   3.054   6.367   6.278
 5651SOL    HW217853   2.937   6.315   6.379
 5652SOL     OW17854   3.617   6.193   5.817
 5652SOL    HW117855   3.605   6.180   5.718
 5652SOL    HW217856   3.587   6.112   5.866
 5653SOL     OW17857   2.630   6.730   6.609
 5653SOL    HW117858   2.552   6.747   6.669
 5653SOL    HW217859   2.664   6.817   6.573
 5654SOL     OW17860   2.547   6.598   6.251
 5654SOL    HW117861   2.616   6.582   6.321
 5654SOL    HW217862   2.474   6.655   6.289
 5655SOL     OW17863   2.197   7.021   6.647
 5655SOL    HW117864   2.119   6.990   6.594
 5655SOL    HW217865   2.255   7.079   6.590
 5656SOL     OW17866   3.465   6.033   6.323
 5656SOL    HW117867   3.391   6.079   6.273
 5656SOL    HW217868   3.516   6.101   6.376
 5657SOL     OW17869   2.102   6.677   6.472
 5657SOL    HW117870   2.116   6.593   6.524
 5657SOL    HW217871   2.047   6.741   6.527
 5658SOL     OW17872   2.468   6.550   5.709
 5658SOL    HW117873   2.475   6.634   5.655
 5658SOL    HW217874   2.514   6.563   5.797
 5659SOL     OW17875   1.984   6.229   6.149
 5659SOL    HW117876   1.939   6.141   6.166
 5659SOL    HW217877   1.983   6.283   6.233
 5660SOL     OW17878   3.551   6.508   6.198
 5660SOL    HW117879   3.646   6.479   6.206
 5660SOL    HW217880   3.543   6.573   6.123
 5661SOL     OW17881   3.503   6.694   6.018
 5661SOL    HW117882   3.589   6.696   5.966
 5661SOL    HW217883   3.517   6.741   6.106
 5662SOL     OW17884   2.671   5.590   6.088
 5662SOL    HW117885   2.711   5.681   6.079
 5662SOL    HW217886   2.571   5.598   6.094
 5663SOL     OW17887   2.059   6.562   6.850
 5663SOL    HW117888   2.148   6.517   6.836
 5663SOL    HW217889   1.986   6.497   6.831
 5664SOL     OW17890   3.387   6.585   5.776
 5664SOL    HW117891   3.324   6.509   5.789
 5664SOL    HW217892   3.435   6.603   5.862
 5665SOL     OW17893   3.328   7.003   6.539
 5665SOL    HW117894   3.269   7.009   6.619
 5665SOL    HW217895   3.313   6.915   6.493
 5666SOL     OW17896   2.460   6.315   5.856
 5666SOL    HW117897   2.484   6.384   5.788
 5666SOL    HW217898   2.382   6.348   5.910
 5667SOL     OW17899   3.143   5.931   6.530
 5667SOL    HW117900   3.057   5.881   6.517
 5667SOL    HW217901   3.205   5.877   6.586
 5668SOL     OW17902   2.669   6.191   7.051
 5668SOL    HW117903   2.622   6.188   7.140
 5668SOL    HW217904   2.618   6.136   6.985
 5669SOL     OW17905   2.853   5.996   6.828
 5669SOL    HW117906   2.776   6.030   6.882
 5669SOL    HW217907   2.819   5.945   6.749
 5670SOL     OW17908   2.903   6.287   6.015
 5670SOL    HW117909   2.929   6.283   6.111
 5670SOL    HW217910   2.818   6.236   6.001
 5671SOL     OW17911   1.938   6.397   6.375
 5671SOL    HW117912   2.037   6.385   6.384
 5671SOL    HW217913   1.914   6.492   6.396
 5672SOL     OW17914   2.727   5.934   5.781
 5672SOL    HW117915   2.786   5.997   5.732
 5672SOL    HW217916   2.746   5.840   5.752
 5673SOL     OW17917   3.224   6.730   6.131
 5673SOL    HW117918   3.307   6.701   6.083
 5673SOL    HW217919   3.175   6.797   6.075
 5674SOL     OW17920   2.412   5.782   6.471
 5674SOL    HW117921   2.407   5.777   6.571
 5674SOL    HW217922   2.414   5.878   6.442
 5675SOL     OW17923   3.657   6.652   6.459
 5675SOL    HW117924   3.595   6.637   6.383
 5675SOL    HW217925   3.605   6.663   6.544
 5676SOL     OW17926   2.183   6.529   5.828
 5676SOL    HW117927   2.265   6.568   5.786
 5676SOL    HW217928   2.156   6.447   5.779
 5677SOL     OW17929   3.320   6.321   6.314
 5677SOL    HW117930   3.315   6.256   6.389
 5677SOL    HW217931   3.400   6.380   6.327
 5678SOL     OW17932   3.494   6.963   5.667
 5678SOL    HW117933   3.462   7.057   5.657
 5678SOL    HW217934   3.418   6.900   5.655
 5679SOL     OW17935   3.262   5.693   6.012
 5679SOL    HW117936   3.238   5.656   5.922
 5679SOL    HW217937   3.361   5.709   6.016
 5680SOL     OW17938   2.244   6.286   6.066
 5680SOL    HW117939   2.289   6.196   6.063
 5680SOL    HW217940   2.150   6.275   6.099
 5681SOL     OW17941   2.476   5.708   5.703
 5681SOL    HW117942   2.574   5.686   5.710
 5681SOL    HW217943   2.445   5.691   5.610
 5682SOL     OW17944   2.784   6.089   6.485
 5682SOL    HW117945   2.759   6.080   6.389
 5682SOL    HW217946   2.832   6.007   6.516
 5683SOL     OW17947   2.401   5.650   6.098
 5683SOL    HW117948   2.320   5.651   6.156
 5683SOL    HW217949   2.404   5.733   6.043
 5684SOL     OW17950   3.296   6.774   5.627
 5684SOL    HW117951   3.328   6.698   5.684
 5684SOL    HW217952   3.204   6.801   5.657
 5685SOL     OW17953   2.159   5.621   5.757
 5685SOL    HW117954   2.208   5.705   5.736
 5685SOL    HW217955   2.221   5.556   5.802
 5686SOL     OW17956   2.797   5.822   6.066
 5686SOL    HW117957   2.749   5.863   5.988
 5686SOL    HW217958   2.896   5.820   6.047
 5687SOL     OW17959   3.089   7.156   6.379
 5687SOL    HW117960   3.110   7.230   6.314
 5687SOL    HW217961   3.157   7.156   6.452
 5688SOL     OW17962   2.321   6.738   6.327
 5688SOL    HW117963   2.250   6.711   6.392
 5688SOL    HW217964   2.295   6.710   6.234
 5689SOL     OW17965   2.894   6.135   5.602
 5689SOL    HW117966   2.853   6.217   5.563
 5689SOL    HW217967   2.958   6.161   5.675
 5690SOL     OW17968   2.423   5.808   6.733
 5690SOL    HW117969   2.461   5.724   6.770
 5690SOL    HW217970   2.335   5.827   6.777
 5691SOL     OW17971   2.728   6.040   6.228
 5691SOL    HW117972   2.696   6.112   6.166
 5691SOL    HW217973   2.752   5.959   6.175
 5692SOL     OW17974   2.879   5.625   6.339
 5692SOL    HW117975   2.807   5.630   6.270
 5692SOL    HW217976   2.855   5.556   6.408
 5693SOL     OW17977   3.291   6.759   6.453
 5693SOL    HW117978   3.236   6.675   6.446
 5693SOL    HW217979   3.317   6.788   6.361
 5694SOL     OW17980   3.328   6.176   6.578
 5694SOL    HW117981   3.298   6.081   6.585
 5694SOL    HW217982   3.401   6.192   6.644
 5695SOL     OW17983   3.719   6.419   5.963
 5695SOL    HW117984   3.761   6.355   6.027
 5695SOL    HW217985   3.681   6.368   5.885
 5696SOL     OW17986   3.526   6.866   6.243
 5696SOL    HW117987   3.625   6.874   6.257
 5696SOL    HW217988   3.481   6.950   6.274
 5697SOL     OW17989   3.252   6.161   5.664
 5697SOL    HW117990   3.198   6.140   5.745
 5697SOL    HW217991   3.343   6.120   5.673
 5698SOL     OW17992   2.389   5.842   5.914
 5698SOL    HW117993   2.416   5.783   5.839
 5698SOL    HW217994   2.389   5.937   5.883
 5699SOL     OW17995   3.616   6.809   7.174
 5699SOL    HW117996   3.707   6.770   7.161
 5699SOL    HW217997   3.624   6.905   7.198
 5700SOL     OW17998   2.926   6.933   6.926
 5700SOL    HW117999   2.846   6.910   6.981
 5700SOL    HW218000   3.009   6.907   6.975
 5701SOL     OW18001   2.973   6.781   6.686
 5701SOL    HW118002   2.933   6.825   6.767
 5701SOL    HW218003   2.932   6.818   6.603
 5702SOL     OW18004   3.500   6.685   6.665
 5702SOL    HW118005   3.505   6.766   6.724
 5702SOL    HW218006   3.414   6.687   6.614
 5703SOL     OW18007   2.567   6.636   5.954
 5703SOL    HW118008   2.553   6.643   6.053
 5703SOL    HW218009   2.651   6.585   5.936
 5704SOL     OW18010   2.272   6.399   6.837
 5704SOL    HW118011   2.358   6.411   6.887
 5704SOL    HW218012   2.230   6.312   6.864
 5705SOL     OW18013   3.136   5.972   6.848
 5705SOL    HW118014   3.157   6.046   6.912
 5705SOL    HW218015   3.047   5.989   6.805
 5706SOL     OW18016   2.229   6.686   6.087
 5706SOL    HW118017   2.222   6.769   6.031
 5706SOL    HW218018   2.233   6.606   6.027
 5707SOL     OW18019   2.428   6.123   6.451
 5707SOL    HW118020   2.440   6.189   6.377
 5707SOL    HW218021   2.474   6.157   6.534
 5708SOL     OW18022   3.444   6.225   6.058
 5708SOL    HW118023   3.413   6.286   6.131
 5708SOL    HW218024   3.494   6.277   5.989
 5709SOL     OW18025   2.435   6.456   6.615
 5709SOL    HW118026   2.479   6.545   6.606
 5709SOL    HW218027   2.372   6.456   6.692
 5710SOL     OW18028   3.222   6.448   6.631
 5710SOL    HW118029   3.147   6.448   6.565
 5710SOL    HW218030   3.259   6.356   6.640
 5711SOL     OW18031   3.071   6.111   5.861
 5711SOL    HW118032   3.084   6.027   5.915
 5711SOL    HW218033   3.042   6.185   5.921
 5712SOL     OW18034   2.169   5.799   6.817
 5712SOL    HW118035   2.146   5.836   6.907
 5712SOL    HW218036   2.139   5.704   6.811
 5713SOL     OW18037   1.899   6.896   6.868
 5713SOL    HW118038   1.952   6.847   6.936
 5713SOL    HW218039   1.921   6.994   6.873
 5714SOL     OW18040   2.594   6.220   6.650
 5714SOL    HW118041   2.653   6.194   6.574
 5714SOL    HW218042   2.566   6.316   6.639
 5715SOL     OW18043   2.169   5.649   6.204
 5715SOL    HW118044   2.158   5.743   6.237
 5715SOL    HW218045   2.164   5.586   6.281
 5716SOL     OW18046   3.484   5.953   5.960
 5716SOL    HW118047   3.486   5.877   6.024
 5716SOL    HW218048   3.436   6.030   6.000
 5717SOL     OW18049   2.885   6.352   6.552
 5717SOL    HW118050   2.900   6.373   6.648
 5717SOL    HW218051   2.855   6.257   6.543
 5718SOL     OW18052   3.402   5.860   5.711
 5718SOL    HW118053   3.341   5.785   5.734
 5718SOL    HW218054   3.424   5.912   5.794
 5719SOL     OW18055   3.165   6.424   5.628
 5719SOL    HW118056   3.199   6.331   5.643
 5719SOL    HW218057   3.183   6.451   5.533
 5720SOL     OW18058   2.181   6.396   6.535
 5720SOL    HW118059   2.274   6.432   6.540
 5720SOL    HW218060   2.175   6.311   6.587
 5721SOL     OW18061   2.201   6.095   6.592
 5721SOL    HW118062   2.149   6.012   6.575
 5721SOL    HW218063   2.278   6.100   6.528
 5722SOL     OW18064   3.022   5.793   7.063
 5722SOL    HW118065   3.022   5.857   7.140
 5722SOL    HW218066   3.050   5.841   6.980
 5723SOL     OW18067   1.870   6.912   5.786
 5723SOL    HW118068   1.777   6.933   5.755
 5723SOL    HW218069   1.880   6.813   5.799
 5724SOL     OW18070   2.864   6.382   6.824
 5724SOL    HW118071   2.905   6.350   6.910
 5724SOL    HW218072   2.768   6.355   6.821
 5725SOL     OW18073   1.902   6.130   6.700
 5725SOL    HW118074   1.987   6.097   6.659
 5725SOL    HW218075   1.915   6.145   6.798
 5726SOL     OW18076   2.677   6.158   5.911
 5726SOL    HW118077   2.684   6.069   5.865
 5726SOL    HW218078   2.583   6.192   5.903
 5727SOL     OW18079   3.519   6.190   6.792
 5727SOL    HW118080   3.481   6.121   6.854
 5727SOL    HW218081   3.601   6.154   6.748
 5728SOL     OW18082   2.533   6.050   6.855
 5728SOL    HW118083   2.499   5.961   6.825
 5728SOL    HW218084   2.559   6.104   6.775
 5729SOL     OW18085   2.335   6.086   5.777
 5729SOL    HW118086   2.396   6.166   5.781
 5729SOL    HW218087   2.240   6.117   5.784
 5730SOL     OW18088   2.021   6.723   7.052
 5730SOL    HW118089   2.043   6.662   7.128
 5730SOL    HW218090   2.031   6.674   6.966
 5731SOL     OW18091   3.209   6.645   6.820
 5731SOL    HW118092   3.233   6.582   6.746
 5731SOL    HW218093   3.119   6.685   6.802
 5732SOL     OW18094   3.164   6.441   5.895
 5732SOL    HW118095   3.078   6.410   5.937
 5732SOL    HW218096   3.160   6.427   5.796
 5733SOL     OW18097   1.945   6.844   6.608
 5733SOL    HW118098   1.940   6.843   6.708
 5733SOL    HW218099   1.862   6.803   6.570
 5734SOL     OW18100   3.588   5.721   6.109
 5734SOL    HW118101   3.661   5.704   6.042
 5734SOL    HW218102   3.557   5.634   6.147
 5735SOL     OW18103   3.142   6.513   6.258
 5735SOL    HW118104   3.202   6.432   6.260
 5735SOL    HW218105   3.182   6.582   6.198
 5736SOL     OW18106   2.692   6.859   7.008
 5736SOL    HW118107   2.687   6.892   7.103
 5736SOL    HW218108   2.606   6.878   6.962
 5737SOL     OW18109   3.703   5.761   6.549
 5737SOL    HW118110   3.742   5.676   6.513
 5737SOL    HW218111   3.605   5.763   6.530
 5738SOL     OW18112   2.125   5.912   6.306
 5738SOL    HW118113   2.046   5.963   6.272
 5738SOL    HW218114   2.116   5.897   6.404
 5739SOL     OW18115   3.056   7.198   5.617
 5739SOL    HW118116   3.062   7.105   5.654
 5739SOL    HW218117   2.997   7.198   5.537
 5740SOL     OW18118   2.684   6.588   6.958
 5740SOL    HW118119   2.724   6.587   6.866
 5740SOL    HW218120   2.694   6.680   6.998
 5741SOL     OW18121   2.778   6.496   5.877
 5741SOL    HW118122   2.841   6.534   5.809
 5741SOL    HW218123   2.818   6.413   5.916
 5742SOL     OW18124   2.234   6.874   7.076
 5742SOL    HW118125   2.221   6.967   7.042
 5742SOL    HW218126   2.150   6.822   7.063
 5743SOL     OW18127   3.476   6.878   6.875
 5743SOL    HW118128   3.536   6.881   6.955
 5743SOL    HW218129   3.401   6.942   6.888
 5744SOL     OW18130   2.901   6.684   6.282
 5744SOL    HW118131   2.831   6.637   6.336
 5744SOL    HW218132   2.960   6.616   6.239
 5745SOL     OW18133   2.876   5.822   6.557
 5745SOL    HW118134   2.868   5.786   6.464
 5745SOL    HW218135   2.874   5.746   6.622
 5746SOL     OW18136   3.571   5.971   6.967
 5746SOL    HW118137   3.644   6.040   6.971
 5746SOL    HW218138   3.599   5.896   6.908
 5747SOL     OW18139   2.534   5.789   7.075
 5747SOL    HW118140   2.624   5.773   7.035
 5747SOL    HW218141   2.542   5.794   7.174
 5748SOL     OW18142   1.937   5.931   5.619
 5748SOL    HW118143   1.845   5.903   5.590
 5748SOL    HW218144   1.968   6.008   5.563
 5749SOL     OW18145   1.934   5.752   5.904
 5749SOL    HW118146   1.917   5.835   5.850
 5749SOL    HW218147   2.024   5.715   5.882
 5750SOL     OW18148   3.312   6.806   7.219
 5750SOL    HW118149   3.303   6.796   7.318
 5750SOL    HW218150   3.408   6.799   7.193
 5751SOL     OW18151   3.536   6.469   6.840
 5751SOL    HW118152   3.509   6.380   6.803
 5751SOL    HW218153   3.537   6.537   6.767
 5752SOL     OW18154   3.087   5.911   6.035
 5752SOL    HW118155   3.152   5.837   6.024
 5752SOL    HW218156   3.107   5.961   6.119
 5753SOL     OW18157   2.456   6.331   6.238
 5753SOL    HW118158   2.506   6.416   6.219
 5753SOL    HW218159   2.368   6.333   6.190
 5754SOL     OW18160   3.592   6.520   7.103
 5754SOL    HW118161   3.630   6.611   7.118
 5754SOL    HW218162   3.584   6.503   7.004
 5755SOL     OW18163   2.721   6.542   6.447
 5755SOL    HW118164   2.775   6.473   6.495
 5755SOL    HW218165   2.689   6.611   6.513
 5756SOL     OW18166   2.945   6.570   5.673
 5756SOL    HW118167   2.922   6.623   5.591
 5756SOL    HW218168   3.026   6.514   5.654
 5757SOL     OW18169   1.941   6.826   6.239
 5757SOL    HW118170   1.940   6.779   6.327
 5757SOL    HW218171   2.023   6.798   6.188
 5758SOL     OW18172   3.686   5.778   6.813
 5758SOL    HW118173   3.682   5.688   6.857
 5758SOL    HW218174   3.689   5.767   6.714
 5759SOL     OW18175   2.290   6.010   6.106
 5759SOL    HW118176   2.320   5.938   6.044
 5759SOL    HW218177   2.251   5.970   6.189
 5760SOL     OW18178   3.567   7.073   6.690
 5760SOL    HW118179   3.474   7.048   6.663
 5760SOL    HW218180   3.593   7.023   6.772
 5761SOL     OW18181   2.179   6.133   6.866
 5761SOL    HW118182   2.217   6.074   6.938
 5761SOL    HW218183   2.219   6.107   6.778
 5762SOL     OW18184   3.286   5.800   6.698
 5762SOL    HW118185   3.338   5.735   6.753
 5762SOL    HW218186   3.237   5.863   6.759
 5763SOL     OW18187   2.863   5.620   6.740
 5763SOL    HW118188   2.800   5.548   6.709
 5763SOL    HW218189   2.956   5.584   6.740
 5764SOL     OW18190   2.632   6.916   5.887
 5764SOL    HW118191   2.586   6.829   5.904
 5764SOL    HW218192   2.723   6.913   5.928
 5765SOL     OW18193   3.214   5.638   5.754
 5765SOL    HW118194   3.249   5.597   5.670
 5765SOL    HW218195   3.124   5.600   5.774
 5766SOL     OW18196   3.162   6.039   6.277
 5766SOL    HW118197   3.103   6.119   6.281
 5766SOL    HW218198   3.177   6.004   6.370
 5767SOL     OW18199   3.455   5.807   6.468
 5767SOL    HW118200   3.371   5.806   6.522
 5767SOL    HW218201   3.457   5.890   6.412
 5768SOL     OW18202   1.901   6.663   5.886
 5768SOL    HW118203   2.000   6.652   5.877
 5768SOL    HW218204   1.861   6.577   5.918
 5769SOL     OW18205   3.954   0.628   0.113
 5769SOL    HW118206   3.861   0.626   0.150
 5769SOL    HW218207   3.955   0.589   0.021
 5770SOL     OW18208   3.949   0.275   0.996
 5770SOL    HW118209   3.984   0.258   1.088
 5770SOL    HW218210   3.861   0.230   0.984
 5771SOL     OW18211   3.743   0.368   0.647
 5771SOL    HW118212   3.661   0.411   0.686
 5771SOL    HW218213   3.715   0.295   0.584
 5772SOL     OW18214   4.293   1.275   1.165
 5772SOL    HW118215   4.200   1.268   1.128
 5772SOL    HW218216   4.304   1.364   1.209
 5773SOL     OW18217   5.279   1.511   0.703
 5773SOL    HW118218   5.222   1.495   0.784
 5773SOL    HW218219   5.220   1.521   0.623
 5774SOL     OW18220   4.859   0.703   0.717
 5774SOL    HW118221   4.916   0.781   0.692
 5774SOL    HW218222   4.799   0.729   0.793
 5775SOL     OW18223   5.479   0.607   0.231
 5775SOL    HW118224   5.467   0.594   0.132
 5775SOL    HW218225   5.449   0.526   0.280
 5776SOL     OW18226   4.492   1.144   1.023
 5776SOL    HW118227   4.414   1.161   1.083
 5776SOL    HW218228   4.526   1.231   0.987
 5777SOL     OW18229   4.574   0.798   1.823
 5777SOL    HW118230   4.570   0.874   1.888
 5777SOL    HW218231   4.596   0.834   1.732
 5778SOL     OW18232   4.409   1.012   0.665
 5778SOL    HW118233   4.478   0.996   0.735
 5778SOL    HW218234   4.336   1.069   0.703
 5779SOL     OW18235   4.410   1.161   1.803
 5779SOL    HW118236   4.470   1.240   1.817
 5779SOL    HW218237   4.324   1.192   1.762
 5780SOL     OW18238   4.059   1.435   1.061
 5780SOL    HW118239   3.981   1.404   1.008
 5780SOL    HW218240   4.117   1.493   1.004
 5781SOL     OW18241   5.184   1.505   1.339
 5781SOL    HW118242   5.208   1.599   1.365
 5781SOL    HW218243   5.168   1.451   1.421
 5782SOL     OW18244   4.162   0.392   1.499
 5782SOL    HW118245   4.244   0.336   1.508
 5782SOL    HW218246   4.081   0.334   1.503
 5783SOL     OW18247   5.327   0.447   0.737
 5783SOL    HW118248   5.253   0.493   0.687
 5783SOL    HW218249   5.378   0.515   0.790
 5784SOL     OW18250   3.955   1.713   0.483
 5784SOL    HW118251   3.989   1.790   0.537
 5784SOL    HW218252   3.999   1.713   0.393
 5785SOL     OW18253   4.851   1.341   1.690
 5785SOL    HW118254   4.898   1.341   1.778
 5785SOL    HW218255   4.803   1.254   1.679
 5786SOL     OW18256   3.954   1.434   0.538
 5786SOL    HW118257   3.928   1.530   0.538
 5786SOL    HW218258   3.883   1.380   0.583
 5787SOL     OW18259   3.964   1.091   0.886
 5787SOL    HW118260   3.978   1.007   0.938
 5787SOL    HW218261   3.909   1.155   0.941
 5788SOL     OW18262   4.344   1.786   1.439
 5788SOL    HW118263   4.252   1.769   1.474
 5788SOL    HW218264   4.372   1.878   1.465
 5789SOL     OW18265   4.330   0.964   0.123
 5789SOL    HW118266   4.337   1.048   0.069
 5789SOL    HW218267   4.376   0.977   0.211
 5790SOL     OW18268   5.318   0.114   1.480
 5790SOL    HW118269   5.300   0.181   1.408
 5790SOL    HW218270   5.315   0.160   1.569
 5791SOL     OW18271   3.846   0.643   0.563
 5791SOL    HW118272   3.801   0.555   0.580
 5791SOL    HW218273   3.845   0.697   0.647
 5792SOL     OW18274   5.566   1.767   0.359
 5792SOL    HW118275   5.620   1.738   0.439
 5792SOL    HW218276   5.596   1.857   0.330
 5793SOL     OW18277   3.751   1.596   0.117
 5793SOL    HW118278   3.732   1.500   0.138
 5793SOL    HW218279   3.718   1.654   0.192
 5794SOL     OW18280   5.413   0.922   0.612
 5794SOL    HW118281   5.508   0.893   0.620
 5794SOL    HW218282   5.405   0.987   0.537
 5795SOL     OW18283   5.365   1.108   0.432
 5795SOL    HW118284   5.451   1.110   0.380
 5795SOL    HW218285   5.379   1.155   0.520
 5796SOL     OW18286   3.837   0.737   1.597
 5796SOL    HW118287   3.925   0.724   1.642
 5796SOL    HW218288   3.824   0.834   1.575
 5797SOL     OW18289   4.337   1.365   0.726
 5797SOL    HW118290   4.288   1.278   0.735
 5797SOL    HW218291   4.314   1.408   0.639
 5798SOL     OW18292   5.017   1.228   1.423
 5798SOL    HW118293   5.054   1.155   1.365
 5798SOL    HW218294   5.069   1.233   1.508
 5799SOL     OW18295   4.533   0.004   0.502
 5799SOL    HW118296   4.573   0.095   0.493
 5799SOL    HW218297   4.433   0.012   0.508
 5800SOL     OW18298   3.921   0.976   1.264
 5800SOL    HW118299   4.010   0.931   1.250
 5800SOL    HW218300   3.848   0.911   1.245
 5801SOL     OW18301   5.249   0.999   0.190
 5801SOL    HW118302   5.186   0.923   0.203
 5801SOL    HW218303   5.297   1.017   0.276
 5802SOL     OW18304   4.911   1.792   1.616
 5802SOL    HW118305   4.935   1.852   1.540
 5802SOL    HW218306   4.918   1.697   1.586
 5803SOL     OW18307   4.041   0.251   1.801
 5803SOL    HW118308   4.112   0.322   1.807
 5803SOL    HW218309   3.953   0.290   1.829
 5804SOL     OW18310   5.190   1.417   0.953
 5804SOL    HW118311   5.131   1.423   1.033
 5804SOL    HW218312   5.175   1.329   0.907
 5805SOL     OW18313   5.391   1.714   0.572
 5805SOL    HW118314   5.350   1.691   0.484
 5805SOL    HW218315   5.373   1.640   0.637
 5806SOL     OW18316   4.322   0.729   0.270
 5806SOL    HW118317   4.346   0.798   0.202
 5806SOL    HW218318   4.244   0.762   0.324
 5807SOL     OW18319   5.005   0.345   0.944
 5807SOL    HW118320   4.919   0.295   0.931
 5807SOL    HW218321   5.067   0.291   1.000
 5808SOL     OW18322   5.300   1.662   0.307
 5808SOL    HW118323   5.389   1.708   0.310
 5808SOL    HW218324   5.279   1.638   0.212
 5809SOL     OW18325   4.531   0.605   1.465
 5809SOL    HW118326   4.484   0.602   1.554
 5809SOL    HW218327   4.480   0.550   1.399
 5810SOL     OW18328   5.118   0.469   1.674
 5810SOL    HW118329   5.098   0.512   1.762
 5810SOL    HW218330   5.196   0.407   1.683
 5811SOL     OW18331   4.697   0.890   1.572
 5811SOL    HW118332   4.743   0.806   1.543
 5811SOL    HW218333   4.641   0.924   1.497
 5812SOL     OW18334   4.715   0.410   1.242
 5812SOL    HW118335   4.638   0.444   1.296
 5812SOL    HW218336   4.681   0.359   1.163
 5813SOL     OW18337   4.765   0.701   0.429
 5813SOL    HW118338   4.791   0.697   0.525
 5813SOL    HW218339   4.680   0.650   0.415
 5814SOL     OW18340   3.800   0.811   0.789
 5814SOL    HW118341   3.899   0.799   0.798
 5814SOL    HW218342   3.776   0.906   0.810
 5815SOL     OW18343   3.854   1.821   1.571
 5815SOL    HW118344   3.844   1.806   1.670
 5815SOL    HW218345   3.768   1.857   1.535
 5816SOL     OW18346   4.589   0.348   0.195
 5816SOL    HW118347   4.648   0.411   0.146
 5816SOL    HW218348   4.608   0.254   0.166
 5817SOL     OW18349   5.443   0.585   1.831
 5817SOL    HW118350   5.417   0.674   1.795
 5817SOL    HW218351   5.441   0.517   1.758
 5818SOL     OW18352   5.086   1.144   0.545
 5818SOL    HW118353   5.169   1.115   0.497
 5818SOL    HW218354   5.037   1.211   0.489
 5819SOL     OW18355   4.274   0.196   0.885
 5819SOL    HW118356   4.269   0.191   0.985
 5819SOL    HW218357   4.276   0.292   0.856
 5820SOL     OW18358   4.732   1.456   0.477
 5820SOL    HW118359   4.686   1.528   0.425
 5820SOL    HW218360   4.728   1.476   0.575
 5821SOL     OW18361   4.075   1.801   0.853
 5821SOL    HW118362   4.125   1.715   0.859
 5821SOL    HW218363   4.140   1.878   0.850
 5822SOL     OW18364   5.519   1.066   0.873
 5822SOL    HW118365   5.457   1.051   0.797
 5822SOL    HW218366   5.467   1.077   0.958
 5823SOL     OW18367   4.951   1.550   1.506
 5823SOL    HW118368   4.957   1.473   1.570
 5823SOL    HW218369   4.899   1.524   1.426
 5824SOL     OW18370   4.045   0.943   0.242
 5824SOL    HW118371   4.127   0.982   0.200
 5824SOL    HW218372   4.018   0.861   0.193
 5825SOL     OW18373   5.182   0.735   0.728
 5825SOL    HW118374   5.177   0.670   0.803
 5825SOL    HW218375   5.262   0.794   0.741
 5826SOL     OW18376   4.185   1.266   1.727
 5826SOL    HW118377   4.135   1.267   1.641
 5826SOL    HW218378   4.122   1.248   1.803
 5827SOL     OW18379   4.835   1.776   0.237
 5827SOL    HW118380   4.775   1.714   0.287
 5827SOL    HW218381   4.866   1.732   0.152
 5828SOL     OW18382   3.926   0.285   1.498
 5828SOL    HW118383   3.846   0.345   1.485
 5828SOL    HW218384   3.916   0.236   1.584
 5829SOL     OW18385   5.356   1.377   0.081
 5829SOL    HW118386   5.324   1.471   0.071
 5829SOL    HW218387   5.280   1.314   0.069
 5830SOL     OW18388   4.188   1.743   0.323
 5830SOL    HW118389   4.221   1.782   0.409
 5830SOL    HW218390   4.264   1.736   0.258
 5831SOL     OW18391   5.124   0.107   0.426
 5831SOL    HW118392   5.100   0.070   0.336
 5831SOL    HW218393   5.223   0.123   0.430
 5832SOL     OW18394   3.973   1.785   1.241
 5832SOL    HW118395   4.030   1.720   1.291
 5832SOL    HW218396   3.957   1.752   1.148
 5833SOL     OW18397   4.664   1.698   0.904
 5833SOL    HW118398   4.744   1.641   0.925
 5833SOL    HW218399   4.615   1.658   0.827
 5834SOL     OW18400   4.106   0.700   0.480
 5834SOL    HW118401   4.151   0.610   0.477
 5834SOL    HW218402   4.012   0.689   0.513
 5835SOL     OW18403   5.271   0.222   1.729
 5835SOL    HW118404   5.266   0.259   1.821
 5835SOL    HW218405   5.199   0.153   1.717
 5836SOL     OW18406   4.338   0.122   0.117
 5836SOL    HW118407   4.436   0.100   0.124
 5836SOL    HW218408   4.307   0.105   0.024
 5837SOL     OW18409   4.505   0.264   1.749
 5837SOL    HW118410   4.572   0.203   1.792
 5837SOL    HW218411   4.432   0.283   1.814
 5838SOL     OW18412   4.612   1.514   1.195
 5838SOL    HW118413   4.589   1.489   1.101
 5838SOL    HW218414   4.673   1.445   1.234
 5839SOL     OW18415   5.075   0.590   1.433
 5839SOL    HW118416   5.103   0.547   1.518
 5839SOL    HW218417   5.100   0.686   1.434
 5840SOL     OW18418   4.527   1.402   0.924
 5840SOL    HW118419   4.617   1.416   0.882
 5840SOL    HW218420   4.456   1.404   0.853
 5841SOL     OW18421   4.646   0.503   0.899
 5841SOL    HW118422   4.621   0.494   0.803
 5841SOL    HW218423   4.694   0.421   0.930
 5842SOL     OW18424   4.263   0.064   0.512
 5842SOL    HW118425   4.182   0.065   0.570
 5842SOL    HW218426   4.266   0.147   0.457
 5843SOL     OW18427   5.158   1.188   0.041
 5843SOL    HW118428   5.190   1.112   0.098
 5843SOL    HW218429   5.066   1.215   0.071
 5844SOL     OW18430   4.021   0.035   0.171
 5844SOL    HW118431   4.070   0.119   0.150
 5844SOL    HW218432   4.083  -0.030   0.216
 5845SOL     OW18433   4.659   0.236   0.480
 5845SOL    HW118434   4.611   0.277   0.402
 5845SOL    HW218435   4.758   0.234   0.461
 5846SOL     OW18436   4.800   0.683   1.464
 5846SOL    HW118437   4.720   0.622   1.467
 5846SOL    HW218438   4.881   0.630   1.440
 5847SOL     OW18439   4.951   1.570   0.793
 5847SOL    HW118440   4.972   1.644   0.728
 5847SOL    HW218441   5.019   1.570   0.866
 5848SOL     OW18442   4.183   1.152   0.741
 5848SOL    HW118443   4.112   1.125   0.806
 5848SOL    HW218444   4.157   1.124   0.648
 5849SOL     OW18445   4.995   1.797   0.591
 5849SOL    HW118446   5.039   1.861   0.527
 5849SOL    HW218447   4.945   1.849   0.661
 5850SOL     OW18448   4.756   0.549   0.016
 5850SOL    HW118449   4.715   0.631  -0.023
 5850SOL    HW218450   4.820   0.575   0.089
 5851SOL     OW18451   3.802   0.556   1.386
 5851SOL    HW118452   3.894   0.555   1.345
 5851SOL    HW218453   3.796   0.630   1.453
 5852SOL     OW18454   4.285   0.222   1.147
 5852SOL    HW118455   4.323   0.138   1.184
 5852SOL    HW218456   4.197   0.241   1.191
 5853SOL     OW18457   4.590   0.454   0.642
 5853SOL    HW118458   4.558   0.526   0.580
 5853SOL    HW218459   4.614   0.373   0.589
 5854SOL     OW18460   4.741   0.039   0.753
 5854SOL    HW118461   4.669   0.044   0.684
 5854SOL    HW218462   4.717  -0.030   0.822
 5855SOL     OW18463   5.153   1.173   0.867
 5855SOL    HW118464   5.098   1.089   0.860
 5855SOL    HW218465   5.179   1.202   0.775
 5856SOL     OW18466   5.190   0.590   0.992
 5856SOL    HW118467   5.160   0.495   0.999
 5856SOL    HW218468   5.263   0.606   1.058
 5857SOL     OW18469   5.581   0.833   0.377
 5857SOL    HW118470   5.623   0.769   0.441
 5857SOL    HW218471   5.543   0.782   0.299
 5858SOL     OW18472   4.212   1.385   0.174
 5858SOL    HW118473   4.125   1.370   0.221
 5858SOL    HW218474   4.195   1.411   0.079
 5859SOL     OW18475   5.388   1.280   0.657
 5859SOL    HW118476   5.487   1.288   0.671
 5859SOL    HW218477   5.343   1.364   0.688
 5860SOL     OW18478   5.114   0.575   0.078
 5860SOL    HW118479   5.060   0.554   0.159
 5860SOL    HW218480   5.205   0.534   0.087
 5861SOL     OW18481   4.251   0.256   0.328
 5861SOL    HW118482   4.278   0.197   0.253
 5861SOL    HW218483   4.251   0.351   0.297
 5862SOL     OW18484   5.478   1.223   1.588
 5862SOL    HW118485   5.569   1.184   1.575
 5862SOL    HW218486   5.486   1.319   1.612
 5863SOL     OW18487   4.788   1.347   1.340
 5863SOL    HW118488   4.708   1.324   1.395
 5863SOL    HW218489   4.871   1.321   1.389
 5864SOL     OW18490   5.316   1.629   1.625
 5864SOL    HW118491   5.343   1.663   1.535
 5864SOL    HW218492   5.395   1.591   1.671
 5865SOL     OW18493   4.835   1.195   1.100
 5865SOL    HW118494   4.795   1.239   1.181
 5865SOL    HW218495   4.794   1.232   1.017
 5866SOL     OW18496   5.362   1.099   1.079
 5866SOL    HW118497   5.367   1.180   1.138
 5866SOL    HW218498   5.276   1.101   1.028
 5867SOL     OW18499   4.639   0.089   1.402
 5867SOL    HW118500   4.664   0.069   1.307
 5867SOL    HW218501   4.711   0.145   1.444
 5868SOL     OW18502   4.704   1.116   1.719
 5868SOL    HW118503   4.605   1.122   1.729
 5868SOL    HW218504   4.727   1.036   1.663
 5869SOL     OW18505   4.429   1.050   0.368
 5869SOL    HW118506   4.415   1.057   0.467
 5869SOL    HW218507   4.513   0.999   0.350
 5870SOL     OW18508   4.134   0.813   1.251
 5870SOL    HW118509   4.220   0.825   1.301
 5870SOL    HW218510   4.092   0.726   1.278
 5871SOL     OW18511   4.998   0.386   1.262
 5871SOL    HW118512   5.019   0.460   1.326
 5871SOL    HW218513   4.909   0.403   1.219
 5872SOL     OW18514   3.788   1.564   1.331
 5872SOL    HW118515   3.742   1.646   1.297
 5872SOL    HW218516   3.886   1.583   1.340
 5873SOL     OW18517   4.091   1.100   0.501
 5873SOL    HW118518   4.084   1.183   0.445
 5873SOL    HW218519   4.095   1.020   0.441
 5874SOL     OW18520   4.290   0.537   0.865
 5874SOL    HW118521   4.302   0.603   0.791
 5874SOL    HW218522   4.336   0.571   0.948
 5875SOL     OW18523   4.976   1.348   0.388
 5875SOL    HW118524   5.026   1.425   0.428
 5875SOL    HW218525   4.881   1.350   0.420
 5876SOL     OW18526   4.996   1.445   1.142
 5876SOL    HW118527   5.043   1.458   1.229
 5876SOL    HW218528   4.930   1.371   1.151
 5877SOL     OW18529   5.306   0.639   0.472
 5877SOL    HW118530   5.275   0.700   0.545
 5877SOL    HW218531   5.356   0.691   0.403
 5878SOL     OW18532   4.078   1.510   1.329
 5878SOL    HW118533   4.057   1.466   1.242
 5878SOL    HW218534   4.175   1.536   1.332
 5879SOL     OW18535   4.126   0.751   1.598
 5879SOL    HW118536   4.194   0.806   1.551
 5879SOL    HW218537   4.166   0.663   1.625
 5880SOL     OW18538   5.311   0.779   1.670
 5880SOL    HW118539   5.219   0.817   1.665
 5880SOL    HW218540   5.371   0.826   1.605
 5881SOL     OW18541   4.737   0.105   1.770
 5881SOL    HW118542   4.743   0.190   1.718
 5881SOL    HW218543   4.769   0.029   1.713
 5882SOL     OW18544   4.228   0.050   1.740
 5882SOL    HW118545   4.186  -0.007   1.670
 5882SOL    HW218546   4.162   0.119   1.772
 5883SOL     OW18547   4.297   0.870   1.029
 5883SOL    HW118548   4.341   0.959   1.020
 5883SOL    HW218549   4.234   0.870   1.106
 5884SOL     OW18550   5.084   0.862   1.045
 5884SOL    HW118551   5.009   0.862   0.979
 5884SOL    HW218552   5.121   0.770   1.054
 5885SOL     OW18553   4.933   0.525   0.275
 5885SOL    HW118554   4.946   0.441   0.329
 5885SOL    HW218555   4.904   0.599   0.335
 5886SOL     OW18556   4.031   0.213   1.231
 5886SOL    HW118557   4.008   0.250   1.321
 5886SOL    HW218558   4.001   0.118   1.225
 5887SOL     OW18559   3.761   1.310   1.282
 5887SOL    HW118560   3.814   1.261   1.350
 5887SOL    HW218561   3.783   1.408   1.287
 5888SOL     OW18562   4.456   0.634   1.064
 5888SOL    HW118563   4.515   0.608   0.988
 5888SOL    HW218564   4.428   0.730   1.053
 5889SOL     OW18565   5.452   0.935   1.854
 5889SOL    HW118566   5.406   0.928   1.765
 5889SOL    HW218567   5.390   0.979   1.920
 5890SOL     OW18568   4.031   0.063   0.618
 5890SOL    HW118569   4.020   0.157   0.651
 5890SOL    HW218570   4.026   0.000   0.695
 5891SOL     OW18571   5.346   0.367   0.374
 5891SOL    HW118572   5.348   0.291   0.438
 5891SOL    HW218573   5.298   0.444   0.414
 5892SOL     OW18574   4.747   0.766   0.966
 5892SOL    HW118575   4.762   0.787   1.062
 5892SOL    HW218576   4.717   0.671   0.957
 5893SOL     OW18577   4.704   1.573   1.700
 5893SOL    HW118578   4.684   1.617   1.612
 5893SOL    HW218579   4.743   1.482   1.684
 5894SOL     OW18580   5.583   1.518   1.605
 5894SOL    HW118581   5.597   1.545   1.510
 5894SOL    HW218582   5.666   1.540   1.658
 5895SOL     OW18583   4.074   0.898   1.804
 5895SOL    HW118584   4.150   0.942   1.852
 5895SOL    HW218585   4.109   0.851   1.722
 5896SOL     OW18586   5.264   0.274   0.125
 5896SOL    HW118587   5.203   0.199   0.148
 5896SOL    HW218588   5.286   0.326   0.208
 5897SOL     OW18589   5.027   0.838   0.042
 5897SOL    HW118590   5.061   0.745   0.057
 5897SOL    HW218591   5.045   0.865  -0.053
 5898SOL     OW18592   4.792   1.333   0.849
 5898SOL    HW118593   4.799   1.249   0.794
 5898SOL    HW218594   4.854   1.402   0.813
 5899SOL     OW18595   4.043   0.810   0.949
 5899SOL    HW118596   4.136   0.846   0.954
 5899SOL    HW218597   4.037   0.725   1.001
 5900SOL     OW18598   4.063   0.509   1.006
 5900SOL    HW118599   4.011   0.426   0.989
 5900SOL    HW218600   4.140   0.514   0.942
 5901SOL     OW18601   4.862   0.380   1.678
 5901SOL    HW118602   4.817   0.443   1.742
 5901SOL    HW218603   4.955   0.411   1.661
 5902SOL     OW18604   4.884   0.207   1.477
 5902SOL    HW118605   4.884   0.271   1.554
 5902SOL    HW218606   4.912   0.255   1.394
 5903SOL     OW18607   3.812   1.801   0.927
 5903SOL    HW118608   3.770   1.715   0.900
 5903SOL    HW218609   3.906   1.804   0.893
 5904SOL     OW18610   4.228   1.568   0.910
 5904SOL    HW118611   4.294   1.642   0.919
 5904SOL    HW218612   4.272   1.489   0.868
 5905SOL     OW18613   4.726   0.796   1.238
 5905SOL    HW118614   4.767   0.764   1.324
 5905SOL    HW218615   4.630   0.769   1.235
 5906SOL     OW18616   3.764   0.544   1.114
 5906SOL    HW118617   3.849   0.511   1.073
 5906SOL    HW218618   3.777   0.559   1.212
 5907SOL     OW18619   3.913   0.520   1.722
 5907SOL    HW118620   3.972   0.480   1.652
 5907SOL    HW218621   3.855   0.591   1.681
 5908SOL     OW18622   5.093   0.950   1.660
 5908SOL    HW118623   5.132   1.039   1.680
 5908SOL    HW218624   5.103   0.930   1.563
 5909SOL     OW18625   4.539   0.572   0.325
 5909SOL    HW118626   4.546   0.483   0.279
 5909SOL    HW218627   4.445   0.606   0.317
 5910SOL     OW18628   5.381   0.604   1.206
 5910SOL    HW118629   5.343   0.535   1.268
 5910SOL    HW218630   5.463   0.568   1.162
 5911SOL     OW18631   3.976   1.564   1.744
 5911SOL    HW118632   3.946   1.621   1.820
 5911SOL    HW218633   3.969   1.467   1.770
 5912SOL     OW18634   4.395   0.464   1.269
 5912SOL    HW118635   4.361   0.375   1.239
 5912SOL    HW218636   4.421   0.518   1.189
 5913SOL     OW18637   4.654   1.678   1.465
 5913SOL    HW118638   4.630   1.660   1.370
 5913SOL    HW218639   4.684   1.772   1.475
 5914SOL     OW18640   4.197   0.500   0.191
 5914SOL    HW118641   4.258   0.580   0.195
 5914SOL    HW218642   4.102   0.531   0.198
 5915SOL     OW18643   3.883   1.137   1.466
 5915SOL    HW118644   3.905   1.076   1.542
 5915SOL    HW218645   3.893   1.088   1.380
 5916SOL     OW18646   5.071   1.059   1.234
 5916SOL    HW118647   5.095   0.996   1.160
 5916SOL    HW218648   4.981   1.099   1.216
 5917SOL     OW18649   5.026   0.855   0.309
 5917SOL    HW118650   4.940   0.824   0.351
 5917SOL    HW218651   5.022   0.841   0.210
 5918SOL     OW18652   5.483   1.747   1.154
 5918SOL    HW118653   5.544   1.777   1.081
 5918SOL    HW218654   5.445   1.658   1.132
 5919SOL     OW18655   4.976   1.731   1.128
 5919SOL    HW118656   5.060   1.736   1.074
 5919SOL    HW218657   4.953   1.635   1.146
 5920SOL     OW18658   3.807   1.258   1.022
 5920SOL    HW118659   3.802   1.257   1.122
 5920SOL    HW218660   3.724   1.217   0.984
 5921SOL     OW18661   4.412   1.662   1.716
 5921SOL    HW118662   4.356   1.743   1.725
 5921SOL    HW218663   4.464   1.666   1.630
 5922SOL     OW18664   4.627   0.086   0.133
 5922SOL    HW118665   4.678   0.087   0.047
 5922SOL    HW218666   4.683   0.044   0.204
 5923SOL     OW18667   5.450   0.135   0.523
 5923SOL    HW118668   5.523   0.118   0.456
 5923SOL    HW218669   5.419   0.048   0.561
 5924SOL     OW18670   5.112   1.573   0.477
 5924SOL    HW118671   5.179   1.585   0.403
 5924SOL    HW218672   5.072   1.662   0.500
 5925SOL     OW18673   3.854   1.794   1.851
 5925SOL    HW118674   3.813   1.720   1.904
 5925SOL    HW218675   3.918   1.845   1.909
 5926SOL     OW18676   5.004   0.927   0.672
 5926SOL    HW118677   5.064   0.846   0.674
 5926SOL    HW218678   5.044   0.996   0.612
 5927SOL     OW18679   4.554   1.273   1.422
 5927SOL    HW118680   4.549   1.306   1.517
 5927SOL    HW218681   4.468   1.292   1.376
 5928SOL     OW18682   4.396   1.616   0.154
 5928SOL    HW118683   4.405   1.626   0.055
 5928SOL    HW218684   4.356   1.527   0.175
 5929SOL     OW18685   5.374   1.720   1.394
 5929SOL    HW118686   5.427   1.730   1.310
 5929SOL    HW218687   5.347   1.810   1.428
 5930SOL     OW18688   5.565   0.175   0.963
 5930SOL    HW118689   5.604   0.090   0.927
 5930SOL    HW218690   5.467   0.177   0.944
 5931SOL     OW18691   3.987   0.326   0.720
 5931SOL    HW118692   3.908   0.377   0.686
 5931SOL    HW218693   3.978   0.311   0.818
 5932SOL     OW18694   4.918   1.612   0.031
 5932SOL    HW118695   4.924   1.519   0.068
 5932SOL    HW218696   4.859   1.612  -0.049
 5933SOL     OW18697   4.546   1.002   1.372
 5933SOL    HW118698   4.586   1.001   1.280
 5933SOL    HW218699   4.556   1.094   1.412
 5934SOL     OW18700   4.640   0.910   0.291
 5934SOL    HW118701   4.703   0.948   0.223
 5934SOL    HW218702   4.680   0.827   0.330
 5935SOL     OW18703   5.228   1.607   0.044
 5935SOL    HW118704   5.136   1.644   0.051
 5935SOL    HW218705   5.266   1.627  -0.046
 5936SOL     OW18706   4.096   1.288   1.490
 5936SOL    HW118707   4.083   1.381   1.456
 5936SOL    HW218708   4.012   1.236   1.477
 5937SOL     OW18709   5.338   1.292   1.289
 5937SOL    HW118710   5.398   1.295   1.369
 5937SOL    HW218711   5.263   1.356   1.302
 5938SOL     OW18712   4.763   1.098   0.696
 5938SOL    HW118713   4.693   1.051   0.750
 5938SOL    HW218714   4.822   1.030   0.653
 5939SOL     OW18715   4.738   0.236   0.971
 5939SOL    HW118716   4.730   0.200   0.878
 5939SOL    HW218717   4.736   0.160   1.036
 5940SOL     OW18718   4.314   1.487   0.491
 5940SOL    HW118719   4.356   1.429   0.421
 5940SOL    HW218720   4.270   1.566   0.447
 5941SOL     OW18721   5.433   0.385   1.381
 5941SOL    HW118722   5.506   0.454   1.385
 5941SOL    HW218723   5.461   0.310   1.322
 5942SOL     OW18724   3.979   1.348   0.290
 5942SOL    HW118725   3.883   1.349   0.263
 5942SOL    HW218726   3.991   1.401   0.374
 5943SOL     OW18727   3.829   1.013   1.726
 5943SOL    HW118728   3.752   0.980   1.780
 5943SOL    HW218729   3.914   0.983   1.768
 5944SOL     OW18730   4.396   0.203   1.489
 5944SOL    HW118731   4.486   0.187   1.449
 5944SOL    HW218732   4.404   0.208   1.588
 5945SOL     OW18733   3.799   0.345   0.033
 5945SOL    HW118734   3.707   0.317   0.004
 5945SOL    HW218735   3.830   0.422  -0.023
 5946SOL     OW18736   3.796   0.166   0.318
 5946SOL    HW118737   3.779   0.249   0.264
 5946SOL    HW218738   3.886   0.129   0.296
 5947SOL     OW18739   4.907   1.335   0.119
 5947SOL    HW118740   4.808   1.324   0.121
 5947SOL    HW218741   4.941   1.350   0.212
 5948SOL     OW18742   4.337   0.842   1.431
 5948SOL    HW118743   4.393   0.923   1.414
 5948SOL    HW218744   4.396   0.762   1.434
 5949SOL     OW18745   5.217   1.767   0.959
 5949SOL    HW118746   5.250   1.831   0.890
 5949SOL    HW218747   5.283   1.761   1.034
 5950SOL     OW18748   4.440   0.565   1.708
 5950SOL    HW118749   4.459   0.630   1.782
 5950SOL    HW218750   4.500   0.485   1.717
 5951SOL     OW18751   5.174   1.220   1.633
 5951SOL    HW118752   5.165   1.210   1.732
 5951SOL    HW218753   5.270   1.213   1.607
 5952SOL     OW18754   4.114   1.741   1.560
 5952SOL    HW118755   4.023   1.782   1.558
 5952SOL    HW218756   4.107   1.647   1.592
 5953SOL     OW18757   5.398   0.883   1.254
 5953SOL    HW118758   5.371   0.794   1.217
 5953SOL    HW218759   5.399   0.951   1.181
 5954SOL     OW18760   4.949   0.325   0.449
 5954SOL    HW118761   5.014   0.251   0.438
 5954SOL    HW218762   4.969   0.375   0.533
 5955SOL     OW18763   4.318   0.745   0.652
 5955SOL    HW118764   4.368   0.830   0.633
 5955SOL    HW218765   4.230   0.747   0.604
 5956SOL     OW18766   5.501   0.342   1.642
 5956SOL    HW118767   5.484   0.373   1.548
 5956SOL    HW218768   5.417   0.305   1.680
 5957SOL     OW18769   5.454   0.934   1.517
 5957SOL    HW118770   5.492   1.025   1.532
 5957SOL    HW218771   5.446   0.917   1.418
 5958SOL     OW18772   4.583   1.374   0.016
 5958SOL    HW118773   4.537   1.389   0.104
 5958SOL    HW218774   4.627   1.459  -0.014
 5959SOL     OW18775   4.385   1.790   0.953
 5959SOL    HW118776   4.339   1.878   0.940
 5959SOL    HW218777   4.484   1.802   0.946
 5960SOL     OW18778   4.583   0.956   0.861
 5960SOL    HW118779   4.637   0.887   0.909
 5960SOL    HW218780   4.551   1.025   0.927
 5961SOL     OW18781   4.807   0.984   0.087
 5961SOL    HW118782   4.784   1.037   0.005
 5961SOL    HW218783   4.888   0.928   0.068
 5962SOL     OW18784   5.585   1.569   0.851
 5962SOL    HW118785   5.514   1.557   0.781
 5962SOL    HW218786   5.586   1.490   0.911
 5963SOL     OW18787   3.945   1.314   1.844
 5963SOL    HW118788   3.880   1.241   1.823
 5963SOL    HW218789   3.949   1.328   1.942
 5964SOL     OW18790   3.803   1.240   0.653
 5964SOL    HW118791   3.802   1.193   0.741
 5964SOL    HW218792   3.885   1.212   0.602
 5965SOL     OW18793   4.396   1.391   1.624
 5965SOL    HW118794   4.318   1.341   1.662
 5965SOL    HW218795   4.393   1.486   1.655
 5966SOL     OW18796   5.548   0.192   1.227
 5966SOL    HW118797   5.544   0.102   1.271
 5966SOL    HW218798   5.551   0.181   1.128
 5967SOL     OW18799   4.152   0.424   0.520
 5967SOL    HW118800   4.182   0.352   0.458
 5967SOL    HW218801   4.113   0.384   0.603
 5968SOL     OW18802   5.429   1.487   1.104
 5968SOL    HW118803   5.336   1.462   1.077
 5968SOL    HW218804   5.455   1.437   1.186
 5969SOL     OW18805   4.041   0.547   1.280
 5969SOL    HW118806   4.079   0.488   1.352
 5969SOL    HW218807   4.081   0.521   1.192
 5970SOL     OW18808   4.536   1.586   0.687
 5970SOL    HW118809   4.568   1.596   0.593
 5970SOL    HW218810   4.457   1.524   0.689
 5971SOL     OW18811   5.148   0.214   1.112
 5971SOL    HW118812   5.200   0.149   1.167
 5971SOL    HW218813   5.099   0.277   1.173
 5972SOL     OW18814   4.725   0.034   1.154
 5972SOL    HW118815   4.662  -0.038   1.123
 5972SOL    HW218816   4.818  -0.002   1.154
 5973SOL     OW18817   4.494   1.330   0.301
 5973SOL    HW118818   4.448   1.243   0.318
 5973SOL    HW218819   4.585   1.327   0.342
 5974SOL     OW18820   4.342   1.567   1.284
 5974SOL    HW118821   4.337   1.649   1.341
 5974SOL    HW218822   4.431   1.564   1.239
 5975SOL     OW18823   5.076   0.052   0.168
 5975SOL    HW118824   5.111   0.011   0.084
 5975SOL    HW218825   4.986   0.014   0.188
 5976SOL     OW18826   5.024   0.453   0.691
 5976SOL    HW118827   4.965   0.533   0.695
 5976SOL    HW218828   5.039   0.418   0.784
 5977SOL     OW18829   5.317   0.221   0.882
 5977SOL    HW118830   5.233   0.220   0.936
 5977SOL    HW218831   5.319   0.304   0.826
 5978SOL     OW18832   3.763   1.077   0.300
 5978SOL    HW118833   3.862   1.066   0.291
 5978SOL    HW218834   3.723   0.991   0.332
 5979SOL     OW18835   4.599   1.646   0.337
 5979SOL    HW118836   4.522   1.611   0.283
 5979SOL    HW218837   4.567   1.717   0.399
 5980SOL     OW18838   3.954   0.628   1.975
 5980SOL    HW118839   3.861   0.626   2.012
 5980SOL    HW218840   3.955   0.589   1.883
 5981SOL     OW18841   3.949   0.275   2.858
 5981SOL    HW118842   3.984   0.258   2.950
 5981SOL    HW218843   3.861   0.230   2.846
 5982SOL     OW18844   3.743   0.368   2.509
 5982SOL    HW118845   3.661   0.411   2.548
 5982SOL    HW218846   3.715   0.295   2.446
 5983SOL     OW18847   4.293   1.275   3.027
 5983SOL    HW118848   4.200   1.268   2.990
 5983SOL    HW218849   4.304   1.364   3.071
 5984SOL     OW18850   5.279   1.511   2.565
 5984SOL    HW118851   5.222   1.495   2.646
 5984SOL    HW218852   5.220   1.521   2.485
 5985SOL     OW18853   4.859   0.703   2.579
 5985SOL    HW118854   4.916   0.781   2.554
 5985SOL    HW218855   4.799   0.729   2.655
 5986SOL     OW18856   5.479   0.607   2.093
 5986SOL    HW118857   5.467   0.594   1.994
 5986SOL    HW218858   5.449   0.526   2.142
 5987SOL     OW18859   4.492   1.144   2.885
 5987SOL    HW118860   4.414   1.161   2.945
 5987SOL    HW218861   4.526   1.231   2.849
 5988SOL     OW18862   4.574   0.798   3.685
 5988SOL    HW118863   4.570   0.874   3.750
 5988SOL    HW218864   4.596   0.834   3.594
 5989SOL     OW18865   4.409   1.012   2.527
 5989SOL    HW118866   4.478   0.996   2.597
 5989SOL    HW218867   4.336   1.069   2.565
 5990SOL     OW18868   4.410   1.161   3.665
 5990SOL    HW118869   4.470   1.240   3.679
 5990SOL    HW218870   4.324   1.192   3.624
 5991SOL     OW18871   4.059   1.435   2.923
 5991SOL    HW118872   3.981   1.404   2.870
 5991SOL    HW218873   4.117   1.493   2.866
 5992SOL     OW18874   5.184   1.505   3.201
 5992SOL    HW118875   5.208   1.599   3.227
 5992SOL    HW218876   5.168   1.451   3.283
 5993SOL     OW18877   4.162   0.392   3.361
 5993SOL    HW118878   4.244   0.336   3.370
 5993SOL    HW218879   4.081   0.334   3.365
 5994SOL     OW18880   5.327   0.447   2.599
 5994SOL    HW118881   5.253   0.493   2.549
 5994SOL    HW218882   5.378   0.515   2.652
 5995SOL     OW18883   3.955   1.713   2.345
 5995SOL    HW118884   3.989   1.790   2.399
 5995SOL    HW218885   3.999   1.713   2.255
 5996SOL     OW18886   4.851   1.341   3.552
 5996SOL    HW118887   4.898   1.341   3.640
 5996SOL    HW218888   4.803   1.254   3.541
 5997SOL     OW18889   3.954   1.434   2.400
 5997SOL    HW118890   3.928   1.530   2.400
 5997SOL    HW218891   3.883   1.380   2.445
 5998SOL     OW18892   3.964   1.091   2.748
 5998SOL    HW118893   3.978   1.007   2.800
 5998SOL    HW218894   3.909   1.155   2.803
 5999SOL     OW18895   4.344   1.786   3.301
 5999SOL    HW118896   4.252   1.769   3.336
 5999SOL    HW218897   4.372   1.878   3.327
 6000SOL     OW18898   4.330   0.964   1.985
 6000SOL    HW118899   4.337   1.048   1.931
 6000SOL    HW218900   4.376   0.977   2.073
 6001SOL     OW18901   5.318   0.114   3.342
 6001SOL    HW118902   5.300   0.181   3.270
 6001SOL    HW218903   5.315   0.160   3.431
 6002SOL     OW18904   3.846   0.643   2.425
 6002SOL    HW118905   3.801   0.555   2.442
 6002SOL    HW218906   3.845   0.697   2.509
 6003SOL     OW18907   5.566   1.767   2.221
 6003SOL    HW118908   5.620   1.738   2.301
 6003SOL    HW218909   5.596   1.857   2.192
 6004SOL     OW18910   3.751   1.596   1.979
 6004SOL    HW118911   3.732   1.500   2.000
 6004SOL    HW218912   3.718   1.654   2.054
 6005SOL     OW18913   5.413   0.922   2.474
 6005SOL    HW118914   5.508   0.893   2.482
 6005SOL    HW218915   5.405   0.987   2.399
 6006SOL     OW18916   5.365   1.108   2.294
 6006SOL    HW118917   5.451   1.110   2.242
 6006SOL    HW218918   5.379   1.155   2.382
 6007SOL     OW18919   3.837   0.737   3.459
 6007SOL    HW118920   3.925   0.724   3.504
 6007SOL    HW218921   3.824   0.834   3.437
 6008SOL     OW18922   4.337   1.365   2.588
 6008SOL    HW118923   4.288   1.278   2.597
 6008SOL    HW218924   4.314   1.408   2.501
 6009SOL     OW18925   5.017   1.228   3.285
 6009SOL    HW118926   5.054   1.155   3.227
 6009SOL    HW218927   5.069   1.233   3.370
 6010SOL     OW18928   4.533   0.004   2.364
 6010SOL    HW118929   4.573   0.095   2.355
 6010SOL    HW218930   4.433   0.012   2.370
 6011SOL     OW18931   3.921   0.976   3.126
 6011SOL    HW118932   4.010   0.931   3.112
 6011SOL    HW218933   3.848   0.911   3.107
 6012SOL     OW18934   5.249   0.999   2.052
 6012SOL    HW118935   5.186   0.923   2.065
 6012SOL    HW218936   5.297   1.017   2.138
 6013SOL     OW18937   4.911   1.792   3.478
 6013SOL    HW118938   4.935   1.852   3.402
 6013SOL    HW218939   4.918   1.697   3.448
 6014SOL     OW18940   4.041   0.251   3.663
 6014SOL    HW118941   4.112   0.322   3.669
 6014SOL    HW218942   3.953   0.290   3.691
 6015SOL     OW18943   5.190   1.417   2.815
 6015SOL    HW118944   5.131   1.423   2.895
 6015SOL    HW218945   5.175   1.329   2.769
 6016SOL     OW18946   5.391   1.714   2.434
 6016SOL    HW118947   5.350   1.691   2.346
 6016SOL    HW218948   5.373   1.640   2.499
 6017SOL     OW18949   4.322   0.729   2.132
 6017SOL    HW118950   4.346   0.798   2.064
 6017SOL    HW218951   4.244   0.762   2.186
 6018SOL     OW18952   5.005   0.345   2.806
 6018SOL    HW118953   4.919   0.295   2.793
 6018SOL    HW218954   5.067   0.291   2.862
 6019SOL     OW18955   5.300   1.662   2.169
 6019SOL    HW118956   5.389   1.708   2.172
 6019SOL    HW218957   5.279   1.638   2.074
 6020SOL     OW18958   4.531   0.605   3.327
 6020SOL    HW118959   4.484   0.602   3.416
 6020SOL    HW218960   4.480   0.550   3.261
 6021SOL     OW18961   5.118   0.469   3.536
 6021SOL    HW118962   5.098   0.512   3.624
 6021SOL    HW218963   5.196   0.407   3.545
 6022SOL     OW18964   4.697   0.890   3.434
 6022SOL    HW118965   4.743   0.806   3.405
 6022SOL    HW218966   4.641   0.924   3.359
 6023SOL     OW18967   4.715   0.410   3.104
 6023SOL    HW118968   4.638   0.444   3.158
 6023SOL    HW218969   4.681   0.359   3.025
 6024SOL     OW18970   4.765   0.701   2.291
 6024SOL    HW118971   4.791   0.697   2.387
 6024SOL    HW218972   4.680   0.650   2.277
 6025SOL     OW18973   3.800   0.811   2.651
 6025SOL    HW118974   3.899   0.799   2.660
 6025SOL    HW218975   3.776   0.906   2.672
 6026SOL     OW18976   3.854   1.821   3.433
 6026SOL    HW118977   3.844   1.806   3.532
 6026SOL    HW218978   3.768   1.857   3.397
 6027SOL     OW18979   4.589   0.348   2.057
 6027SOL    HW118980   4.648   0.411   2.008
 6027SOL    HW218981   4.608   0.254   2.028
 6028SOL     OW18982   5.443   0.585   3.693
 6028SOL    HW118983   5.417   0.674   3.657
 6028SOL    HW218984   5.441   0.517   3.620
 6029SOL     OW18985   5.086   1.144   2.407
 6029SOL    HW118986   5.169   1.115   2.359
 6029SOL    HW218987   5.037   1.211   2.351
 6030SOL     OW18988   4.274   0.196   2.747
 6030SOL    HW118989   4.269   0.191   2.847
 6030SOL    HW218990   4.276   0.292   2.718
 6031SOL     OW18991   4.732   1.456   2.339
 6031SOL    HW118992   4.686   1.528   2.287
 6031SOL    HW218993   4.728   1.476   2.437
 6032SOL     OW18994   4.075   1.801   2.715
 6032SOL    HW118995   4.125   1.715   2.721
 6032SOL    HW218996   4.140   1.878   2.712
 6033SOL     OW18997   5.519   1.066   2.735
 6033SOL    HW118998   5.457   1.051   2.659
 6033SOL    HW218999   5.467   1.077   2.820
 6034SOL     OW19000   4.951   1.550   3.368
 6034SOL    HW119001   4.957   1.473   3.432
 6034SOL    HW219002   4.899   1.524   3.288
 6035SOL     OW19003   4.045   0.943   2.104
 6035SOL    HW119004   4.127   0.982   2.062
 6035SOL    HW219005   4.018   0.861   2.055
 6036SOL     OW19006   5.182   0.735   2.590
 6036SOL    HW119007   5.177   0.670   2.665
 6036SOL    HW219008   5.262   0.794   2.603
 6037SOL     OW19009   4.185   1.266   3.589
 6037SOL    HW119010   4.135   1.267   3.503
 6037SOL    HW219011   4.122   1.248   3.665
 6038SOL     OW19012   4.835   1.776   2.099
 6038SOL    HW119013   4.775   1.714   2.149
 6038SOL    HW219014   4.866   1.732   2.014
 6039SOL     OW19015   3.926   0.285   3.360
 6039SOL    HW119016   3.846   0.345   3.347
 6039SOL    HW219017   3.916   0.236   3.446
 6040SOL     OW19018   5.356   1.377   1.943
 6040SOL    HW119019   5.324   1.471   1.933
 6040SOL    HW219020   5.280   1.314   1.931
 6041SOL     OW19021   4.188   1.743   2.185
 6041SOL    HW119022   4.221   1.782   2.271
 6041SOL    HW219023   4.264   1.736   2.120
 6042SOL     OW19024   5.124   0.107   2.288
 6042SOL    HW119025   5.100   0.070   2.198
 6042SOL    HW219026   5.223   0.123   2.292
 6043SOL     OW19027   3.973   1.785   3.103
 6043SOL    HW119028   4.030   1.720   3.153
 6043SOL    HW219029   3.957   1.752   3.010
 6044SOL     OW19030   4.664   1.698   2.766
 6044SOL    HW119031   4.744   1.641   2.787
 6044SOL    HW219032   4.615   1.658   2.689
 6045SOL     OW19033   4.106   0.700   2.342
 6045SOL    HW119034   4.151   0.610   2.339
 6045SOL    HW219035   4.012   0.689   2.375
 6046SOL     OW19036   5.271   0.222   3.591
 6046SOL    HW119037   5.266   0.259   3.683
 6046SOL    HW219038   5.199   0.153   3.579
 6047SOL     OW19039   4.338   0.122   1.979
 6047SOL    HW119040   4.436   0.100   1.986
 6047SOL    HW219041   4.307   0.105   1.886
 6048SOL     OW19042   4.505   0.264   3.611
 6048SOL    HW119043   4.572   0.203   3.654
 6048SOL    HW219044   4.432   0.283   3.676
 6049SOL     OW19045   4.612   1.514   3.057
 6049SOL    HW119046   4.589   1.489   2.963
 6049SOL    HW219047   4.673   1.445   3.096
 6050SOL     OW19048   5.075   0.590   3.295
 6050SOL    HW119049   5.103   0.547   3.380
 6050SOL    HW219050   5.100   0.686   3.296
 6051SOL     OW19051   4.527   1.402   2.786
 6051SOL    HW119052   4.617   1.416   2.744
 6051SOL    HW219053   4.456   1.404   2.715
 6052SOL     OW19054   4.646   0.503   2.761
 6052SOL    HW119055   4.621   0.494   2.665
 6052SOL    HW219056   4.694   0.421   2.792
 6053SOL     OW19057   4.263   0.064   2.374
 6053SOL    HW119058   4.182   0.065   2.432
 6053SOL    HW219059   4.266   0.147   2.319
 6054SOL     OW19060   5.158   1.188   1.903
 6054SOL    HW119061   5.190   1.112   1.960
 6054SOL    HW219062   5.066   1.215   1.933
 6055SOL     OW19063   4.021   0.035   2.033
 6055SOL    HW119064   4.070   0.119   2.012
 6055SOL    HW219065   4.083  -0.030   2.078
 6056SOL     OW19066   4.659   0.236   2.342
 6056SOL    HW119067   4.611   0.277   2.264
 6056SOL    HW219068   4.758   0.234   2.323
 6057SOL     OW19069   4.800   0.683   3.326
 6057SOL    HW119070   4.720   0.622   3.329
 6057SOL    HW219071   4.881   0.630   3.302
 6058SOL     OW19072   4.951   1.570   2.655
 6058SOL    HW119073   4.972   1.644   2.590
 6058SOL    HW219074   5.019   1.570   2.728
 6059SOL     OW19075   4.183   1.152   2.603
 6059SOL    HW119076   4.112   1.125   2.668
 6059SOL    HW219077   4.157   1.124   2.510
 6060SOL     OW19078   4.995   1.797   2.453
 6060SOL    HW119079   5.039   1.861   2.389
 6060SOL    HW219080   4.945   1.849   2.523
 6061SOL     OW19081   4.756   0.549   1.878
 6061SOL    HW119082   4.715   0.631   1.839
 6061SOL    HW219083   4.820   0.575   1.951
 6062SOL     OW19084   3.802   0.556   3.248
 6062SOL    HW119085   3.894   0.555   3.207
 6062SOL    HW219086   3.796   0.630   3.315
 6063SOL     OW19087   4.285   0.222   3.009
 6063SOL    HW119088   4.323   0.138   3.046
 6063SOL    HW219089   4.197   0.241   3.053
 6064SOL     OW19090   4.590   0.454   2.504
 6064SOL    HW119091   4.558   0.526   2.442
 6064SOL    HW219092   4.614   0.373   2.451
 6065SOL     OW19093   4.741   0.039   2.615
 6065SOL    HW119094   4.669   0.044   2.546
 6065SOL    HW219095   4.717  -0.030   2.684
 6066SOL     OW19096   5.153   1.173   2.729
 6066SOL    HW119097   5.098   1.089   2.722
 6066SOL    HW219098   5.179   1.202   2.637
 6067SOL     OW19099   5.190   0.590   2.854
 6067SOL    HW119100   5.160   0.495   2.861
 6067SOL    HW219101   5.263   0.606   2.920
 6068SOL     OW19102   5.581   0.833   2.239
 6068SOL    HW119103   5.623   0.769   2.303
 6068SOL    HW219104   5.543   0.782   2.161
 6069SOL     OW19105   4.212   1.385   2.036
 6069SOL    HW119106   4.125   1.370   2.083
 6069SOL    HW219107   4.195   1.411   1.941
 6070SOL     OW19108   5.388   1.280   2.519
 6070SOL    HW119109   5.487   1.288   2.533
 6070SOL    HW219110   5.343   1.364   2.550
 6071SOL     OW19111   5.114   0.575   1.940
 6071SOL    HW119112   5.060   0.554   2.021
 6071SOL    HW219113   5.205   0.534   1.949
 6072SOL     OW19114   4.251   0.256   2.190
 6072SOL    HW119115   4.278   0.197   2.115
 6072SOL    HW219116   4.251   0.351   2.159
 6073SOL     OW19117   5.478   1.223   3.450
 6073SOL    HW119118   5.569   1.184   3.437
 6073SOL    HW219119   5.486   1.319   3.474
 6074SOL     OW19120   4.788   1.347   3.202
 6074SOL    HW119121   4.708   1.324   3.257
 6074SOL    HW219122   4.871   1.321   3.251
 6075SOL     OW19123   5.316   1.629   3.487
 6075SOL    HW119124   5.343   1.663   3.397
 6075SOL    HW219125   5.395   1.591   3.533
 6076SOL     OW19126   4.835   1.195   2.962
 6076SOL    HW119127   4.795   1.239   3.043
 6076SOL    HW219128   4.794   1.232   2.879
 6077SOL     OW19129   5.362   1.099   2.941
 6077SOL    HW119130   5.367   1.180   3.000
 6077SOL    HW219131   5.276   1.101   2.890
 6078SOL     OW19132   4.639   0.089   3.264
 6078SOL    HW119133   4.664   0.069   3.169
 6078SOL    HW219134   4.711   0.145   3.306
 6079SOL     OW19135   4.704   1.116   3.581
 6079SOL    HW119136   4.605   1.122   3.591
 6079SOL    HW219137   4.727   1.036   3.525
 6080SOL     OW19138   4.429   1.050   2.230
 6080SOL    HW119139   4.415   1.057   2.329
 6080SOL    HW219140   4.513   0.999   2.212
 6081SOL     OW19141   4.134   0.813   3.113
 6081SOL    HW119142   4.220   0.825   3.163
 6081SOL    HW219143   4.092   0.726   3.140
 6082SOL     OW19144   4.998   0.386   3.124
 6082SOL    HW119145   5.019   0.460   3.188
 6082SOL    HW219146   4.909   0.403   3.081
 6083SOL     OW19147   3.788   1.564   3.193
 6083SOL    HW119148   3.742   1.646   3.159
 6083SOL    HW219149   3.886   1.583   3.202
 6084SOL     OW19150   4.091   1.100   2.363
 6084SOL    HW119151   4.084   1.183   2.307
 6084SOL    HW219152   4.095   1.020   2.303
 6085SOL     OW19153   4.290   0.537   2.727
 6085SOL    HW119154   4.302   0.603   2.653
 6085SOL    HW219155   4.336   0.571   2.810
 6086SOL     OW19156   4.976   1.348   2.250
 6086SOL    HW119157   5.026   1.425   2.290
 6086SOL    HW219158   4.881   1.350   2.282
 6087SOL     OW19159   4.996   1.445   3.004
 6087SOL    HW119160   5.043   1.458   3.091
 6087SOL    HW219161   4.930   1.371   3.013
 6088SOL     OW19162   5.306   0.639   2.334
 6088SOL    HW119163   5.275   0.700   2.407
 6088SOL    HW219164   5.356   0.691   2.265
 6089SOL     OW19165   4.078   1.510   3.191
 6089SOL    HW119166   4.057   1.466   3.104
 6089SOL    HW219167   4.175   1.536   3.194
 6090SOL     OW19168   4.126   0.751   3.460
 6090SOL    HW119169   4.194   0.806   3.413
 6090SOL    HW219170   4.166   0.663   3.487
 6091SOL     OW19171   5.311   0.779   3.532
 6091SOL    HW119172   5.219   0.817   3.527
 6091SOL    HW219173   5.371   0.826   3.467
 6092SOL     OW19174   4.737   0.105   3.632
 6092SOL    HW119175   4.743   0.190   3.580
 6092SOL    HW219176   4.769   0.029   3.575
 6093SOL     OW19177   4.228   0.050   3.602
 6093SOL    HW119178   4.186  -0.007   3.532
 6093SOL    HW219179   4.162   0.119   3.634
 6094SOL     OW19180   4.297   0.870   2.891
 6094SOL    HW119181   4.341   0.959   2.882
 6094SOL    HW219182   4.234   0.870   2.968
 6095SOL     OW19183   5.084   0.862   2.907
 6095SOL    HW119184   5.009   0.862   2.841
 6095SOL    HW219185   5.121   0.770   2.916
 6096SOL     OW19186   4.933   0.525   2.137
 6096SOL    HW119187   4.946   0.441   2.191
 6096SOL    HW219188   4.904   0.599   2.197
 6097SOL     OW19189   4.031   0.213   3.093
 6097SOL    HW119190   4.008   0.250   3.183
 6097SOL    HW219191   4.001   0.118   3.087
 6098SOL     OW19192   3.761   1.310   3.144
 6098SOL    HW119193   3.814   1.261   3.212
 6098SOL    HW219194   3.783   1.408   3.149
 6099SOL     OW19195   4.456   0.634   2.926
 6099SOL    HW119196   4.515   0.608   2.850
 6099SOL    HW219197   4.428   0.730   2.915
 6100SOL     OW19198   5.452   0.935   3.716
 6100SOL    HW119199   5.406   0.928   3.627
 6100SOL    HW219200   5.390   0.979   3.782
 6101SOL     OW19201   4.031   0.063   2.480
 6101SOL    HW119202   4.020   0.157   2.513
 6101SOL    HW219203   4.026   0.000   2.557
 6102SOL     OW19204   5.346   0.367   2.236
 6102SOL    HW119205   5.348   0.291   2.300
 6102SOL    HW219206   5.298   0.444   2.276
 6103SOL     OW19207   4.747   0.766   2.828
 6103SOL    HW119208   4.762   0.787   2.924
 6103SOL    HW219209   4.717   0.671   2.819
 6104SOL     OW19210   4.704   1.573   3.562
 6104SOL    HW119211   4.684   1.617   3.474
 6104SOL    HW219212   4.743   1.482   3.546
 6105SOL     OW19213   5.583   1.518   3.467
 6105SOL    HW119214   5.597   1.545   3.372
 6105SOL    HW219215   5.666   1.540   3.520
 6106SOL     OW19216   4.074   0.898   3.666
 6106SOL    HW119217   4.150   0.942   3.714
 6106SOL    HW219218   4.109   0.851   3.584
 6107SOL     OW19219   5.264   0.274   1.987
 6107SOL    HW119220   5.203   0.199   2.010
 6107SOL    HW219221   5.286   0.326   2.070
 6108SOL     OW19222   5.027   0.838   1.904
 6108SOL    HW119223   5.061   0.745   1.919
 6108SOL    HW219224   5.045   0.865   1.809
 6109SOL     OW19225   4.792   1.333   2.711
 6109SOL    HW119226   4.799   1.249   2.656
 6109SOL    HW219227   4.854   1.402   2.675
 6110SOL     OW19228   4.043   0.810   2.811
 6110SOL    HW119229   4.136   0.846   2.816
 6110SOL    HW219230   4.037   0.725   2.863
 6111SOL     OW19231   4.063   0.509   2.868
 6111SOL    HW119232   4.011   0.426   2.851
 6111SOL    HW219233   4.140   0.514   2.804
 6112SOL     OW19234   4.862   0.380   3.540
 6112SOL    HW119235   4.817   0.443   3.604
 6112SOL    HW219236   4.955   0.411   3.523
 6113SOL     OW19237   4.884   0.207   3.339
 6113SOL    HW119238   4.884   0.271   3.416
 6113SOL    HW219239   4.912   0.255   3.256
 6114SOL     OW19240   3.732   1.326   2.062
 6114SOL    HW119241   3.639   1.347   2.031
 6114SOL    HW219242   3.742   1.227   2.075
 6115SOL     OW19243   3.812   1.801   2.789
 6115SOL    HW119244   3.770   1.715   2.762
 6115SOL    HW219245   3.906   1.804   2.755
 6116SOL     OW19246   4.228   1.568   2.772
 6116SOL    HW119247   4.294   1.642   2.781
 6116SOL    HW219248   4.272   1.489   2.730
 6117SOL     OW19249   4.726   0.796   3.100
 6117SOL    HW119250   4.767   0.764   3.186
 6117SOL    HW219251   4.630   0.769   3.097
 6118SOL     OW19252   3.764   0.544   2.976
 6118SOL    HW119253   3.849   0.511   2.935
 6118SOL    HW219254   3.777   0.559   3.074
 6119SOL     OW19255   3.913   0.520   3.584
 6119SOL    HW119256   3.972   0.480   3.514
 6119SOL    HW219257   3.855   0.591   3.543
 6120SOL     OW19258   5.093   0.950   3.522
 6120SOL    HW119259   5.132   1.039   3.542
 6120SOL    HW219260   5.103   0.930   3.425
 6121SOL     OW19261   4.539   0.572   2.187
 6121SOL    HW119262   4.546   0.483   2.141
 6121SOL    HW219263   4.445   0.606   2.179
 6122SOL     OW19264   5.381   0.604   3.068
 6122SOL    HW119265   5.343   0.535   3.130
 6122SOL    HW219266   5.463   0.568   3.024
 6123SOL     OW19267   3.976   1.564   3.606
 6123SOL    HW119268   3.946   1.621   3.682
 6123SOL    HW219269   3.969   1.467   3.632
 6124SOL     OW19270   4.395   0.464   3.131
 6124SOL    HW119271   4.361   0.375   3.101
 6124SOL    HW219272   4.421   0.518   3.051
 6125SOL     OW19273   4.654   1.678   3.327
 6125SOL    HW119274   4.630   1.660   3.232
 6125SOL    HW219275   4.684   1.772   3.337
 6126SOL     OW19276   4.197   0.500   2.053
 6126SOL    HW119277   4.258   0.580   2.057
 6126SOL    HW219278   4.102   0.531   2.060
 6127SOL     OW19279   3.883   1.137   3.328
 6127SOL    HW119280   3.905   1.076   3.404
 6127SOL    HW219281   3.893   1.088   3.242
 6128SOL     OW19282   5.071   1.059   3.096
 6128SOL    HW119283   5.095   0.996   3.022
 6128SOL    HW219284   4.981   1.099   3.078
 6129SOL     OW19285   5.026   0.855   2.171
 6129SOL    HW119286   4.940   0.824   2.213
 6129SOL    HW219287   5.022   0.841   2.072
 6130SOL     OW19288   5.483   1.747   3.016
 6130SOL    HW119289   5.544   1.777   2.943
 6130SOL    HW219290   5.445   1.658   2.994
 6131SOL     OW19291   4.976   1.731   2.990
 6131SOL    HW119292   5.060   1.736   2.936
 6131SOL    HW219293   4.953   1.635   3.008
 6132SOL     OW19294   3.807   1.258   2.884
 6132SOL    HW119295   3.802   1.257   2.984
 6132SOL    HW219296   3.724   1.217   2.846
 6133SOL     OW19297   4.412   1.662   3.578
 6133SOL    HW119298   4.356   1.743   3.587
 6133SOL    HW219299   4.464   1.666   3.492
 6134SOL     OW19300   5.450   0.135   2.385
 6134SOL    HW119301   5.523   0.118   2.318
 6134SOL    HW219302   5.419   0.048   2.423
 6135SOL     OW19303   5.112   1.573   2.339
 6135SOL    HW119304   5.179   1.585   2.265
 6135SOL    HW219305   5.072   1.662   2.362
 6136SOL     OW19306   3.854   1.794   3.713
 6136SOL    HW119307   3.813   1.720   3.766
 6136SOL    HW219308   3.918   1.845   3.771
 6137SOL     OW19309   5.004   0.927   2.534
 6137SOL    HW119310   5.064   0.846   2.536
 6137SOL    HW219311   5.044   0.996   2.474
 6138SOL     OW19312   4.554   1.273   3.284
 6138SOL    HW119313   4.549   1.306   3.379
 6138SOL    HW219314   4.468   1.292   3.238
 6139SOL     OW19315   4.396   1.616   2.016
 6139SOL    HW119316   4.405   1.626   1.917
 6139SOL    HW219317   4.356   1.527   2.037
 6140SOL     OW19318   5.374   1.720   3.256
 6140SOL    HW119319   5.427   1.730   3.172
 6140SOL    HW219320   5.347   1.810   3.290
 6141SOL     OW19321   5.565   0.175   2.825
 6141SOL    HW119322   5.604   0.090   2.789
 6141SOL    HW219323   5.467   0.177   2.806
 6142SOL     OW19324   3.987   0.326   2.582
 6142SOL    HW119325   3.908   0.377   2.548
 6142SOL    HW219326   3.978   0.311   2.680
 6143SOL     OW19327   4.918   1.612   1.893
 6143SOL    HW119328   4.924   1.519   1.930
 6143SOL    HW219329   4.859   1.612   1.813
 6144SOL     OW19330   4.546   1.002   3.234
 6144SOL    HW119331   4.586   1.001   3.142
 6144SOL    HW219332   4.556   1.094   3.274
 6145SOL     OW19333   4.640   0.910   2.153
 6145SOL    HW119334   4.703   0.948   2.085
 6145SOL    HW219335   4.680   0.827   2.192
 6146SOL     OW19336   5.228   1.607   1.906
 6146SOL    HW119337   5.136   1.644   1.913
 6146SOL    HW219338   5.266   1.627   1.816
 6147SOL     OW19339   4.096   1.288   3.352
 6147SOL    HW119340   4.083   1.381   3.318
 6147SOL    HW219341   4.012   1.236   3.339
 6148SOL     OW19342   5.338   1.292   3.151
 6148SOL    HW119343   5.398   1.295   3.231
 6148SOL    HW219344   5.263   1.356   3.164
 6149SOL     OW19345   4.763   1.098   2.558
 6149SOL    HW119346   4.693   1.051   2.612
 6149SOL    HW219347   4.822   1.030   2.515
 6150SOL     OW19348   4.738   0.236   2.833
 6150SOL    HW119349   4.730   0.200   2.740
 6150SOL    HW219350   4.736   0.160   2.898
 6151SOL     OW19351   4.314   1.487   2.353
 6151SOL    HW119352   4.356   1.429   2.283
 6151SOL    HW219353   4.270   1.566   2.309
 6152SOL     OW19354   5.433   0.385   3.243
 6152SOL    HW119355   5.506   0.454   3.247
 6152SOL    HW219356   5.461   0.310   3.184
 6153SOL     OW19357   3.979   1.348   2.152
 6153SOL    HW119358   3.883   1.349   2.125
 6153SOL    HW219359   3.991   1.401   2.236
 6154SOL     OW19360   3.829   1.013   3.588
 6154SOL    HW119361   3.752   0.980   3.642
 6154SOL    HW219362   3.914   0.983   3.630
 6155SOL     OW19363   4.396   0.203   3.351
 6155SOL    HW119364   4.486   0.187   3.311
 6155SOL    HW219365   4.404   0.208   3.450
 6156SOL     OW19366   3.799   0.345   1.895
 6156SOL    HW119367   3.707   0.317   1.866
 6156SOL    HW219368   3.830   0.422   1.839
 6157SOL     OW19369   5.164   0.856   3.260
 6157SOL    HW119370   5.107   0.908   3.197
 6157SOL    HW219371   5.260   0.868   3.236
 6158SOL     OW19372   3.796   0.166   2.180
 6158SOL    HW119373   3.779   0.249   2.126
 6158SOL    HW219374   3.886   0.129   2.158
 6159SOL     OW19375   4.907   1.335   1.981
 6159SOL    HW119376   4.808   1.324   1.983
 6159SOL    HW219377   4.941   1.350   2.074
 6160SOL     OW19378   4.337   0.842   3.293
 6160SOL    HW119379   4.393   0.923   3.276
 6160SOL    HW219380   4.396   0.762   3.296
 6161SOL     OW19381   5.217   1.767   2.821
 6161SOL    HW119382   5.250   1.831   2.752
 6161SOL    HW219383   5.283   1.761   2.896
 6162SOL     OW19384   4.440   0.565   3.570
 6162SOL    HW119385   4.459   0.630   3.644
 6162SOL    HW219386   4.500   0.485   3.579
 6163SOL     OW19387   5.174   1.220   3.495
 6163SOL    HW119388   5.165   1.210   3.594
 6163SOL    HW219389   5.270   1.213   3.469
 6164SOL     OW19390   4.114   1.741   3.422
 6164SOL    HW119391   4.023   1.782   3.420
 6164SOL    HW219392   4.107   1.647   3.454
 6165SOL     OW19393   5.398   0.883   3.116
 6165SOL    HW119394   5.371   0.794   3.079
 6165SOL    HW219395   5.399   0.951   3.043
 6166SOL     OW19396   4.949   0.325   2.311
 6166SOL    HW119397   5.014   0.251   2.300
 6166SOL    HW219398   4.969   0.375   2.395
 6167SOL     OW19399   4.318   0.745   2.514
 6167SOL    HW119400   4.368   0.830   2.495
 6167SOL    HW219401   4.230   0.747   2.466
 6168SOL     OW19402   5.501   0.342   3.504
 6168SOL    HW119403   5.484   0.373   3.410
 6168SOL    HW219404   5.417   0.305   3.542
 6169SOL     OW19405   5.454   0.934   3.379
 6169SOL    HW119406   5.492   1.025   3.394
 6169SOL    HW219407   5.446   0.917   3.280
 6170SOL     OW19408   4.583   1.374   1.878
 6170SOL    HW119409   4.537   1.389   1.966
 6170SOL    HW219410   4.627   1.459   1.848
 6171SOL     OW19411   4.385   1.790   2.815
 6171SOL    HW119412   4.339   1.878   2.802
 6171SOL    HW219413   4.484   1.802   2.808
 6172SOL     OW19414   4.583   0.956   2.723
 6172SOL    HW119415   4.637   0.887   2.771
 6172SOL    HW219416   4.551   1.025   2.789
 6173SOL     OW19417   4.807   0.984   1.949
 6173SOL    HW119418   4.784   1.037   1.867
 6173SOL    HW219419   4.888   0.928   1.930
 6174SOL     OW19420   5.585   1.569   2.713
 6174SOL    HW119421   5.514   1.557   2.643
 6174SOL    HW219422   5.586   1.490   2.773
 6175SOL     OW19423   3.945   1.314   3.706
 6175SOL    HW119424   3.880   1.241   3.685
 6175SOL    HW219425   3.949   1.328   3.804
 6176SOL     OW19426   3.803   1.240   2.515
 6176SOL    HW119427   3.802   1.193   2.603
 6176SOL    HW219428   3.885   1.212   2.464
 6177SOL     OW19429   4.396   1.391   3.486
 6177SOL    HW119430   4.318   1.341   3.524
 6177SOL    HW219431   4.393   1.486   3.517
 6178SOL     OW19432   5.548   0.192   3.089
 6178SOL    HW119433   5.544   0.102   3.133
 6178SOL    HW219434   5.551   0.181   2.990
 6179SOL     OW19435   4.152   0.424   2.382
 6179SOL    HW119436   4.182   0.352   2.320
 6179SOL    HW219437   4.113   0.384   2.465
 6180SOL     OW19438   5.429   1.487   2.966
 6180SOL    HW119439   5.336   1.462   2.939
 6180SOL    HW219440   5.455   1.437   3.048
 6181SOL     OW19441   4.041   0.547   3.142
 6181SOL    HW119442   4.079   0.488   3.214
 6181SOL    HW219443   4.081   0.521   3.054
 6182SOL     OW19444   4.536   1.586   2.549
 6182SOL    HW119445   4.568   1.596   2.455
 6182SOL    HW219446   4.457   1.524   2.551
 6183SOL     OW19447   5.148   0.214   2.974
 6183SOL    HW119448   5.200   0.149   3.029
 6183SOL    HW219449   5.099   0.277   3.035
 6184SOL     OW19450   4.725   0.034   3.016
 6184SOL    HW119451   4.662  -0.038   2.985
 6184SOL    HW219452   4.818  -0.002   3.016
 6185SOL     OW19453   4.494   1.330   2.163
 6185SOL    HW119454   4.448   1.243   2.180
 6185SOL    HW219455   4.585   1.327   2.204
 6186SOL     OW19456   4.342   1.567   3.146
 6186SOL    HW119457   4.337   1.649   3.203
 6186SOL    HW219458   4.431   1.564   3.101
 6187SOL     OW19459   5.076   0.052   2.030
 6187SOL    HW119460   5.111   0.011   1.946
 6187SOL    HW219461   4.986   0.014   2.050
 6188SOL     OW19462   5.024   0.453   2.553
 6188SOL    HW119463   4.965   0.533   2.557
 6188SOL    HW219464   5.039   0.418   2.646
 6189SOL     OW19465   5.317   0.221   2.744
 6189SOL    HW119466   5.233   0.220   2.798
 6189SOL    HW219467   5.319   0.304   2.688
 6190SOL     OW19468   3.763   1.077   2.162
 6190SOL    HW119469   3.862   1.066   2.153
 6190SOL    HW219470   3.723   0.991   2.194
 6191SOL     OW19471   4.599   1.646   2.199
 6191SOL    HW119472   4.522   1.611   2.145
 6191SOL    HW219473   4.567   1.717   2.261
 6192SOL     OW19474   3.954   0.628   3.837
 6192SOL    HW119475   3.861   0.626   3.874
 6192SOL    HW219476   3.955   0.589   3.745
 6193SOL     OW19477   3.949   0.275   4.720
 6193SOL    HW119478   3.984   0.258   4.812
 6193SOL    HW219479   3.861   0.230   4.708
 6194SOL     OW19480   3.743   0.368   4.371
 6194SOL    HW119481   3.661   0.411   4.410
 6194SOL    HW219482   3.715   0.295   4.308
 6195SOL     OW19483   4.293   1.275   4.889
 6195SOL    HW119484   4.200   1.268   4.852
 6195SOL    HW219485   4.304   1.364   4.933
 6196SOL     OW19486   5.279   1.511   4.427
 6196SOL    HW119487   5.222   1.495   4.508
 6196SOL    HW219488   5.220   1.521   4.347
 6197SOL     OW19489   4.859   0.703   4.441
 6197SOL    HW119490   4.916   0.781   4.416
 6197SOL    HW219491   4.799   0.729   4.517
 6198SOL     OW19492   5.479   0.607   3.955
 6198SOL    HW119493   5.467   0.594   3.856
 6198SOL    HW219494   5.449   0.526   4.004
 6199SOL     OW19495   4.492   1.144   4.747
 6199SOL    HW119496   4.414   1.161   4.807
 6199SOL    HW219497   4.526   1.231   4.711
 6200SOL     OW19498   4.574   0.798   5.547
 6200SOL    HW119499   4.570   0.874   5.612
 6200SOL    HW219500   4.596   0.834   5.456
 6201SOL     OW19501   4.409   1.012   4.389
 6201SOL    HW119502   4.478   0.996   4.459
 6201SOL    HW219503   4.336   1.069   4.427
 6202SOL     OW19504   4.410   1.161   5.527
 6202SOL    HW119505   4.470   1.240   5.541
 6202SOL    HW219506   4.324   1.192   5.486
 6203SOL     OW19507   4.059   1.435   4.785
 6203SOL    HW119508   3.981   1.404   4.732
 6203SOL    HW219509   4.117   1.493   4.728
 6204SOL     OW19510   5.184   1.505   5.063
 6204SOL    HW119511   5.208   1.599   5.089
 6204SOL    HW219512   5.168   1.451   5.145
 6205SOL     OW19513   4.162   0.392   5.223
 6205SOL    HW119514   4.244   0.336   5.232
 6205SOL    HW219515   4.081   0.334   5.227
 6206SOL     OW19516   5.327   0.447   4.461
 6206SOL    HW119517   5.253   0.493   4.411
 6206SOL    HW219518   5.378   0.515   4.514
 6207SOL     OW19519   3.955   1.713   4.207
 6207SOL    HW119520   3.989   1.790   4.261
 6207SOL    HW219521   3.999   1.713   4.117
 6208SOL     OW19522   4.851   1.341   5.414
 6208SOL    HW119523   4.898   1.341   5.502
 6208SOL    HW219524   4.803   1.254   5.403
 6209SOL     OW19525   3.954   1.434   4.262
 6209SOL    HW119526   3.928   1.530   4.262
 6209SOL    HW219527   3.883   1.380   4.307
 6210SOL     OW19528   3.964   1.091   4.610
 6210SOL    HW119529   3.978   1.007   4.662
 6210SOL    HW219530   3.909   1.155   4.665
 6211SOL     OW19531   4.344   1.786   5.163
 6211SOL    HW119532   4.252   1.769   5.198
 6211SOL    HW219533   4.372   1.878   5.189
 6212SOL     OW19534   4.330   0.964   3.847
 6212SOL    HW119535   4.337   1.048   3.793
 6212SOL    HW219536   4.376   0.977   3.935
 6213SOL     OW19537   5.318   0.114   5.204
 6213SOL    HW119538   5.300   0.181   5.132
 6213SOL    HW219539   5.315   0.160   5.293
 6214SOL     OW19540   3.846   0.643   4.287
 6214SOL    HW119541   3.801   0.555   4.304
 6214SOL    HW219542   3.845   0.697   4.371
 6215SOL     OW19543   5.566   1.767   4.083
 6215SOL    HW119544   5.620   1.738   4.163
 6215SOL    HW219545   5.596   1.857   4.054
 6216SOL     OW19546   3.751   1.596   3.841
 6216SOL    HW119547   3.732   1.500   3.862
 6216SOL    HW219548   3.718   1.654   3.916
 6217SOL     OW19549   5.413   0.922   4.336
 6217SOL    HW119550   5.508   0.893   4.344
 6217SOL    HW219551   5.405   0.987   4.261
 6218SOL     OW19552   5.365   1.108   4.156
 6218SOL    HW119553   5.451   1.110   4.104
 6218SOL    HW219554   5.379   1.155   4.244
 6219SOL     OW19555   3.837   0.737   5.321
 6219SOL    HW119556   3.925   0.724   5.366
 6219SOL    HW219557   3.824   0.834   5.299
 6220SOL     OW19558   4.337   1.365   4.450
 6220SOL    HW119559   4.288   1.278   4.459
 6220SOL    HW219560   4.314   1.408   4.363
 6221SOL     OW19561   5.017   1.228   5.147
 6221SOL    HW119562   5.054   1.155   5.089
 6221SOL    HW219563   5.069   1.233   5.232
 6222SOL     OW19564   4.533   0.004   4.226
 6222SOL    HW119565   4.573   0.095   4.217
 6222SOL    HW219566   4.433   0.012   4.232
 6223SOL     OW19567   3.921   0.976   4.988
 6223SOL    HW119568   4.010   0.931   4.974
 6223SOL    HW219569   3.848   0.911   4.969
 6224SOL     OW19570   5.249   0.999   3.914
 6224SOL    HW119571   5.186   0.923   3.927
 6224SOL    HW219572   5.297   1.017   4.000
 6225SOL     OW19573   4.911   1.792   5.340
 6225SOL    HW119574   4.935   1.852   5.264
 6225SOL    HW219575   4.918   1.697   5.310
 6226SOL     OW19576   4.041   0.251   5.525
 6226SOL    HW119577   4.112   0.322   5.531
 6226SOL    HW219578   3.953   0.290   5.553
 6227SOL     OW19579   5.190   1.417   4.677
 6227SOL    HW119580   5.131   1.423   4.757
 6227SOL    HW219581   5.175   1.329   4.631
 6228SOL     OW19582   5.391   1.714   4.296
 6228SOL    HW119583   5.350   1.691   4.208
 6228SOL    HW219584   5.373   1.640   4.361
 6229SOL     OW19585   4.322   0.729   3.994
 6229SOL    HW119586   4.346   0.798   3.926
 6229SOL    HW219587   4.244   0.762   4.048
 6230SOL     OW19588   5.005   0.345   4.668
 6230SOL    HW119589   4.919   0.295   4.655
 6230SOL    HW219590   5.067   0.291   4.724
 6231SOL     OW19591   5.300   1.662   4.031
 6231SOL    HW119592   5.389   1.708   4.034
 6231SOL    HW219593   5.279   1.638   3.936
 6232SOL     OW19594   4.531   0.605   5.189
 6232SOL    HW119595   4.484   0.602   5.278
 6232SOL    HW219596   4.480   0.550   5.123
 6233SOL     OW19597   5.118   0.469   5.398
 6233SOL    HW119598   5.098   0.512   5.486
 6233SOL    HW219599   5.196   0.407   5.407
 6234SOL     OW19600   4.697   0.890   5.296
 6234SOL    HW119601   4.743   0.806   5.267
 6234SOL    HW219602   4.641   0.924   5.221
 6235SOL     OW19603   4.715   0.410   4.966
 6235SOL    HW119604   4.638   0.444   5.020
 6235SOL    HW219605   4.681   0.359   4.887
 6236SOL     OW19606   4.765   0.701   4.153
 6236SOL    HW119607   4.791   0.697   4.249
 6236SOL    HW219608   4.680   0.650   4.139
 6237SOL     OW19609   3.800   0.811   4.513
 6237SOL    HW119610   3.899   0.799   4.522
 6237SOL    HW219611   3.776   0.906   4.534
 6238SOL     OW19612   3.854   1.821   5.295
 6238SOL    HW119613   3.844   1.806   5.394
 6238SOL    HW219614   3.768   1.857   5.259
 6239SOL     OW19615   4.589   0.348   3.919
 6239SOL    HW119616   4.648   0.411   3.870
 6239SOL    HW219617   4.608   0.254   3.890
 6240SOL     OW19618   5.443   0.585   5.555
 6240SOL    HW119619   5.417   0.674   5.519
 6240SOL    HW219620   5.441   0.517   5.482
 6241SOL     OW19621   5.086   1.144   4.269
 6241SOL    HW119622   5.169   1.115   4.221
 6241SOL    HW219623   5.037   1.211   4.213
 6242SOL     OW19624   4.274   0.196   4.609
 6242SOL    HW119625   4.269   0.191   4.709
 6242SOL    HW219626   4.276   0.292   4.580
 6243SOL     OW19627   4.732   1.456   4.201
 6243SOL    HW119628   4.686   1.528   4.149
 6243SOL    HW219629   4.728   1.476   4.299
 6244SOL     OW19630   4.075   1.801   4.577
 6244SOL    HW119631   4.125   1.715   4.583
 6244SOL    HW219632   4.140   1.878   4.574
 6245SOL     OW19633   5.519   1.066   4.597
 6245SOL    HW119634   5.457   1.051   4.521
 6245SOL    HW219635   5.467   1.077   4.682
 6246SOL     OW19636   4.951   1.550   5.230
 6246SOL    HW119637   4.957   1.473   5.294
 6246SOL    HW219638   4.899   1.524   5.150
 6247SOL     OW19639   4.045   0.943   3.966
 6247SOL    HW119640   4.127   0.982   3.924
 6247SOL    HW219641   4.018   0.861   3.917
 6248SOL     OW19642   5.182   0.735   4.452
 6248SOL    HW119643   5.177   0.670   4.527
 6248SOL    HW219644   5.262   0.794   4.465
 6249SOL     OW19645   4.185   1.266   5.451
 6249SOL    HW119646   4.135   1.267   5.365
 6249SOL    HW219647   4.122   1.248   5.527
 6250SOL     OW19648   4.835   1.776   3.961
 6250SOL    HW119649   4.775   1.714   4.011
 6250SOL    HW219650   4.866   1.732   3.876
 6251SOL     OW19651   3.926   0.285   5.222
 6251SOL    HW119652   3.846   0.345   5.209
 6251SOL    HW219653   3.916   0.236   5.308
 6252SOL     OW19654   5.356   1.377   3.805
 6252SOL    HW119655   5.324   1.471   3.795
 6252SOL    HW219656   5.280   1.314   3.793
 6253SOL     OW19657   4.188   1.743   4.047
 6253SOL    HW119658   4.221   1.782   4.133
 6253SOL    HW219659   4.264   1.736   3.982
 6254SOL     OW19660   5.124   0.107   4.150
 6254SOL    HW119661   5.100   0.070   4.060
 6254SOL    HW219662   5.223   0.123   4.154
 6255SOL     OW19663   3.973   1.785   4.965
 6255SOL    HW119664   4.030   1.720   5.015
 6255SOL    HW219665   3.957   1.752   4.872
 6256SOL     OW19666   4.664   1.698   4.628
 6256SOL    HW119667   4.744   1.641   4.649
 6256SOL    HW219668   4.615   1.658   4.551
 6257SOL     OW19669   4.106   0.700   4.204
 6257SOL    HW119670   4.151   0.610   4.201
 6257SOL    HW219671   4.012   0.689   4.237
 6258SOL     OW19672   5.271   0.222   5.453
 6258SOL    HW119673   5.266   0.259   5.545
 6258SOL    HW219674   5.199   0.153   5.441
 6259SOL     OW19675   4.338   0.122   3.841
 6259SOL    HW119676   4.436   0.100   3.848
 6259SOL    HW219677   4.307   0.105   3.748
 6260SOL     OW19678   4.505   0.264   5.473
 6260SOL    HW119679   4.572   0.203   5.516
 6260SOL    HW219680   4.432   0.283   5.538
 6261SOL     OW19681   4.612   1.514   4.919
 6261SOL    HW119682   4.589   1.489   4.825
 6261SOL    HW219683   4.673   1.445   4.958
 6262SOL     OW19684   5.075   0.590   5.157
 6262SOL    HW119685   5.103   0.547   5.242
 6262SOL    HW219686   5.100   0.686   5.158
 6263SOL     OW19687   4.527   1.402   4.648
 6263SOL    HW119688   4.617   1.416   4.606
 6263SOL    HW219689   4.456   1.404   4.577
 6264SOL     OW19690   4.646   0.503   4.623
 6264SOL    HW119691   4.621   0.494   4.527
 6264SOL    HW219692   4.694   0.421   4.654
 6265SOL     OW19693   4.263   0.064   4.236
 6265SOL    HW119694   4.182   0.065   4.294
 6265SOL    HW219695   4.266   0.147   4.181
 6266SOL     OW19696   5.158   1.188   3.765
 6266SOL    HW119697   5.190   1.112   3.822
 6266SOL    HW219698   5.066   1.215   3.795
 6267SOL     OW19699   4.021   0.035   3.895
 6267SOL    HW119700   4.070   0.119   3.874
 6267SOL    HW219701   4.083  -0.030   3.940
 6268SOL     OW19702   4.659   0.236   4.204
 6268SOL    HW119703   4.611   0.277   4.126
 6268SOL    HW219704   4.758   0.234   4.185
 6269SOL     OW19705   4.800   0.683   5.188
 6269SOL    HW119706   4.720   0.622   5.191
 6269SOL    HW219707   4.881   0.630   5.164
 6270SOL     OW19708   4.951   1.570   4.517
 6270SOL    HW119709   4.972   1.644   4.452
 6270SOL    HW219710   5.019   1.570   4.590
 6271SOL     OW19711   4.183   1.152   4.465
 6271SOL    HW119712   4.112   1.125   4.530
 6271SOL    HW219713   4.157   1.124   4.372
 6272SOL     OW19714   4.995   1.797   4.315
 6272SOL    HW119715   5.039   1.861   4.251
 6272SOL    HW219716   4.945   1.849   4.385
 6273SOL     OW19717   4.756   0.549   3.740
 6273SOL    HW119718   4.715   0.631   3.701
 6273SOL    HW219719   4.820   0.575   3.813
 6274SOL     OW19720   3.802   0.556   5.110
 6274SOL    HW119721   3.894   0.555   5.069
 6274SOL    HW219722   3.796   0.630   5.177
 6275SOL     OW19723   4.285   0.222   4.871
 6275SOL    HW119724   4.323   0.138   4.908
 6275SOL    HW219725   4.197   0.241   4.915
 6276SOL     OW19726   4.590   0.454   4.366
 6276SOL    HW119727   4.558   0.526   4.304
 6276SOL    HW219728   4.614   0.373   4.313
 6277SOL     OW19729   4.741   0.039   4.477
 6277SOL    HW119730   4.669   0.044   4.408
 6277SOL    HW219731   4.717  -0.030   4.546
 6278SOL     OW19732   5.153   1.173   4.591
 6278SOL    HW119733   5.098   1.089   4.584
 6278SOL    HW219734   5.179   1.202   4.499
 6279SOL     OW19735   5.190   0.590   4.716
 6279SOL    HW119736   5.160   0.495   4.723
 6279SOL    HW219737   5.263   0.606   4.782
 6280SOL     OW19738   5.581   0.833   4.101
 6280SOL    HW119739   5.623   0.769   4.165
 6280SOL    HW219740   5.543   0.782   4.023
 6281SOL     OW19741   4.212   1.385   3.898
 6281SOL    HW119742   4.125   1.370   3.945
 6281SOL    HW219743   4.195   1.411   3.803
 6282SOL     OW19744   5.388   1.280   4.381
 6282SOL    HW119745   5.487   1.288   4.395
 6282SOL    HW219746   5.343   1.364   4.412
 6283SOL     OW19747   5.114   0.575   3.802
 6283SOL    HW119748   5.060   0.554   3.883
 6283SOL    HW219749   5.205   0.534   3.811
 6284SOL     OW19750   4.251   0.256   4.052
 6284SOL    HW119751   4.278   0.197   3.977
 6284SOL    HW219752   4.251   0.351   4.021
 6285SOL     OW19753   5.478   1.223   5.312
 6285SOL    HW119754   5.569   1.184   5.299
 6285SOL    HW219755   5.486   1.319   5.336
 6286SOL     OW19756   4.788   1.347   5.064
 6286SOL    HW119757   4.708   1.324   5.119
 6286SOL    HW219758   4.871   1.321   5.113
 6287SOL     OW19759   5.316   1.629   5.349
 6287SOL    HW119760   5.343   1.663   5.259
 6287SOL    HW219761   5.395   1.591   5.395
 6288SOL     OW19762   4.835   1.195   4.824
 6288SOL    HW119763   4.795   1.239   4.905
 6288SOL    HW219764   4.794   1.232   4.741
 6289SOL     OW19765   5.362   1.099   4.803
 6289SOL    HW119766   5.367   1.180   4.862
 6289SOL    HW219767   5.276   1.101   4.752
 6290SOL     OW19768   4.639   0.089   5.126
 6290SOL    HW119769   4.664   0.069   5.031
 6290SOL    HW219770   4.711   0.145   5.168
 6291SOL     OW19771   4.704   1.116   5.443
 6291SOL    HW119772   4.605   1.122   5.453
 6291SOL    HW219773   4.727   1.036   5.387
 6292SOL     OW19774   4.429   1.050   4.092
 6292SOL    HW119775   4.415   1.057   4.191
 6292SOL    HW219776   4.513   0.999   4.074
 6293SOL     OW19777   4.134   0.813   4.975
 6293SOL    HW119778   4.220   0.825   5.025
 6293SOL    HW219779   4.092   0.726   5.002
 6294SOL     OW19780   4.998   0.386   4.986
 6294SOL    HW119781   5.019   0.460   5.050
 6294SOL    HW219782   4.909   0.403   4.943
 6295SOL     OW19783   3.788   1.564   5.055
 6295SOL    HW119784   3.742   1.646   5.021
 6295SOL    HW219785   3.886   1.583   5.064
 6296SOL     OW19786   4.091   1.100   4.225
 6296SOL    HW119787   4.084   1.183   4.169
 6296SOL    HW219788   4.095   1.020   4.165
 6297SOL     OW19789   4.290   0.537   4.589
 6297SOL    HW119790   4.302   0.603   4.515
 6297SOL    HW219791   4.336   0.571   4.672
 6298SOL     OW19792   4.976   1.348   4.112
 6298SOL    HW119793   5.026   1.425   4.152
 6298SOL    HW219794   4.881   1.350   4.144
 6299SOL     OW19795   4.996   1.445   4.866
 6299SOL    HW119796   5.043   1.458   4.953
 6299SOL    HW219797   4.930   1.371   4.875
 6300SOL     OW19798   5.306   0.639   4.196
 6300SOL    HW119799   5.275   0.700   4.269
 6300SOL    HW219800   5.356   0.691   4.127
 6301SOL     OW19801   4.078   1.510   5.053
 6301SOL    HW119802   4.057   1.466   4.966
 6301SOL    HW219803   4.175   1.536   5.056
 6302SOL     OW19804   4.126   0.751   5.322
 6302SOL    HW119805   4.194   0.806   5.275
 6302SOL    HW219806   4.166   0.663   5.349
 6303SOL     OW19807   5.311   0.779   5.394
 6303SOL    HW119808   5.219   0.817   5.389
 6303SOL    HW219809   5.371   0.826   5.329
 6304SOL     OW19810   4.737   0.105   5.494
 6304SOL    HW119811   4.743   0.190   5.442
 6304SOL    HW219812   4.769   0.029   5.437
 6305SOL     OW19813   4.228   0.050   5.464
 6305SOL    HW119814   4.186  -0.007   5.394
 6305SOL    HW219815   4.162   0.119   5.496
 6306SOL     OW19816   4.297   0.870   4.753
 6306SOL    HW119817   4.341   0.959   4.744
 6306SOL    HW219818   4.234   0.870   4.830
 6307SOL     OW19819   5.084   0.862   4.769
 6307SOL    HW119820   5.009   0.862   4.703
 6307SOL    HW219821   5.121   0.770   4.778
 6308SOL     OW19822   4.933   0.525   3.999
 6308SOL    HW119823   4.946   0.441   4.053
 6308SOL    HW219824   4.904   0.599   4.059
 6309SOL     OW19825   4.031   0.213   4.955
 6309SOL    HW119826   4.008   0.250   5.045
 6309SOL    HW219827   4.001   0.118   4.949
 6310SOL     OW19828   3.761   1.310   5.006
 6310SOL    HW119829   3.814   1.261   5.074
 6310SOL    HW219830   3.783   1.408   5.011
 6311SOL     OW19831   4.456   0.634   4.788
 6311SOL    HW119832   4.515   0.608   4.712
 6311SOL    HW219833   4.428   0.730   4.777
 6312SOL     OW19834   5.452   0.935   5.578
 6312SOL    HW119835   5.406   0.928   5.489
 6312SOL    HW219836   5.390   0.979   5.644
 6313SOL     OW19837   4.031   0.063   4.342
 6313SOL    HW119838   4.020   0.157   4.375
 6313SOL    HW219839   4.026   0.000   4.419
 6314SOL     OW19840   5.346   0.367   4.098
 6314SOL    HW119841   5.348   0.291   4.162
 6314SOL    HW219842   5.298   0.444   4.138
 6315SOL     OW19843   4.747   0.766   4.690
 6315SOL    HW119844   4.762   0.787   4.786
 6315SOL    HW219845   4.717   0.671   4.681
 6316SOL     OW19846   4.704   1.573   5.424
 6316SOL    HW119847   4.684   1.617   5.336
 6316SOL    HW219848   4.743   1.482   5.408
 6317SOL     OW19849   5.583   1.518   5.329
 6317SOL    HW119850   5.597   1.545   5.234
 6317SOL    HW219851   5.666   1.540   5.382
 6318SOL     OW19852   4.074   0.898   5.528
 6318SOL    HW119853   4.150   0.942   5.576
 6318SOL    HW219854   4.109   0.851   5.446
 6319SOL     OW19855   5.264   0.274   3.849
 6319SOL    HW119856   5.203   0.199   3.872
 6319SOL    HW219857   5.286   0.326   3.932
 6320SOL     OW19858   5.027   0.838   3.766
 6320SOL    HW119859   5.061   0.745   3.781
 6320SOL    HW219860   5.045   0.865   3.671
 6321SOL     OW19861   4.792   1.333   4.573
 6321SOL    HW119862   4.799   1.249   4.518
 6321SOL    HW219863   4.854   1.402   4.537
 6322SOL     OW19864   4.043   0.810   4.673
 6322SOL    HW119865   4.136   0.846   4.678
 6322SOL    HW219866   4.037   0.725   4.725
 6323SOL     OW19867   4.063   0.509   4.730
 6323SOL    HW119868   4.011   0.426   4.713
 6323SOL    HW219869   4.140   0.514   4.666
 6324SOL     OW19870   4.862   0.380   5.402
 6324SOL    HW119871   4.817   0.443   5.466
 6324SOL    HW219872   4.955   0.411   5.385
 6325SOL     OW19873   4.884   0.207   5.201
 6325SOL    HW119874   4.884   0.271   5.278
 6325SOL    HW219875   4.912   0.255   5.118
 6326SOL     OW19876   3.732   1.326   3.924
 6326SOL    HW119877   3.639   1.347   3.893
 6326SOL    HW219878   3.742   1.227   3.937
 6327SOL     OW19879   3.812   1.801   4.651
 6327SOL    HW119880   3.770   1.715   4.624
 6327SOL    HW219881   3.906   1.804   4.617
 6328SOL     OW19882   4.228   1.568   4.634
 6328SOL    HW119883   4.294   1.642   4.643
 6328SOL    HW219884   4.272   1.489   4.592
 6329SOL     OW19885   4.726   0.796   4.962
 6329SOL    HW119886   4.767   0.764   5.048
 6329SOL    HW219887   4.630   0.769   4.959
 6330SOL     OW19888   3.764   0.544   4.838
 6330SOL    HW119889   3.849   0.511   4.797
 6330SOL    HW219890   3.777   0.559   4.936
 6331SOL     OW19891   3.913   0.520   5.446
 6331SOL    HW119892   3.972   0.480   5.376
 6331SOL    HW219893   3.855   0.591   5.405
 6332SOL     OW19894   5.093   0.950   5.384
 6332SOL    HW119895   5.132   1.039   5.404
 6332SOL    HW219896   5.103   0.930   5.287
 6333SOL     OW19897   4.539   0.572   4.049
 6333SOL    HW119898   4.546   0.483   4.003
 6333SOL    HW219899   4.445   0.606   4.041
 6334SOL     OW19900   5.381   0.604   4.930
 6334SOL    HW119901   5.343   0.535   4.992
 6334SOL    HW219902   5.463   0.568   4.886
 6335SOL     OW19903   3.976   1.564   5.468
 6335SOL    HW119904   3.946   1.621   5.544
 6335SOL    HW219905   3.969   1.467   5.494
 6336SOL     OW19906   4.395   0.464   4.993
 6336SOL    HW119907   4.361   0.375   4.963
 6336SOL    HW219908   4.421   0.518   4.913
 6337SOL     OW19909   4.654   1.678   5.189
 6337SOL    HW119910   4.630   1.660   5.094
 6337SOL    HW219911   4.684   1.772   5.199
 6338SOL     OW19912   4.197   0.500   3.915
 6338SOL    HW119913   4.258   0.580   3.919
 6338SOL    HW219914   4.102   0.531   3.922
 6339SOL     OW19915   3.883   1.137   5.190
 6339SOL    HW119916   3.905   1.076   5.266
 6339SOL    HW219917   3.893   1.088   5.104
 6340SOL     OW19918   5.071   1.059   4.958
 6340SOL    HW119919   5.095   0.996   4.884
 6340SOL    HW219920   4.981   1.099   4.940
 6341SOL     OW19921   5.026   0.855   4.033
 6341SOL    HW119922   4.940   0.824   4.075
 6341SOL    HW219923   5.022   0.841   3.934
 6342SOL     OW19924   5.483   1.747   4.878
 6342SOL    HW119925   5.544   1.777   4.805
 6342SOL    HW219926   5.445   1.658   4.856
 6343SOL     OW19927   4.976   1.731   4.852
 6343SOL    HW119928   5.060   1.736   4.798
 6343SOL    HW219929   4.953   1.635   4.870
 6344SOL     OW19930   3.807   1.258   4.746
 6344SOL    HW119931   3.802   1.257   4.846
 6344SOL    HW219932   3.724   1.217   4.708
 6345SOL     OW19933   4.412   1.662   5.440
 6345SOL    HW119934   4.356   1.743   5.449
 6345SOL    HW219935   4.464   1.666   5.354
 6346SOL     OW19936   5.450   0.135   4.247
 6346SOL    HW119937   5.523   0.118   4.180
 6346SOL    HW219938   5.419   0.048   4.285
 6347SOL     OW19939   5.112   1.573   4.201
 6347SOL    HW119940   5.179   1.585   4.127
 6347SOL    HW219941   5.072   1.662   4.224
 6348SOL     OW19942   3.854   1.794   5.575
 6348SOL    HW119943   3.813   1.720   5.628
 6348SOL    HW219944   3.918   1.845   5.633
 6349SOL     OW19945   5.004   0.927   4.396
 6349SOL    HW119946   5.064   0.846   4.398
 6349SOL    HW219947   5.044   0.996   4.336
 6350SOL     OW19948   4.554   1.273   5.146
 6350SOL    HW119949   4.549   1.306   5.241
 6350SOL    HW219950   4.468   1.292   5.100
 6351SOL     OW19951   4.396   1.616   3.878
 6351SOL    HW119952   4.405   1.626   3.779
 6351SOL    HW219953   4.356   1.527   3.899
 6352SOL     OW19954   5.374   1.720   5.118
 6352SOL    HW119955   5.427   1.730   5.034
 6352SOL    HW219956   5.347   1.810   5.152
 6353SOL     OW19957   5.565   0.175   4.687
 6353SOL    HW119958   5.604   0.090   4.651
 6353SOL    HW219959   5.467   0.177   4.668
 6354SOL     OW19960   3.987   0.326   4.444
 6354SOL    HW119961   3.908   0.377   4.410
 6354SOL    HW219962   3.978   0.311   4.542
 6355SOL     OW19963   4.918   1.612   3.755
 6355SOL    HW119964   4.924   1.519   3.792
 6355SOL    HW219965   4.859   1.612   3.675
 6356SOL     OW19966   4.546   1.002   5.096
 6356SOL    HW119967   4.586   1.001   5.004
 6356SOL    HW219968   4.556   1.094   5.136
 6357SOL     OW19969   4.640   0.910   4.015
 6357SOL    HW119970   4.703   0.948   3.947
 6357SOL    HW219971   4.680   0.827   4.054
 6358SOL     OW19972   5.228   1.607   3.768
 6358SOL    HW119973   5.136   1.644   3.775
 6358SOL    HW219974   5.266   1.627   3.678
 6359SOL     OW19975   4.096   1.288   5.214
 6359SOL    HW119976   4.083   1.381   5.180
 6359SOL    HW219977   4.012   1.236   5.201
 6360SOL     OW19978   5.338   1.292   5.013
 6360SOL    HW119979   5.398   1.295   5.093
 6360SOL    HW219980   5.263   1.356   5.026
 6361SOL     OW19981   4.763   1.098   4.420
 6361SOL    HW119982   4.693   1.051   4.474
 6361SOL    HW219983   4.822   1.030   4.377
 6362SOL     OW19984   4.738   0.236   4.695
 6362SOL    HW119985   4.730   0.200   4.602
 6362SOL    HW219986   4.736   0.160   4.760
 6363SOL     OW19987   4.314   1.487   4.215
 6363SOL    HW119988   4.356   1.429   4.145
 6363SOL    HW219989   4.270   1.566   4.171
 6364SOL     OW19990   5.433   0.385   5.105
 6364SOL    HW119991   5.506   0.454   5.109
 6364SOL    HW219992   5.461   0.310   5.046
 6365SOL     OW19993   3.979   1.348   4.014
 6365SOL    HW119994   3.883   1.349   3.987
 6365SOL    HW219995   3.991   1.401   4.098
 6366SOL     OW19996   3.829   1.013   5.450
 6366SOL    HW119997   3.752   0.980   5.504
 6366SOL    HW219998   3.914   0.983   5.492
 6367SOL     OW19999   4.396   0.203   5.213
 6367SOL    HW120000   4.486   0.187   5.173
 6367SOL    HW220001   4.404   0.208   5.312
 6368SOL     OW20002   3.799   0.345   3.757
 6368SOL    HW120003   3.707   0.317   3.728
 6368SOL    HW220004   3.830   0.422   3.701
 6369SOL     OW20005   5.164   0.856   5.122
 6369SOL    HW120006   5.107   0.908   5.059
 6369SOL    HW220007   5.260   0.868   5.098
 6370SOL     OW20008   3.796   0.166   4.042
 6370SOL    HW120009   3.779   0.249   3.988
 6370SOL    HW220010   3.886   0.129   4.020
 6371SOL     OW20011   4.907   1.335   3.843
 6371SOL    HW120012   4.808   1.324   3.845
 6371SOL    HW220013   4.941   1.350   3.936
 6372SOL     OW20014   4.337   0.842   5.155
 6372SOL    HW120015   4.393   0.923   5.138
 6372SOL    HW220016   4.396   0.762   5.158
 6373SOL     OW20017   5.217   1.767   4.683
 6373SOL    HW120018   5.250   1.831   4.614
 6373SOL    HW220019   5.283   1.761   4.758
 6374SOL     OW20020   4.440   0.565   5.432
 6374SOL    HW120021   4.459   0.630   5.506
 6374SOL    HW220022   4.500   0.485   5.441
 6375SOL     OW20023   5.174   1.220   5.357
 6375SOL    HW120024   5.165   1.210   5.456
 6375SOL    HW220025   5.270   1.213   5.331
 6376SOL     OW20026   4.114   1.741   5.284
 6376SOL    HW120027   4.023   1.782   5.282
 6376SOL    HW220028   4.107   1.647   5.316
 6377SOL     OW20029   5.398   0.883   4.978
 6377SOL    HW120030   5.371   0.794   4.941
 6377SOL    HW220031   5.399   0.951   4.905
 6378SOL     OW20032   4.949   0.325   4.173
 6378SOL    HW120033   5.014   0.251   4.162
 6378SOL    HW220034   4.969   0.375   4.257
 6379SOL     OW20035   4.318   0.745   4.376
 6379SOL    HW120036   4.368   0.830   4.357
 6379SOL    HW220037   4.230   0.747   4.328
 6380SOL     OW20038   5.501   0.342   5.366
 6380SOL    HW120039   5.484   0.373   5.272
 6380SOL    HW220040   5.417   0.305   5.404
 6381SOL     OW20041   5.454   0.934   5.241
 6381SOL    HW120042   5.492   1.025   5.256
 6381SOL    HW220043   5.446   0.917   5.142
 6382SOL     OW20044   4.583   1.374   3.740
 6382SOL    HW120045   4.537   1.389   3.828
 6382SOL    HW220046   4.627   1.459   3.710
 6383SOL     OW20047   4.385   1.790   4.677
 6383SOL    HW120048   4.339   1.878   4.664
 6383SOL    HW220049   4.484   1.802   4.670
 6384SOL     OW20050   4.583   0.956   4.585
 6384SOL    HW120051   4.637   0.887   4.633
 6384SOL    HW220052   4.551   1.025   4.651
 6385SOL     OW20053   4.807   0.984   3.811
 6385SOL    HW120054   4.784   1.037   3.729
 6385SOL    HW220055   4.888   0.928   3.792
 6386SOL     OW20056   5.585   1.569   4.575
 6386SOL    HW120057   5.514   1.557   4.505
 6386SOL    HW220058   5.586   1.490   4.635
 6387SOL     OW20059   3.945   1.314   5.568
 6387SOL    HW120060   3.880   1.241   5.547
 6387SOL    HW220061   3.949   1.328   5.666
 6388SOL     OW20062   3.803   1.240   4.377
 6388SOL    HW120063   3.802   1.193   4.465
 6388SOL    HW220064   3.885   1.212   4.326
 6389SOL     OW20065   4.396   1.391   5.348
 6389SOL    HW120066   4.318   1.341   5.386
 6389SOL    HW220067   4.393   1.486   5.379
 6390SOL     OW20068   5.548   0.192   4.951
 6390SOL    HW120069   5.544   0.102   4.995
 6390SOL    HW220070   5.551   0.181   4.852
 6391SOL     OW20071   4.152   0.424   4.244
 6391SOL    HW120072   4.182   0.352   4.182
 6391SOL    HW220073   4.113   0.384   4.327
 6392SOL     OW20074   5.429   1.487   4.828
 6392SOL    HW120075   5.336   1.462   4.801
 6392SOL    HW220076   5.455   1.437   4.910
 6393SOL     OW20077   4.041   0.547   5.004
 6393SOL    HW120078   4.079   0.488   5.076
 6393SOL    HW220079   4.081   0.521   4.916
 6394SOL     OW20080   4.536   1.586   4.411
 6394SOL    HW120081   4.568   1.596   4.317
 6394SOL    HW220082   4.457   1.524   4.413
 6395SOL     OW20083   5.148   0.214   4.836
 6395SOL    HW120084   5.200   0.149   4.891
 6395SOL    HW220085   5.099   0.277   4.897
 6396SOL     OW20086   4.725   0.034   4.878
 6396SOL    HW120087   4.662  -0.038   4.847
 6396SOL    HW220088   4.818  -0.002   4.878
 6397SOL     OW20089   4.494   1.330   4.025
 6397SOL    HW120090   4.448   1.243   4.042
 6397SOL    HW220091   4.585   1.327   4.066
 6398SOL     OW20092   4.342   1.567   5.008
 6398SOL    HW120093   4.337   1.649   5.065
 6398SOL    HW220094   4.431   1.564   4.963
 6399SOL     OW20095   5.076   0.052   3.892
 6399SOL    HW120096   5.111   0.011   3.808
 6399SOL    HW220097   4.986   0.014   3.912
 6400SOL     OW20098   5.024   0.453   4.415
 6400SOL    HW120099   4.965   0.533   4.419
 6400SOL    HW220100   5.039   0.418   4.508
 6401SOL     OW20101   5.317   0.221   4.606
 6401SOL    HW120102   5.233   0.220   4.660
 6401SOL    HW220103   5.319   0.304   4.550
 6402SOL     OW20104   3.763   1.077   4.024
 6402SOL    HW120105   3.862   1.066   4.015
 6402SOL    HW220106   3.723   0.991   4.056
 6403SOL     OW20107   4.599   1.646   4.061
 6403SOL    HW120108   4.522   1.611   4.007
 6403SOL    HW220109   4.567   1.717   4.123
 6404SOL     OW20110   3.954   0.628   5.699
 6404SOL    HW120111   3.861   0.626   5.736
 6404SOL    HW220112   3.955   0.589   5.607
 6405SOL     OW20113   3.949   0.275   6.582
 6405SOL    HW120114   3.984   0.258   6.674
 6405SOL    HW220115   3.861   0.230   6.570
 6406SOL     OW20116   3.743   0.368   6.233
 6406SOL    HW120117   3.661   0.411   6.272
 6406SOL    HW220118   3.715   0.295   6.170
 6407SOL     OW20119   4.293   1.275   6.751
 6407SOL    HW120120   4.200   1.268   6.714
 6407SOL    HW220121   4.304   1.364   6.795
 6408SOL     OW20122   5.279   1.511   6.289
 6408SOL    HW120123   5.222   1.495   6.370
 6408SOL    HW220124   5.220   1.521   6.209
 6409SOL     OW20125   4.859   0.703   6.303
 6409SOL    HW120126   4.916   0.781   6.278
 6409SOL    HW220127   4.799   0.729   6.379
 6410SOL     OW20128   5.479   0.607   5.817
 6410SOL    HW120129   5.467   0.594   5.718
 6410SOL    HW220130   5.449   0.526   5.866
 6411SOL     OW20131   4.492   1.144   6.609
 6411SOL    HW120132   4.414   1.161   6.669
 6411SOL    HW220133   4.526   1.231   6.573
 6412SOL     OW20134   4.409   1.012   6.251
 6412SOL    HW120135   4.478   0.996   6.321
 6412SOL    HW220136   4.336   1.069   6.289
 6413SOL     OW20137   4.059   1.435   6.647
 6413SOL    HW120138   3.981   1.404   6.594
 6413SOL    HW220139   4.117   1.493   6.590
 6414SOL     OW20140   5.327   0.447   6.323
 6414SOL    HW120141   5.253   0.493   6.273
 6414SOL    HW220142   5.378   0.515   6.376
 6415SOL     OW20143   3.955   1.713   6.069
 6415SOL    HW120144   3.989   1.790   6.123
 6415SOL    HW220145   3.999   1.713   5.979
 6416SOL     OW20146   3.954   1.434   6.124
 6416SOL    HW120147   3.928   1.530   6.124
 6416SOL    HW220148   3.883   1.380   6.169
 6417SOL     OW20149   3.964   1.091   6.472
 6417SOL    HW120150   3.978   1.007   6.524
 6417SOL    HW220151   3.909   1.155   6.527
 6418SOL     OW20152   4.344   1.786   7.025
 6418SOL    HW120153   4.252   1.769   7.060
 6418SOL    HW220154   4.372   1.878   7.051
 6419SOL     OW20155   4.330   0.964   5.709
 6419SOL    HW120156   4.337   1.048   5.655
 6419SOL    HW220157   4.376   0.977   5.797
 6420SOL     OW20158   3.846   0.643   6.149
 6420SOL    HW120159   3.801   0.555   6.166
 6420SOL    HW220160   3.845   0.697   6.233
 6421SOL     OW20161   5.566   1.767   5.945
 6421SOL    HW120162   5.620   1.738   6.025
 6421SOL    HW220163   5.596   1.857   5.916
 6422SOL     OW20164   3.751   1.596   5.703
 6422SOL    HW120165   3.732   1.500   5.724
 6422SOL    HW220166   3.718   1.654   5.778
 6423SOL     OW20167   5.413   0.922   6.198
 6423SOL    HW120168   5.508   0.893   6.206
 6423SOL    HW220169   5.405   0.987   6.123
 6424SOL     OW20170   5.365   1.108   6.018
 6424SOL    HW120171   5.451   1.110   5.966
 6424SOL    HW220172   5.379   1.155   6.106
 6425SOL     OW20173   4.337   1.365   6.312
 6425SOL    HW120174   4.288   1.278   6.321
 6425SOL    HW220175   4.314   1.408   6.225
 6426SOL     OW20176   4.533   0.004   6.088
 6426SOL    HW120177   4.573   0.095   6.079
 6426SOL    HW220178   4.433   0.012   6.094
 6427SOL     OW20179   3.921   0.976   6.850
 6427SOL    HW120180   4.010   0.931   6.836
 6427SOL    HW220181   3.848   0.911   6.831
 6428SOL     OW20182   5.249   0.999   5.776
 6428SOL    HW120183   5.186   0.923   5.789
 6428SOL    HW220184   5.297   1.017   5.862
 6429SOL     OW20185   5.190   1.417   6.539
 6429SOL    HW120186   5.131   1.423   6.619
 6429SOL    HW220187   5.175   1.329   6.493
 6430SOL     OW20188   5.391   1.714   6.158
 6430SOL    HW120189   5.350   1.691   6.070
 6430SOL    HW220190   5.373   1.640   6.223
 6431SOL     OW20191   4.322   0.729   5.856
 6431SOL    HW120192   4.346   0.798   5.788
 6431SOL    HW220193   4.244   0.762   5.910
 6432SOL     OW20194   5.005   0.345   6.530
 6432SOL    HW120195   4.919   0.295   6.517
 6432SOL    HW220196   5.067   0.291   6.586
 6433SOL     OW20197   5.300   1.662   5.893
 6433SOL    HW120198   5.389   1.708   5.896
 6433SOL    HW220199   5.279   1.638   5.798
 6434SOL     OW20200   4.531   0.605   7.051
 6434SOL    HW120201   4.484   0.602   7.140
 6434SOL    HW220202   4.480   0.550   6.985
 6435SOL     OW20203   4.715   0.410   6.828
 6435SOL    HW120204   4.638   0.444   6.882
 6435SOL    HW220205   4.681   0.359   6.749
 6436SOL     OW20206   4.765   0.701   6.015
 6436SOL    HW120207   4.791   0.697   6.111
 6436SOL    HW220208   4.680   0.650   6.001
 6437SOL     OW20209   3.800   0.811   6.375
 6437SOL    HW120210   3.899   0.799   6.384
 6437SOL    HW220211   3.776   0.906   6.396
 6438SOL     OW20212   3.854   1.821   7.157
 6438SOL    HW120213   3.844   1.806   7.256
 6438SOL    HW220214   3.768   1.857   7.121
 6439SOL     OW20215   4.589   0.348   5.781
 6439SOL    HW120216   4.648   0.411   5.732
 6439SOL    HW220217   4.608   0.254   5.752
 6440SOL     OW20218   5.086   1.144   6.131
 6440SOL    HW120219   5.169   1.115   6.083
 6440SOL    HW220220   5.037   1.211   6.075
 6441SOL     OW20221   4.274   0.196   6.471
 6441SOL    HW120222   4.269   0.191   6.571
 6441SOL    HW220223   4.276   0.292   6.442
 6442SOL     OW20224   4.732   1.456   6.063
 6442SOL    HW120225   4.686   1.528   6.011
 6442SOL    HW220226   4.728   1.476   6.161
 6443SOL     OW20227   4.075   1.801   6.439
 6443SOL    HW120228   4.125   1.715   6.445
 6443SOL    HW220229   4.140   1.878   6.436
 6444SOL     OW20230   5.519   1.066   6.459
 6444SOL    HW120231   5.457   1.051   6.383
 6444SOL    HW220232   5.467   1.077   6.544
 6445SOL     OW20233   4.045   0.943   5.828
 6445SOL    HW120234   4.127   0.982   5.786
 6445SOL    HW220235   4.018   0.861   5.779
 6446SOL     OW20236   5.182   0.735   6.314
 6446SOL    HW120237   5.177   0.670   6.389
 6446SOL    HW220238   5.262   0.794   6.327
 6447SOL     OW20239   4.835   1.776   5.823
 6447SOL    HW120240   4.775   1.714   5.873
 6447SOL    HW220241   4.866   1.732   5.738
 6448SOL     OW20242   5.356   1.377   5.667
 6448SOL    HW120243   5.324   1.471   5.657
 6448SOL    HW220244   5.280   1.314   5.655
 6449SOL     OW20245   4.188   1.743   5.909
 6449SOL    HW120246   4.221   1.782   5.995
 6449SOL    HW220247   4.264   1.736   5.844
 6450SOL     OW20248   5.124   0.107   6.012
 6450SOL    HW120249   5.100   0.070   5.922
 6450SOL    HW220250   5.223   0.123   6.016
 6451SOL     OW20251   3.973   1.785   6.827
 6451SOL    HW120252   4.030   1.720   6.877
 6451SOL    HW220253   3.957   1.752   6.734
 6452SOL     OW20254   4.664   1.698   6.490
 6452SOL    HW120255   4.744   1.641   6.511
 6452SOL    HW220256   4.615   1.658   6.413
 6453SOL     OW20257   4.106   0.700   6.066
 6453SOL    HW120258   4.151   0.610   6.063
 6453SOL    HW220259   4.012   0.689   6.099
 6454SOL     OW20260   4.338   0.122   5.703
 6454SOL    HW120261   4.436   0.100   5.710
 6454SOL    HW220262   4.307   0.105   5.610
 6455SOL     OW20263   4.612   1.514   6.781
 6455SOL    HW120264   4.589   1.489   6.687
 6455SOL    HW220265   4.673   1.445   6.820
 6456SOL     OW20266   4.527   1.402   6.510
 6456SOL    HW120267   4.617   1.416   6.468
 6456SOL    HW220268   4.456   1.404   6.439
 6457SOL     OW20269   4.646   0.503   6.485
 6457SOL    HW120270   4.621   0.494   6.389
 6457SOL    HW220271   4.694   0.421   6.516
 6458SOL     OW20272   4.263   0.064   6.098
 6458SOL    HW120273   4.182   0.065   6.156
 6458SOL    HW220274   4.266   0.147   6.043
 6459SOL     OW20275   5.158   1.188   5.627
 6459SOL    HW120276   5.190   1.112   5.684
 6459SOL    HW220277   5.066   1.215   5.657
 6460SOL     OW20278   4.021   0.035   5.757
 6460SOL    HW120279   4.070   0.119   5.736
 6460SOL    HW220280   4.083  -0.030   5.802
 6461SOL     OW20281   4.659   0.236   6.066
 6461SOL    HW120282   4.611   0.277   5.988
 6461SOL    HW220283   4.758   0.234   6.047
 6462SOL     OW20284   4.951   1.570   6.379
 6462SOL    HW120285   4.972   1.644   6.314
 6462SOL    HW220286   5.019   1.570   6.452
 6463SOL     OW20287   4.183   1.152   6.327
 6463SOL    HW120288   4.112   1.125   6.392
 6463SOL    HW220289   4.157   1.124   6.234
 6464SOL     OW20290   4.995   1.797   6.177
 6464SOL    HW120291   5.039   1.861   6.113
 6464SOL    HW220292   4.945   1.849   6.247
 6465SOL     OW20293   4.756   0.549   5.602
 6465SOL    HW120294   4.715   0.631   5.563
 6465SOL    HW220295   4.820   0.575   5.675
 6466SOL     OW20296   4.285   0.222   6.733
 6466SOL    HW120297   4.323   0.138   6.770
 6466SOL    HW220298   4.197   0.241   6.777
 6467SOL     OW20299   4.590   0.454   6.228
 6467SOL    HW120300   4.558   0.526   6.166
 6467SOL    HW220301   4.614   0.373   6.175
 6468SOL     OW20302   4.741   0.039   6.339
 6468SOL    HW120303   4.669   0.044   6.270
 6468SOL    HW220304   4.717  -0.030   6.408
 6469SOL     OW20305   5.153   1.173   6.453
 6469SOL    HW120306   5.098   1.089   6.446
 6469SOL    HW220307   5.179   1.202   6.361
 6470SOL     OW20308   5.190   0.590   6.578
 6470SOL    HW120309   5.160   0.495   6.585
 6470SOL    HW220310   5.263   0.606   6.644
 6471SOL     OW20311   5.581   0.833   5.963
 6471SOL    HW120312   5.623   0.769   6.027
 6471SOL    HW220313   5.543   0.782   5.885
 6472SOL     OW20314   4.212   1.385   5.760
 6472SOL    HW120315   4.125   1.370   5.807
 6472SOL    HW220316   4.195   1.411   5.665
 6473SOL     OW20317   5.388   1.280   6.243
 6473SOL    HW120318   5.487   1.288   6.257
 6473SOL    HW220319   5.343   1.364   6.274
 6474SOL     OW20320   5.114   0.575   5.664
 6474SOL    HW120321   5.060   0.554   5.745
 6474SOL    HW220322   5.205   0.534   5.673
 6475SOL     OW20323   4.251   0.256   5.914
 6475SOL    HW120324   4.278   0.197   5.839
 6475SOL    HW220325   4.251   0.351   5.883
 6476SOL     OW20326   5.478   1.223   7.174
 6476SOL    HW120327   5.569   1.184   7.161
 6476SOL    HW220328   5.486   1.319   7.198
 6477SOL     OW20329   4.835   1.195   6.686
 6477SOL    HW120330   4.795   1.239   6.767
 6477SOL    HW220331   4.794   1.232   6.603
 6478SOL     OW20332   5.362   1.099   6.665
 6478SOL    HW120333   5.367   1.180   6.724
 6478SOL    HW220334   5.276   1.101   6.614
 6479SOL     OW20335   4.429   1.050   5.954
 6479SOL    HW120336   4.415   1.057   6.053
 6479SOL    HW220337   4.513   0.999   5.936
 6480SOL     OW20338   4.134   0.813   6.837
 6480SOL    HW120339   4.220   0.825   6.887
 6480SOL    HW220340   4.092   0.726   6.864
 6481SOL     OW20341   4.998   0.386   6.848
 6481SOL    HW120342   5.019   0.460   6.912
 6481SOL    HW220343   4.909   0.403   6.805
 6482SOL     OW20344   3.788   1.564   6.917
 6482SOL    HW120345   3.742   1.646   6.883
 6482SOL    HW220346   3.886   1.583   6.926
 6483SOL     OW20347   4.091   1.100   6.087
 6483SOL    HW120348   4.084   1.183   6.031
 6483SOL    HW220349   4.095   1.020   6.027
 6484SOL     OW20350   4.290   0.537   6.451
 6484SOL    HW120351   4.302   0.603   6.377
 6484SOL    HW220352   4.336   0.571   6.534
 6485SOL     OW20353   4.976   1.348   5.974
 6485SOL    HW120354   5.026   1.425   6.014
 6485SOL    HW220355   4.881   1.350   6.006
 6486SOL     OW20356   4.996   1.445   6.728
 6486SOL    HW120357   5.043   1.458   6.815
 6486SOL    HW220358   4.930   1.371   6.737
 6487SOL     OW20359   5.306   0.639   6.058
 6487SOL    HW120360   5.275   0.700   6.131
 6487SOL    HW220361   5.356   0.691   5.989
 6488SOL     OW20362   4.078   1.510   6.915
 6488SOL    HW120363   4.057   1.466   6.828
 6488SOL    HW220364   4.175   1.536   6.918
 6489SOL     OW20365   4.297   0.870   6.615
 6489SOL    HW120366   4.341   0.959   6.606
 6489SOL    HW220367   4.234   0.870   6.692
 6490SOL     OW20368   5.084   0.862   6.631
 6490SOL    HW120369   5.009   0.862   6.565
 6490SOL    HW220370   5.121   0.770   6.640
 6491SOL     OW20371   4.933   0.525   5.861
 6491SOL    HW120372   4.946   0.441   5.915
 6491SOL    HW220373   4.904   0.599   5.921
 6492SOL     OW20374   4.031   0.213   6.817
 6492SOL    HW120375   4.008   0.250   6.907
 6492SOL    HW220376   4.001   0.118   6.811
 6493SOL     OW20377   3.761   1.310   6.868
 6493SOL    HW120378   3.814   1.261   6.936
 6493SOL    HW220379   3.783   1.408   6.873
 6494SOL     OW20380   4.456   0.634   6.650
 6494SOL    HW120381   4.515   0.608   6.574
 6494SOL    HW220382   4.428   0.730   6.639
 6495SOL     OW20383   4.031   0.063   6.204
 6495SOL    HW120384   4.020   0.157   6.237
 6495SOL    HW220385   4.026   0.000   6.281
 6496SOL     OW20386   5.346   0.367   5.960
 6496SOL    HW120387   5.348   0.291   6.024
 6496SOL    HW220388   5.298   0.444   6.000
 6497SOL     OW20389   4.747   0.766   6.552
 6497SOL    HW120390   4.762   0.787   6.648
 6497SOL    HW220391   4.717   0.671   6.543
 6498SOL     OW20392   5.264   0.274   5.711
 6498SOL    HW120393   5.203   0.199   5.734
 6498SOL    HW220394   5.286   0.326   5.794
 6499SOL     OW20395   5.027   0.838   5.628
 6499SOL    HW120396   5.061   0.745   5.643
 6499SOL    HW220397   5.045   0.865   5.533
 6500SOL     OW20398   4.792   1.333   6.435
 6500SOL    HW120399   4.799   1.249   6.380
 6500SOL    HW220400   4.854   1.402   6.399
 6501SOL     OW20401   4.043   0.810   6.535
 6501SOL    HW120402   4.136   0.846   6.540
 6501SOL    HW220403   4.037   0.725   6.587
 6502SOL     OW20404   4.063   0.509   6.592
 6502SOL    HW120405   4.011   0.426   6.575
 6502SOL    HW220406   4.140   0.514   6.528
 6503SOL     OW20407   4.884   0.207   7.063
 6503SOL    HW120408   4.884   0.271   7.140
 6503SOL    HW220409   4.912   0.255   6.980
 6504SOL     OW20410   3.732   1.326   5.786
 6504SOL    HW120411   3.639   1.347   5.755
 6504SOL    HW220412   3.742   1.227   5.799
 6505SOL     OW20413   3.812   1.801   6.513
 6505SOL    HW120414   3.770   1.715   6.486
 6505SOL    HW220415   3.906   1.804   6.479
 6506SOL     OW20416   4.228   1.568   6.496
 6506SOL    HW120417   4.294   1.642   6.505
 6506SOL    HW220418   4.272   1.489   6.454
 6507SOL     OW20419   4.726   0.796   6.824
 6507SOL    HW120420   4.767   0.764   6.910
 6507SOL    HW220421   4.630   0.769   6.821
 6508SOL     OW20422   3.764   0.544   6.700
 6508SOL    HW120423   3.849   0.511   6.659
 6508SOL    HW220424   3.777   0.559   6.798
 6509SOL     OW20425   4.539   0.572   5.911
 6509SOL    HW120426   4.546   0.483   5.865
 6509SOL    HW220427   4.445   0.606   5.903
 6510SOL     OW20428   5.381   0.604   6.792
 6510SOL    HW120429   5.343   0.535   6.854
 6510SOL    HW220430   5.463   0.568   6.748
 6511SOL     OW20431   4.395   0.464   6.855
 6511SOL    HW120432   4.361   0.375   6.825
 6511SOL    HW220433   4.421   0.518   6.775
 6512SOL     OW20434   4.654   1.678   7.051
 6512SOL    HW120435   4.630   1.660   6.956
 6512SOL    HW220436   4.684   1.772   7.061
 6513SOL     OW20437   4.197   0.500   5.777
 6513SOL    HW120438   4.258   0.580   5.781
 6513SOL    HW220439   4.102   0.531   5.784
 6514SOL     OW20440   3.883   1.137   7.052
 6514SOL    HW120441   3.905   1.076   7.128
 6514SOL    HW220442   3.893   1.088   6.966
 6515SOL     OW20443   5.071   1.059   6.820
 6515SOL    HW120444   5.095   0.996   6.746
 6515SOL    HW220445   4.981   1.099   6.802
 6516SOL     OW20446   5.026   0.855   5.895
 6516SOL    HW120447   4.940   0.824   5.937
 6516SOL    HW220448   5.022   0.841   5.796
 6517SOL     OW20449   5.483   1.747   6.740
 6517SOL    HW120450   5.544   1.777   6.667
 6517SOL    HW220451   5.445   1.658   6.718
 6518SOL     OW20452   4.976   1.731   6.714
 6518SOL    HW120453   5.060   1.736   6.660
 6518SOL    HW220454   4.953   1.635   6.732
 6519SOL     OW20455   3.807   1.258   6.608
 6519SOL    HW120456   3.802   1.257   6.708
 6519SOL    HW220457   3.724   1.217   6.570
 6520SOL     OW20458   5.450   0.135   6.109
 6520SOL    HW120459   5.523   0.118   6.042
 6520SOL    HW220460   5.419   0.048   6.147
 6521SOL     OW20461   5.112   1.573   6.063
 6521SOL    HW120462   5.179   1.585   5.989
 6521SOL    HW220463   5.072   1.662   6.086
 6522SOL     OW20464   5.004   0.927   6.258
 6522SOL    HW120465   5.064   0.846   6.260
 6522SOL    HW220466   5.044   0.996   6.198
 6523SOL     OW20467   4.396   1.616   5.740
 6523SOL    HW120468   4.405   1.626   5.641
 6523SOL    HW220469   4.356   1.527   5.761
 6524SOL     OW20470   5.565   0.175   6.549
 6524SOL    HW120471   5.604   0.090   6.513
 6524SOL    HW220472   5.467   0.177   6.530
 6525SOL     OW20473   3.987   0.326   6.306
 6525SOL    HW120474   3.908   0.377   6.272
 6525SOL    HW220475   3.978   0.311   6.404
 6526SOL     OW20476   4.918   1.612   5.617
 6526SOL    HW120477   4.924   1.519   5.654
 6526SOL    HW220478   4.859   1.612   5.537
 6527SOL     OW20479   4.546   1.002   6.958
 6527SOL    HW120480   4.586   1.001   6.866
 6527SOL    HW220481   4.556   1.094   6.998
 6528SOL     OW20482   4.640   0.910   5.877
 6528SOL    HW120483   4.703   0.948   5.809
 6528SOL    HW220484   4.680   0.827   5.916
 6529SOL     OW20485   5.228   1.607   5.630
 6529SOL    HW120486   5.136   1.644   5.637
 6529SOL    HW220487   5.266   1.627   5.540
 6530SOL     OW20488   5.338   1.292   6.875
 6530SOL    HW120489   5.398   1.295   6.955
 6530SOL    HW220490   5.263   1.356   6.888
 6531SOL     OW20491   4.763   1.098   6.282
 6531SOL    HW120492   4.693   1.051   6.336
 6531SOL    HW220493   4.822   1.030   6.239
 6532SOL     OW20494   4.738   0.236   6.557
 6532SOL    HW120495   4.730   0.200   6.464
 6532SOL    HW220496   4.736   0.160   6.622
 6533SOL     OW20497   4.314   1.487   6.077
 6533SOL    HW120498   4.356   1.429   6.007
 6533SOL    HW220499   4.270   1.566   6.033
 6534SOL     OW20500   5.433   0.385   6.967
 6534SOL    HW120501   5.506   0.454   6.971
 6534SOL    HW220502   5.461   0.310   6.908
 6535SOL     OW20503   3.979   1.348   5.876
 6535SOL    HW120504   3.883   1.349   5.849
 6535SOL    HW220505   3.991   1.401   5.960
 6536SOL     OW20506   3.799   0.345   5.619
 6536SOL    HW120507   3.707   0.317   5.590
 6536SOL    HW220508   3.830   0.422   5.563
 6537SOL     OW20509   3.796   0.166   5.904
 6537SOL    HW120510   3.779   0.249   5.850
 6537SOL    HW220511   3.886   0.129   5.882
 6538SOL     OW20512   4.907   1.335   5.705
 6538SOL    HW120513   4.808   1.324   5.707
 6538SOL    HW220514   4.941   1.350   5.798
 6539SOL     OW20515   5.217   1.767   6.545
 6539SOL    HW120516   5.250   1.831   6.476
 6539SOL    HW220517   5.283   1.761   6.620
 6540SOL     OW20518   5.174   1.220   7.219
 6540SOL    HW120519   5.165   1.210   7.318
 6540SOL    HW220520   5.270   1.213   7.193
 6541SOL     OW20521   4.114   1.741   7.146
 6541SOL    HW120522   4.023   1.782   7.144
 6541SOL    HW220523   4.107   1.647   7.178
 6542SOL     OW20524   5.398   0.883   6.840
 6542SOL    HW120525   5.371   0.794   6.803
 6542SOL    HW220526   5.399   0.951   6.767
 6543SOL     OW20527   4.949   0.325   6.035
 6543SOL    HW120528   5.014   0.251   6.024
 6543SOL    HW220529   4.969   0.375   6.119
 6544SOL     OW20530   4.318   0.745   6.238
 6544SOL    HW120531   4.368   0.830   6.219
 6544SOL    HW220532   4.230   0.747   6.190
 6545SOL     OW20533   5.454   0.934   7.103
 6545SOL    HW120534   5.492   1.025   7.118
 6545SOL    HW220535   5.446   0.917   7.004
 6546SOL     OW20536   4.583   1.374   5.602
 6546SOL    HW120537   4.537   1.389   5.690
 6546SOL    HW220538   4.627   1.459   5.572
 6547SOL     OW20539   4.385   1.790   6.539
 6547SOL    HW120540   4.339   1.878   6.526
 6547SOL    HW220541   4.484   1.802   6.532
 6548SOL     OW20542   4.583   0.956   6.447
 6548SOL    HW120543   4.637   0.887   6.495
 6548SOL    HW220544   4.551   1.025   6.513
 6549SOL     OW20545   4.807   0.984   5.673
 6549SOL    HW120546   4.784   1.037   5.591
 6549SOL    HW220547   4.888   0.928   5.654
 6550SOL     OW20548   5.585   1.569   6.437
 6550SOL    HW120549   5.514   1.557   6.367
 6550SOL    HW220550   5.586   1.490   6.497
 6551SOL     OW20551   3.803   1.240   6.239
 6551SOL    HW120552   3.802   1.193   6.327
 6551SOL    HW220553   3.885   1.212   6.188
 6552SOL     OW20554   5.548   0.192   6.813
 6552SOL    HW120555   5.544   0.102   6.857
 6552SOL    HW220556   5.551   0.181   6.714
 6553SOL     OW20557   4.152   0.424   6.106
 6553SOL    HW120558   4.182   0.352   6.044
 6553SOL    HW220559   4.113   0.384   6.189
 6554SOL     OW20560   5.429   1.487   6.690
 6554SOL    HW120561   5.336   1.462   6.663
 6554SOL    HW220562   5.455   1.437   6.772
 6555SOL     OW20563   4.041   0.547   6.866
 6555SOL    HW120564   4.079   0.488   6.938
 6555SOL    HW220565   4.081   0.521   6.778
 6556SOL     OW20566   4.536   1.586   6.273
 6556SOL    HW120567   4.568   1.596   6.179
 6556SOL    HW220568   4.457   1.524   6.275
 6557SOL     OW20569   5.148   0.214   6.698
 6557SOL    HW120570   5.200   0.149   6.753
 6557SOL    HW220571   5.099   0.277   6.759
 6558SOL     OW20572   4.725   0.034   6.740
 6558SOL    HW120573   4.662  -0.038   6.709
 6558SOL    HW220574   4.818  -0.002   6.740
 6559SOL     OW20575   4.494   1.330   5.887
 6559SOL    HW120576   4.448   1.243   5.904
 6559SOL    HW220577   4.585   1.327   5.928
 6560SOL     OW20578   4.342   1.567   6.870
 6560SOL    HW120579   4.337   1.649   6.927
 6560SOL    HW220580   4.431   1.564   6.825
 6561SOL     OW20581   5.076   0.052   5.754
 6561SOL    HW120582   5.111   0.011   5.670
 6561SOL    HW220583   4.986   0.014   5.774
 6562SOL     OW20584   5.024   0.453   6.277
 6562SOL    HW120585   4.965   0.533   6.281
 6562SOL    HW220586   5.039   0.418   6.370
 6563SOL     OW20587   5.317   0.221   6.468
 6563SOL    HW120588   5.233   0.220   6.522
 6563SOL    HW220589   5.319   0.304   6.412
 6564SOL     OW20590   3.763   1.077   5.886
 6564SOL    HW120591   3.862   1.066   5.877
 6564SOL    HW220592   3.723   0.991   5.918
 6565SOL     OW20593   4.599   1.646   5.923
 6565SOL    HW120594   4.522   1.611   5.869
 6565SOL    HW220595   4.567   1.717   5.985
 6566SOL     OW20596   3.954   2.490   0.113
 6566SOL    HW120597   3.861   2.488   0.150
 6566SOL    HW220598   3.955   2.451   0.021
 6567SOL     OW20599   3.949   2.137   0.996
 6567SOL    HW120600   3.984   2.120   1.088
 6567SOL    HW220601   3.861   2.092   0.984
 6568SOL     OW20602   3.743   2.230   0.647
 6568SOL    HW120603   3.661   2.273   0.686
 6568SOL    HW220604   3.715   2.157   0.584
 6569SOL     OW20605   5.279   3.373   0.703
 6569SOL    HW120606   5.222   3.357   0.784
 6569SOL    HW220607   5.220   3.383   0.623
 6570SOL     OW20608   4.859   2.565   0.717
 6570SOL    HW120609   4.916   2.643   0.692
 6570SOL    HW220610   4.799   2.591   0.793
 6571SOL     OW20611   5.479   2.469   0.231
 6571SOL    HW120612   5.467   2.456   0.132
 6571SOL    HW220613   5.449   2.388   0.280
 6572SOL     OW20614   4.492   3.006   1.023
 6572SOL    HW120615   4.414   3.023   1.083
 6572SOL    HW220616   4.526   3.093   0.987
 6573SOL     OW20617   4.574   2.660   1.823
 6573SOL    HW120618   4.570   2.736   1.888
 6573SOL    HW220619   4.596   2.696   1.732
 6574SOL     OW20620   4.409   2.874   0.665
 6574SOL    HW120621   4.478   2.858   0.735
 6574SOL    HW220622   4.336   2.931   0.703
 6575SOL     OW20623   5.184   3.367   1.339
 6575SOL    HW120624   5.208   3.461   1.365
 6575SOL    HW220625   5.168   3.313   1.421
 6576SOL     OW20626   4.162   2.254   1.499
 6576SOL    HW120627   4.244   2.198   1.508
 6576SOL    HW220628   4.081   2.196   1.503
 6577SOL     OW20629   5.327   2.309   0.737
 6577SOL    HW120630   5.253   2.355   0.687
 6577SOL    HW220631   5.378   2.377   0.790
 6578SOL     OW20632   3.955   3.575   0.483
 6578SOL    HW120633   3.989   3.652   0.537
 6578SOL    HW220634   3.999   3.575   0.393
 6579SOL     OW20635   4.851   3.203   1.690
 6579SOL    HW120636   4.898   3.203   1.778
 6579SOL    HW220637   4.803   3.116   1.679
 6580SOL     OW20638   3.954   3.296   0.538
 6580SOL    HW120639   3.928   3.392   0.538
 6580SOL    HW220640   3.883   3.242   0.583
 6581SOL     OW20641   3.964   2.953   0.886
 6581SOL    HW120642   3.978   2.869   0.938
 6581SOL    HW220643   3.909   3.017   0.941
 6582SOL     OW20644   4.344   3.648   1.439
 6582SOL    HW120645   4.252   3.631   1.474
 6582SOL    HW220646   4.372   3.740   1.465
 6583SOL     OW20647   4.330   2.826   0.123
 6583SOL    HW120648   4.337   2.910   0.069
 6583SOL    HW220649   4.376   2.839   0.211
 6584SOL     OW20650   5.318   1.976   1.480
 6584SOL    HW120651   5.300   2.043   1.408
 6584SOL    HW220652   5.315   2.022   1.569
 6585SOL     OW20653   3.846   2.505   0.563
 6585SOL    HW120654   3.801   2.417   0.580
 6585SOL    HW220655   3.845   2.559   0.647
 6586SOL     OW20656   5.566   3.629   0.359
 6586SOL    HW120657   5.620   3.600   0.439
 6586SOL    HW220658   5.596   3.719   0.330
 6587SOL     OW20659   3.751   3.458   0.117
 6587SOL    HW120660   3.732   3.362   0.138
 6587SOL    HW220661   3.718   3.516   0.192
 6588SOL     OW20662   5.413   2.784   0.612
 6588SOL    HW120663   5.508   2.755   0.620
 6588SOL    HW220664   5.405   2.849   0.537
 6589SOL     OW20665   5.365   2.970   0.432
 6589SOL    HW120666   5.451   2.972   0.380
 6589SOL    HW220667   5.379   3.017   0.520
 6590SOL     OW20668   3.837   2.599   1.597
 6590SOL    HW120669   3.925   2.586   1.642
 6590SOL    HW220670   3.824   2.696   1.575
 6591SOL     OW20671   4.337   3.227   0.726
 6591SOL    HW120672   4.288   3.140   0.735
 6591SOL    HW220673   4.314   3.270   0.639
 6592SOL     OW20674   5.017   3.090   1.423
 6592SOL    HW120675   5.054   3.017   1.365
 6592SOL    HW220676   5.069   3.095   1.508
 6593SOL     OW20677   4.533   1.866   0.502
 6593SOL    HW120678   4.573   1.957   0.493
 6593SOL    HW220679   4.433   1.874   0.508
 6594SOL     OW20680   3.921   2.838   1.264
 6594SOL    HW120681   4.010   2.793   1.250
 6594SOL    HW220682   3.848   2.773   1.245
 6595SOL     OW20683   5.249   2.861   0.190
 6595SOL    HW120684   5.186   2.785   0.203
 6595SOL    HW220685   5.297   2.879   0.276
 6596SOL     OW20686   4.911   3.654   1.616
 6596SOL    HW120687   4.935   3.714   1.540
 6596SOL    HW220688   4.918   3.559   1.586
 6597SOL     OW20689   4.041   2.113   1.801
 6597SOL    HW120690   4.112   2.184   1.807
 6597SOL    HW220691   3.953   2.152   1.829
 6598SOL     OW20692   5.190   3.279   0.953
 6598SOL    HW120693   5.131   3.285   1.033
 6598SOL    HW220694   5.175   3.191   0.907
 6599SOL     OW20695   5.391   3.576   0.572
 6599SOL    HW120696   5.350   3.553   0.484
 6599SOL    HW220697   5.373   3.502   0.637
 6600SOL     OW20698   4.322   2.591   0.270
 6600SOL    HW120699   4.346   2.660   0.202
 6600SOL    HW220700   4.244   2.624   0.324
 6601SOL     OW20701   5.005   2.207   0.944
 6601SOL    HW120702   4.919   2.157   0.931
 6601SOL    HW220703   5.067   2.153   1.000
 6602SOL     OW20704   5.300   3.524   0.307
 6602SOL    HW120705   5.389   3.570   0.310
 6602SOL    HW220706   5.279   3.500   0.212
 6603SOL     OW20707   4.531   2.467   1.465
 6603SOL    HW120708   4.484   2.464   1.554
 6603SOL    HW220709   4.480   2.412   1.399
 6604SOL     OW20710   5.118   2.331   1.674
 6604SOL    HW120711   5.098   2.374   1.762
 6604SOL    HW220712   5.196   2.269   1.683
 6605SOL     OW20713   4.697   2.752   1.572
 6605SOL    HW120714   4.743   2.668   1.543
 6605SOL    HW220715   4.641   2.786   1.497
 6606SOL     OW20716   4.715   2.272   1.242
 6606SOL    HW120717   4.638   2.306   1.296
 6606SOL    HW220718   4.681   2.221   1.163
 6607SOL     OW20719   4.765   2.563   0.429
 6607SOL    HW120720   4.791   2.559   0.525
 6607SOL    HW220721   4.680   2.512   0.415
 6608SOL     OW20722   3.800   2.673   0.789
 6608SOL    HW120723   3.899   2.661   0.798
 6608SOL    HW220724   3.776   2.768   0.810
 6609SOL     OW20725   3.854   3.683   1.571
 6609SOL    HW120726   3.844   3.668   1.670
 6609SOL    HW220727   3.768   3.719   1.535
 6610SOL     OW20728   4.589   2.210   0.195
 6610SOL    HW120729   4.648   2.273   0.146
 6610SOL    HW220730   4.608   2.116   0.166
 6611SOL     OW20731   5.443   2.447   1.831
 6611SOL    HW120732   5.417   2.536   1.795
 6611SOL    HW220733   5.441   2.379   1.758
 6612SOL     OW20734   5.086   3.006   0.545
 6612SOL    HW120735   5.169   2.977   0.497
 6612SOL    HW220736   5.037   3.073   0.489
 6613SOL     OW20737   4.274   2.058   0.885
 6613SOL    HW120738   4.269   2.053   0.985
 6613SOL    HW220739   4.276   2.154   0.856
 6614SOL     OW20740   4.732   3.318   0.477
 6614SOL    HW120741   4.686   3.390   0.425
 6614SOL    HW220742   4.728   3.338   0.575
 6615SOL     OW20743   4.075   3.663   0.853
 6615SOL    HW120744   4.125   3.577   0.859
 6615SOL    HW220745   4.140   3.740   0.850
 6616SOL     OW20746   5.519   2.928   0.873
 6616SOL    HW120747   5.457   2.913   0.797
 6616SOL    HW220748   5.467   2.939   0.958
 6617SOL     OW20749   4.951   3.412   1.506
 6617SOL    HW120750   4.957   3.335   1.570
 6617SOL    HW220751   4.899   3.386   1.426
 6618SOL     OW20752   4.045   2.805   0.242
 6618SOL    HW120753   4.127   2.844   0.200
 6618SOL    HW220754   4.018   2.723   0.193
 6619SOL     OW20755   5.182   2.597   0.728
 6619SOL    HW120756   5.177   2.532   0.803
 6619SOL    HW220757   5.262   2.656   0.741
 6620SOL     OW20758   4.185   3.128   1.727
 6620SOL    HW120759   4.135   3.129   1.641
 6620SOL    HW220760   4.122   3.110   1.803
 6621SOL     OW20761   4.835   3.638   0.237
 6621SOL    HW120762   4.775   3.576   0.287
 6621SOL    HW220763   4.866   3.594   0.152
 6622SOL     OW20764   3.926   2.147   1.498
 6622SOL    HW120765   3.846   2.207   1.485
 6622SOL    HW220766   3.916   2.098   1.584
 6623SOL     OW20767   5.356   3.239   0.081
 6623SOL    HW120768   5.324   3.333   0.071
 6623SOL    HW220769   5.280   3.176   0.069
 6624SOL     OW20770   4.188   3.605   0.323
 6624SOL    HW120771   4.221   3.644   0.409
 6624SOL    HW220772   4.264   3.598   0.258
 6625SOL     OW20773   3.973   3.647   1.241
 6625SOL    HW120774   4.030   3.582   1.291
 6625SOL    HW220775   3.957   3.614   1.148
 6626SOL     OW20776   4.664   3.560   0.904
 6626SOL    HW120777   4.744   3.503   0.925
 6626SOL    HW220778   4.615   3.520   0.827
 6627SOL     OW20779   4.106   2.562   0.480
 6627SOL    HW120780   4.151   2.472   0.477
 6627SOL    HW220781   4.012   2.551   0.513
 6628SOL     OW20782   5.271   2.084   1.729
 6628SOL    HW120783   5.266   2.121   1.821
 6628SOL    HW220784   5.199   2.015   1.717
 6629SOL     OW20785   4.505   2.126   1.749
 6629SOL    HW120786   4.572   2.065   1.792
 6629SOL    HW220787   4.432   2.145   1.814
 6630SOL     OW20788   4.612   3.376   1.195
 6630SOL    HW120789   4.589   3.351   1.101
 6630SOL    HW220790   4.673   3.307   1.234
 6631SOL     OW20791   5.075   2.452   1.433
 6631SOL    HW120792   5.103   2.409   1.518
 6631SOL    HW220793   5.100   2.548   1.434
 6632SOL     OW20794   4.527   3.264   0.924
 6632SOL    HW120795   4.617   3.278   0.882
 6632SOL    HW220796   4.456   3.266   0.853
 6633SOL     OW20797   4.646   2.365   0.899
 6633SOL    HW120798   4.621   2.356   0.803
 6633SOL    HW220799   4.694   2.283   0.930
 6634SOL     OW20800   4.263   1.926   0.512
 6634SOL    HW120801   4.182   1.927   0.570
 6634SOL    HW220802   4.266   2.009   0.457
 6635SOL     OW20803   5.158   3.050   0.041
 6635SOL    HW120804   5.190   2.974   0.098
 6635SOL    HW220805   5.066   3.077   0.071
 6636SOL     OW20806   4.659   2.098   0.480
 6636SOL    HW120807   4.611   2.139   0.402
 6636SOL    HW220808   4.758   2.096   0.461
 6637SOL     OW20809   4.800   2.545   1.464
 6637SOL    HW120810   4.720   2.484   1.467
 6637SOL    HW220811   4.881   2.492   1.440
 6638SOL     OW20812   4.951   3.432   0.793
 6638SOL    HW120813   4.972   3.506   0.728
 6638SOL    HW220814   5.019   3.432   0.866
 6639SOL     OW20815   4.183   3.014   0.741
 6639SOL    HW120816   4.112   2.987   0.806
 6639SOL    HW220817   4.157   2.986   0.648
 6640SOL     OW20818   4.995   3.659   0.591
 6640SOL    HW120819   5.039   3.723   0.527
 6640SOL    HW220820   4.945   3.711   0.661
 6641SOL     OW20821   4.756   2.411   0.016
 6641SOL    HW120822   4.715   2.493  -0.023
 6641SOL    HW220823   4.820   2.437   0.089
 6642SOL     OW20824   3.802   2.418   1.386
 6642SOL    HW120825   3.894   2.417   1.345
 6642SOL    HW220826   3.796   2.492   1.453
 6643SOL     OW20827   4.285   2.084   1.147
 6643SOL    HW120828   4.323   2.000   1.184
 6643SOL    HW220829   4.197   2.103   1.191
 6644SOL     OW20830   4.590   2.316   0.642
 6644SOL    HW120831   4.558   2.388   0.580
 6644SOL    HW220832   4.614   2.235   0.589
 6645SOL     OW20833   4.741   1.901   0.753
 6645SOL    HW120834   4.669   1.906   0.684
 6645SOL    HW220835   4.717   1.832   0.822
 6646SOL     OW20836   5.153   3.035   0.867
 6646SOL    HW120837   5.098   2.951   0.860
 6646SOL    HW220838   5.179   3.064   0.775
 6647SOL     OW20839   5.190   2.452   0.992
 6647SOL    HW120840   5.160   2.357   0.999
 6647SOL    HW220841   5.263   2.468   1.058
 6648SOL     OW20842   5.581   2.695   0.377
 6648SOL    HW120843   5.623   2.631   0.441
 6648SOL    HW220844   5.543   2.644   0.299
 6649SOL     OW20845   4.212   3.247   0.174
 6649SOL    HW120846   4.125   3.232   0.221
 6649SOL    HW220847   4.195   3.273   0.079
 6650SOL     OW20848   5.388   3.142   0.657
 6650SOL    HW120849   5.487   3.150   0.671
 6650SOL    HW220850   5.343   3.226   0.688
 6651SOL     OW20851   5.114   2.437   0.078
 6651SOL    HW120852   5.060   2.416   0.159
 6651SOL    HW220853   5.205   2.396   0.087
 6652SOL     OW20854   4.251   2.118   0.328
 6652SOL    HW120855   4.278   2.059   0.253
 6652SOL    HW220856   4.251   2.213   0.297
 6653SOL     OW20857   5.478   3.085   1.588
 6653SOL    HW120858   5.569   3.046   1.575
 6653SOL    HW220859   5.486   3.181   1.612
 6654SOL     OW20860   4.788   3.209   1.340
 6654SOL    HW120861   4.708   3.186   1.395
 6654SOL    HW220862   4.871   3.183   1.389
 6655SOL     OW20863   5.316   3.491   1.625
 6655SOL    HW120864   5.343   3.525   1.535
 6655SOL    HW220865   5.395   3.453   1.671
 6656SOL     OW20866   4.835   3.057   1.100
 6656SOL    HW120867   4.795   3.101   1.181
 6656SOL    HW220868   4.794   3.094   1.017
 6657SOL     OW20869   5.362   2.961   1.079
 6657SOL    HW120870   5.367   3.042   1.138
 6657SOL    HW220871   5.276   2.963   1.028
 6658SOL     OW20872   4.639   1.951   1.402
 6658SOL    HW120873   4.664   1.931   1.307
 6658SOL    HW220874   4.711   2.007   1.444
 6659SOL     OW20875   4.429   2.912   0.368
 6659SOL    HW120876   4.415   2.919   0.467
 6659SOL    HW220877   4.513   2.861   0.350
 6660SOL     OW20878   4.134   2.675   1.251
 6660SOL    HW120879   4.220   2.687   1.301
 6660SOL    HW220880   4.092   2.588   1.278
 6661SOL     OW20881   4.998   2.248   1.262
 6661SOL    HW120882   5.019   2.322   1.326
 6661SOL    HW220883   4.909   2.265   1.219
 6662SOL     OW20884   3.788   3.426   1.331
 6662SOL    HW120885   3.742   3.508   1.297
 6662SOL    HW220886   3.886   3.445   1.340
 6663SOL     OW20887   4.091   2.962   0.501
 6663SOL    HW120888   4.084   3.045   0.445
 6663SOL    HW220889   4.095   2.882   0.441
 6664SOL     OW20890   4.290   2.399   0.865
 6664SOL    HW120891   4.302   2.465   0.791
 6664SOL    HW220892   4.336   2.433   0.948
 6665SOL     OW20893   4.976   3.210   0.388
 6665SOL    HW120894   5.026   3.287   0.428
 6665SOL    HW220895   4.881   3.212   0.420
 6666SOL     OW20896   4.996   3.307   1.142
 6666SOL    HW120897   5.043   3.320   1.229
 6666SOL    HW220898   4.930   3.233   1.151
 6667SOL     OW20899   5.306   2.501   0.472
 6667SOL    HW120900   5.275   2.562   0.545
 6667SOL    HW220901   5.356   2.553   0.403
 6668SOL     OW20902   4.126   2.613   1.598
 6668SOL    HW120903   4.194   2.668   1.551
 6668SOL    HW220904   4.166   2.525   1.625
 6669SOL     OW20905   5.311   2.641   1.670
 6669SOL    HW120906   5.219   2.679   1.665
 6669SOL    HW220907   5.371   2.688   1.605
 6670SOL     OW20908   4.737   1.967   1.770
 6670SOL    HW120909   4.743   2.052   1.718
 6670SOL    HW220910   4.769   1.891   1.713
 6671SOL     OW20911   4.228   1.912   1.740
 6671SOL    HW120912   4.186   1.855   1.670
 6671SOL    HW220913   4.162   1.981   1.772
 6672SOL     OW20914   4.297   2.732   1.029
 6672SOL    HW120915   4.341   2.821   1.020
 6672SOL    HW220916   4.234   2.732   1.106
 6673SOL     OW20917   5.084   2.724   1.045
 6673SOL    HW120918   5.009   2.724   0.979
 6673SOL    HW220919   5.121   2.632   1.054
 6674SOL     OW20920   4.933   2.387   0.275
 6674SOL    HW120921   4.946   2.303   0.329
 6674SOL    HW220922   4.904   2.461   0.335
 6675SOL     OW20923   4.031   2.075   1.231
 6675SOL    HW120924   4.008   2.112   1.321
 6675SOL    HW220925   4.001   1.980   1.225
 6676SOL     OW20926   4.456   2.496   1.064
 6676SOL    HW120927   4.515   2.470   0.988
 6676SOL    HW220928   4.428   2.592   1.053
 6677SOL     OW20929   5.452   2.797   1.854
 6677SOL    HW120930   5.406   2.790   1.765
 6677SOL    HW220931   5.390   2.841   1.920
 6678SOL     OW20932   4.031   1.925   0.618
 6678SOL    HW120933   4.020   2.019   0.651
 6678SOL    HW220934   4.026   1.862   0.695
 6679SOL     OW20935   5.346   2.229   0.374
 6679SOL    HW120936   5.348   2.153   0.438
 6679SOL    HW220937   5.298   2.306   0.414
 6680SOL     OW20938   4.747   2.628   0.966
 6680SOL    HW120939   4.762   2.649   1.062
 6680SOL    HW220940   4.717   2.533   0.957
 6681SOL     OW20941   4.704   3.435   1.700
 6681SOL    HW120942   4.684   3.479   1.612
 6681SOL    HW220943   4.743   3.344   1.684
 6682SOL     OW20944   5.583   3.380   1.605
 6682SOL    HW120945   5.597   3.407   1.510
 6682SOL    HW220946   5.666   3.402   1.658
 6683SOL     OW20947   5.264   2.136   0.125
 6683SOL    HW120948   5.203   2.061   0.148
 6683SOL    HW220949   5.286   2.188   0.208
 6684SOL     OW20950   5.027   2.700   0.042
 6684SOL    HW120951   5.061   2.607   0.057
 6684SOL    HW220952   5.045   2.727  -0.053
 6685SOL     OW20953   4.792   3.195   0.849
 6685SOL    HW120954   4.799   3.111   0.794
 6685SOL    HW220955   4.854   3.264   0.813
 6686SOL     OW20956   4.043   2.672   0.949
 6686SOL    HW120957   4.136   2.708   0.954
 6686SOL    HW220958   4.037   2.587   1.001
 6687SOL     OW20959   4.063   2.371   1.006
 6687SOL    HW120960   4.011   2.288   0.989
 6687SOL    HW220961   4.140   2.376   0.942
 6688SOL     OW20962   4.862   2.242   1.678
 6688SOL    HW120963   4.817   2.305   1.742
 6688SOL    HW220964   4.955   2.273   1.661
 6689SOL     OW20965   4.884   2.069   1.477
 6689SOL    HW120966   4.884   2.133   1.554
 6689SOL    HW220967   4.912   2.117   1.394
 6690SOL     OW20968   4.228   3.430   0.910
 6690SOL    HW120969   4.294   3.504   0.919
 6690SOL    HW220970   4.272   3.351   0.868
 6691SOL     OW20971   4.726   2.658   1.238
 6691SOL    HW120972   4.767   2.626   1.324
 6691SOL    HW220973   4.630   2.631   1.235
 6692SOL     OW20974   3.764   2.406   1.114
 6692SOL    HW120975   3.849   2.373   1.073
 6692SOL    HW220976   3.777   2.421   1.212
 6693SOL     OW20977   3.913   2.382   1.722
 6693SOL    HW120978   3.972   2.342   1.652
 6693SOL    HW220979   3.855   2.453   1.681
 6694SOL     OW20980   5.093   2.812   1.660
 6694SOL    HW120981   5.132   2.901   1.680
 6694SOL    HW220982   5.103   2.792   1.563
 6695SOL     OW20983   4.539   2.434   0.325
 6695SOL    HW120984   4.546   2.345   0.279
 6695SOL    HW220985   4.445   2.468   0.317
 6696SOL     OW20986   5.381   2.466   1.206
 6696SOL    HW120987   5.343   2.397   1.268
 6696SOL    HW220988   5.463   2.430   1.162
 6697SOL     OW20989   3.976   3.426   1.744
 6697SOL    HW120990   3.946   3.483   1.820
 6697SOL    HW220991   3.969   3.329   1.770
 6698SOL     OW20992   4.395   2.326   1.269
 6698SOL    HW120993   4.361   2.237   1.239
 6698SOL    HW220994   4.421   2.380   1.189
 6699SOL     OW20995   4.654   3.540   1.465
 6699SOL    HW120996   4.630   3.522   1.370
 6699SOL    HW220997   4.684   3.634   1.475
 6700SOL     OW20998   4.197   2.362   0.191
 6700SOL    HW120999   4.258   2.442   0.195
 6700SOL    HW221000   4.102   2.393   0.198
 6701SOL     OW21001   3.883   2.999   1.466
 6701SOL    HW121002   3.905   2.938   1.542
 6701SOL    HW221003   3.893   2.950   1.380
 6702SOL     OW21004   5.071   2.921   1.234
 6702SOL    HW121005   5.095   2.858   1.160
 6702SOL    HW221006   4.981   2.961   1.216
 6703SOL     OW21007   5.026   2.717   0.309
 6703SOL    HW121008   4.940   2.686   0.351
 6703SOL    HW221009   5.022   2.703   0.210
 6704SOL     OW21010   5.483   3.609   1.154
 6704SOL    HW121011   5.544   3.639   1.081
 6704SOL    HW221012   5.445   3.520   1.132
 6705SOL     OW21013   4.976   3.593   1.128
 6705SOL    HW121014   5.060   3.598   1.074
 6705SOL    HW221015   4.953   3.497   1.146
 6706SOL     OW21016   4.412   3.524   1.716
 6706SOL    HW121017   4.356   3.605   1.725
 6706SOL    HW221018   4.464   3.528   1.630
 6707SOL     OW21019   4.627   1.948   0.133
 6707SOL    HW121020   4.678   1.949   0.047
 6707SOL    HW221021   4.683   1.906   0.204
 6708SOL     OW21022   5.450   1.997   0.523
 6708SOL    HW121023   5.523   1.980   0.456
 6708SOL    HW221024   5.419   1.910   0.561
 6709SOL     OW21025   5.112   3.435   0.477
 6709SOL    HW121026   5.179   3.447   0.403
 6709SOL    HW221027   5.072   3.524   0.500
 6710SOL     OW21028   3.854   3.656   1.851
 6710SOL    HW121029   3.813   3.582   1.904
 6710SOL    HW221030   3.918   3.707   1.909
 6711SOL     OW21031   5.004   2.789   0.672
 6711SOL    HW121032   5.064   2.708   0.674
 6711SOL    HW221033   5.044   2.858   0.612
 6712SOL     OW21034   4.554   3.135   1.422
 6712SOL    HW121035   4.549   3.168   1.517
 6712SOL    HW221036   4.468   3.154   1.376
 6713SOL     OW21037   4.396   3.478   0.154
 6713SOL    HW121038   4.405   3.488   0.055
 6713SOL    HW221039   4.356   3.389   0.175
 6714SOL     OW21040   5.374   3.582   1.394
 6714SOL    HW121041   5.427   3.592   1.310
 6714SOL    HW221042   5.347   3.672   1.428
 6715SOL     OW21043   5.565   2.037   0.963
 6715SOL    HW121044   5.604   1.952   0.927
 6715SOL    HW221045   5.467   2.039   0.944
 6716SOL     OW21046   3.987   2.188   0.720
 6716SOL    HW121047   3.908   2.239   0.686
 6716SOL    HW221048   3.978   2.173   0.818
 6717SOL     OW21049   4.918   3.474   0.031
 6717SOL    HW121050   4.924   3.381   0.068
 6717SOL    HW221051   4.859   3.474  -0.049
 6718SOL     OW21052   4.546   2.864   1.372
 6718SOL    HW121053   4.586   2.863   1.280
 6718SOL    HW221054   4.556   2.956   1.412
 6719SOL     OW21055   4.640   2.772   0.291
 6719SOL    HW121056   4.703   2.810   0.223
 6719SOL    HW221057   4.680   2.689   0.330
 6720SOL     OW21058   5.228   3.469   0.044
 6720SOL    HW121059   5.136   3.506   0.051
 6720SOL    HW221060   5.266   3.489  -0.046
 6721SOL     OW21061   4.096   3.150   1.490
 6721SOL    HW121062   4.083   3.243   1.456
 6721SOL    HW221063   4.012   3.098   1.477
 6722SOL     OW21064   5.338   3.154   1.289
 6722SOL    HW121065   5.398   3.157   1.369
 6722SOL    HW221066   5.263   3.218   1.302
 6723SOL     OW21067   4.763   2.960   0.696
 6723SOL    HW121068   4.693   2.913   0.750
 6723SOL    HW221069   4.822   2.892   0.653
 6724SOL     OW21070   4.738   2.098   0.971
 6724SOL    HW121071   4.730   2.062   0.878
 6724SOL    HW221072   4.736   2.022   1.036
 6725SOL     OW21073   4.314   3.349   0.491
 6725SOL    HW121074   4.356   3.291   0.421
 6725SOL    HW221075   4.270   3.428   0.447
 6726SOL     OW21076   5.433   2.247   1.381
 6726SOL    HW121077   5.506   2.316   1.385
 6726SOL    HW221078   5.461   2.172   1.322
 6727SOL     OW21079   3.979   3.210   0.290
 6727SOL    HW121080   3.883   3.211   0.263
 6727SOL    HW221081   3.991   3.263   0.374
 6728SOL     OW21082   3.829   2.875   1.726
 6728SOL    HW121083   3.752   2.842   1.780
 6728SOL    HW221084   3.914   2.845   1.768
 6729SOL     OW21085   4.396   2.065   1.489
 6729SOL    HW121086   4.486   2.049   1.449
 6729SOL    HW221087   4.404   2.070   1.588
 6730SOL     OW21088   3.799   2.207   0.033
 6730SOL    HW121089   3.707   2.179   0.004
 6730SOL    HW221090   3.830   2.284  -0.023
 6731SOL     OW21091   5.164   2.718   1.398
 6731SOL    HW121092   5.107   2.770   1.335
 6731SOL    HW221093   5.260   2.730   1.374
 6732SOL     OW21094   3.796   2.028   0.318
 6732SOL    HW121095   3.779   2.111   0.264
 6732SOL    HW221096   3.886   1.991   0.296
 6733SOL     OW21097   4.907   3.197   0.119
 6733SOL    HW121098   4.808   3.186   0.121
 6733SOL    HW221099   4.941   3.212   0.212
 6734SOL     OW21100   4.337   2.704   1.431
 6734SOL    HW121101   4.393   2.785   1.414
 6734SOL    HW221102   4.396   2.624   1.434
 6735SOL     OW21103   5.217   3.629   0.959
 6735SOL    HW121104   5.250   3.693   0.890
 6735SOL    HW221105   5.283   3.623   1.034
 6736SOL     OW21106   4.440   2.427   1.708
 6736SOL    HW121107   4.459   2.492   1.782
 6736SOL    HW221108   4.500   2.347   1.717
 6737SOL     OW21109   5.174   3.082   1.633
 6737SOL    HW121110   5.165   3.072   1.732
 6737SOL    HW221111   5.270   3.075   1.607
 6738SOL     OW21112   4.114   3.603   1.560
 6738SOL    HW121113   4.023   3.644   1.558
 6738SOL    HW221114   4.107   3.509   1.592
 6739SOL     OW21115   5.398   2.745   1.254
 6739SOL    HW121116   5.371   2.656   1.217
 6739SOL    HW221117   5.399   2.813   1.181
 6740SOL     OW21118   4.949   2.187   0.449
 6740SOL    HW121119   5.014   2.113   0.438
 6740SOL    HW221120   4.969   2.237   0.533
 6741SOL     OW21121   4.318   2.607   0.652
 6741SOL    HW121122   4.368   2.692   0.633
 6741SOL    HW221123   4.230   2.609   0.604
 6742SOL     OW21124   5.501   2.204   1.642
 6742SOL    HW121125   5.484   2.235   1.548
 6742SOL    HW221126   5.417   2.167   1.680
 6743SOL     OW21127   5.454   2.796   1.517
 6743SOL    HW121128   5.492   2.887   1.532
 6743SOL    HW221129   5.446   2.779   1.418
 6744SOL     OW21130   4.583   3.236   0.016
 6744SOL    HW121131   4.537   3.251   0.104
 6744SOL    HW221132   4.627   3.321  -0.014
 6745SOL     OW21133   4.385   3.652   0.953
 6745SOL    HW121134   4.339   3.740   0.940
 6745SOL    HW221135   4.484   3.664   0.946
 6746SOL     OW21136   4.583   2.818   0.861
 6746SOL    HW121137   4.637   2.749   0.909
 6746SOL    HW221138   4.551   2.887   0.927
 6747SOL     OW21139   4.807   2.846   0.087
 6747SOL    HW121140   4.784   2.899   0.005
 6747SOL    HW221141   4.888   2.790   0.068
 6748SOL     OW21142   5.585   3.431   0.851
 6748SOL    HW121143   5.514   3.419   0.781
 6748SOL    HW221144   5.586   3.352   0.911
 6749SOL     OW21145   3.945   3.176   1.844
 6749SOL    HW121146   3.880   3.103   1.823
 6749SOL    HW221147   3.949   3.190   1.942
 6750SOL     OW21148   3.803   3.102   0.653
 6750SOL    HW121149   3.802   3.055   0.741
 6750SOL    HW221150   3.885   3.074   0.602
 6751SOL     OW21151   4.396   3.253   1.624
 6751SOL    HW121152   4.318   3.203   1.662
 6751SOL    HW221153   4.393   3.348   1.655
 6752SOL     OW21154   5.548   2.054   1.227
 6752SOL    HW121155   5.544   1.964   1.271
 6752SOL    HW221156   5.551   2.043   1.128
 6753SOL     OW21157   4.152   2.286   0.520
 6753SOL    HW121158   4.182   2.214   0.458
 6753SOL    HW221159   4.113   2.246   0.603
 6754SOL     OW21160   5.429   3.349   1.104
 6754SOL    HW121161   5.336   3.324   1.077
 6754SOL    HW221162   5.455   3.299   1.186
 6755SOL     OW21163   4.041   2.409   1.280
 6755SOL    HW121164   4.079   2.350   1.352
 6755SOL    HW221165   4.081   2.383   1.192
 6756SOL     OW21166   4.536   3.448   0.687
 6756SOL    HW121167   4.568   3.458   0.593
 6756SOL    HW221168   4.457   3.386   0.689
 6757SOL     OW21169   5.148   2.076   1.112
 6757SOL    HW121170   5.200   2.011   1.167
 6757SOL    HW221171   5.099   2.139   1.173
 6758SOL     OW21172   4.725   1.896   1.154
 6758SOL    HW121173   4.662   1.824   1.123
 6758SOL    HW221174   4.818   1.860   1.154
 6759SOL     OW21175   4.494   3.192   0.301
 6759SOL    HW121176   4.448   3.105   0.318
 6759SOL    HW221177   4.585   3.189   0.342
 6760SOL     OW21178   4.342   3.429   1.284
 6760SOL    HW121179   4.337   3.511   1.341
 6760SOL    HW221180   4.431   3.426   1.239
 6761SOL     OW21181   5.076   1.914   0.168
 6761SOL    HW121182   5.111   1.873   0.084
 6761SOL    HW221183   4.986   1.876   0.188
 6762SOL     OW21184   5.024   2.315   0.691
 6762SOL    HW121185   4.965   2.395   0.695
 6762SOL    HW221186   5.039   2.280   0.784
 6763SOL     OW21187   5.317   2.083   0.882
 6763SOL    HW121188   5.233   2.082   0.936
 6763SOL    HW221189   5.319   2.166   0.826
 6764SOL     OW21190   3.763   2.939   0.300
 6764SOL    HW121191   3.862   2.928   0.291
 6764SOL    HW221192   3.723   2.853   0.332
 6765SOL     OW21193   4.599   3.508   0.337
 6765SOL    HW121194   4.522   3.473   0.283
 6765SOL    HW221195   4.567   3.579   0.399
 6766SOL     OW21196   3.949   2.137   2.858
 6766SOL    HW121197   3.984   2.120   2.950
 6766SOL    HW221198   3.861   2.092   2.846
 6767SOL     OW21199   3.743   2.230   2.509
 6767SOL    HW121200   3.661   2.273   2.548
 6767SOL    HW221201   3.715   2.157   2.446
 6768SOL     OW21202   4.293   3.137   3.027
 6768SOL    HW121203   4.200   3.130   2.990
 6768SOL    HW221204   4.304   3.226   3.071
 6769SOL     OW21205   5.279   3.373   2.565
 6769SOL    HW121206   5.222   3.357   2.646
 6769SOL    HW221207   5.220   3.383   2.485
 6770SOL     OW21208   4.859   2.565   2.579
 6770SOL    HW121209   4.916   2.643   2.554
 6770SOL    HW221210   4.799   2.591   2.655
 6771SOL     OW21211   5.479   2.469   2.093
 6771SOL    HW121212   5.467   2.456   1.994
 6771SOL    HW221213   5.449   2.388   2.142
 6772SOL     OW21214   4.574   2.660   3.685
 6772SOL    HW121215   4.570   2.736   3.750
 6772SOL    HW221216   4.596   2.696   3.594
 6773SOL     OW21217   4.059   3.297   2.923
 6773SOL    HW121218   3.981   3.266   2.870
 6773SOL    HW221219   4.117   3.355   2.866
 6774SOL     OW21220   5.184   3.367   3.201
 6774SOL    HW121221   5.208   3.461   3.227
 6774SOL    HW221222   5.168   3.313   3.283
 6775SOL     OW21223   4.162   2.254   3.361
 6775SOL    HW121224   4.244   2.198   3.370
 6775SOL    HW221225   4.081   2.196   3.365
 6776SOL     OW21226   5.327   2.309   2.599
 6776SOL    HW121227   5.253   2.355   2.549
 6776SOL    HW221228   5.378   2.377   2.652
 6777SOL     OW21229   3.955   3.575   2.345
 6777SOL    HW121230   3.989   3.652   2.399
 6777SOL    HW221231   3.999   3.575   2.255
 6778SOL     OW21232   4.851   3.203   3.552
 6778SOL    HW121233   4.898   3.203   3.640
 6778SOL    HW221234   4.803   3.116   3.541
 6779SOL     OW21235   3.954   3.296   2.400
 6779SOL    HW121236   3.928   3.392   2.400
 6779SOL    HW221237   3.883   3.242   2.445
 6780SOL     OW21238   3.964   2.953   2.748
 6780SOL    HW121239   3.978   2.869   2.800
 6780SOL    HW221240   3.909   3.017   2.803
 6781SOL     OW21241   5.318   1.976   3.342
 6781SOL    HW121242   5.300   2.043   3.270
 6781SOL    HW221243   5.315   2.022   3.431
 6782SOL     OW21244   5.566   3.629   2.221
 6782SOL    HW121245   5.620   3.600   2.301
 6782SOL    HW221246   5.596   3.719   2.192
 6783SOL     OW21247   3.751   3.458   1.979
 6783SOL    HW121248   3.732   3.362   2.000
 6783SOL    HW221249   3.718   3.516   2.054
 6784SOL     OW21250   5.413   2.784   2.474
 6784SOL    HW121251   5.508   2.755   2.482
 6784SOL    HW221252   5.405   2.849   2.399
 6785SOL     OW21253   5.365   2.970   2.294
 6785SOL    HW121254   5.451   2.972   2.242
 6785SOL    HW221255   5.379   3.017   2.382
 6786SOL     OW21256   4.337   3.227   2.588
 6786SOL    HW121257   4.288   3.140   2.597
 6786SOL    HW221258   4.314   3.270   2.501
 6787SOL     OW21259   5.017   3.090   3.285
 6787SOL    HW121260   5.054   3.017   3.227
 6787SOL    HW221261   5.069   3.095   3.370
 6788SOL     OW21262   4.533   1.866   2.364
 6788SOL    HW121263   4.573   1.957   2.355
 6788SOL    HW221264   4.433   1.874   2.370
 6789SOL     OW21265   3.921   2.838   3.126
 6789SOL    HW121266   4.010   2.793   3.112
 6789SOL    HW221267   3.848   2.773   3.107
 6790SOL     OW21268   5.249   2.861   2.052
 6790SOL    HW121269   5.186   2.785   2.065
 6790SOL    HW221270   5.297   2.879   2.138
 6791SOL     OW21271   4.911   3.654   3.478
 6791SOL    HW121272   4.935   3.714   3.402
 6791SOL    HW221273   4.918   3.559   3.448
 6792SOL     OW21274   4.041   2.113   3.663
 6792SOL    HW121275   4.112   2.184   3.669
 6792SOL    HW221276   3.953   2.152   3.691
 6793SOL     OW21277   5.190   3.279   2.815
 6793SOL    HW121278   5.131   3.285   2.895
 6793SOL    HW221279   5.175   3.191   2.769
 6794SOL     OW21280   5.391   3.576   2.434
 6794SOL    HW121281   5.350   3.553   2.346
 6794SOL    HW221282   5.373   3.502   2.499
 6795SOL     OW21283   5.005   2.207   2.806
 6795SOL    HW121284   4.919   2.157   2.793
 6795SOL    HW221285   5.067   2.153   2.862
 6796SOL     OW21286   5.300   3.524   2.169
 6796SOL    HW121287   5.389   3.570   2.172
 6796SOL    HW221288   5.279   3.500   2.074
 6797SOL     OW21289   4.531   2.467   3.327
 6797SOL    HW121290   4.484   2.464   3.416
 6797SOL    HW221291   4.480   2.412   3.261
 6798SOL     OW21292   5.118   2.331   3.536
 6798SOL    HW121293   5.098   2.374   3.624
 6798SOL    HW221294   5.196   2.269   3.545
 6799SOL     OW21295   4.697   2.752   3.434
 6799SOL    HW121296   4.743   2.668   3.405
 6799SOL    HW221297   4.641   2.786   3.359
 6800SOL     OW21298   4.715   2.272   3.104
 6800SOL    HW121299   4.638   2.306   3.158
 6800SOL    HW221300   4.681   2.221   3.025
 6801SOL     OW21301   4.765   2.563   2.291
 6801SOL    HW121302   4.791   2.559   2.387
 6801SOL    HW221303   4.680   2.512   2.277
 6802SOL     OW21304   3.854   3.683   3.433
 6802SOL    HW121305   3.844   3.668   3.532
 6802SOL    HW221306   3.768   3.719   3.397
 6803SOL     OW21307   4.589   2.210   2.057
 6803SOL    HW121308   4.648   2.273   2.008
 6803SOL    HW221309   4.608   2.116   2.028
 6804SOL     OW21310   5.443   2.447   3.693
 6804SOL    HW121311   5.417   2.536   3.657
 6804SOL    HW221312   5.441   2.379   3.620
 6805SOL     OW21313   5.086   3.006   2.407
 6805SOL    HW121314   5.169   2.977   2.359
 6805SOL    HW221315   5.037   3.073   2.351
 6806SOL     OW21316   4.274   2.058   2.747
 6806SOL    HW121317   4.269   2.053   2.847
 6806SOL    HW221318   4.276   2.154   2.718
 6807SOL     OW21319   4.732   3.318   2.339
 6807SOL    HW121320   4.686   3.390   2.287
 6807SOL    HW221321   4.728   3.338   2.437
 6808SOL     OW21322   4.075   3.663   2.715
 6808SOL    HW121323   4.125   3.577   2.721
 6808SOL    HW221324   4.140   3.740   2.712
 6809SOL     OW21325   5.519   2.928   2.735
 6809SOL    HW121326   5.457   2.913   2.659
 6809SOL    HW221327   5.467   2.939   2.820
 6810SOL     OW21328   4.951   3.412   3.368
 6810SOL    HW121329   4.957   3.335   3.432
 6810SOL    HW221330   4.899   3.386   3.288
 6811SOL     OW21331   5.182   2.597   2.590
 6811SOL    HW121332   5.177   2.532   2.665
 6811SOL    HW221333   5.262   2.656   2.603
 6812SOL     OW21334   4.185   3.128   3.589
 6812SOL    HW121335   4.135   3.129   3.503
 6812SOL    HW221336   4.122   3.110   3.665
 6813SOL     OW21337   4.835   3.638   2.099
 6813SOL    HW121338   4.775   3.576   2.149
 6813SOL    HW221339   4.866   3.594   2.014
 6814SOL     OW21340   3.926   2.147   3.360
 6814SOL    HW121341   3.846   2.207   3.347
 6814SOL    HW221342   3.916   2.098   3.446
 6815SOL     OW21343   5.356   3.239   1.943
 6815SOL    HW121344   5.324   3.333   1.933
 6815SOL    HW221345   5.280   3.176   1.931
 6816SOL     OW21346   4.188   3.605   2.185
 6816SOL    HW121347   4.221   3.644   2.271
 6816SOL    HW221348   4.264   3.598   2.120
 6817SOL     OW21349   5.124   1.969   2.288
 6817SOL    HW121350   5.100   1.932   2.198
 6817SOL    HW221351   5.223   1.985   2.292
 6818SOL     OW21352   3.973   3.647   3.103
 6818SOL    HW121353   4.030   3.582   3.153
 6818SOL    HW221354   3.957   3.614   3.010
 6819SOL     OW21355   5.271   2.084   3.591
 6819SOL    HW121356   5.266   2.121   3.683
 6819SOL    HW221357   5.199   2.015   3.579
 6820SOL     OW21358   4.338   1.984   1.979
 6820SOL    HW121359   4.436   1.962   1.986
 6820SOL    HW221360   4.307   1.967   1.886
 6821SOL     OW21361   4.505   2.126   3.611
 6821SOL    HW121362   4.572   2.065   3.654
 6821SOL    HW221363   4.432   2.145   3.676
 6822SOL     OW21364   5.075   2.452   3.295
 6822SOL    HW121365   5.103   2.409   3.380
 6822SOL    HW221366   5.100   2.548   3.296
 6823SOL     OW21367   4.646   2.365   2.761
 6823SOL    HW121368   4.621   2.356   2.665
 6823SOL    HW221369   4.694   2.283   2.792
 6824SOL     OW21370   4.263   1.926   2.374
 6824SOL    HW121371   4.182   1.927   2.432
 6824SOL    HW221372   4.266   2.009   2.319
 6825SOL     OW21373   5.158   3.050   1.903
 6825SOL    HW121374   5.190   2.974   1.960
 6825SOL    HW221375   5.066   3.077   1.933
 6826SOL     OW21376   4.021   1.897   2.033
 6826SOL    HW121377   4.070   1.981   2.012
 6826SOL    HW221378   4.083   1.832   2.078
 6827SOL     OW21379   4.659   2.098   2.342
 6827SOL    HW121380   4.611   2.139   2.264
 6827SOL    HW221381   4.758   2.096   2.323
 6828SOL     OW21382   4.800   2.545   3.326
 6828SOL    HW121383   4.720   2.484   3.329
 6828SOL    HW221384   4.881   2.492   3.302
 6829SOL     OW21385   4.951   3.432   2.655
 6829SOL    HW121386   4.972   3.506   2.590
 6829SOL    HW221387   5.019   3.432   2.728
 6830SOL     OW21388   4.183   3.014   2.603
 6830SOL    HW121389   4.112   2.987   2.668
 6830SOL    HW221390   4.157   2.986   2.510
 6831SOL     OW21391   4.995   3.659   2.453
 6831SOL    HW121392   5.039   3.723   2.389
 6831SOL    HW221393   4.945   3.711   2.523
 6832SOL     OW21394   4.756   2.411   1.878
 6832SOL    HW121395   4.715   2.493   1.839
 6832SOL    HW221396   4.820   2.437   1.951
 6833SOL     OW21397   4.285   2.084   3.009
 6833SOL    HW121398   4.323   2.000   3.046
 6833SOL    HW221399   4.197   2.103   3.053
 6834SOL     OW21400   4.590   2.316   2.504
 6834SOL    HW121401   4.558   2.388   2.442
 6834SOL    HW221402   4.614   2.235   2.451
 6835SOL     OW21403   4.741   1.901   2.615
 6835SOL    HW121404   4.669   1.906   2.546
 6835SOL    HW221405   4.717   1.832   2.684
 6836SOL     OW21406   5.153   3.035   2.729
 6836SOL    HW121407   5.098   2.951   2.722
 6836SOL    HW221408   5.179   3.064   2.637
 6837SOL     OW21409   5.190   2.452   2.854
 6837SOL    HW121410   5.160   2.357   2.861
 6837SOL    HW221411   5.263   2.468   2.920
 6838SOL     OW21412   5.581   2.695   2.239
 6838SOL    HW121413   5.623   2.631   2.303
 6838SOL    HW221414   5.543   2.644   2.161
 6839SOL     OW21415   4.212   3.247   2.036
 6839SOL    HW121416   4.125   3.232   2.083
 6839SOL    HW221417   4.195   3.273   1.941
 6840SOL     OW21418   5.388   3.142   2.519
 6840SOL    HW121419   5.487   3.150   2.533
 6840SOL    HW221420   5.343   3.226   2.550
 6841SOL     OW21421   5.114   2.437   1.940
 6841SOL    HW121422   5.060   2.416   2.021
 6841SOL    HW221423   5.205   2.396   1.949
 6842SOL     OW21424   4.251   2.118   2.190
 6842SOL    HW121425   4.278   2.059   2.115
 6842SOL    HW221426   4.251   2.213   2.159
 6843SOL     OW21427   5.478   3.085   3.450
 6843SOL    HW121428   5.569   3.046   3.437
 6843SOL    HW221429   5.486   3.181   3.474
 6844SOL     OW21430   4.788   3.209   3.202
 6844SOL    HW121431   4.708   3.186   3.257
 6844SOL    HW221432   4.871   3.183   3.251
 6845SOL     OW21433   5.316   3.491   3.487
 6845SOL    HW121434   5.343   3.525   3.397
 6845SOL    HW221435   5.395   3.453   3.533
 6846SOL     OW21436   4.835   3.057   2.962
 6846SOL    HW121437   4.795   3.101   3.043
 6846SOL    HW221438   4.794   3.094   2.879
 6847SOL     OW21439   5.362   2.961   2.941
 6847SOL    HW121440   5.367   3.042   3.000
 6847SOL    HW221441   5.276   2.963   2.890
 6848SOL     OW21442   4.639   1.951   3.264
 6848SOL    HW121443   4.664   1.931   3.169
 6848SOL    HW221444   4.711   2.007   3.306
 6849SOL     OW21445   4.704   2.978   3.581
 6849SOL    HW121446   4.605   2.984   3.591
 6849SOL    HW221447   4.727   2.898   3.525
 6850SOL     OW21448   4.998   2.248   3.124
 6850SOL    HW121449   5.019   2.322   3.188
 6850SOL    HW221450   4.909   2.265   3.081
 6851SOL     OW21451   3.788   3.426   3.193
 6851SOL    HW121452   3.742   3.508   3.159
 6851SOL    HW221453   3.886   3.445   3.202
 6852SOL     OW21454   4.091   2.962   2.363
 6852SOL    HW121455   4.084   3.045   2.307
 6852SOL    HW221456   4.095   2.882   2.303
 6853SOL     OW21457   4.290   2.399   2.727
 6853SOL    HW121458   4.302   2.465   2.653
 6853SOL    HW221459   4.336   2.433   2.810
 6854SOL     OW21460   4.976   3.210   2.250
 6854SOL    HW121461   5.026   3.287   2.290
 6854SOL    HW221462   4.881   3.212   2.282
 6855SOL     OW21463   4.996   3.307   3.004
 6855SOL    HW121464   5.043   3.320   3.091
 6855SOL    HW221465   4.930   3.233   3.013
 6856SOL     OW21466   5.306   2.501   2.334
 6856SOL    HW121467   5.275   2.562   2.407
 6856SOL    HW221468   5.356   2.553   2.265
 6857SOL     OW21469   4.078   3.372   3.191
 6857SOL    HW121470   4.057   3.328   3.104
 6857SOL    HW221471   4.175   3.398   3.194
 6858SOL     OW21472   5.311   2.641   3.532
 6858SOL    HW121473   5.219   2.679   3.527
 6858SOL    HW221474   5.371   2.688   3.467
 6859SOL     OW21475   4.737   1.967   3.632
 6859SOL    HW121476   4.743   2.052   3.580
 6859SOL    HW221477   4.769   1.891   3.575
 6860SOL     OW21478   4.228   1.912   3.602
 6860SOL    HW121479   4.186   1.855   3.532
 6860SOL    HW221480   4.162   1.981   3.634
 6861SOL     OW21481   5.084   2.724   2.907
 6861SOL    HW121482   5.009   2.724   2.841
 6861SOL    HW221483   5.121   2.632   2.916
 6862SOL     OW21484   4.933   2.387   2.137
 6862SOL    HW121485   4.946   2.303   2.191
 6862SOL    HW221486   4.904   2.461   2.197
 6863SOL     OW21487   4.031   2.075   3.093
 6863SOL    HW121488   4.008   2.112   3.183
 6863SOL    HW221489   4.001   1.980   3.087
 6864SOL     OW21490   3.761   3.172   3.144
 6864SOL    HW121491   3.814   3.123   3.212
 6864SOL    HW221492   3.783   3.270   3.149
 6865SOL     OW21493   4.456   2.496   2.926
 6865SOL    HW121494   4.515   2.470   2.850
 6865SOL    HW221495   4.428   2.592   2.915
 6866SOL     OW21496   5.452   2.797   3.716
 6866SOL    HW121497   5.406   2.790   3.627
 6866SOL    HW221498   5.390   2.841   3.782
 6867SOL     OW21499   4.031   1.925   2.480
 6867SOL    HW121500   4.020   2.019   2.513
 6867SOL    HW221501   4.026   1.862   2.557
 6868SOL     OW21502   5.346   2.229   2.236
 6868SOL    HW121503   5.348   2.153   2.300
 6868SOL    HW221504   5.298   2.306   2.276
 6869SOL     OW21505   4.747   2.628   2.828
 6869SOL    HW121506   4.762   2.649   2.924
 6869SOL    HW221507   4.717   2.533   2.819
 6870SOL     OW21508   5.583   3.380   3.467
 6870SOL    HW121509   5.597   3.407   3.372
 6870SOL    HW221510   5.666   3.402   3.520
 6871SOL     OW21511   5.264   2.136   1.987
 6871SOL    HW121512   5.203   2.061   2.010
 6871SOL    HW221513   5.286   2.188   2.070
 6872SOL     OW21514   5.027   2.700   1.904
 6872SOL    HW121515   5.061   2.607   1.919
 6872SOL    HW221516   5.045   2.727   1.809
 6873SOL     OW21517   4.792   3.195   2.711
 6873SOL    HW121518   4.799   3.111   2.656
 6873SOL    HW221519   4.854   3.264   2.675
 6874SOL     OW21520   4.063   2.371   2.868
 6874SOL    HW121521   4.011   2.288   2.851
 6874SOL    HW221522   4.140   2.376   2.804
 6875SOL     OW21523   4.862   2.242   3.540
 6875SOL    HW121524   4.817   2.305   3.604
 6875SOL    HW221525   4.955   2.273   3.523
 6876SOL     OW21526   4.884   2.069   3.339
 6876SOL    HW121527   4.884   2.133   3.416
 6876SOL    HW221528   4.912   2.117   3.256
 6877SOL     OW21529   3.732   3.188   2.062
 6877SOL    HW121530   3.639   3.209   2.031
 6877SOL    HW221531   3.742   3.089   2.075
 6878SOL     OW21532   3.812   3.663   2.789
 6878SOL    HW121533   3.770   3.577   2.762
 6878SOL    HW221534   3.906   3.666   2.755
 6879SOL     OW21535   4.228   3.430   2.772
 6879SOL    HW121536   4.294   3.504   2.781
 6879SOL    HW221537   4.272   3.351   2.730
 6880SOL     OW21538   4.726   2.658   3.100
 6880SOL    HW121539   4.767   2.626   3.186
 6880SOL    HW221540   4.630   2.631   3.097
 6881SOL     OW21541   5.093   2.812   3.522
 6881SOL    HW121542   5.132   2.901   3.542
 6881SOL    HW221543   5.103   2.792   3.425
 6882SOL     OW21544   4.539   2.434   2.187
 6882SOL    HW121545   4.546   2.345   2.141
 6882SOL    HW221546   4.445   2.468   2.179
 6883SOL     OW21547   5.381   2.466   3.068
 6883SOL    HW121548   5.343   2.397   3.130
 6883SOL    HW221549   5.463   2.430   3.024
 6884SOL     OW21550   3.976   3.426   3.606
 6884SOL    HW121551   3.946   3.483   3.682
 6884SOL    HW221552   3.969   3.329   3.632
 6885SOL     OW21553   4.395   2.326   3.131
 6885SOL    HW121554   4.361   2.237   3.101
 6885SOL    HW221555   4.421   2.380   3.051
 6886SOL     OW21556   4.197   2.362   2.053
 6886SOL    HW121557   4.258   2.442   2.057
 6886SOL    HW221558   4.102   2.393   2.060
 6887SOL     OW21559   3.883   2.999   3.328
 6887SOL    HW121560   3.905   2.938   3.404
 6887SOL    HW221561   3.893   2.950   3.242
 6888SOL     OW21562   5.071   2.921   3.096
 6888SOL    HW121563   5.095   2.858   3.022
 6888SOL    HW221564   4.981   2.961   3.078
 6889SOL     OW21565   5.026   2.717   2.171
 6889SOL    HW121566   4.940   2.686   2.213
 6889SOL    HW221567   5.022   2.703   2.072
 6890SOL     OW21568   5.483   3.609   3.016
 6890SOL    HW121569   5.544   3.639   2.943
 6890SOL    HW221570   5.445   3.520   2.994
 6891SOL     OW21571   4.976   3.593   2.990
 6891SOL    HW121572   5.060   3.598   2.936
 6891SOL    HW221573   4.953   3.497   3.008
 6892SOL     OW21574   3.807   3.120   2.884
 6892SOL    HW121575   3.802   3.119   2.984
 6892SOL    HW221576   3.724   3.079   2.846
 6893SOL     OW21577   5.450   1.997   2.385
 6893SOL    HW121578   5.523   1.980   2.318
 6893SOL    HW221579   5.419   1.910   2.423
 6894SOL     OW21580   5.112   3.435   2.339
 6894SOL    HW121581   5.179   3.447   2.265
 6894SOL    HW221582   5.072   3.524   2.362
 6895SOL     OW21583   3.854   3.656   3.713
 6895SOL    HW121584   3.813   3.582   3.766
 6895SOL    HW221585   3.918   3.707   3.771
 6896SOL     OW21586   5.004   2.789   2.534
 6896SOL    HW121587   5.064   2.708   2.536
 6896SOL    HW221588   5.044   2.858   2.474
 6897SOL     OW21589   5.374   3.582   3.256
 6897SOL    HW121590   5.427   3.592   3.172
 6897SOL    HW221591   5.347   3.672   3.290
 6898SOL     OW21592   5.565   2.037   2.825
 6898SOL    HW121593   5.604   1.952   2.789
 6898SOL    HW221594   5.467   2.039   2.806
 6899SOL     OW21595   3.987   2.188   2.582
 6899SOL    HW121596   3.908   2.239   2.548
 6899SOL    HW221597   3.978   2.173   2.680
 6900SOL     OW21598   4.918   3.474   1.893
 6900SOL    HW121599   4.924   3.381   1.930
 6900SOL    HW221600   4.859   3.474   1.813
 6901SOL     OW21601   4.546   2.864   3.234
 6901SOL    HW121602   4.586   2.863   3.142
 6901SOL    HW221603   4.556   2.956   3.274
 6902SOL     OW21604   4.640   2.772   2.153
 6902SOL    HW121605   4.703   2.810   2.085
 6902SOL    HW221606   4.680   2.689   2.192
 6903SOL     OW21607   5.228   3.469   1.906
 6903SOL    HW121608   5.136   3.506   1.913
 6903SOL    HW221609   5.266   3.489   1.816
 6904SOL     OW21610   4.096   3.150   3.352
 6904SOL    HW121611   4.083   3.243   3.318
 6904SOL    HW221612   4.012   3.098   3.339
 6905SOL     OW21613   5.338   3.154   3.151
 6905SOL    HW121614   5.398   3.157   3.231
 6905SOL    HW221615   5.263   3.218   3.164
 6906SOL     OW21616   4.763   2.960   2.558
 6906SOL    HW121617   4.693   2.913   2.612
 6906SOL    HW221618   4.822   2.892   2.515
 6907SOL     OW21619   4.738   2.098   2.833
 6907SOL    HW121620   4.730   2.062   2.740
 6907SOL    HW221621   4.736   2.022   2.898
 6908SOL     OW21622   4.314   3.349   2.353
 6908SOL    HW121623   4.356   3.291   2.283
 6908SOL    HW221624   4.270   3.428   2.309
 6909SOL     OW21625   5.433   2.247   3.243
 6909SOL    HW121626   5.506   2.316   3.247
 6909SOL    HW221627   5.461   2.172   3.184
 6910SOL     OW21628   3.979   3.210   2.152
 6910SOL    HW121629   3.883   3.211   2.125
 6910SOL    HW221630   3.991   3.263   2.236
 6911SOL     OW21631   3.829   2.875   3.588
 6911SOL    HW121632   3.752   2.842   3.642
 6911SOL    HW221633   3.914   2.845   3.630
 6912SOL     OW21634   4.396   2.065   3.351
 6912SOL    HW121635   4.486   2.049   3.311
 6912SOL    HW221636   4.404   2.070   3.450
 6913SOL     OW21637   5.164   2.718   3.260
 6913SOL    HW121638   5.107   2.770   3.197
 6913SOL    HW221639   5.260   2.730   3.236
 6914SOL     OW21640   3.796   2.028   2.180
 6914SOL    HW121641   3.779   2.111   2.126
 6914SOL    HW221642   3.886   1.991   2.158
 6915SOL     OW21643   4.907   3.197   1.981
 6915SOL    HW121644   4.808   3.186   1.983
 6915SOL    HW221645   4.941   3.212   2.074
 6916SOL     OW21646   5.217   3.629   2.821
 6916SOL    HW121647   5.250   3.693   2.752
 6916SOL    HW221648   5.283   3.623   2.896
 6917SOL     OW21649   4.440   2.427   3.570
 6917SOL    HW121650   4.459   2.492   3.644
 6917SOL    HW221651   4.500   2.347   3.579
 6918SOL     OW21652   5.174   3.082   3.495
 6918SOL    HW121653   5.165   3.072   3.594
 6918SOL    HW221654   5.270   3.075   3.469
 6919SOL     OW21655   4.114   3.603   3.422
 6919SOL    HW121656   4.023   3.644   3.420
 6919SOL    HW221657   4.107   3.509   3.454
 6920SOL     OW21658   5.398   2.745   3.116
 6920SOL    HW121659   5.371   2.656   3.079
 6920SOL    HW221660   5.399   2.813   3.043
 6921SOL     OW21661   4.949   2.187   2.311
 6921SOL    HW121662   5.014   2.113   2.300
 6921SOL    HW221663   4.969   2.237   2.395
 6922SOL     OW21664   5.501   2.204   3.504
 6922SOL    HW121665   5.484   2.235   3.410
 6922SOL    HW221666   5.417   2.167   3.542
 6923SOL     OW21667   5.454   2.796   3.379
 6923SOL    HW121668   5.492   2.887   3.394
 6923SOL    HW221669   5.446   2.779   3.280
 6924SOL     OW21670   4.583   2.818   2.723
 6924SOL    HW121671   4.637   2.749   2.771
 6924SOL    HW221672   4.551   2.887   2.789
 6925SOL     OW21673   5.585   3.431   2.713
 6925SOL    HW121674   5.514   3.419   2.643
 6925SOL    HW221675   5.586   3.352   2.773
 6926SOL     OW21676   3.945   3.176   3.706
 6926SOL    HW121677   3.880   3.103   3.685
 6926SOL    HW221678   3.949   3.190   3.804
 6927SOL     OW21679   3.803   3.102   2.515
 6927SOL    HW121680   3.802   3.055   2.603
 6927SOL    HW221681   3.885   3.074   2.464
 6928SOL     OW21682   5.548   2.054   3.089
 6928SOL    HW121683   5.544   1.964   3.133
 6928SOL    HW221684   5.551   2.043   2.990
 6929SOL     OW21685   4.152   2.286   2.382
 6929SOL    HW121686   4.182   2.214   2.320
 6929SOL    HW221687   4.113   2.246   2.465
 6930SOL     OW21688   5.429   3.349   2.966
 6930SOL    HW121689   5.336   3.324   2.939
 6930SOL    HW221690   5.455   3.299   3.048
 6931SOL     OW21691   4.041   2.409   3.142
 6931SOL    HW121692   4.079   2.350   3.214
 6931SOL    HW221693   4.081   2.383   3.054
 6932SOL     OW21694   5.148   2.076   2.974
 6932SOL    HW121695   5.200   2.011   3.029
 6932SOL    HW221696   5.099   2.139   3.035
 6933SOL     OW21697   4.725   1.896   3.016
 6933SOL    HW121698   4.662   1.824   2.985
 6933SOL    HW221699   4.818   1.860   3.016
 6934SOL     OW21700   5.076   1.914   2.030
 6934SOL    HW121701   5.111   1.873   1.946
 6934SOL    HW221702   4.986   1.876   2.050
 6935SOL     OW21703   5.024   2.315   2.553
 6935SOL    HW121704   4.965   2.395   2.557
 6935SOL    HW221705   5.039   2.280   2.646
 6936SOL     OW21706   5.317   2.083   2.744
 6936SOL    HW121707   5.233   2.082   2.798
 6936SOL    HW221708   5.319   2.166   2.688
 6937SOL     OW21709   3.763   2.939   2.162
 6937SOL    HW121710   3.862   2.928   2.153
 6937SOL    HW221711   3.723   2.853   2.194
 6938SOL     OW21712   3.949   2.137   4.720
 6938SOL    HW121713   3.984   2.120   4.812
 6938SOL    HW221714   3.861   2.092   4.708
 6939SOL     OW21715   3.743   2.230   4.371
 6939SOL    HW121716   3.661   2.273   4.410
 6939SOL    HW221717   3.715   2.157   4.308
 6940SOL     OW21718   5.279   3.373   4.427
 6940SOL    HW121719   5.222   3.357   4.508
 6940SOL    HW221720   5.220   3.383   4.347
 6941SOL     OW21721   4.859   2.565   4.441
 6941SOL    HW121722   4.916   2.643   4.416
 6941SOL    HW221723   4.799   2.591   4.517
 6942SOL     OW21724   5.479   2.469   3.955
 6942SOL    HW121725   5.467   2.456   3.856
 6942SOL    HW221726   5.449   2.388   4.004
 6943SOL     OW21727   4.574   2.660   5.547
 6943SOL    HW121728   4.570   2.736   5.612
 6943SOL    HW221729   4.596   2.696   5.456
 6944SOL     OW21730   4.410   3.023   5.527
 6944SOL    HW121731   4.470   3.102   5.541
 6944SOL    HW221732   4.324   3.054   5.486
 6945SOL     OW21733   4.059   3.297   4.785
 6945SOL    HW121734   3.981   3.266   4.732
 6945SOL    HW221735   4.117   3.355   4.728
 6946SOL     OW21736   5.184   3.367   5.063
 6946SOL    HW121737   5.208   3.461   5.089
 6946SOL    HW221738   5.168   3.313   5.145
 6947SOL     OW21739   4.162   2.254   5.223
 6947SOL    HW121740   4.244   2.198   5.232
 6947SOL    HW221741   4.081   2.196   5.227
 6948SOL     OW21742   5.327   2.309   4.461
 6948SOL    HW121743   5.253   2.355   4.411
 6948SOL    HW221744   5.378   2.377   4.514
 6949SOL     OW21745   3.955   3.575   4.207
 6949SOL    HW121746   3.989   3.652   4.261
 6949SOL    HW221747   3.999   3.575   4.117
 6950SOL     OW21748   4.851   3.203   5.414
 6950SOL    HW121749   4.898   3.203   5.502
 6950SOL    HW221750   4.803   3.116   5.403
 6951SOL     OW21751   3.954   3.296   4.262
 6951SOL    HW121752   3.928   3.392   4.262
 6951SOL    HW221753   3.883   3.242   4.307
 6952SOL     OW21754   3.964   2.953   4.610
 6952SOL    HW121755   3.978   2.869   4.662
 6952SOL    HW221756   3.909   3.017   4.665
 6953SOL     OW21757   4.344   3.648   5.163
 6953SOL    HW121758   4.252   3.631   5.198
 6953SOL    HW221759   4.372   3.740   5.189
 6954SOL     OW21760   5.318   1.976   5.204
 6954SOL    HW121761   5.300   2.043   5.132
 6954SOL    HW221762   5.315   2.022   5.293
 6955SOL     OW21763   5.566   3.629   4.083
 6955SOL    HW121764   5.620   3.600   4.163
 6955SOL    HW221765   5.596   3.719   4.054
 6956SOL     OW21766   3.751   3.458   3.841
 6956SOL    HW121767   3.732   3.362   3.862
 6956SOL    HW221768   3.718   3.516   3.916
 6957SOL     OW21769   5.413   2.784   4.336
 6957SOL    HW121770   5.508   2.755   4.344
 6957SOL    HW221771   5.405   2.849   4.261
 6958SOL     OW21772   5.365   2.970   4.156
 6958SOL    HW121773   5.451   2.972   4.104
 6958SOL    HW221774   5.379   3.017   4.244
 6959SOL     OW21775   3.837   2.599   5.321
 6959SOL    HW121776   3.925   2.586   5.366
 6959SOL    HW221777   3.824   2.696   5.299
 6960SOL     OW21778   5.017   3.090   5.147
 6960SOL    HW121779   5.054   3.017   5.089
 6960SOL    HW221780   5.069   3.095   5.232
 6961SOL     OW21781   4.533   1.866   4.226
 6961SOL    HW121782   4.573   1.957   4.217
 6961SOL    HW221783   4.433   1.874   4.232
 6962SOL     OW21784   3.921   2.838   4.988
 6962SOL    HW121785   4.010   2.793   4.974
 6962SOL    HW221786   3.848   2.773   4.969
 6963SOL     OW21787   5.249   2.861   3.914
 6963SOL    HW121788   5.186   2.785   3.927
 6963SOL    HW221789   5.297   2.879   4.000
 6964SOL     OW21790   4.911   3.654   5.340
 6964SOL    HW121791   4.935   3.714   5.264
 6964SOL    HW221792   4.918   3.559   5.310
 6965SOL     OW21793   4.041   2.113   5.525
 6965SOL    HW121794   4.112   2.184   5.531
 6965SOL    HW221795   3.953   2.152   5.553
 6966SOL     OW21796   5.190   3.279   4.677
 6966SOL    HW121797   5.131   3.285   4.757
 6966SOL    HW221798   5.175   3.191   4.631
 6967SOL     OW21799   5.391   3.576   4.296
 6967SOL    HW121800   5.350   3.553   4.208
 6967SOL    HW221801   5.373   3.502   4.361
 6968SOL     OW21802   5.005   2.207   4.668
 6968SOL    HW121803   4.919   2.157   4.655
 6968SOL    HW221804   5.067   2.153   4.724
 6969SOL     OW21805   5.300   3.524   4.031
 6969SOL    HW121806   5.389   3.570   4.034
 6969SOL    HW221807   5.279   3.500   3.936
 6970SOL     OW21808   4.531   2.467   5.189
 6970SOL    HW121809   4.484   2.464   5.278
 6970SOL    HW221810   4.480   2.412   5.123
 6971SOL     OW21811   5.118   2.331   5.398
 6971SOL    HW121812   5.098   2.374   5.486
 6971SOL    HW221813   5.196   2.269   5.407
 6972SOL     OW21814   4.697   2.752   5.296
 6972SOL    HW121815   4.743   2.668   5.267
 6972SOL    HW221816   4.641   2.786   5.221
 6973SOL     OW21817   4.715   2.272   4.966
 6973SOL    HW121818   4.638   2.306   5.020
 6973SOL    HW221819   4.681   2.221   4.887
 6974SOL     OW21820   4.765   2.563   4.153
 6974SOL    HW121821   4.791   2.559   4.249
 6974SOL    HW221822   4.680   2.512   4.139
 6975SOL     OW21823   3.854   3.683   5.295
 6975SOL    HW121824   3.844   3.668   5.394
 6975SOL    HW221825   3.768   3.719   5.259
 6976SOL     OW21826   4.589   2.210   3.919
 6976SOL    HW121827   4.648   2.273   3.870
 6976SOL    HW221828   4.608   2.116   3.890
 6977SOL     OW21829   5.443   2.447   5.555
 6977SOL    HW121830   5.417   2.536   5.519
 6977SOL    HW221831   5.441   2.379   5.482
 6978SOL     OW21832   5.086   3.006   4.269
 6978SOL    HW121833   5.169   2.977   4.221
 6978SOL    HW221834   5.037   3.073   4.213
 6979SOL     OW21835   4.274   2.058   4.609
 6979SOL    HW121836   4.269   2.053   4.709
 6979SOL    HW221837   4.276   2.154   4.580
 6980SOL     OW21838   4.075   3.663   4.577
 6980SOL    HW121839   4.125   3.577   4.583
 6980SOL    HW221840   4.140   3.740   4.574
 6981SOL     OW21841   5.519   2.928   4.597
 6981SOL    HW121842   5.457   2.913   4.521
 6981SOL    HW221843   5.467   2.939   4.682
 6982SOL     OW21844   4.951   3.412   5.230
 6982SOL    HW121845   4.957   3.335   5.294
 6982SOL    HW221846   4.899   3.386   5.150
 6983SOL     OW21847   5.182   2.597   4.452
 6983SOL    HW121848   5.177   2.532   4.527
 6983SOL    HW221849   5.262   2.656   4.465
 6984SOL     OW21850   4.185   3.128   5.451
 6984SOL    HW121851   4.135   3.129   5.365
 6984SOL    HW221852   4.122   3.110   5.527
 6985SOL     OW21853   4.835   3.638   3.961
 6985SOL    HW121854   4.775   3.576   4.011
 6985SOL    HW221855   4.866   3.594   3.876
 6986SOL     OW21856   3.926   2.147   5.222
 6986SOL    HW121857   3.846   2.207   5.209
 6986SOL    HW221858   3.916   2.098   5.308
 6987SOL     OW21859   5.356   3.239   3.805
 6987SOL    HW121860   5.324   3.333   3.795
 6987SOL    HW221861   5.280   3.176   3.793
 6988SOL     OW21862   4.188   3.605   4.047
 6988SOL    HW121863   4.221   3.644   4.133
 6988SOL    HW221864   4.264   3.598   3.982
 6989SOL     OW21865   5.124   1.969   4.150
 6989SOL    HW121866   5.100   1.932   4.060
 6989SOL    HW221867   5.223   1.985   4.154
 6990SOL     OW21868   3.973   3.647   4.965
 6990SOL    HW121869   4.030   3.582   5.015
 6990SOL    HW221870   3.957   3.614   4.872
 6991SOL     OW21871   5.271   2.084   5.453
 6991SOL    HW121872   5.266   2.121   5.545
 6991SOL    HW221873   5.199   2.015   5.441
 6992SOL     OW21874   4.338   1.984   3.841
 6992SOL    HW121875   4.436   1.962   3.848
 6992SOL    HW221876   4.307   1.967   3.748
 6993SOL     OW21877   4.505   2.126   5.473
 6993SOL    HW121878   4.572   2.065   5.516
 6993SOL    HW221879   4.432   2.145   5.538
 6994SOL     OW21880   5.075   2.452   5.157
 6994SOL    HW121881   5.103   2.409   5.242
 6994SOL    HW221882   5.100   2.548   5.158
 6995SOL     OW21883   4.646   2.365   4.623
 6995SOL    HW121884   4.621   2.356   4.527
 6995SOL    HW221885   4.694   2.283   4.654
 6996SOL     OW21886   4.263   1.926   4.236
 6996SOL    HW121887   4.182   1.927   4.294
 6996SOL    HW221888   4.266   2.009   4.181
 6997SOL     OW21889   5.158   3.050   3.765
 6997SOL    HW121890   5.190   2.974   3.822
 6997SOL    HW221891   5.066   3.077   3.795
 6998SOL     OW21892   4.021   1.897   3.895
 6998SOL    HW121893   4.070   1.981   3.874
 6998SOL    HW221894   4.083   1.832   3.940
 6999SOL     OW21895   4.659   2.098   4.204
 6999SOL    HW121896   4.611   2.139   4.126
 6999SOL    HW221897   4.758   2.096   4.185
 7000SOL     OW21898   4.800   2.545   5.188
 7000SOL    HW121899   4.720   2.484   5.191
 7000SOL    HW221900   4.881   2.492   5.164
 7001SOL     OW21901   4.951   3.432   4.517
 7001SOL    HW121902   4.972   3.506   4.452
 7001SOL    HW221903   5.019   3.432   4.590
 7002SOL     OW21904   4.183   3.014   4.465
 7002SOL    HW121905   4.112   2.987   4.530
 7002SOL    HW221906   4.157   2.986   4.372
 7003SOL     OW21907   4.995   3.659   4.315
 7003SOL    HW121908   5.039   3.723   4.251
 7003SOL    HW221909   4.945   3.711   4.385
 7004SOL     OW21910   4.756   2.411   3.740
 7004SOL    HW121911   4.715   2.493   3.701
 7004SOL    HW221912   4.820   2.437   3.813
 7005SOL     OW21913   4.285   2.084   4.871
 7005SOL    HW121914   4.323   2.000   4.908
 7005SOL    HW221915   4.197   2.103   4.915
 7006SOL     OW21916   4.590   2.316   4.366
 7006SOL    HW121917   4.558   2.388   4.304
 7006SOL    HW221918   4.614   2.235   4.313
 7007SOL     OW21919   4.741   1.901   4.477
 7007SOL    HW121920   4.669   1.906   4.408
 7007SOL    HW221921   4.717   1.832   4.546
 7008SOL     OW21922   5.153   3.035   4.591
 7008SOL    HW121923   5.098   2.951   4.584
 7008SOL    HW221924   5.179   3.064   4.499
 7009SOL     OW21925   5.190   2.452   4.716
 7009SOL    HW121926   5.160   2.357   4.723
 7009SOL    HW221927   5.263   2.468   4.782
 7010SOL     OW21928   5.581   2.695   4.101
 7010SOL    HW121929   5.623   2.631   4.165
 7010SOL    HW221930   5.543   2.644   4.023
 7011SOL     OW21931   4.212   3.247   3.898
 7011SOL    HW121932   4.125   3.232   3.945
 7011SOL    HW221933   4.195   3.273   3.803
 7012SOL     OW21934   5.388   3.142   4.381
 7012SOL    HW121935   5.487   3.150   4.395
 7012SOL    HW221936   5.343   3.226   4.412
 7013SOL     OW21937   5.114   2.437   3.802
 7013SOL    HW121938   5.060   2.416   3.883
 7013SOL    HW221939   5.205   2.396   3.811
 7014SOL     OW21940   4.251   2.118   4.052
 7014SOL    HW121941   4.278   2.059   3.977
 7014SOL    HW221942   4.251   2.213   4.021
 7015SOL     OW21943   5.478   3.085   5.312
 7015SOL    HW121944   5.569   3.046   5.299
 7015SOL    HW221945   5.486   3.181   5.336
 7016SOL     OW21946   4.788   3.209   5.064
 7016SOL    HW121947   4.708   3.186   5.119
 7016SOL    HW221948   4.871   3.183   5.113
 7017SOL     OW21949   5.316   3.491   5.349
 7017SOL    HW121950   5.343   3.525   5.259
 7017SOL    HW221951   5.395   3.453   5.395
 7018SOL     OW21952   4.835   3.057   4.824
 7018SOL    HW121953   4.795   3.101   4.905
 7018SOL    HW221954   4.794   3.094   4.741
 7019SOL     OW21955   5.362   2.961   4.803
 7019SOL    HW121956   5.367   3.042   4.862
 7019SOL    HW221957   5.276   2.963   4.752
 7020SOL     OW21958   4.639   1.951   5.126
 7020SOL    HW121959   4.664   1.931   5.031
 7020SOL    HW221960   4.711   2.007   5.168
 7021SOL     OW21961   4.704   2.978   5.443
 7021SOL    HW121962   4.605   2.984   5.453
 7021SOL    HW221963   4.727   2.898   5.387
 7022SOL     OW21964   4.998   2.248   4.986
 7022SOL    HW121965   5.019   2.322   5.050
 7022SOL    HW221966   4.909   2.265   4.943
 7023SOL     OW21967   3.788   3.426   5.055
 7023SOL    HW121968   3.742   3.508   5.021
 7023SOL    HW221969   3.886   3.445   5.064
 7024SOL     OW21970   4.091   2.962   4.225
 7024SOL    HW121971   4.084   3.045   4.169
 7024SOL    HW221972   4.095   2.882   4.165
 7025SOL     OW21973   4.290   2.399   4.589
 7025SOL    HW121974   4.302   2.465   4.515
 7025SOL    HW221975   4.336   2.433   4.672
 7026SOL     OW21976   4.976   3.210   4.112
 7026SOL    HW121977   5.026   3.287   4.152
 7026SOL    HW221978   4.881   3.212   4.144
 7027SOL     OW21979   4.996   3.307   4.866
 7027SOL    HW121980   5.043   3.320   4.953
 7027SOL    HW221981   4.930   3.233   4.875
 7028SOL     OW21982   5.306   2.501   4.196
 7028SOL    HW121983   5.275   2.562   4.269
 7028SOL    HW221984   5.356   2.553   4.127
 7029SOL     OW21985   4.078   3.372   5.053
 7029SOL    HW121986   4.057   3.328   4.966
 7029SOL    HW221987   4.175   3.398   5.056
 7030SOL     OW21988   5.311   2.641   5.394
 7030SOL    HW121989   5.219   2.679   5.389
 7030SOL    HW221990   5.371   2.688   5.329
 7031SOL     OW21991   4.737   1.967   5.494
 7031SOL    HW121992   4.743   2.052   5.442
 7031SOL    HW221993   4.769   1.891   5.437
 7032SOL     OW21994   4.228   1.912   5.464
 7032SOL    HW121995   4.186   1.855   5.394
 7032SOL    HW221996   4.162   1.981   5.496
 7033SOL     OW21997   5.084   2.724   4.769
 7033SOL    HW121998   5.009   2.724   4.703
 7033SOL    HW221999   5.121   2.632   4.778
 7034SOL     OW22000   4.933   2.387   3.999
 7034SOL    HW122001   4.946   2.303   4.053
 7034SOL    HW222002   4.904   2.461   4.059
 7035SOL     OW22003   4.031   2.075   4.955
 7035SOL    HW122004   4.008   2.112   5.045
 7035SOL    HW222005   4.001   1.980   4.949
 7036SOL     OW22006   3.761   3.172   5.006
 7036SOL    HW122007   3.814   3.123   5.074
 7036SOL    HW222008   3.783   3.270   5.011
 7037SOL     OW22009   4.456   2.496   4.788
 7037SOL    HW122010   4.515   2.470   4.712
 7037SOL    HW222011   4.428   2.592   4.777
 7038SOL     OW22012   5.452   2.797   5.578
 7038SOL    HW122013   5.406   2.790   5.489
 7038SOL    HW222014   5.390   2.841   5.644
 7039SOL     OW22015   4.031   1.925   4.342
 7039SOL    HW122016   4.020   2.019   4.375
 7039SOL    HW222017   4.026   1.862   4.419
 7040SOL     OW22018   5.346   2.229   4.098
 7040SOL    HW122019   5.348   2.153   4.162
 7040SOL    HW222020   5.298   2.306   4.138
 7041SOL     OW22021   4.747   2.628   4.690
 7041SOL    HW122022   4.762   2.649   4.786
 7041SOL    HW222023   4.717   2.533   4.681
 7042SOL     OW22024   5.583   3.380   5.329
 7042SOL    HW122025   5.597   3.407   5.234
 7042SOL    HW222026   5.666   3.402   5.382
 7043SOL     OW22027   4.074   2.760   5.528
 7043SOL    HW122028   4.150   2.804   5.576
 7043SOL    HW222029   4.109   2.713   5.446
 7044SOL     OW22030   5.264   2.136   3.849
 7044SOL    HW122031   5.203   2.061   3.872
 7044SOL    HW222032   5.286   2.188   3.932
 7045SOL     OW22033   5.027   2.700   3.766
 7045SOL    HW122034   5.061   2.607   3.781
 7045SOL    HW222035   5.045   2.727   3.671
 7046SOL     OW22036   4.792   3.195   4.573
 7046SOL    HW122037   4.799   3.111   4.518
 7046SOL    HW222038   4.854   3.264   4.537
 7047SOL     OW22039   4.063   2.371   4.730
 7047SOL    HW122040   4.011   2.288   4.713
 7047SOL    HW222041   4.140   2.376   4.666
 7048SOL     OW22042   4.862   2.242   5.402
 7048SOL    HW122043   4.817   2.305   5.466
 7048SOL    HW222044   4.955   2.273   5.385
 7049SOL     OW22045   4.884   2.069   5.201
 7049SOL    HW122046   4.884   2.133   5.278
 7049SOL    HW222047   4.912   2.117   5.118
 7050SOL     OW22048   3.732   3.188   3.924
 7050SOL    HW122049   3.639   3.209   3.893
 7050SOL    HW222050   3.742   3.089   3.937
 7051SOL     OW22051   3.812   3.663   4.651
 7051SOL    HW122052   3.770   3.577   4.624
 7051SOL    HW222053   3.906   3.666   4.617
 7052SOL     OW22054   4.228   3.430   4.634
 7052SOL    HW122055   4.294   3.504   4.643
 7052SOL    HW222056   4.272   3.351   4.592
 7053SOL     OW22057   4.726   2.658   4.962
 7053SOL    HW122058   4.767   2.626   5.048
 7053SOL    HW222059   4.630   2.631   4.959
 7054SOL     OW22060   3.913   2.382   5.446
 7054SOL    HW122061   3.972   2.342   5.376
 7054SOL    HW222062   3.855   2.453   5.405
 7055SOL     OW22063   5.093   2.812   5.384
 7055SOL    HW122064   5.132   2.901   5.404
 7055SOL    HW222065   5.103   2.792   5.287
 7056SOL     OW22066   4.539   2.434   4.049
 7056SOL    HW122067   4.546   2.345   4.003
 7056SOL    HW222068   4.445   2.468   4.041
 7057SOL     OW22069   5.381   2.466   4.930
 7057SOL    HW122070   5.343   2.397   4.992
 7057SOL    HW222071   5.463   2.430   4.886
 7058SOL     OW22072   3.976   3.426   5.468
 7058SOL    HW122073   3.946   3.483   5.544
 7058SOL    HW222074   3.969   3.329   5.494
 7059SOL     OW22075   4.395   2.326   4.993
 7059SOL    HW122076   4.361   2.237   4.963
 7059SOL    HW222077   4.421   2.380   4.913
 7060SOL     OW22078   4.197   2.362   3.915
 7060SOL    HW122079   4.258   2.442   3.919
 7060SOL    HW222080   4.102   2.393   3.922
 7061SOL     OW22081   3.883   2.999   5.190
 7061SOL    HW122082   3.905   2.938   5.266
 7061SOL    HW222083   3.893   2.950   5.104
 7062SOL     OW22084   5.071   2.921   4.958
 7062SOL    HW122085   5.095   2.858   4.884
 7062SOL    HW222086   4.981   2.961   4.940
 7063SOL     OW22087   5.026   2.717   4.033
 7063SOL    HW122088   4.940   2.686   4.075
 7063SOL    HW222089   5.022   2.703   3.934
 7064SOL     OW22090   5.483   3.609   4.878
 7064SOL    HW122091   5.544   3.639   4.805
 7064SOL    HW222092   5.445   3.520   4.856
 7065SOL     OW22093   4.976   3.593   4.852
 7065SOL    HW122094   5.060   3.598   4.798
 7065SOL    HW222095   4.953   3.497   4.870
 7066SOL     OW22096   3.807   3.120   4.746
 7066SOL    HW122097   3.802   3.119   4.846
 7066SOL    HW222098   3.724   3.079   4.708
 7067SOL     OW22099   4.412   3.524   5.440
 7067SOL    HW122100   4.356   3.605   5.449
 7067SOL    HW222101   4.464   3.528   5.354
 7068SOL     OW22102   5.450   1.997   4.247
 7068SOL    HW122103   5.523   1.980   4.180
 7068SOL    HW222104   5.419   1.910   4.285
 7069SOL     OW22105   5.112   3.435   4.201
 7069SOL    HW122106   5.179   3.447   4.127
 7069SOL    HW222107   5.072   3.524   4.224
 7070SOL     OW22108   3.854   3.656   5.575
 7070SOL    HW122109   3.813   3.582   5.628
 7070SOL    HW222110   3.918   3.707   5.633
 7071SOL     OW22111   5.004   2.789   4.396
 7071SOL    HW122112   5.064   2.708   4.398
 7071SOL    HW222113   5.044   2.858   4.336
 7072SOL     OW22114   5.374   3.582   5.118
 7072SOL    HW122115   5.427   3.592   5.034
 7072SOL    HW222116   5.347   3.672   5.152
 7073SOL     OW22117   5.565   2.037   4.687
 7073SOL    HW122118   5.604   1.952   4.651
 7073SOL    HW222119   5.467   2.039   4.668
 7074SOL     OW22120   3.987   2.188   4.444
 7074SOL    HW122121   3.908   2.239   4.410
 7074SOL    HW222122   3.978   2.173   4.542
 7075SOL     OW22123   4.918   3.474   3.755
 7075SOL    HW122124   4.924   3.381   3.792
 7075SOL    HW222125   4.859   3.474   3.675
 7076SOL     OW22126   4.546   2.864   5.096
 7076SOL    HW122127   4.586   2.863   5.004
 7076SOL    HW222128   4.556   2.956   5.136
 7077SOL     OW22129   4.640   2.772   4.015
 7077SOL    HW122130   4.703   2.810   3.947
 7077SOL    HW222131   4.680   2.689   4.054
 7078SOL     OW22132   5.228   3.469   3.768
 7078SOL    HW122133   5.136   3.506   3.775
 7078SOL    HW222134   5.266   3.489   3.678
 7079SOL     OW22135   4.096   3.150   5.214
 7079SOL    HW122136   4.083   3.243   5.180
 7079SOL    HW222137   4.012   3.098   5.201
 7080SOL     OW22138   5.338   3.154   5.013
 7080SOL    HW122139   5.398   3.157   5.093
 7080SOL    HW222140   5.263   3.218   5.026
 7081SOL     OW22141   4.763   2.960   4.420
 7081SOL    HW122142   4.693   2.913   4.474
 7081SOL    HW222143   4.822   2.892   4.377
 7082SOL     OW22144   4.738   2.098   4.695
 7082SOL    HW122145   4.730   2.062   4.602
 7082SOL    HW222146   4.736   2.022   4.760
 7083SOL     OW22147   4.314   3.349   4.215
 7083SOL    HW122148   4.356   3.291   4.145
 7083SOL    HW222149   4.270   3.428   4.171
 7084SOL     OW22150   5.433   2.247   5.105
 7084SOL    HW122151   5.506   2.316   5.109
 7084SOL    HW222152   5.461   2.172   5.046
 7085SOL     OW22153   3.979   3.210   4.014
 7085SOL    HW122154   3.883   3.211   3.987
 7085SOL    HW222155   3.991   3.263   4.098
 7086SOL     OW22156   3.829   2.875   5.450
 7086SOL    HW122157   3.752   2.842   5.504
 7086SOL    HW222158   3.914   2.845   5.492
 7087SOL     OW22159   4.396   2.065   5.213
 7087SOL    HW122160   4.486   2.049   5.173
 7087SOL    HW222161   4.404   2.070   5.312
 7088SOL     OW22162   3.799   2.207   3.757
 7088SOL    HW122163   3.707   2.179   3.728
 7088SOL    HW222164   3.830   2.284   3.701
 7089SOL     OW22165   5.164   2.718   5.122
 7089SOL    HW122166   5.107   2.770   5.059
 7089SOL    HW222167   5.260   2.730   5.098
 7090SOL     OW22168   3.796   2.028   4.042
 7090SOL    HW122169   3.779   2.111   3.988
 7090SOL    HW222170   3.886   1.991   4.020
 7091SOL     OW22171   4.907   3.197   3.843
 7091SOL    HW122172   4.808   3.186   3.845
 7091SOL    HW222173   4.941   3.212   3.936
 7092SOL     OW22174   4.337   2.704   5.155
 7092SOL    HW122175   4.393   2.785   5.138
 7092SOL    HW222176   4.396   2.624   5.158
 7093SOL     OW22177   5.217   3.629   4.683
 7093SOL    HW122178   5.250   3.693   4.614
 7093SOL    HW222179   5.283   3.623   4.758
 7094SOL     OW22180   4.440   2.427   5.432
 7094SOL    HW122181   4.459   2.492   5.506
 7094SOL    HW222182   4.500   2.347   5.441
 7095SOL     OW22183   5.174   3.082   5.357
 7095SOL    HW122184   5.165   3.072   5.456
 7095SOL    HW222185   5.270   3.075   5.331
 7096SOL     OW22186   4.114   3.603   5.284
 7096SOL    HW122187   4.023   3.644   5.282
 7096SOL    HW222188   4.107   3.509   5.316
 7097SOL     OW22189   5.398   2.745   4.978
 7097SOL    HW122190   5.371   2.656   4.941
 7097SOL    HW222191   5.399   2.813   4.905
 7098SOL     OW22192   4.949   2.187   4.173
 7098SOL    HW122193   5.014   2.113   4.162
 7098SOL    HW222194   4.969   2.237   4.257
 7099SOL     OW22195   5.501   2.204   5.366
 7099SOL    HW122196   5.484   2.235   5.272
 7099SOL    HW222197   5.417   2.167   5.404
 7100SOL     OW22198   5.454   2.796   5.241
 7100SOL    HW122199   5.492   2.887   5.256
 7100SOL    HW222200   5.446   2.779   5.142
 7101SOL     OW22201   4.583   2.818   4.585
 7101SOL    HW122202   4.637   2.749   4.633
 7101SOL    HW222203   4.551   2.887   4.651
 7102SOL     OW22204   4.807   2.846   3.811
 7102SOL    HW122205   4.784   2.899   3.729
 7102SOL    HW222206   4.888   2.790   3.792
 7103SOL     OW22207   5.585   3.431   4.575
 7103SOL    HW122208   5.514   3.419   4.505
 7103SOL    HW222209   5.586   3.352   4.635
 7104SOL     OW22210   3.945   3.176   5.568
 7104SOL    HW122211   3.880   3.103   5.547
 7104SOL    HW222212   3.949   3.190   5.666
 7105SOL     OW22213   3.803   3.102   4.377
 7105SOL    HW122214   3.802   3.055   4.465
 7105SOL    HW222215   3.885   3.074   4.326
 7106SOL     OW22216   4.396   3.253   5.348
 7106SOL    HW122217   4.318   3.203   5.386
 7106SOL    HW222218   4.393   3.348   5.379
 7107SOL     OW22219   5.548   2.054   4.951
 7107SOL    HW122220   5.544   1.964   4.995
 7107SOL    HW222221   5.551   2.043   4.852
 7108SOL     OW22222   4.152   2.286   4.244
 7108SOL    HW122223   4.182   2.214   4.182
 7108SOL    HW222224   4.113   2.246   4.327
 7109SOL     OW22225   5.429   3.349   4.828
 7109SOL    HW122226   5.336   3.324   4.801
 7109SOL    HW222227   5.455   3.299   4.910
 7110SOL     OW22228   5.148   2.076   4.836
 7110SOL    HW122229   5.200   2.011   4.891
 7110SOL    HW222230   5.099   2.139   4.897
 7111SOL     OW22231   4.725   1.896   4.878
 7111SOL    HW122232   4.662   1.824   4.847
 7111SOL    HW222233   4.818   1.860   4.878
 7112SOL     OW22234   5.076   1.914   3.892
 7112SOL    HW122235   5.111   1.873   3.808
 7112SOL    HW222236   4.986   1.876   3.912
 7113SOL     OW22237   5.024   2.315   4.415
 7113SOL    HW122238   4.965   2.395   4.419
 7113SOL    HW222239   5.039   2.280   4.508
 7114SOL     OW22240   5.317   2.083   4.606
 7114SOL    HW122241   5.233   2.082   4.660
 7114SOL    HW222242   5.319   2.166   4.550
 7115SOL     OW22243   3.763   2.939   4.024
 7115SOL    HW122244   3.862   2.928   4.015
 7115SOL    HW222245   3.723   2.853   4.056
 7116SOL     OW22246   3.954   2.490   5.699
 7116SOL    HW122247   3.861   2.488   5.736
 7116SOL    HW222248   3.955   2.451   5.607
 7117SOL     OW22249   3.949   2.137   6.582
 7117SOL    HW122250   3.984   2.120   6.674
 7117SOL    HW222251   3.861   2.092   6.570
 7118SOL     OW22252   3.743   2.230   6.233
 7118SOL    HW122253   3.661   2.273   6.272
 7118SOL    HW222254   3.715   2.157   6.170
 7119SOL     OW22255   4.293   3.137   6.751
 7119SOL    HW122256   4.200   3.130   6.714
 7119SOL    HW222257   4.304   3.226   6.795
 7120SOL     OW22258   5.279   3.373   6.289
 7120SOL    HW122259   5.222   3.357   6.370
 7120SOL    HW222260   5.220   3.383   6.209
 7121SOL     OW22261   4.859   2.565   6.303
 7121SOL    HW122262   4.916   2.643   6.278
 7121SOL    HW222263   4.799   2.591   6.379
 7122SOL     OW22264   5.479   2.469   5.817
 7122SOL    HW122265   5.467   2.456   5.718
 7122SOL    HW222266   5.449   2.388   5.866
 7123SOL     OW22267   4.492   3.006   6.609
 7123SOL    HW122268   4.414   3.023   6.669
 7123SOL    HW222269   4.526   3.093   6.573
 7124SOL     OW22270   4.409   2.874   6.251
 7124SOL    HW122271   4.478   2.858   6.321
 7124SOL    HW222272   4.336   2.931   6.289
 7125SOL     OW22273   4.059   3.297   6.647
 7125SOL    HW122274   3.981   3.266   6.594
 7125SOL    HW222275   4.117   3.355   6.590
 7126SOL     OW22276   5.327   2.309   6.323
 7126SOL    HW122277   5.253   2.355   6.273
 7126SOL    HW222278   5.378   2.377   6.376
 7127SOL     OW22279   3.955   3.575   6.069
 7127SOL    HW122280   3.989   3.652   6.123
 7127SOL    HW222281   3.999   3.575   5.979
 7128SOL     OW22282   3.954   3.296   6.124
 7128SOL    HW122283   3.928   3.392   6.124
 7128SOL    HW222284   3.883   3.242   6.169
 7129SOL     OW22285   3.964   2.953   6.472
 7129SOL    HW122286   3.978   2.869   6.524
 7129SOL    HW222287   3.909   3.017   6.527
 7130SOL     OW22288   4.344   3.648   7.025
 7130SOL    HW122289   4.252   3.631   7.060
 7130SOL    HW222290   4.372   3.740   7.051
 7131SOL     OW22291   4.330   2.826   5.709
 7131SOL    HW122292   4.337   2.910   5.655
 7131SOL    HW222293   4.376   2.839   5.797
 7132SOL     OW22294   3.846   2.505   6.149
 7132SOL    HW122295   3.801   2.417   6.166
 7132SOL    HW222296   3.845   2.559   6.233
 7133SOL     OW22297   5.566   3.629   5.945
 7133SOL    HW122298   5.620   3.600   6.025
 7133SOL    HW222299   5.596   3.719   5.916
 7134SOL     OW22300   3.751   3.458   5.703
 7134SOL    HW122301   3.732   3.362   5.724
 7134SOL    HW222302   3.718   3.516   5.778
 7135SOL     OW22303   5.413   2.784   6.198
 7135SOL    HW122304   5.508   2.755   6.206
 7135SOL    HW222305   5.405   2.849   6.123
 7136SOL     OW22306   5.365   2.970   6.018
 7136SOL    HW122307   5.451   2.972   5.966
 7136SOL    HW222308   5.379   3.017   6.106
 7137SOL     OW22309   4.337   3.227   6.312
 7137SOL    HW122310   4.288   3.140   6.321
 7137SOL    HW222311   4.314   3.270   6.225
 7138SOL     OW22312   4.533   1.866   6.088
 7138SOL    HW122313   4.573   1.957   6.079
 7138SOL    HW222314   4.433   1.874   6.094
 7139SOL     OW22315   3.921   2.838   6.850
 7139SOL    HW122316   4.010   2.793   6.836
 7139SOL    HW222317   3.848   2.773   6.831
 7140SOL     OW22318   5.249   2.861   5.776
 7140SOL    HW122319   5.186   2.785   5.789
 7140SOL    HW222320   5.297   2.879   5.862
 7141SOL     OW22321   5.190   3.279   6.539
 7141SOL    HW122322   5.131   3.285   6.619
 7141SOL    HW222323   5.175   3.191   6.493
 7142SOL     OW22324   5.391   3.576   6.158
 7142SOL    HW122325   5.350   3.553   6.070
 7142SOL    HW222326   5.373   3.502   6.223
 7143SOL     OW22327   4.322   2.591   5.856
 7143SOL    HW122328   4.346   2.660   5.788
 7143SOL    HW222329   4.244   2.624   5.910
 7144SOL     OW22330   5.005   2.207   6.530
 7144SOL    HW122331   4.919   2.157   6.517
 7144SOL    HW222332   5.067   2.153   6.586
 7145SOL     OW22333   5.300   3.524   5.893
 7145SOL    HW122334   5.389   3.570   5.896
 7145SOL    HW222335   5.279   3.500   5.798
 7146SOL     OW22336   4.531   2.467   7.051
 7146SOL    HW122337   4.484   2.464   7.140
 7146SOL    HW222338   4.480   2.412   6.985
 7147SOL     OW22339   4.715   2.272   6.828
 7147SOL    HW122340   4.638   2.306   6.882
 7147SOL    HW222341   4.681   2.221   6.749
 7148SOL     OW22342   4.765   2.563   6.015
 7148SOL    HW122343   4.791   2.559   6.111
 7148SOL    HW222344   4.680   2.512   6.001
 7149SOL     OW22345   3.800   2.673   6.375
 7149SOL    HW122346   3.899   2.661   6.384
 7149SOL    HW222347   3.776   2.768   6.396
 7150SOL     OW22348   3.854   3.683   7.157
 7150SOL    HW122349   3.844   3.668   7.256
 7150SOL    HW222350   3.768   3.719   7.121
 7151SOL     OW22351   4.589   2.210   5.781
 7151SOL    HW122352   4.648   2.273   5.732
 7151SOL    HW222353   4.608   2.116   5.752
 7152SOL     OW22354   5.086   3.006   6.131
 7152SOL    HW122355   5.169   2.977   6.083
 7152SOL    HW222356   5.037   3.073   6.075
 7153SOL     OW22357   4.274   2.058   6.471
 7153SOL    HW122358   4.269   2.053   6.571
 7153SOL    HW222359   4.276   2.154   6.442
 7154SOL     OW22360   4.732   3.318   6.063
 7154SOL    HW122361   4.686   3.390   6.011
 7154SOL    HW222362   4.728   3.338   6.161
 7155SOL     OW22363   4.075   3.663   6.439
 7155SOL    HW122364   4.125   3.577   6.445
 7155SOL    HW222365   4.140   3.740   6.436
 7156SOL     OW22366   5.519   2.928   6.459
 7156SOL    HW122367   5.457   2.913   6.383
 7156SOL    HW222368   5.467   2.939   6.544
 7157SOL     OW22369   4.045   2.805   5.828
 7157SOL    HW122370   4.127   2.844   5.786
 7157SOL    HW222371   4.018   2.723   5.779
 7158SOL     OW22372   5.182   2.597   6.314
 7158SOL    HW122373   5.177   2.532   6.389
 7158SOL    HW222374   5.262   2.656   6.327
 7159SOL     OW22375   4.835   3.638   5.823
 7159SOL    HW122376   4.775   3.576   5.873
 7159SOL    HW222377   4.866   3.594   5.738
 7160SOL     OW22378   5.356   3.239   5.667
 7160SOL    HW122379   5.324   3.333   5.657
 7160SOL    HW222380   5.280   3.176   5.655
 7161SOL     OW22381   4.188   3.605   5.909
 7161SOL    HW122382   4.221   3.644   5.995
 7161SOL    HW222383   4.264   3.598   5.844
 7162SOL     OW22384   5.124   1.969   6.012
 7162SOL    HW122385   5.100   1.932   5.922
 7162SOL    HW222386   5.223   1.985   6.016
 7163SOL     OW22387   3.973   3.647   6.827
 7163SOL    HW122388   4.030   3.582   6.877
 7163SOL    HW222389   3.957   3.614   6.734
 7164SOL     OW22390   4.664   3.560   6.490
 7164SOL    HW122391   4.744   3.503   6.511
 7164SOL    HW222392   4.615   3.520   6.413
 7165SOL     OW22393   4.106   2.562   6.066
 7165SOL    HW122394   4.151   2.472   6.063
 7165SOL    HW222395   4.012   2.551   6.099
 7166SOL     OW22396   4.338   1.984   5.703
 7166SOL    HW122397   4.436   1.962   5.710
 7166SOL    HW222398   4.307   1.967   5.610
 7167SOL     OW22399   4.612   3.376   6.781
 7167SOL    HW122400   4.589   3.351   6.687
 7167SOL    HW222401   4.673   3.307   6.820
 7168SOL     OW22402   4.527   3.264   6.510
 7168SOL    HW122403   4.617   3.278   6.468
 7168SOL    HW222404   4.456   3.266   6.439
 7169SOL     OW22405   4.646   2.365   6.485
 7169SOL    HW122406   4.621   2.356   6.389
 7169SOL    HW222407   4.694   2.283   6.516
 7170SOL     OW22408   4.263   1.926   6.098
 7170SOL    HW122409   4.182   1.927   6.156
 7170SOL    HW222410   4.266   2.009   6.043
 7171SOL     OW22411   5.158   3.050   5.627
 7171SOL    HW122412   5.190   2.974   5.684
 7171SOL    HW222413   5.066   3.077   5.657
 7172SOL     OW22414   4.021   1.897   5.757
 7172SOL    HW122415   4.070   1.981   5.736
 7172SOL    HW222416   4.083   1.832   5.802
 7173SOL     OW22417   4.659   2.098   6.066
 7173SOL    HW122418   4.611   2.139   5.988
 7173SOL    HW222419   4.758   2.096   6.047
 7174SOL     OW22420   4.951   3.432   6.379
 7174SOL    HW122421   4.972   3.506   6.314
 7174SOL    HW222422   5.019   3.432   6.452
 7175SOL     OW22423   4.183   3.014   6.327
 7175SOL    HW122424   4.112   2.987   6.392
 7175SOL    HW222425   4.157   2.986   6.234
 7176SOL     OW22426   4.995   3.659   6.177
 7176SOL    HW122427   5.039   3.723   6.113
 7176SOL    HW222428   4.945   3.711   6.247
 7177SOL     OW22429   4.756   2.411   5.602
 7177SOL    HW122430   4.715   2.493   5.563
 7177SOL    HW222431   4.820   2.437   5.675
 7178SOL     OW22432   4.285   2.084   6.733
 7178SOL    HW122433   4.323   2.000   6.770
 7178SOL    HW222434   4.197   2.103   6.777
 7179SOL     OW22435   4.590   2.316   6.228
 7179SOL    HW122436   4.558   2.388   6.166
 7179SOL    HW222437   4.614   2.235   6.175
 7180SOL     OW22438   4.741   1.901   6.339
 7180SOL    HW122439   4.669   1.906   6.270
 7180SOL    HW222440   4.717   1.832   6.408
 7181SOL     OW22441   5.153   3.035   6.453
 7181SOL    HW122442   5.098   2.951   6.446
 7181SOL    HW222443   5.179   3.064   6.361
 7182SOL     OW22444   5.190   2.452   6.578
 7182SOL    HW122445   5.160   2.357   6.585
 7182SOL    HW222446   5.263   2.468   6.644
 7183SOL     OW22447   5.581   2.695   5.963
 7183SOL    HW122448   5.623   2.631   6.027
 7183SOL    HW222449   5.543   2.644   5.885
 7184SOL     OW22450   4.212   3.247   5.760
 7184SOL    HW122451   4.125   3.232   5.807
 7184SOL    HW222452   4.195   3.273   5.665
 7185SOL     OW22453   5.388   3.142   6.243
 7185SOL    HW122454   5.487   3.150   6.257
 7185SOL    HW222455   5.343   3.226   6.274
 7186SOL     OW22456   5.114   2.437   5.664
 7186SOL    HW122457   5.060   2.416   5.745
 7186SOL    HW222458   5.205   2.396   5.673
 7187SOL     OW22459   4.251   2.118   5.914
 7187SOL    HW122460   4.278   2.059   5.839
 7187SOL    HW222461   4.251   2.213   5.883
 7188SOL     OW22462   5.478   3.085   7.174
 7188SOL    HW122463   5.569   3.046   7.161
 7188SOL    HW222464   5.486   3.181   7.198
 7189SOL     OW22465   4.835   3.057   6.686
 7189SOL    HW122466   4.795   3.101   6.767
 7189SOL    HW222467   4.794   3.094   6.603
 7190SOL     OW22468   5.362   2.961   6.665
 7190SOL    HW122469   5.367   3.042   6.724
 7190SOL    HW222470   5.276   2.963   6.614
 7191SOL     OW22471   4.429   2.912   5.954
 7191SOL    HW122472   4.415   2.919   6.053
 7191SOL    HW222473   4.513   2.861   5.936
 7192SOL     OW22474   4.134   2.675   6.837
 7192SOL    HW122475   4.220   2.687   6.887
 7192SOL    HW222476   4.092   2.588   6.864
 7193SOL     OW22477   4.998   2.248   6.848
 7193SOL    HW122478   5.019   2.322   6.912
 7193SOL    HW222479   4.909   2.265   6.805
 7194SOL     OW22480   3.788   3.426   6.917
 7194SOL    HW122481   3.742   3.508   6.883
 7194SOL    HW222482   3.886   3.445   6.926
 7195SOL     OW22483   4.091   2.962   6.087
 7195SOL    HW122484   4.084   3.045   6.031
 7195SOL    HW222485   4.095   2.882   6.027
 7196SOL     OW22486   4.290   2.399   6.451
 7196SOL    HW122487   4.302   2.465   6.377
 7196SOL    HW222488   4.336   2.433   6.534
 7197SOL     OW22489   4.976   3.210   5.974
 7197SOL    HW122490   5.026   3.287   6.014
 7197SOL    HW222491   4.881   3.212   6.006
 7198SOL     OW22492   4.996   3.307   6.728
 7198SOL    HW122493   5.043   3.320   6.815
 7198SOL    HW222494   4.930   3.233   6.737
 7199SOL     OW22495   5.306   2.501   6.058
 7199SOL    HW122496   5.275   2.562   6.131
 7199SOL    HW222497   5.356   2.553   5.989
 7200SOL     OW22498   4.078   3.372   6.915
 7200SOL    HW122499   4.057   3.328   6.828
 7200SOL    HW222500   4.175   3.398   6.918
 7201SOL     OW22501   4.297   2.732   6.615
 7201SOL    HW122502   4.341   2.821   6.606
 7201SOL    HW222503   4.234   2.732   6.692
 7202SOL     OW22504   5.084   2.724   6.631
 7202SOL    HW122505   5.009   2.724   6.565
 7202SOL    HW222506   5.121   2.632   6.640
 7203SOL     OW22507   4.933   2.387   5.861
 7203SOL    HW122508   4.946   2.303   5.915
 7203SOL    HW222509   4.904   2.461   5.921
 7204SOL     OW22510   4.031   2.075   6.817
 7204SOL    HW122511   4.008   2.112   6.907
 7204SOL    HW222512   4.001   1.980   6.811
 7205SOL     OW22513   3.761   3.172   6.868
 7205SOL    HW122514   3.814   3.123   6.936
 7205SOL    HW222515   3.783   3.270   6.873
 7206SOL     OW22516   4.456   2.496   6.650
 7206SOL    HW122517   4.515   2.470   6.574
 7206SOL    HW222518   4.428   2.592   6.639
 7207SOL     OW22519   4.031   1.925   6.204
 7207SOL    HW122520   4.020   2.019   6.237
 7207SOL    HW222521   4.026   1.862   6.281
 7208SOL     OW22522   5.346   2.229   5.960
 7208SOL    HW122523   5.348   2.153   6.024
 7208SOL    HW222524   5.298   2.306   6.000
 7209SOL     OW22525   4.747   2.628   6.552
 7209SOL    HW122526   4.762   2.649   6.648
 7209SOL    HW222527   4.717   2.533   6.543
 7210SOL     OW22528   5.264   2.136   5.711
 7210SOL    HW122529   5.203   2.061   5.734
 7210SOL    HW222530   5.286   2.188   5.794
 7211SOL     OW22531   5.027   2.700   5.628
 7211SOL    HW122532   5.061   2.607   5.643
 7211SOL    HW222533   5.045   2.727   5.533
 7212SOL     OW22534   4.792   3.195   6.435
 7212SOL    HW122535   4.799   3.111   6.380
 7212SOL    HW222536   4.854   3.264   6.399
 7213SOL     OW22537   4.043   2.672   6.535
 7213SOL    HW122538   4.136   2.708   6.540
 7213SOL    HW222539   4.037   2.587   6.587
 7214SOL     OW22540   4.063   2.371   6.592
 7214SOL    HW122541   4.011   2.288   6.575
 7214SOL    HW222542   4.140   2.376   6.528
 7215SOL     OW22543   4.884   2.069   7.063
 7215SOL    HW122544   4.884   2.133   7.140
 7215SOL    HW222545   4.912   2.117   6.980
 7216SOL     OW22546   3.732   3.188   5.786
 7216SOL    HW122547   3.639   3.209   5.755
 7216SOL    HW222548   3.742   3.089   5.799
 7217SOL     OW22549   3.812   3.663   6.513
 7217SOL    HW122550   3.770   3.577   6.486
 7217SOL    HW222551   3.906   3.666   6.479
 7218SOL     OW22552   4.228   3.430   6.496
 7218SOL    HW122553   4.294   3.504   6.505
 7218SOL    HW222554   4.272   3.351   6.454
 7219SOL     OW22555   4.726   2.658   6.824
 7219SOL    HW122556   4.767   2.626   6.910
 7219SOL    HW222557   4.630   2.631   6.821
 7220SOL     OW22558   3.764   2.406   6.700
 7220SOL    HW122559   3.849   2.373   6.659
 7220SOL    HW222560   3.777   2.421   6.798
 7221SOL     OW22561   4.539   2.434   5.911
 7221SOL    HW122562   4.546   2.345   5.865
 7221SOL    HW222563   4.445   2.468   5.903
 7222SOL     OW22564   5.381   2.466   6.792
 7222SOL    HW122565   5.343   2.397   6.854
 7222SOL    HW222566   5.463   2.430   6.748
 7223SOL     OW22567   4.395   2.326   6.855
 7223SOL    HW122568   4.361   2.237   6.825
 7223SOL    HW222569   4.421   2.380   6.775
 7224SOL     OW22570   4.654   3.540   7.051
 7224SOL    HW122571   4.630   3.522   6.956
 7224SOL    HW222572   4.684   3.634   7.061
 7225SOL     OW22573   4.197   2.362   5.777
 7225SOL    HW122574   4.258   2.442   5.781
 7225SOL    HW222575   4.102   2.393   5.784
 7226SOL     OW22576   3.883   2.999   7.052
 7226SOL    HW122577   3.905   2.938   7.128
 7226SOL    HW222578   3.893   2.950   6.966
 7227SOL     OW22579   5.071   2.921   6.820
 7227SOL    HW122580   5.095   2.858   6.746
 7227SOL    HW222581   4.981   2.961   6.802
 7228SOL     OW22582   5.026   2.717   5.895
 7228SOL    HW122583   4.940   2.686   5.937
 7228SOL    HW222584   5.022   2.703   5.796
 7229SOL     OW22585   5.483   3.609   6.740
 7229SOL    HW122586   5.544   3.639   6.667
 7229SOL    HW222587   5.445   3.520   6.718
 7230SOL     OW22588   4.976   3.593   6.714
 7230SOL    HW122589   5.060   3.598   6.660
 7230SOL    HW222590   4.953   3.497   6.732
 7231SOL     OW22591   3.807   3.120   6.608
 7231SOL    HW122592   3.802   3.119   6.708
 7231SOL    HW222593   3.724   3.079   6.570
 7232SOL     OW22594   5.450   1.997   6.109
 7232SOL    HW122595   5.523   1.980   6.042
 7232SOL    HW222596   5.419   1.910   6.147
 7233SOL     OW22597   5.112   3.435   6.063
 7233SOL    HW122598   5.179   3.447   5.989
 7233SOL    HW222599   5.072   3.524   6.086
 7234SOL     OW22600   5.004   2.789   6.258
 7234SOL    HW122601   5.064   2.708   6.260
 7234SOL    HW222602   5.044   2.858   6.198
 7235SOL     OW22603   4.396   3.478   5.740
 7235SOL    HW122604   4.405   3.488   5.641
 7235SOL    HW222605   4.356   3.389   5.761
 7236SOL     OW22606   5.565   2.037   6.549
 7236SOL    HW122607   5.604   1.952   6.513
 7236SOL    HW222608   5.467   2.039   6.530
 7237SOL     OW22609   3.987   2.188   6.306
 7237SOL    HW122610   3.908   2.239   6.272
 7237SOL    HW222611   3.978   2.173   6.404
 7238SOL     OW22612   4.918   3.474   5.617
 7238SOL    HW122613   4.924   3.381   5.654
 7238SOL    HW222614   4.859   3.474   5.537
 7239SOL     OW22615   4.546   2.864   6.958
 7239SOL    HW122616   4.586   2.863   6.866
 7239SOL    HW222617   4.556   2.956   6.998
 7240SOL     OW22618   4.640   2.772   5.877
 7240SOL    HW122619   4.703   2.810   5.809
 7240SOL    HW222620   4.680   2.689   5.916
 7241SOL     OW22621   5.228   3.469   5.630
 7241SOL    HW122622   5.136   3.506   5.637
 7241SOL    HW222623   5.266   3.489   5.540
 7242SOL     OW22624   5.338   3.154   6.875
 7242SOL    HW122625   5.398   3.157   6.955
 7242SOL    HW222626   5.263   3.218   6.888
 7243SOL     OW22627   4.763   2.960   6.282
 7243SOL    HW122628   4.693   2.913   6.336
 7243SOL    HW222629   4.822   2.892   6.239
 7244SOL     OW22630   4.738   2.098   6.557
 7244SOL    HW122631   4.730   2.062   6.464
 7244SOL    HW222632   4.736   2.022   6.622
 7245SOL     OW22633   4.314   3.349   6.077
 7245SOL    HW122634   4.356   3.291   6.007
 7245SOL    HW222635   4.270   3.428   6.033
 7246SOL     OW22636   5.433   2.247   6.967
 7246SOL    HW122637   5.506   2.316   6.971
 7246SOL    HW222638   5.461   2.172   6.908
 7247SOL     OW22639   3.979   3.210   5.876
 7247SOL    HW122640   3.883   3.211   5.849
 7247SOL    HW222641   3.991   3.263   5.960
 7248SOL     OW22642   4.396   2.065   7.075
 7248SOL    HW122643   4.486   2.049   7.035
 7248SOL    HW222644   4.404   2.070   7.174
 7249SOL     OW22645   3.799   2.207   5.619
 7249SOL    HW122646   3.707   2.179   5.590
 7249SOL    HW222647   3.830   2.284   5.563
 7250SOL     OW22648   3.796   2.028   5.904
 7250SOL    HW122649   3.779   2.111   5.850
 7250SOL    HW222650   3.886   1.991   5.882
 7251SOL     OW22651   4.907   3.197   5.705
 7251SOL    HW122652   4.808   3.186   5.707
 7251SOL    HW222653   4.941   3.212   5.798
 7252SOL     OW22654   5.217   3.629   6.545
 7252SOL    HW122655   5.250   3.693   6.476
 7252SOL    HW222656   5.283   3.623   6.620
 7253SOL     OW22657   5.174   3.082   7.219
 7253SOL    HW122658   5.165   3.072   7.318
 7253SOL    HW222659   5.270   3.075   7.193
 7254SOL     OW22660   4.114   3.603   7.146
 7254SOL    HW122661   4.023   3.644   7.144
 7254SOL    HW222662   4.107   3.509   7.178
 7255SOL     OW22663   5.398   2.745   6.840
 7255SOL    HW122664   5.371   2.656   6.803
 7255SOL    HW222665   5.399   2.813   6.767
 7256SOL     OW22666   4.949   2.187   6.035
 7256SOL    HW122667   5.014   2.113   6.024
 7256SOL    HW222668   4.969   2.237   6.119
 7257SOL     OW22669   4.318   2.607   6.238
 7257SOL    HW122670   4.368   2.692   6.219
 7257SOL    HW222671   4.230   2.609   6.190
 7258SOL     OW22672   5.454   2.796   7.103
 7258SOL    HW122673   5.492   2.887   7.118
 7258SOL    HW222674   5.446   2.779   7.004
 7259SOL     OW22675   4.583   3.236   5.602
 7259SOL    HW122676   4.537   3.251   5.690
 7259SOL    HW222677   4.627   3.321   5.572
 7260SOL     OW22678   4.385   3.652   6.539
 7260SOL    HW122679   4.339   3.740   6.526
 7260SOL    HW222680   4.484   3.664   6.532
 7261SOL     OW22681   4.583   2.818   6.447
 7261SOL    HW122682   4.637   2.749   6.495
 7261SOL    HW222683   4.551   2.887   6.513
 7262SOL     OW22684   4.807   2.846   5.673
 7262SOL    HW122685   4.784   2.899   5.591
 7262SOL    HW222686   4.888   2.790   5.654
 7263SOL     OW22687   5.585   3.431   6.437
 7263SOL    HW122688   5.514   3.419   6.367
 7263SOL    HW222689   5.586   3.352   6.497
 7264SOL     OW22690   3.803   3.102   6.239
 7264SOL    HW122691   3.802   3.055   6.327
 7264SOL    HW222692   3.885   3.074   6.188
 7265SOL     OW22693   5.548   2.054   6.813
 7265SOL    HW122694   5.544   1.964   6.857
 7265SOL    HW222695   5.551   2.043   6.714
 7266SOL     OW22696   4.152   2.286   6.106
 7266SOL    HW122697   4.182   2.214   6.044
 7266SOL    HW222698   4.113   2.246   6.189
 7267SOL     OW22699   5.429   3.349   6.690
 7267SOL    HW122700   5.336   3.324   6.663
 7267SOL    HW222701   5.455   3.299   6.772
 7268SOL     OW22702   4.041   2.409   6.866
 7268SOL    HW122703   4.079   2.350   6.938
 7268SOL    HW222704   4.081   2.383   6.778
 7269SOL     OW22705   4.536   3.448   6.273
 7269SOL    HW122706   4.568   3.458   6.179
 7269SOL    HW222707   4.457   3.386   6.275
 7270SOL     OW22708   5.148   2.076   6.698
 7270SOL    HW122709   5.200   2.011   6.753
 7270SOL    HW222710   5.099   2.139   6.759
 7271SOL     OW22711   4.725   1.896   6.740
 7271SOL    HW122712   4.662   1.824   6.709
 7271SOL    HW222713   4.818   1.860   6.740
 7272SOL     OW22714   4.494   3.192   5.887
 7272SOL    HW122715   4.448   3.105   5.904
 7272SOL    HW222716   4.585   3.189   5.928
 7273SOL     OW22717   4.342   3.429   6.870
 7273SOL    HW122718   4.337   3.511   6.927
 7273SOL    HW222719   4.431   3.426   6.825
 7274SOL     OW22720   5.076   1.914   5.754
 7274SOL    HW122721   5.111   1.873   5.670
 7274SOL    HW222722   4.986   1.876   5.774
 7275SOL     OW22723   5.024   2.315   6.277
 7275SOL    HW122724   4.965   2.395   6.281
 7275SOL    HW222725   5.039   2.280   6.370
 7276SOL     OW22726   5.317   2.083   6.468
 7276SOL    HW122727   5.233   2.082   6.522
 7276SOL    HW222728   5.319   2.166   6.412
 7277SOL     OW22729   3.763   2.939   5.886
 7277SOL    HW122730   3.862   2.928   5.877
 7277SOL    HW222731   3.723   2.853   5.918
 7278SOL     OW22732   4.599   3.508   5.923
 7278SOL    HW122733   4.522   3.473   5.869
 7278SOL    HW222734   4.567   3.579   5.985
 7279SOL     OW22735   3.954   4.352   0.113
 7279SOL    HW122736   3.861   4.350   0.150
 7279SOL    HW222737   3.955   4.313   0.021
 7280SOL     OW22738   3.743   4.092   0.647
 7280SOL    HW122739   3.661   4.135   0.686
 7280SOL    HW222740   3.715   4.019   0.584
 7281SOL     OW22741   4.293   4.999   1.165
 7281SOL    HW122742   4.200   4.992   1.128
 7281SOL    HW222743   4.304   5.088   1.209
 7282SOL     OW22744   5.279   5.235   0.703
 7282SOL    HW122745   5.222   5.219   0.784
 7282SOL    HW222746   5.220   5.245   0.623
 7283SOL     OW22747   4.859   4.427   0.717
 7283SOL    HW122748   4.916   4.505   0.692
 7283SOL    HW222749   4.799   4.453   0.793
 7284SOL     OW22750   5.479   4.331   0.231
 7284SOL    HW122751   5.467   4.318   0.132
 7284SOL    HW222752   5.449   4.250   0.280
 7285SOL     OW22753   4.492   4.868   1.023
 7285SOL    HW122754   4.414   4.885   1.083
 7285SOL    HW222755   4.526   4.955   0.987
 7286SOL     OW22756   4.574   4.522   1.823
 7286SOL    HW122757   4.570   4.598   1.888
 7286SOL    HW222758   4.596   4.558   1.732
 7287SOL     OW22759   4.409   4.736   0.665
 7287SOL    HW122760   4.478   4.720   0.735
 7287SOL    HW222761   4.336   4.793   0.703
 7288SOL     OW22762   4.410   4.885   1.803
 7288SOL    HW122763   4.470   4.964   1.817
 7288SOL    HW222764   4.324   4.916   1.762
 7289SOL     OW22765   4.059   5.159   1.061
 7289SOL    HW122766   3.981   5.128   1.008
 7289SOL    HW222767   4.117   5.217   1.004
 7290SOL     OW22768   5.184   5.229   1.339
 7290SOL    HW122769   5.208   5.323   1.365
 7290SOL    HW222770   5.168   5.175   1.421
 7291SOL     OW22771   4.162   4.116   1.499
 7291SOL    HW122772   4.244   4.060   1.508
 7291SOL    HW222773   4.081   4.058   1.503
 7292SOL     OW22774   5.327   4.171   0.737
 7292SOL    HW122775   5.253   4.217   0.687
 7292SOL    HW222776   5.378   4.239   0.790
 7293SOL     OW22777   3.955   5.437   0.483
 7293SOL    HW122778   3.989   5.514   0.537
 7293SOL    HW222779   3.999   5.437   0.393
 7294SOL     OW22780   4.851   5.065   1.690
 7294SOL    HW122781   4.898   5.065   1.778
 7294SOL    HW222782   4.803   4.978   1.679
 7295SOL     OW22783   3.954   5.158   0.538
 7295SOL    HW122784   3.928   5.254   0.538
 7295SOL    HW222785   3.883   5.104   0.583
 7296SOL     OW22786   3.964   4.815   0.886
 7296SOL    HW122787   3.978   4.731   0.938
 7296SOL    HW222788   3.909   4.879   0.941
 7297SOL     OW22789   4.344   5.510   1.439
 7297SOL    HW122790   4.252   5.493   1.474
 7297SOL    HW222791   4.372   5.602   1.465
 7298SOL     OW22792   4.330   4.688   0.123
 7298SOL    HW122793   4.337   4.772   0.069
 7298SOL    HW222794   4.376   4.701   0.211
 7299SOL     OW22795   5.318   3.838   1.480
 7299SOL    HW122796   5.300   3.905   1.408
 7299SOL    HW222797   5.315   3.884   1.569
 7300SOL     OW22798   3.846   4.367   0.563
 7300SOL    HW122799   3.801   4.279   0.580
 7300SOL    HW222800   3.845   4.421   0.647
 7301SOL     OW22801   5.566   5.491   0.359
 7301SOL    HW122802   5.620   5.462   0.439
 7301SOL    HW222803   5.596   5.581   0.330
 7302SOL     OW22804   3.751   5.320   0.117
 7302SOL    HW122805   3.732   5.224   0.138
 7302SOL    HW222806   3.718   5.378   0.192
 7303SOL     OW22807   5.413   4.646   0.612
 7303SOL    HW122808   5.508   4.617   0.620
 7303SOL    HW222809   5.405   4.711   0.537
 7304SOL     OW22810   5.365   4.832   0.432
 7304SOL    HW122811   5.451   4.834   0.380
 7304SOL    HW222812   5.379   4.879   0.520
 7305SOL     OW22813   3.837   4.461   1.597
 7305SOL    HW122814   3.925   4.448   1.642
 7305SOL    HW222815   3.824   4.558   1.575
 7306SOL     OW22816   4.337   5.089   0.726
 7306SOL    HW122817   4.288   5.002   0.735
 7306SOL    HW222818   4.314   5.132   0.639
 7307SOL     OW22819   5.017   4.952   1.423
 7307SOL    HW122820   5.054   4.879   1.365
 7307SOL    HW222821   5.069   4.957   1.508
 7308SOL     OW22822   4.533   3.728   0.502
 7308SOL    HW122823   4.573   3.819   0.493
 7308SOL    HW222824   4.433   3.736   0.508
 7309SOL     OW22825   3.921   4.700   1.264
 7309SOL    HW122826   4.010   4.655   1.250
 7309SOL    HW222827   3.848   4.635   1.245
 7310SOL     OW22828   5.249   4.723   0.190
 7310SOL    HW122829   5.186   4.647   0.203
 7310SOL    HW222830   5.297   4.741   0.276
 7311SOL     OW22831   4.911   5.516   1.616
 7311SOL    HW122832   4.935   5.576   1.540
 7311SOL    HW222833   4.918   5.421   1.586
 7312SOL     OW22834   4.041   3.975   1.801
 7312SOL    HW122835   4.112   4.046   1.807
 7312SOL    HW222836   3.953   4.014   1.829
 7313SOL     OW22837   5.190   5.141   0.953
 7313SOL    HW122838   5.131   5.147   1.033
 7313SOL    HW222839   5.175   5.053   0.907
 7314SOL     OW22840   5.391   5.438   0.572
 7314SOL    HW122841   5.350   5.415   0.484
 7314SOL    HW222842   5.373   5.364   0.637
 7315SOL     OW22843   4.322   4.453   0.270
 7315SOL    HW122844   4.346   4.522   0.202
 7315SOL    HW222845   4.244   4.486   0.324
 7316SOL     OW22846   5.005   4.069   0.944
 7316SOL    HW122847   4.919   4.019   0.931
 7316SOL    HW222848   5.067   4.015   1.000
 7317SOL     OW22849   5.300   5.386   0.307
 7317SOL    HW122850   5.389   5.432   0.310
 7317SOL    HW222851   5.279   5.362   0.212
 7318SOL     OW22852   4.531   4.329   1.465
 7318SOL    HW122853   4.484   4.326   1.554
 7318SOL    HW222854   4.480   4.274   1.399
 7319SOL     OW22855   5.118   4.193   1.674
 7319SOL    HW122856   5.098   4.236   1.762
 7319SOL    HW222857   5.196   4.131   1.683
 7320SOL     OW22858   4.697   4.614   1.572
 7320SOL    HW122859   4.743   4.530   1.543
 7320SOL    HW222860   4.641   4.648   1.497
 7321SOL     OW22861   4.715   4.134   1.242
 7321SOL    HW122862   4.638   4.168   1.296
 7321SOL    HW222863   4.681   4.083   1.163
 7322SOL     OW22864   4.765   4.425   0.429
 7322SOL    HW122865   4.791   4.421   0.525
 7322SOL    HW222866   4.680   4.374   0.415
 7323SOL     OW22867   3.800   4.535   0.789
 7323SOL    HW122868   3.899   4.523   0.798
 7323SOL    HW222869   3.776   4.630   0.810
 7324SOL     OW22870   3.854   5.545   1.571
 7324SOL    HW122871   3.844   5.530   1.670
 7324SOL    HW222872   3.768   5.581   1.535
 7325SOL     OW22873   4.589   4.072   0.195
 7325SOL    HW122874   4.648   4.135   0.146
 7325SOL    HW222875   4.608   3.978   0.166
 7326SOL     OW22876   5.443   4.309   1.831
 7326SOL    HW122877   5.417   4.398   1.795
 7326SOL    HW222878   5.441   4.241   1.758
 7327SOL     OW22879   5.086   4.868   0.545
 7327SOL    HW122880   5.169   4.839   0.497
 7327SOL    HW222881   5.037   4.935   0.489
 7328SOL     OW22882   4.274   3.920   0.885
 7328SOL    HW122883   4.269   3.915   0.985
 7328SOL    HW222884   4.276   4.016   0.856
 7329SOL     OW22885   4.732   5.180   0.477
 7329SOL    HW122886   4.686   5.252   0.425
 7329SOL    HW222887   4.728   5.200   0.575
 7330SOL     OW22888   4.075   5.525   0.853
 7330SOL    HW122889   4.125   5.439   0.859
 7330SOL    HW222890   4.140   5.602   0.850
 7331SOL     OW22891   5.519   4.790   0.873
 7331SOL    HW122892   5.457   4.775   0.797
 7331SOL    HW222893   5.467   4.801   0.958
 7332SOL     OW22894   4.951   5.274   1.506
 7332SOL    HW122895   4.957   5.197   1.570
 7332SOL    HW222896   4.899   5.248   1.426
 7333SOL     OW22897   4.045   4.667   0.242
 7333SOL    HW122898   4.127   4.706   0.200
 7333SOL    HW222899   4.018   4.585   0.193
 7334SOL     OW22900   5.182   4.459   0.728
 7334SOL    HW122901   5.177   4.394   0.803
 7334SOL    HW222902   5.262   4.518   0.741
 7335SOL     OW22903   4.185   4.990   1.727
 7335SOL    HW122904   4.135   4.991   1.641
 7335SOL    HW222905   4.122   4.972   1.803
 7336SOL     OW22906   4.835   5.500   0.237
 7336SOL    HW122907   4.775   5.438   0.287
 7336SOL    HW222908   4.866   5.456   0.152
 7337SOL     OW22909   3.926   4.009   1.498
 7337SOL    HW122910   3.846   4.069   1.485
 7337SOL    HW222911   3.916   3.960   1.584
 7338SOL     OW22912   5.356   5.101   0.081
 7338SOL    HW122913   5.324   5.195   0.071
 7338SOL    HW222914   5.280   5.038   0.069
 7339SOL     OW22915   4.188   5.467   0.323
 7339SOL    HW122916   4.221   5.506   0.409
 7339SOL    HW222917   4.264   5.460   0.258
 7340SOL     OW22918   3.973   5.509   1.241
 7340SOL    HW122919   4.030   5.444   1.291
 7340SOL    HW222920   3.957   5.476   1.148
 7341SOL     OW22921   4.664   5.422   0.904
 7341SOL    HW122922   4.744   5.365   0.925
 7341SOL    HW222923   4.615   5.382   0.827
 7342SOL     OW22924   4.106   4.424   0.480
 7342SOL    HW122925   4.151   4.334   0.477
 7342SOL    HW222926   4.012   4.413   0.513
 7343SOL     OW22927   5.271   3.946   1.729
 7343SOL    HW122928   5.266   3.983   1.821
 7343SOL    HW222929   5.199   3.877   1.717
 7344SOL     OW22930   4.612   5.238   1.195
 7344SOL    HW122931   4.589   5.213   1.101
 7344SOL    HW222932   4.673   5.169   1.234
 7345SOL     OW22933   5.075   4.314   1.433
 7345SOL    HW122934   5.103   4.271   1.518
 7345SOL    HW222935   5.100   4.410   1.434
 7346SOL     OW22936   4.527   5.126   0.924
 7346SOL    HW122937   4.617   5.140   0.882
 7346SOL    HW222938   4.456   5.128   0.853
 7347SOL     OW22939   4.646   4.227   0.899
 7347SOL    HW122940   4.621   4.218   0.803
 7347SOL    HW222941   4.694   4.145   0.930
 7348SOL     OW22942   4.263   3.788   0.512
 7348SOL    HW122943   4.182   3.789   0.570
 7348SOL    HW222944   4.266   3.871   0.457
 7349SOL     OW22945   5.158   4.912   0.041
 7349SOL    HW122946   5.190   4.836   0.098
 7349SOL    HW222947   5.066   4.939   0.071
 7350SOL     OW22948   4.659   3.960   0.480
 7350SOL    HW122949   4.611   4.001   0.402
 7350SOL    HW222950   4.758   3.958   0.461
 7351SOL     OW22951   4.800   4.407   1.464
 7351SOL    HW122952   4.720   4.346   1.467
 7351SOL    HW222953   4.881   4.354   1.440
 7352SOL     OW22954   4.951   5.294   0.793
 7352SOL    HW122955   4.972   5.368   0.728
 7352SOL    HW222956   5.019   5.294   0.866
 7353SOL     OW22957   4.183   4.876   0.741
 7353SOL    HW122958   4.112   4.849   0.806
 7353SOL    HW222959   4.157   4.848   0.648
 7354SOL     OW22960   4.995   5.521   0.591
 7354SOL    HW122961   5.039   5.585   0.527
 7354SOL    HW222962   4.945   5.573   0.661
 7355SOL     OW22963   4.756   4.273   0.016
 7355SOL    HW122964   4.715   4.355  -0.023
 7355SOL    HW222965   4.820   4.299   0.089
 7356SOL     OW22966   3.802   4.280   1.386
 7356SOL    HW122967   3.894   4.279   1.345
 7356SOL    HW222968   3.796   4.354   1.453
 7357SOL     OW22969   4.285   3.946   1.147
 7357SOL    HW122970   4.323   3.862   1.184
 7357SOL    HW222971   4.197   3.965   1.191
 7358SOL     OW22972   4.590   4.178   0.642
 7358SOL    HW122973   4.558   4.250   0.580
 7358SOL    HW222974   4.614   4.097   0.589
 7359SOL     OW22975   4.741   3.763   0.753
 7359SOL    HW122976   4.669   3.768   0.684
 7359SOL    HW222977   4.717   3.694   0.822
 7360SOL     OW22978   5.153   4.897   0.867
 7360SOL    HW122979   5.098   4.813   0.860
 7360SOL    HW222980   5.179   4.926   0.775
 7361SOL     OW22981   5.190   4.314   0.992
 7361SOL    HW122982   5.160   4.219   0.999
 7361SOL    HW222983   5.263   4.330   1.058
 7362SOL     OW22984   5.581   4.557   0.377
 7362SOL    HW122985   5.623   4.493   0.441
 7362SOL    HW222986   5.543   4.506   0.299
 7363SOL     OW22987   4.212   5.109   0.174
 7363SOL    HW122988   4.125   5.094   0.221
 7363SOL    HW222989   4.195   5.135   0.079
 7364SOL     OW22990   5.388   5.004   0.657
 7364SOL    HW122991   5.487   5.012   0.671
 7364SOL    HW222992   5.343   5.088   0.688
 7365SOL     OW22993   5.114   4.299   0.078
 7365SOL    HW122994   5.060   4.278   0.159
 7365SOL    HW222995   5.205   4.258   0.087
 7366SOL     OW22996   4.251   3.980   0.328
 7366SOL    HW122997   4.278   3.921   0.253
 7366SOL    HW222998   4.251   4.075   0.297
 7367SOL     OW22999   5.478   4.947   1.588
 7367SOL    HW123000   5.569   4.908   1.575
 7367SOL    HW223001   5.486   5.043   1.612
 7368SOL     OW23002   4.788   5.071   1.340
 7368SOL    HW123003   4.708   5.048   1.395
 7368SOL    HW223004   4.871   5.045   1.389
 7369SOL     OW23005   5.316   5.353   1.625
 7369SOL    HW123006   5.343   5.387   1.535
 7369SOL    HW223007   5.395   5.315   1.671
 7370SOL     OW23008   4.835   4.919   1.100
 7370SOL    HW123009   4.795   4.963   1.181
 7370SOL    HW223010   4.794   4.956   1.017
 7371SOL     OW23011   5.362   4.823   1.079
 7371SOL    HW123012   5.367   4.904   1.138
 7371SOL    HW223013   5.276   4.825   1.028
 7372SOL     OW23014   4.639   3.813   1.402
 7372SOL    HW123015   4.664   3.793   1.307
 7372SOL    HW223016   4.711   3.869   1.444
 7373SOL     OW23017   4.704   4.840   1.719
 7373SOL    HW123018   4.605   4.846   1.729
 7373SOL    HW223019   4.727   4.760   1.663
 7374SOL     OW23020   4.429   4.774   0.368
 7374SOL    HW123021   4.415   4.781   0.467
 7374SOL    HW223022   4.513   4.723   0.350
 7375SOL     OW23023   4.134   4.537   1.251
 7375SOL    HW123024   4.220   4.549   1.301
 7375SOL    HW223025   4.092   4.450   1.278
 7376SOL     OW23026   4.998   4.110   1.262
 7376SOL    HW123027   5.019   4.184   1.326
 7376SOL    HW223028   4.909   4.127   1.219
 7377SOL     OW23029   3.788   5.288   1.331
 7377SOL    HW123030   3.742   5.370   1.297
 7377SOL    HW223031   3.886   5.307   1.340
 7378SOL     OW23032   4.091   4.824   0.501
 7378SOL    HW123033   4.084   4.907   0.445
 7378SOL    HW223034   4.095   4.744   0.441
 7379SOL     OW23035   4.290   4.261   0.865
 7379SOL    HW123036   4.302   4.327   0.791
 7379SOL    HW223037   4.336   4.295   0.948
 7380SOL     OW23038   4.976   5.072   0.388
 7380SOL    HW123039   5.026   5.149   0.428
 7380SOL    HW223040   4.881   5.074   0.420
 7381SOL     OW23041   4.996   5.169   1.142
 7381SOL    HW123042   5.043   5.182   1.229
 7381SOL    HW223043   4.930   5.095   1.151
 7382SOL     OW23044   5.306   4.363   0.472
 7382SOL    HW123045   5.275   4.424   0.545
 7382SOL    HW223046   5.356   4.415   0.403
 7383SOL     OW23047   4.078   5.234   1.329
 7383SOL    HW123048   4.057   5.190   1.242
 7383SOL    HW223049   4.175   5.260   1.332
 7384SOL     OW23050   4.126   4.475   1.598
 7384SOL    HW123051   4.194   4.530   1.551
 7384SOL    HW223052   4.166   4.387   1.625
 7385SOL     OW23053   5.311   4.503   1.670
 7385SOL    HW123054   5.219   4.541   1.665
 7385SOL    HW223055   5.371   4.550   1.605
 7386SOL     OW23056   4.737   3.829   1.770
 7386SOL    HW123057   4.743   3.914   1.718
 7386SOL    HW223058   4.769   3.753   1.713
 7387SOL     OW23059   4.228   3.774   1.740
 7387SOL    HW123060   4.186   3.717   1.670
 7387SOL    HW223061   4.162   3.843   1.772
 7388SOL     OW23062   4.297   4.594   1.029
 7388SOL    HW123063   4.341   4.683   1.020
 7388SOL    HW223064   4.234   4.594   1.106
 7389SOL     OW23065   5.084   4.586   1.045
 7389SOL    HW123066   5.009   4.586   0.979
 7389SOL    HW223067   5.121   4.494   1.054
 7390SOL     OW23068   4.933   4.249   0.275
 7390SOL    HW123069   4.946   4.165   0.329
 7390SOL    HW223070   4.904   4.323   0.335
 7391SOL     OW23071   3.761   5.034   1.282
 7391SOL    HW123072   3.814   4.985   1.350
 7391SOL    HW223073   3.783   5.132   1.287
 7392SOL     OW23074   4.456   4.358   1.064
 7392SOL    HW123075   4.515   4.332   0.988
 7392SOL    HW223076   4.428   4.454   1.053
 7393SOL     OW23077   5.452   4.659   1.854
 7393SOL    HW123078   5.406   4.652   1.765
 7393SOL    HW223079   5.390   4.703   1.920
 7394SOL     OW23080   5.346   4.091   0.374
 7394SOL    HW123081   5.348   4.015   0.438
 7394SOL    HW223082   5.298   4.168   0.414
 7395SOL     OW23083   4.747   4.490   0.966
 7395SOL    HW123084   4.762   4.511   1.062
 7395SOL    HW223085   4.717   4.395   0.957
 7396SOL     OW23086   4.704   5.297   1.700
 7396SOL    HW123087   4.684   5.341   1.612
 7396SOL    HW223088   4.743   5.206   1.684
 7397SOL     OW23089   5.583   5.242   1.605
 7397SOL    HW123090   5.597   5.269   1.510
 7397SOL    HW223091   5.666   5.264   1.658
 7398SOL     OW23092   4.074   4.622   1.804
 7398SOL    HW123093   4.150   4.666   1.852
 7398SOL    HW223094   4.109   4.575   1.722
 7399SOL     OW23095   5.264   3.998   0.125
 7399SOL    HW123096   5.203   3.923   0.148
 7399SOL    HW223097   5.286   4.050   0.208
 7400SOL     OW23098   5.027   4.562   0.042
 7400SOL    HW123099   5.061   4.469   0.057
 7400SOL    HW223100   5.045   4.589  -0.053
 7401SOL     OW23101   4.792   5.057   0.849
 7401SOL    HW123102   4.799   4.973   0.794
 7401SOL    HW223103   4.854   5.126   0.813
 7402SOL     OW23104   4.043   4.534   0.949
 7402SOL    HW123105   4.136   4.570   0.954
 7402SOL    HW223106   4.037   4.449   1.001
 7403SOL     OW23107   4.063   4.233   1.006
 7403SOL    HW123108   4.011   4.150   0.989
 7403SOL    HW223109   4.140   4.238   0.942
 7404SOL     OW23110   4.862   4.104   1.678
 7404SOL    HW123111   4.817   4.167   1.742
 7404SOL    HW223112   4.955   4.135   1.661
 7405SOL     OW23113   4.884   3.931   1.477
 7405SOL    HW123114   4.884   3.995   1.554
 7405SOL    HW223115   4.912   3.979   1.394
 7406SOL     OW23116   3.812   5.525   0.927
 7406SOL    HW123117   3.770   5.439   0.900
 7406SOL    HW223118   3.906   5.528   0.893
 7407SOL     OW23119   4.228   5.292   0.910
 7407SOL    HW123120   4.294   5.366   0.919
 7407SOL    HW223121   4.272   5.213   0.868
 7408SOL     OW23122   4.726   4.520   1.238
 7408SOL    HW123123   4.767   4.488   1.324
 7408SOL    HW223124   4.630   4.493   1.235
 7409SOL     OW23125   3.764   4.268   1.114
 7409SOL    HW123126   3.849   4.235   1.073
 7409SOL    HW223127   3.777   4.283   1.212
 7410SOL     OW23128   3.913   4.244   1.722
 7410SOL    HW123129   3.972   4.204   1.652
 7410SOL    HW223130   3.855   4.315   1.681
 7411SOL     OW23131   5.093   4.674   1.660
 7411SOL    HW123132   5.132   4.763   1.680
 7411SOL    HW223133   5.103   4.654   1.563
 7412SOL     OW23134   4.539   4.296   0.325
 7412SOL    HW123135   4.546   4.207   0.279
 7412SOL    HW223136   4.445   4.330   0.317
 7413SOL     OW23137   5.381   4.328   1.206
 7413SOL    HW123138   5.343   4.259   1.268
 7413SOL    HW223139   5.463   4.292   1.162
 7414SOL     OW23140   3.976   5.288   1.744
 7414SOL    HW123141   3.946   5.345   1.820
 7414SOL    HW223142   3.969   5.191   1.770
 7415SOL     OW23143   4.395   4.188   1.269
 7415SOL    HW123144   4.361   4.099   1.239
 7415SOL    HW223145   4.421   4.242   1.189
 7416SOL     OW23146   4.654   5.402   1.465
 7416SOL    HW123147   4.630   5.384   1.370
 7416SOL    HW223148   4.684   5.496   1.475
 7417SOL     OW23149   4.197   4.224   0.191
 7417SOL    HW123150   4.258   4.304   0.195
 7417SOL    HW223151   4.102   4.255   0.198
 7418SOL     OW23152   3.883   4.861   1.466
 7418SOL    HW123153   3.905   4.800   1.542
 7418SOL    HW223154   3.893   4.812   1.380
 7419SOL     OW23155   5.071   4.783   1.234
 7419SOL    HW123156   5.095   4.720   1.160
 7419SOL    HW223157   4.981   4.823   1.216
 7420SOL     OW23158   5.026   4.579   0.309
 7420SOL    HW123159   4.940   4.548   0.351
 7420SOL    HW223160   5.022   4.565   0.210
 7421SOL     OW23161   5.483   5.471   1.154
 7421SOL    HW123162   5.544   5.501   1.081
 7421SOL    HW223163   5.445   5.382   1.132
 7422SOL     OW23164   4.976   5.455   1.128
 7422SOL    HW123165   5.060   5.460   1.074
 7422SOL    HW223166   4.953   5.359   1.146
 7423SOL     OW23167   3.807   4.982   1.022
 7423SOL    HW123168   3.802   4.981   1.122
 7423SOL    HW223169   3.724   4.941   0.984
 7424SOL     OW23170   4.412   5.386   1.716
 7424SOL    HW123171   4.356   5.467   1.725
 7424SOL    HW223172   4.464   5.390   1.630
 7425SOL     OW23173   4.627   3.810   0.133
 7425SOL    HW123174   4.678   3.811   0.047
 7425SOL    HW223175   4.683   3.768   0.204
 7426SOL     OW23176   5.450   3.859   0.523
 7426SOL    HW123177   5.523   3.842   0.456
 7426SOL    HW223178   5.419   3.772   0.561
 7427SOL     OW23179   5.112   5.297   0.477
 7427SOL    HW123180   5.179   5.309   0.403
 7427SOL    HW223181   5.072   5.386   0.500
 7428SOL     OW23182   3.854   5.518   1.851
 7428SOL    HW123183   3.813   5.444   1.904
 7428SOL    HW223184   3.918   5.569   1.909
 7429SOL     OW23185   5.004   4.651   0.672
 7429SOL    HW123186   5.064   4.570   0.674
 7429SOL    HW223187   5.044   4.720   0.612
 7430SOL     OW23188   4.554   4.997   1.422
 7430SOL    HW123189   4.549   5.030   1.517
 7430SOL    HW223190   4.468   5.016   1.376
 7431SOL     OW23191   4.396   5.340   0.154
 7431SOL    HW123192   4.405   5.350   0.055
 7431SOL    HW223193   4.356   5.251   0.175
 7432SOL     OW23194   5.374   5.444   1.394
 7432SOL    HW123195   5.427   5.454   1.310
 7432SOL    HW223196   5.347   5.534   1.428
 7433SOL     OW23197   5.565   3.899   0.963
 7433SOL    HW123198   5.604   3.814   0.927
 7433SOL    HW223199   5.467   3.901   0.944
 7434SOL     OW23200   4.918   5.336   0.031
 7434SOL    HW123201   4.924   5.243   0.068
 7434SOL    HW223202   4.859   5.336  -0.049
 7435SOL     OW23203   4.546   4.726   1.372
 7435SOL    HW123204   4.586   4.725   1.280
 7435SOL    HW223205   4.556   4.818   1.412
 7436SOL     OW23206   4.640   4.634   0.291
 7436SOL    HW123207   4.703   4.672   0.223
 7436SOL    HW223208   4.680   4.551   0.330
 7437SOL     OW23209   5.228   5.331   0.044
 7437SOL    HW123210   5.136   5.368   0.051
 7437SOL    HW223211   5.266   5.351  -0.046
 7438SOL     OW23212   4.096   5.012   1.490
 7438SOL    HW123213   4.083   5.105   1.456
 7438SOL    HW223214   4.012   4.960   1.477
 7439SOL     OW23215   5.338   5.016   1.289
 7439SOL    HW123216   5.398   5.019   1.369
 7439SOL    HW223217   5.263   5.080   1.302
 7440SOL     OW23218   4.763   4.822   0.696
 7440SOL    HW123219   4.693   4.775   0.750
 7440SOL    HW223220   4.822   4.754   0.653
 7441SOL     OW23221   4.738   3.960   0.971
 7441SOL    HW123222   4.730   3.924   0.878
 7441SOL    HW223223   4.736   3.884   1.036
 7442SOL     OW23224   4.314   5.211   0.491
 7442SOL    HW123225   4.356   5.153   0.421
 7442SOL    HW223226   4.270   5.290   0.447
 7443SOL     OW23227   5.433   4.109   1.381
 7443SOL    HW123228   5.506   4.178   1.385
 7443SOL    HW223229   5.461   4.034   1.322
 7444SOL     OW23230   3.979   5.072   0.290
 7444SOL    HW123231   3.883   5.073   0.263
 7444SOL    HW223232   3.991   5.125   0.374
 7445SOL     OW23233   3.829   4.737   1.726
 7445SOL    HW123234   3.752   4.704   1.780
 7445SOL    HW223235   3.914   4.707   1.768
 7446SOL     OW23236   4.396   3.927   1.489
 7446SOL    HW123237   4.486   3.911   1.449
 7446SOL    HW223238   4.404   3.932   1.588
 7447SOL     OW23239   3.799   4.069   0.033
 7447SOL    HW123240   3.707   4.041   0.004
 7447SOL    HW223241   3.830   4.146  -0.023
 7448SOL     OW23242   5.164   4.580   1.398
 7448SOL    HW123243   5.107   4.632   1.335
 7448SOL    HW223244   5.260   4.592   1.374
 7449SOL     OW23245   3.796   3.890   0.318
 7449SOL    HW123246   3.779   3.973   0.264
 7449SOL    HW223247   3.886   3.853   0.296
 7450SOL     OW23248   4.907   5.059   0.119
 7450SOL    HW123249   4.808   5.048   0.121
 7450SOL    HW223250   4.941   5.074   0.212
 7451SOL     OW23251   4.337   4.566   1.431
 7451SOL    HW123252   4.393   4.647   1.414
 7451SOL    HW223253   4.396   4.486   1.434
 7452SOL     OW23254   5.217   5.491   0.959
 7452SOL    HW123255   5.250   5.555   0.890
 7452SOL    HW223256   5.283   5.485   1.034
 7453SOL     OW23257   5.174   4.944   1.633
 7453SOL    HW123258   5.165   4.934   1.732
 7453SOL    HW223259   5.270   4.937   1.607
 7454SOL     OW23260   4.114   5.465   1.560
 7454SOL    HW123261   4.023   5.506   1.558
 7454SOL    HW223262   4.107   5.371   1.592
 7455SOL     OW23263   5.398   4.607   1.254
 7455SOL    HW123264   5.371   4.518   1.217
 7455SOL    HW223265   5.399   4.675   1.181
 7456SOL     OW23266   4.949   4.049   0.449
 7456SOL    HW123267   5.014   3.975   0.438
 7456SOL    HW223268   4.969   4.099   0.533
 7457SOL     OW23269   4.318   4.469   0.652
 7457SOL    HW123270   4.368   4.554   0.633
 7457SOL    HW223271   4.230   4.471   0.604
 7458SOL     OW23272   5.501   4.066   1.642
 7458SOL    HW123273   5.484   4.097   1.548
 7458SOL    HW223274   5.417   4.029   1.680
 7459SOL     OW23275   5.454   4.658   1.517
 7459SOL    HW123276   5.492   4.749   1.532
 7459SOL    HW223277   5.446   4.641   1.418
 7460SOL     OW23278   4.583   5.098   0.016
 7460SOL    HW123279   4.537   5.113   0.104
 7460SOL    HW223280   4.627   5.183  -0.014
 7461SOL     OW23281   4.385   5.514   0.953
 7461SOL    HW123282   4.339   5.602   0.940
 7461SOL    HW223283   4.484   5.526   0.946
 7462SOL     OW23284   4.583   4.680   0.861
 7462SOL    HW123285   4.637   4.611   0.909
 7462SOL    HW223286   4.551   4.749   0.927
 7463SOL     OW23287   4.807   4.708   0.087
 7463SOL    HW123288   4.784   4.761   0.005
 7463SOL    HW223289   4.888   4.652   0.068
 7464SOL     OW23290   5.585   5.293   0.851
 7464SOL    HW123291   5.514   5.281   0.781
 7464SOL    HW223292   5.586   5.214   0.911
 7465SOL     OW23293   3.945   5.038   1.844
 7465SOL    HW123294   3.880   4.965   1.823
 7465SOL    HW223295   3.949   5.052   1.942
 7466SOL     OW23296   3.803   4.964   0.653
 7466SOL    HW123297   3.802   4.917   0.741
 7466SOL    HW223298   3.885   4.936   0.602
 7467SOL     OW23299   4.396   5.115   1.624
 7467SOL    HW123300   4.318   5.065   1.662
 7467SOL    HW223301   4.393   5.210   1.655
 7468SOL     OW23302   5.548   3.916   1.227
 7468SOL    HW123303   5.544   3.826   1.271
 7468SOL    HW223304   5.551   3.905   1.128
 7469SOL     OW23305   4.152   4.148   0.520
 7469SOL    HW123306   4.182   4.076   0.458
 7469SOL    HW223307   4.113   4.108   0.603
 7470SOL     OW23308   5.429   5.211   1.104
 7470SOL    HW123309   5.336   5.186   1.077
 7470SOL    HW223310   5.455   5.161   1.186
 7471SOL     OW23311   4.041   4.271   1.280
 7471SOL    HW123312   4.079   4.212   1.352
 7471SOL    HW223313   4.081   4.245   1.192
 7472SOL     OW23314   4.536   5.310   0.687
 7472SOL    HW123315   4.568   5.320   0.593
 7472SOL    HW223316   4.457   5.248   0.689
 7473SOL     OW23317   5.148   3.938   1.112
 7473SOL    HW123318   5.200   3.873   1.167
 7473SOL    HW223319   5.099   4.001   1.173
 7474SOL     OW23320   4.725   3.758   1.154
 7474SOL    HW123321   4.662   3.686   1.123
 7474SOL    HW223322   4.818   3.722   1.154
 7475SOL     OW23323   4.494   5.054   0.301
 7475SOL    HW123324   4.448   4.967   0.318
 7475SOL    HW223325   4.585   5.051   0.342
 7476SOL     OW23326   4.342   5.291   1.284
 7476SOL    HW123327   4.337   5.373   1.341
 7476SOL    HW223328   4.431   5.288   1.239
 7477SOL     OW23329   5.076   3.776   0.168
 7477SOL    HW123330   5.111   3.735   0.084
 7477SOL    HW223331   4.986   3.738   0.188
 7478SOL     OW23332   5.024   4.177   0.691
 7478SOL    HW123333   4.965   4.257   0.695
 7478SOL    HW223334   5.039   4.142   0.784
 7479SOL     OW23335   5.317   3.945   0.882
 7479SOL    HW123336   5.233   3.944   0.936
 7479SOL    HW223337   5.319   4.028   0.826
 7480SOL     OW23338   3.763   4.801   0.300
 7480SOL    HW123339   3.862   4.790   0.291
 7480SOL    HW223340   3.723   4.715   0.332
 7481SOL     OW23341   4.599   5.370   0.337
 7481SOL    HW123342   4.522   5.335   0.283
 7481SOL    HW223343   4.567   5.441   0.399
 7482SOL     OW23344   3.949   3.999   2.858
 7482SOL    HW123345   3.984   3.982   2.950
 7482SOL    HW223346   3.861   3.954   2.846
 7483SOL     OW23347   3.743   4.092   2.509
 7483SOL    HW123348   3.661   4.135   2.548
 7483SOL    HW223349   3.715   4.019   2.446
 7484SOL     OW23350   4.293   4.999   3.027
 7484SOL    HW123351   4.200   4.992   2.990
 7484SOL    HW223352   4.304   5.088   3.071
 7485SOL     OW23353   5.279   5.235   2.565
 7485SOL    HW123354   5.222   5.219   2.646
 7485SOL    HW223355   5.220   5.245   2.485
 7486SOL     OW23356   4.859   4.427   2.579
 7486SOL    HW123357   4.916   4.505   2.554
 7486SOL    HW223358   4.799   4.453   2.655
 7487SOL     OW23359   5.479   4.331   2.093
 7487SOL    HW123360   5.467   4.318   1.994
 7487SOL    HW223361   5.449   4.250   2.142
 7488SOL     OW23362   4.492   4.868   2.885
 7488SOL    HW123363   4.414   4.885   2.945
 7488SOL    HW223364   4.526   4.955   2.849
 7489SOL     OW23365   4.574   4.522   3.685
 7489SOL    HW123366   4.570   4.598   3.750
 7489SOL    HW223367   4.596   4.558   3.594
 7490SOL     OW23368   4.409   4.736   2.527
 7490SOL    HW123369   4.478   4.720   2.597
 7490SOL    HW223370   4.336   4.793   2.565
 7491SOL     OW23371   4.410   4.885   3.665
 7491SOL    HW123372   4.470   4.964   3.679
 7491SOL    HW223373   4.324   4.916   3.624
 7492SOL     OW23374   4.059   5.159   2.923
 7492SOL    HW123375   3.981   5.128   2.870
 7492SOL    HW223376   4.117   5.217   2.866
 7493SOL     OW23377   5.184   5.229   3.201
 7493SOL    HW123378   5.208   5.323   3.227
 7493SOL    HW223379   5.168   5.175   3.283
 7494SOL     OW23380   5.327   4.171   2.599
 7494SOL    HW123381   5.253   4.217   2.549
 7494SOL    HW223382   5.378   4.239   2.652
 7495SOL     OW23383   3.955   5.437   2.345
 7495SOL    HW123384   3.989   5.514   2.399
 7495SOL    HW223385   3.999   5.437   2.255
 7496SOL     OW23386   4.851   5.065   3.552
 7496SOL    HW123387   4.898   5.065   3.640
 7496SOL    HW223388   4.803   4.978   3.541
 7497SOL     OW23389   3.954   5.158   2.400
 7497SOL    HW123390   3.928   5.254   2.400
 7497SOL    HW223391   3.883   5.104   2.445
 7498SOL     OW23392   3.964   4.815   2.748
 7498SOL    HW123393   3.978   4.731   2.800
 7498SOL    HW223394   3.909   4.879   2.803
 7499SOL     OW23395   4.344   5.510   3.301
 7499SOL    HW123396   4.252   5.493   3.336
 7499SOL    HW223397   4.372   5.602   3.327
 7500SOL     OW23398   4.330   4.688   1.985
 7500SOL    HW123399   4.337   4.772   1.931
 7500SOL    HW223400   4.376   4.701   2.073
 7501SOL     OW23401   5.318   3.838   3.342
 7501SOL    HW123402   5.300   3.905   3.270
 7501SOL    HW223403   5.315   3.884   3.431
 7502SOL     OW23404   5.566   5.491   2.221
 7502SOL    HW123405   5.620   5.462   2.301
 7502SOL    HW223406   5.596   5.581   2.192
 7503SOL     OW23407   3.751   5.320   1.979
 7503SOL    HW123408   3.732   5.224   2.000
 7503SOL    HW223409   3.718   5.378   2.054
 7504SOL     OW23410   5.413   4.646   2.474
 7504SOL    HW123411   5.508   4.617   2.482
 7504SOL    HW223412   5.405   4.711   2.399
 7505SOL     OW23413   5.365   4.832   2.294
 7505SOL    HW123414   5.451   4.834   2.242
 7505SOL    HW223415   5.379   4.879   2.382
 7506SOL     OW23416   4.337   5.089   2.588
 7506SOL    HW123417   4.288   5.002   2.597
 7506SOL    HW223418   4.314   5.132   2.501
 7507SOL     OW23419   5.017   4.952   3.285
 7507SOL    HW123420   5.054   4.879   3.227
 7507SOL    HW223421   5.069   4.957   3.370
 7508SOL     OW23422   5.249   4.723   2.052
 7508SOL    HW123423   5.186   4.647   2.065
 7508SOL    HW223424   5.297   4.741   2.138
 7509SOL     OW23425   4.911   5.516   3.478
 7509SOL    HW123426   4.935   5.576   3.402
 7509SOL    HW223427   4.918   5.421   3.448
 7510SOL     OW23428   4.041   3.975   3.663
 7510SOL    HW123429   4.112   4.046   3.669
 7510SOL    HW223430   3.953   4.014   3.691
 7511SOL     OW23431   5.190   5.141   2.815
 7511SOL    HW123432   5.131   5.147   2.895
 7511SOL    HW223433   5.175   5.053   2.769
 7512SOL     OW23434   5.391   5.438   2.434
 7512SOL    HW123435   5.350   5.415   2.346
 7512SOL    HW223436   5.373   5.364   2.499
 7513SOL     OW23437   4.322   4.453   2.132
 7513SOL    HW123438   4.346   4.522   2.064
 7513SOL    HW223439   4.244   4.486   2.186
 7514SOL     OW23440   5.005   4.069   2.806
 7514SOL    HW123441   4.919   4.019   2.793
 7514SOL    HW223442   5.067   4.015   2.862
 7515SOL     OW23443   5.300   5.386   2.169
 7515SOL    HW123444   5.389   5.432   2.172
 7515SOL    HW223445   5.279   5.362   2.074
 7516SOL     OW23446   4.531   4.329   3.327
 7516SOL    HW123447   4.484   4.326   3.416
 7516SOL    HW223448   4.480   4.274   3.261
 7517SOL     OW23449   5.118   4.193   3.536
 7517SOL    HW123450   5.098   4.236   3.624
 7517SOL    HW223451   5.196   4.131   3.545
 7518SOL     OW23452   4.697   4.614   3.434
 7518SOL    HW123453   4.743   4.530   3.405
 7518SOL    HW223454   4.641   4.648   3.359
 7519SOL     OW23455   4.715   4.134   3.104
 7519SOL    HW123456   4.638   4.168   3.158
 7519SOL    HW223457   4.681   4.083   3.025
 7520SOL     OW23458   4.765   4.425   2.291
 7520SOL    HW123459   4.791   4.421   2.387
 7520SOL    HW223460   4.680   4.374   2.277
 7521SOL     OW23461   3.854   5.545   3.433
 7521SOL    HW123462   3.844   5.530   3.532
 7521SOL    HW223463   3.768   5.581   3.397
 7522SOL     OW23464   5.443   4.309   3.693
 7522SOL    HW123465   5.417   4.398   3.657
 7522SOL    HW223466   5.441   4.241   3.620
 7523SOL     OW23467   5.086   4.868   2.407
 7523SOL    HW123468   5.169   4.839   2.359
 7523SOL    HW223469   5.037   4.935   2.351
 7524SOL     OW23470   4.732   5.180   2.339
 7524SOL    HW123471   4.686   5.252   2.287
 7524SOL    HW223472   4.728   5.200   2.437
 7525SOL     OW23473   4.075   5.525   2.715
 7525SOL    HW123474   4.125   5.439   2.721
 7525SOL    HW223475   4.140   5.602   2.712
 7526SOL     OW23476   5.519   4.790   2.735
 7526SOL    HW123477   5.457   4.775   2.659
 7526SOL    HW223478   5.467   4.801   2.820
 7527SOL     OW23479   4.951   5.274   3.368
 7527SOL    HW123480   4.957   5.197   3.432
 7527SOL    HW223481   4.899   5.248   3.288
 7528SOL     OW23482   4.045   4.667   2.104
 7528SOL    HW123483   4.127   4.706   2.062
 7528SOL    HW223484   4.018   4.585   2.055
 7529SOL     OW23485   5.182   4.459   2.590
 7529SOL    HW123486   5.177   4.394   2.665
 7529SOL    HW223487   5.262   4.518   2.603
 7530SOL     OW23488   4.185   4.990   3.589
 7530SOL    HW123489   4.135   4.991   3.503
 7530SOL    HW223490   4.122   4.972   3.665
 7531SOL     OW23491   4.835   5.500   2.099
 7531SOL    HW123492   4.775   5.438   2.149
 7531SOL    HW223493   4.866   5.456   2.014
 7532SOL     OW23494   3.926   4.009   3.360
 7532SOL    HW123495   3.846   4.069   3.347
 7532SOL    HW223496   3.916   3.960   3.446
 7533SOL     OW23497   5.356   5.101   1.943
 7533SOL    HW123498   5.324   5.195   1.933
 7533SOL    HW223499   5.280   5.038   1.931
 7534SOL     OW23500   4.188   5.467   2.185
 7534SOL    HW123501   4.221   5.506   2.271
 7534SOL    HW223502   4.264   5.460   2.120
 7535SOL     OW23503   5.124   3.831   2.288
 7535SOL    HW123504   5.100   3.794   2.198
 7535SOL    HW223505   5.223   3.847   2.292
 7536SOL     OW23506   3.973   5.509   3.103
 7536SOL    HW123507   4.030   5.444   3.153
 7536SOL    HW223508   3.957   5.476   3.010
 7537SOL     OW23509   4.664   5.422   2.766
 7537SOL    HW123510   4.744   5.365   2.787
 7537SOL    HW223511   4.615   5.382   2.689
 7538SOL     OW23512   5.271   3.946   3.591
 7538SOL    HW123513   5.266   3.983   3.683
 7538SOL    HW223514   5.199   3.877   3.579
 7539SOL     OW23515   4.612   5.238   3.057
 7539SOL    HW123516   4.589   5.213   2.963
 7539SOL    HW223517   4.673   5.169   3.096
 7540SOL     OW23518   5.075   4.314   3.295
 7540SOL    HW123519   5.103   4.271   3.380
 7540SOL    HW223520   5.100   4.410   3.296
 7541SOL     OW23521   4.527   5.126   2.786
 7541SOL    HW123522   4.617   5.140   2.744
 7541SOL    HW223523   4.456   5.128   2.715
 7542SOL     OW23524   4.646   4.227   2.761
 7542SOL    HW123525   4.621   4.218   2.665
 7542SOL    HW223526   4.694   4.145   2.792
 7543SOL     OW23527   4.263   3.788   2.374
 7543SOL    HW123528   4.182   3.789   2.432
 7543SOL    HW223529   4.266   3.871   2.319
 7544SOL     OW23530   5.158   4.912   1.903
 7544SOL    HW123531   5.190   4.836   1.960
 7544SOL    HW223532   5.066   4.939   1.933
 7545SOL     OW23533   4.021   3.759   2.033
 7545SOL    HW123534   4.070   3.843   2.012
 7545SOL    HW223535   4.083   3.694   2.078
 7546SOL     OW23536   4.659   3.960   2.342
 7546SOL    HW123537   4.611   4.001   2.264
 7546SOL    HW223538   4.758   3.958   2.323
 7547SOL     OW23539   4.800   4.407   3.326
 7547SOL    HW123540   4.720   4.346   3.329
 7547SOL    HW223541   4.881   4.354   3.302
 7548SOL     OW23542   4.951   5.294   2.655
 7548SOL    HW123543   4.972   5.368   2.590
 7548SOL    HW223544   5.019   5.294   2.728
 7549SOL     OW23545   4.183   4.876   2.603
 7549SOL    HW123546   4.112   4.849   2.668
 7549SOL    HW223547   4.157   4.848   2.510
 7550SOL     OW23548   4.995   5.521   2.453
 7550SOL    HW123549   5.039   5.585   2.389
 7550SOL    HW223550   4.945   5.573   2.523
 7551SOL     OW23551   4.756   4.273   1.878
 7551SOL    HW123552   4.715   4.355   1.839
 7551SOL    HW223553   4.820   4.299   1.951
 7552SOL     OW23554   4.590   4.178   2.504
 7552SOL    HW123555   4.558   4.250   2.442
 7552SOL    HW223556   4.614   4.097   2.451
 7553SOL     OW23557   4.741   3.763   2.615
 7553SOL    HW123558   4.669   3.768   2.546
 7553SOL    HW223559   4.717   3.694   2.684
 7554SOL     OW23560   5.153   4.897   2.729
 7554SOL    HW123561   5.098   4.813   2.722
 7554SOL    HW223562   5.179   4.926   2.637
 7555SOL     OW23563   5.190   4.314   2.854
 7555SOL    HW123564   5.160   4.219   2.861
 7555SOL    HW223565   5.263   4.330   2.920
 7556SOL     OW23566   5.581   4.557   2.239
 7556SOL    HW123567   5.623   4.493   2.303
 7556SOL    HW223568   5.543   4.506   2.161
 7557SOL     OW23569   4.212   5.109   2.036
 7557SOL    HW123570   4.125   5.094   2.083
 7557SOL    HW223571   4.195   5.135   1.941
 7558SOL     OW23572   5.388   5.004   2.519
 7558SOL    HW123573   5.487   5.012   2.533
 7558SOL    HW223574   5.343   5.088   2.550
 7559SOL     OW23575   5.114   4.299   1.940
 7559SOL    HW123576   5.060   4.278   2.021
 7559SOL    HW223577   5.205   4.258   1.949
 7560SOL     OW23578   5.478   4.947   3.450
 7560SOL    HW123579   5.569   4.908   3.437
 7560SOL    HW223580   5.486   5.043   3.474
 7561SOL     OW23581   4.788   5.071   3.202
 7561SOL    HW123582   4.708   5.048   3.257
 7561SOL    HW223583   4.871   5.045   3.251
 7562SOL     OW23584   5.316   5.353   3.487
 7562SOL    HW123585   5.343   5.387   3.397
 7562SOL    HW223586   5.395   5.315   3.533
 7563SOL     OW23587   4.835   4.919   2.962
 7563SOL    HW123588   4.795   4.963   3.043
 7563SOL    HW223589   4.794   4.956   2.879
 7564SOL     OW23590   5.362   4.823   2.941
 7564SOL    HW123591   5.367   4.904   3.000
 7564SOL    HW223592   5.276   4.825   2.890
 7565SOL     OW23593   4.704   4.840   3.581
 7565SOL    HW123594   4.605   4.846   3.591
 7565SOL    HW223595   4.727   4.760   3.525
 7566SOL     OW23596   4.429   4.774   2.230
 7566SOL    HW123597   4.415   4.781   2.329
 7566SOL    HW223598   4.513   4.723   2.212
 7567SOL     OW23599   4.998   4.110   3.124
 7567SOL    HW123600   5.019   4.184   3.188
 7567SOL    HW223601   4.909   4.127   3.081
 7568SOL     OW23602   3.788   5.288   3.193
 7568SOL    HW123603   3.742   5.370   3.159
 7568SOL    HW223604   3.886   5.307   3.202
 7569SOL     OW23605   4.091   4.824   2.363
 7569SOL    HW123606   4.084   4.907   2.307
 7569SOL    HW223607   4.095   4.744   2.303
 7570SOL     OW23608   4.976   5.072   2.250
 7570SOL    HW123609   5.026   5.149   2.290
 7570SOL    HW223610   4.881   5.074   2.282
 7571SOL     OW23611   4.996   5.169   3.004
 7571SOL    HW123612   5.043   5.182   3.091
 7571SOL    HW223613   4.930   5.095   3.013
 7572SOL     OW23614   5.306   4.363   2.334
 7572SOL    HW123615   5.275   4.424   2.407
 7572SOL    HW223616   5.356   4.415   2.265
 7573SOL     OW23617   4.078   5.234   3.191
 7573SOL    HW123618   4.057   5.190   3.104
 7573SOL    HW223619   4.175   5.260   3.194
 7574SOL     OW23620   5.311   4.503   3.532
 7574SOL    HW123621   5.219   4.541   3.527
 7574SOL    HW223622   5.371   4.550   3.467
 7575SOL     OW23623   4.737   3.829   3.632
 7575SOL    HW123624   4.743   3.914   3.580
 7575SOL    HW223625   4.769   3.753   3.575
 7576SOL     OW23626   4.228   3.774   3.602
 7576SOL    HW123627   4.186   3.717   3.532
 7576SOL    HW223628   4.162   3.843   3.634
 7577SOL     OW23629   4.297   4.594   2.891
 7577SOL    HW123630   4.341   4.683   2.882
 7577SOL    HW223631   4.234   4.594   2.968
 7578SOL     OW23632   5.084   4.586   2.907
 7578SOL    HW123633   5.009   4.586   2.841
 7578SOL    HW223634   5.121   4.494   2.916
 7579SOL     OW23635   4.933   4.249   2.137
 7579SOL    HW123636   4.946   4.165   2.191
 7579SOL    HW223637   4.904   4.323   2.197
 7580SOL     OW23638   4.031   3.937   3.093
 7580SOL    HW123639   4.008   3.974   3.183
 7580SOL    HW223640   4.001   3.842   3.087
 7581SOL     OW23641   3.761   5.034   3.144
 7581SOL    HW123642   3.814   4.985   3.212
 7581SOL    HW223643   3.783   5.132   3.149
 7582SOL     OW23644   4.456   4.358   2.926
 7582SOL    HW123645   4.515   4.332   2.850
 7582SOL    HW223646   4.428   4.454   2.915
 7583SOL     OW23647   5.452   4.659   3.716
 7583SOL    HW123648   5.406   4.652   3.627
 7583SOL    HW223649   5.390   4.703   3.782
 7584SOL     OW23650   4.031   3.787   2.480
 7584SOL    HW123651   4.020   3.881   2.513
 7584SOL    HW223652   4.026   3.724   2.557
 7585SOL     OW23653   5.346   4.091   2.236
 7585SOL    HW123654   5.348   4.015   2.300
 7585SOL    HW223655   5.298   4.168   2.276
 7586SOL     OW23656   4.747   4.490   2.828
 7586SOL    HW123657   4.762   4.511   2.924
 7586SOL    HW223658   4.717   4.395   2.819
 7587SOL     OW23659   4.704   5.297   3.562
 7587SOL    HW123660   4.684   5.341   3.474
 7587SOL    HW223661   4.743   5.206   3.546
 7588SOL     OW23662   5.583   5.242   3.467
 7588SOL    HW123663   5.597   5.269   3.372
 7588SOL    HW223664   5.666   5.264   3.520
 7589SOL     OW23665   4.074   4.622   3.666
 7589SOL    HW123666   4.150   4.666   3.714
 7589SOL    HW223667   4.109   4.575   3.584
 7590SOL     OW23668   5.264   3.998   1.987
 7590SOL    HW123669   5.203   3.923   2.010
 7590SOL    HW223670   5.286   4.050   2.070
 7591SOL     OW23671   5.027   4.562   1.904
 7591SOL    HW123672   5.061   4.469   1.919
 7591SOL    HW223673   5.045   4.589   1.809
 7592SOL     OW23674   4.792   5.057   2.711
 7592SOL    HW123675   4.799   4.973   2.656
 7592SOL    HW223676   4.854   5.126   2.675
 7593SOL     OW23677   4.862   4.104   3.540
 7593SOL    HW123678   4.817   4.167   3.604
 7593SOL    HW223679   4.955   4.135   3.523
 7594SOL     OW23680   4.884   3.931   3.339
 7594SOL    HW123681   4.884   3.995   3.416
 7594SOL    HW223682   4.912   3.979   3.256
 7595SOL     OW23683   3.732   5.050   2.062
 7595SOL    HW123684   3.639   5.071   2.031
 7595SOL    HW223685   3.742   4.951   2.075
 7596SOL     OW23686   3.812   5.525   2.789
 7596SOL    HW123687   3.770   5.439   2.762
 7596SOL    HW223688   3.906   5.528   2.755
 7597SOL     OW23689   4.228   5.292   2.772
 7597SOL    HW123690   4.294   5.366   2.781
 7597SOL    HW223691   4.272   5.213   2.730
 7598SOL     OW23692   4.726   4.520   3.100
 7598SOL    HW123693   4.767   4.488   3.186
 7598SOL    HW223694   4.630   4.493   3.097
 7599SOL     OW23695   3.764   4.268   2.976
 7599SOL    HW123696   3.849   4.235   2.935
 7599SOL    HW223697   3.777   4.283   3.074
 7600SOL     OW23698   3.913   4.244   3.584
 7600SOL    HW123699   3.972   4.204   3.514
 7600SOL    HW223700   3.855   4.315   3.543
 7601SOL     OW23701   5.093   4.674   3.522
 7601SOL    HW123702   5.132   4.763   3.542
 7601SOL    HW223703   5.103   4.654   3.425
 7602SOL     OW23704   4.539   4.296   2.187
 7602SOL    HW123705   4.546   4.207   2.141
 7602SOL    HW223706   4.445   4.330   2.179
 7603SOL     OW23707   5.381   4.328   3.068
 7603SOL    HW123708   5.343   4.259   3.130
 7603SOL    HW223709   5.463   4.292   3.024
 7604SOL     OW23710   3.976   5.288   3.606
 7604SOL    HW123711   3.946   5.345   3.682
 7604SOL    HW223712   3.969   5.191   3.632
 7605SOL     OW23713   4.654   5.402   3.327
 7605SOL    HW123714   4.630   5.384   3.232
 7605SOL    HW223715   4.684   5.496   3.337
 7606SOL     OW23716   3.883   4.861   3.328
 7606SOL    HW123717   3.905   4.800   3.404
 7606SOL    HW223718   3.893   4.812   3.242
 7607SOL     OW23719   5.071   4.783   3.096
 7607SOL    HW123720   5.095   4.720   3.022
 7607SOL    HW223721   4.981   4.823   3.078
 7608SOL     OW23722   5.026   4.579   2.171
 7608SOL    HW123723   4.940   4.548   2.213
 7608SOL    HW223724   5.022   4.565   2.072
 7609SOL     OW23725   5.483   5.471   3.016
 7609SOL    HW123726   5.544   5.501   2.943
 7609SOL    HW223727   5.445   5.382   2.994
 7610SOL     OW23728   4.976   5.455   2.990
 7610SOL    HW123729   5.060   5.460   2.936
 7610SOL    HW223730   4.953   5.359   3.008
 7611SOL     OW23731   3.807   4.982   2.884
 7611SOL    HW123732   3.802   4.981   2.984
 7611SOL    HW223733   3.724   4.941   2.846
 7612SOL     OW23734   4.412   5.386   3.578
 7612SOL    HW123735   4.356   5.467   3.587
 7612SOL    HW223736   4.464   5.390   3.492
 7613SOL     OW23737   5.450   3.859   2.385
 7613SOL    HW123738   5.523   3.842   2.318
 7613SOL    HW223739   5.419   3.772   2.423
 7614SOL     OW23740   5.112   5.297   2.339
 7614SOL    HW123741   5.179   5.309   2.265
 7614SOL    HW223742   5.072   5.386   2.362
 7615SOL     OW23743   3.854   5.518   3.713
 7615SOL    HW123744   3.813   5.444   3.766
 7615SOL    HW223745   3.918   5.569   3.771
 7616SOL     OW23746   5.004   4.651   2.534
 7616SOL    HW123747   5.064   4.570   2.536
 7616SOL    HW223748   5.044   4.720   2.474
 7617SOL     OW23749   4.554   4.997   3.284
 7617SOL    HW123750   4.549   5.030   3.379
 7617SOL    HW223751   4.468   5.016   3.238
 7618SOL     OW23752   4.396   5.340   2.016
 7618SOL    HW123753   4.405   5.350   1.917
 7618SOL    HW223754   4.356   5.251   2.037
 7619SOL     OW23755   5.374   5.444   3.256
 7619SOL    HW123756   5.427   5.454   3.172
 7619SOL    HW223757   5.347   5.534   3.290
 7620SOL     OW23758   5.565   3.899   2.825
 7620SOL    HW123759   5.604   3.814   2.789
 7620SOL    HW223760   5.467   3.901   2.806
 7621SOL     OW23761   3.987   4.050   2.582
 7621SOL    HW123762   3.908   4.101   2.548
 7621SOL    HW223763   3.978   4.035   2.680
 7622SOL     OW23764   4.918   5.336   1.893
 7622SOL    HW123765   4.924   5.243   1.930
 7622SOL    HW223766   4.859   5.336   1.813
 7623SOL     OW23767   4.546   4.726   3.234
 7623SOL    HW123768   4.586   4.725   3.142
 7623SOL    HW223769   4.556   4.818   3.274
 7624SOL     OW23770   4.640   4.634   2.153
 7624SOL    HW123771   4.703   4.672   2.085
 7624SOL    HW223772   4.680   4.551   2.192
 7625SOL     OW23773   5.228   5.331   1.906
 7625SOL    HW123774   5.136   5.368   1.913
 7625SOL    HW223775   5.266   5.351   1.816
 7626SOL     OW23776   4.096   5.012   3.352
 7626SOL    HW123777   4.083   5.105   3.318
 7626SOL    HW223778   4.012   4.960   3.339
 7627SOL     OW23779   5.338   5.016   3.151
 7627SOL    HW123780   5.398   5.019   3.231
 7627SOL    HW223781   5.263   5.080   3.164
 7628SOL     OW23782   4.763   4.822   2.558
 7628SOL    HW123783   4.693   4.775   2.612
 7628SOL    HW223784   4.822   4.754   2.515
 7629SOL     OW23785   4.738   3.960   2.833
 7629SOL    HW123786   4.730   3.924   2.740
 7629SOL    HW223787   4.736   3.884   2.898
 7630SOL     OW23788   4.314   5.211   2.353
 7630SOL    HW123789   4.356   5.153   2.283
 7630SOL    HW223790   4.270   5.290   2.309
 7631SOL     OW23791   5.433   4.109   3.243
 7631SOL    HW123792   5.506   4.178   3.247
 7631SOL    HW223793   5.461   4.034   3.184
 7632SOL     OW23794   3.979   5.072   2.152
 7632SOL    HW123795   3.883   5.073   2.125
 7632SOL    HW223796   3.991   5.125   2.236
 7633SOL     OW23797   3.829   4.737   3.588
 7633SOL    HW123798   3.752   4.704   3.642
 7633SOL    HW223799   3.914   4.707   3.630
 7634SOL     OW23800   3.799   4.069   1.895
 7634SOL    HW123801   3.707   4.041   1.866
 7634SOL    HW223802   3.830   4.146   1.839
 7635SOL     OW23803   5.164   4.580   3.260
 7635SOL    HW123804   5.107   4.632   3.197
 7635SOL    HW223805   5.260   4.592   3.236
 7636SOL     OW23806   3.796   3.890   2.180
 7636SOL    HW123807   3.779   3.973   2.126
 7636SOL    HW223808   3.886   3.853   2.158
 7637SOL     OW23809   4.907   5.059   1.981
 7637SOL    HW123810   4.808   5.048   1.983
 7637SOL    HW223811   4.941   5.074   2.074
 7638SOL     OW23812   4.337   4.566   3.293
 7638SOL    HW123813   4.393   4.647   3.276
 7638SOL    HW223814   4.396   4.486   3.296
 7639SOL     OW23815   5.217   5.491   2.821
 7639SOL    HW123816   5.250   5.555   2.752
 7639SOL    HW223817   5.283   5.485   2.896
 7640SOL     OW23818   5.174   4.944   3.495
 7640SOL    HW123819   5.165   4.934   3.594
 7640SOL    HW223820   5.270   4.937   3.469
 7641SOL     OW23821   4.114   5.465   3.422
 7641SOL    HW123822   4.023   5.506   3.420
 7641SOL    HW223823   4.107   5.371   3.454
 7642SOL     OW23824   5.398   4.607   3.116
 7642SOL    HW123825   5.371   4.518   3.079
 7642SOL    HW223826   5.399   4.675   3.043
 7643SOL     OW23827   4.949   4.049   2.311
 7643SOL    HW123828   5.014   3.975   2.300
 7643SOL    HW223829   4.969   4.099   2.395
 7644SOL     OW23830   4.318   4.469   2.514
 7644SOL    HW123831   4.368   4.554   2.495
 7644SOL    HW223832   4.230   4.471   2.466
 7645SOL     OW23833   5.501   4.066   3.504
 7645SOL    HW123834   5.484   4.097   3.410
 7645SOL    HW223835   5.417   4.029   3.542
 7646SOL     OW23836   5.454   4.658   3.379
 7646SOL    HW123837   5.492   4.749   3.394
 7646SOL    HW223838   5.446   4.641   3.280
 7647SOL     OW23839   4.583   5.098   1.878
 7647SOL    HW123840   4.537   5.113   1.966
 7647SOL    HW223841   4.627   5.183   1.848
 7648SOL     OW23842   4.385   5.514   2.815
 7648SOL    HW123843   4.339   5.602   2.802
 7648SOL    HW223844   4.484   5.526   2.808
 7649SOL     OW23845   4.583   4.680   2.723
 7649SOL    HW123846   4.637   4.611   2.771
 7649SOL    HW223847   4.551   4.749   2.789
 7650SOL     OW23848   4.807   4.708   1.949
 7650SOL    HW123849   4.784   4.761   1.867
 7650SOL    HW223850   4.888   4.652   1.930
 7651SOL     OW23851   5.585   5.293   2.713
 7651SOL    HW123852   5.514   5.281   2.643
 7651SOL    HW223853   5.586   5.214   2.773
 7652SOL     OW23854   3.945   5.038   3.706
 7652SOL    HW123855   3.880   4.965   3.685
 7652SOL    HW223856   3.949   5.052   3.804
 7653SOL     OW23857   3.803   4.964   2.515
 7653SOL    HW123858   3.802   4.917   2.603
 7653SOL    HW223859   3.885   4.936   2.464
 7654SOL     OW23860   4.396   5.115   3.486
 7654SOL    HW123861   4.318   5.065   3.524
 7654SOL    HW223862   4.393   5.210   3.517
 7655SOL     OW23863   5.548   3.916   3.089
 7655SOL    HW123864   5.544   3.826   3.133
 7655SOL    HW223865   5.551   3.905   2.990
 7656SOL     OW23866   5.429   5.211   2.966
 7656SOL    HW123867   5.336   5.186   2.939
 7656SOL    HW223868   5.455   5.161   3.048
 7657SOL     OW23869   4.536   5.310   2.549
 7657SOL    HW123870   4.568   5.320   2.455
 7657SOL    HW223871   4.457   5.248   2.551
 7658SOL     OW23872   5.148   3.938   2.974
 7658SOL    HW123873   5.200   3.873   3.029
 7658SOL    HW223874   5.099   4.001   3.035
 7659SOL     OW23875   4.494   5.054   2.163
 7659SOL    HW123876   4.448   4.967   2.180
 7659SOL    HW223877   4.585   5.051   2.204
 7660SOL     OW23878   4.342   5.291   3.146
 7660SOL    HW123879   4.337   5.373   3.203
 7660SOL    HW223880   4.431   5.288   3.101
 7661SOL     OW23881   5.076   3.776   2.030
 7661SOL    HW123882   5.111   3.735   1.946
 7661SOL    HW223883   4.986   3.738   2.050
 7662SOL     OW23884   5.024   4.177   2.553
 7662SOL    HW123885   4.965   4.257   2.557
 7662SOL    HW223886   5.039   4.142   2.646
 7663SOL     OW23887   5.317   3.945   2.744
 7663SOL    HW123888   5.233   3.944   2.798
 7663SOL    HW223889   5.319   4.028   2.688
 7664SOL     OW23890   3.763   4.801   2.162
 7664SOL    HW123891   3.862   4.790   2.153
 7664SOL    HW223892   3.723   4.715   2.194
 7665SOL     OW23893   4.599   5.370   2.199
 7665SOL    HW123894   4.522   5.335   2.145
 7665SOL    HW223895   4.567   5.441   2.261
 7666SOL     OW23896   3.949   3.999   4.720
 7666SOL    HW123897   3.984   3.982   4.812
 7666SOL    HW223898   3.861   3.954   4.708
 7667SOL     OW23899   3.743   4.092   4.371
 7667SOL    HW123900   3.661   4.135   4.410
 7667SOL    HW223901   3.715   4.019   4.308
 7668SOL     OW23902   4.293   4.999   4.889
 7668SOL    HW123903   4.200   4.992   4.852
 7668SOL    HW223904   4.304   5.088   4.933
 7669SOL     OW23905   5.279   5.235   4.427
 7669SOL    HW123906   5.222   5.219   4.508
 7669SOL    HW223907   5.220   5.245   4.347
 7670SOL     OW23908   4.859   4.427   4.441
 7670SOL    HW123909   4.916   4.505   4.416
 7670SOL    HW223910   4.799   4.453   4.517
 7671SOL     OW23911   5.479   4.331   3.955
 7671SOL    HW123912   5.467   4.318   3.856
 7671SOL    HW223913   5.449   4.250   4.004
 7672SOL     OW23914   4.492   4.868   4.747
 7672SOL    HW123915   4.414   4.885   4.807
 7672SOL    HW223916   4.526   4.955   4.711
 7673SOL     OW23917   4.574   4.522   5.547
 7673SOL    HW123918   4.570   4.598   5.612
 7673SOL    HW223919   4.596   4.558   5.456
 7674SOL     OW23920   4.409   4.736   4.389
 7674SOL    HW123921   4.478   4.720   4.459
 7674SOL    HW223922   4.336   4.793   4.427
 7675SOL     OW23923   4.410   4.885   5.527
 7675SOL    HW123924   4.470   4.964   5.541
 7675SOL    HW223925   4.324   4.916   5.486
 7676SOL     OW23926   4.059   5.159   4.785
 7676SOL    HW123927   3.981   5.128   4.732
 7676SOL    HW223928   4.117   5.217   4.728
 7677SOL     OW23929   5.184   5.229   5.063
 7677SOL    HW123930   5.208   5.323   5.089
 7677SOL    HW223931   5.168   5.175   5.145
 7678SOL     OW23932   4.162   4.116   5.223
 7678SOL    HW123933   4.244   4.060   5.232
 7678SOL    HW223934   4.081   4.058   5.227
 7679SOL     OW23935   5.327   4.171   4.461
 7679SOL    HW123936   5.253   4.217   4.411
 7679SOL    HW223937   5.378   4.239   4.514
 7680SOL     OW23938   3.955   5.437   4.207
 7680SOL    HW123939   3.989   5.514   4.261
 7680SOL    HW223940   3.999   5.437   4.117
 7681SOL     OW23941   4.851   5.065   5.414
 7681SOL    HW123942   4.898   5.065   5.502
 7681SOL    HW223943   4.803   4.978   5.403
 7682SOL     OW23944   3.954   5.158   4.262
 7682SOL    HW123945   3.928   5.254   4.262
 7682SOL    HW223946   3.883   5.104   4.307
 7683SOL     OW23947   3.964   4.815   4.610
 7683SOL    HW123948   3.978   4.731   4.662
 7683SOL    HW223949   3.909   4.879   4.665
 7684SOL     OW23950   4.344   5.510   5.163
 7684SOL    HW123951   4.252   5.493   5.198
 7684SOL    HW223952   4.372   5.602   5.189
 7685SOL     OW23953   4.330   4.688   3.847
 7685SOL    HW123954   4.337   4.772   3.793
 7685SOL    HW223955   4.376   4.701   3.935
 7686SOL     OW23956   5.318   3.838   5.204
 7686SOL    HW123957   5.300   3.905   5.132
 7686SOL    HW223958   5.315   3.884   5.293
 7687SOL     OW23959   5.566   5.491   4.083
 7687SOL    HW123960   5.620   5.462   4.163
 7687SOL    HW223961   5.596   5.581   4.054
 7688SOL     OW23962   3.751   5.320   3.841
 7688SOL    HW123963   3.732   5.224   3.862
 7688SOL    HW223964   3.718   5.378   3.916
 7689SOL     OW23965   5.413   4.646   4.336
 7689SOL    HW123966   5.508   4.617   4.344
 7689SOL    HW223967   5.405   4.711   4.261
 7690SOL     OW23968   5.365   4.832   4.156
 7690SOL    HW123969   5.451   4.834   4.104
 7690SOL    HW223970   5.379   4.879   4.244
 7691SOL     OW23971   3.837   4.461   5.321
 7691SOL    HW123972   3.925   4.448   5.366
 7691SOL    HW223973   3.824   4.558   5.299
 7692SOL     OW23974   4.337   5.089   4.450
 7692SOL    HW123975   4.288   5.002   4.459
 7692SOL    HW223976   4.314   5.132   4.363
 7693SOL     OW23977   5.017   4.952   5.147
 7693SOL    HW123978   5.054   4.879   5.089
 7693SOL    HW223979   5.069   4.957   5.232
 7694SOL     OW23980   5.249   4.723   3.914
 7694SOL    HW123981   5.186   4.647   3.927
 7694SOL    HW223982   5.297   4.741   4.000
 7695SOL     OW23983   4.911   5.516   5.340
 7695SOL    HW123984   4.935   5.576   5.264
 7695SOL    HW223985   4.918   5.421   5.310
 7696SOL     OW23986   4.041   3.975   5.525
 7696SOL    HW123987   4.112   4.046   5.531
 7696SOL    HW223988   3.953   4.014   5.553
 7697SOL     OW23989   5.190   5.141   4.677
 7697SOL    HW123990   5.131   5.147   4.757
 7697SOL    HW223991   5.175   5.053   4.631
 7698SOL     OW23992   5.391   5.438   4.296
 7698SOL    HW123993   5.350   5.415   4.208
 7698SOL    HW223994   5.373   5.364   4.361
 7699SOL     OW23995   4.322   4.453   3.994
 7699SOL    HW123996   4.346   4.522   3.926
 7699SOL    HW223997   4.244   4.486   4.048
 7700SOL     OW23998   5.005   4.069   4.668
 7700SOL    HW123999   4.919   4.019   4.655
 7700SOL    HW224000   5.067   4.015   4.724
 7701SOL     OW24001   5.300   5.386   4.031
 7701SOL    HW124002   5.389   5.432   4.034
 7701SOL    HW224003   5.279   5.362   3.936
 7702SOL     OW24004   4.531   4.329   5.189
 7702SOL    HW124005   4.484   4.326   5.278
 7702SOL    HW224006   4.480   4.274   5.123
 7703SOL     OW24007   5.118   4.193   5.398
 7703SOL    HW124008   5.098   4.236   5.486
 7703SOL    HW224009   5.196   4.131   5.407
 7704SOL     OW24010   4.697   4.614   5.296
 7704SOL    HW124011   4.743   4.530   5.267
 7704SOL    HW224012   4.641   4.648   5.221
 7705SOL     OW24013   4.715   4.134   4.966
 7705SOL    HW124014   4.638   4.168   5.020
 7705SOL    HW224015   4.681   4.083   4.887
 7706SOL     OW24016   4.765   4.425   4.153
 7706SOL    HW124017   4.791   4.421   4.249
 7706SOL    HW224018   4.680   4.374   4.139
 7707SOL     OW24019   3.854   5.545   5.295
 7707SOL    HW124020   3.844   5.530   5.394
 7707SOL    HW224021   3.768   5.581   5.259
 7708SOL     OW24022   5.443   4.309   5.555
 7708SOL    HW124023   5.417   4.398   5.519
 7708SOL    HW224024   5.441   4.241   5.482
 7709SOL     OW24025   5.086   4.868   4.269
 7709SOL    HW124026   5.169   4.839   4.221
 7709SOL    HW224027   5.037   4.935   4.213
 7710SOL     OW24028   4.732   5.180   4.201
 7710SOL    HW124029   4.686   5.252   4.149
 7710SOL    HW224030   4.728   5.200   4.299
 7711SOL     OW24031   4.075   5.525   4.577
 7711SOL    HW124032   4.125   5.439   4.583
 7711SOL    HW224033   4.140   5.602   4.574
 7712SOL     OW24034   5.519   4.790   4.597
 7712SOL    HW124035   5.457   4.775   4.521
 7712SOL    HW224036   5.467   4.801   4.682
 7713SOL     OW24037   4.951   5.274   5.230
 7713SOL    HW124038   4.957   5.197   5.294
 7713SOL    HW224039   4.899   5.248   5.150
 7714SOL     OW24040   5.182   4.459   4.452
 7714SOL    HW124041   5.177   4.394   4.527
 7714SOL    HW224042   5.262   4.518   4.465
 7715SOL     OW24043   4.185   4.990   5.451
 7715SOL    HW124044   4.135   4.991   5.365
 7715SOL    HW224045   4.122   4.972   5.527
 7716SOL     OW24046   4.835   5.500   3.961
 7716SOL    HW124047   4.775   5.438   4.011
 7716SOL    HW224048   4.866   5.456   3.876
 7717SOL     OW24049   3.926   4.009   5.222
 7717SOL    HW124050   3.846   4.069   5.209
 7717SOL    HW224051   3.916   3.960   5.308
 7718SOL     OW24052   5.356   5.101   3.805
 7718SOL    HW124053   5.324   5.195   3.795
 7718SOL    HW224054   5.280   5.038   3.793
 7719SOL     OW24055   4.188   5.467   4.047
 7719SOL    HW124056   4.221   5.506   4.133
 7719SOL    HW224057   4.264   5.460   3.982
 7720SOL     OW24058   5.124   3.831   4.150
 7720SOL    HW124059   5.100   3.794   4.060
 7720SOL    HW224060   5.223   3.847   4.154
 7721SOL     OW24061   3.973   5.509   4.965
 7721SOL    HW124062   4.030   5.444   5.015
 7721SOL    HW224063   3.957   5.476   4.872
 7722SOL     OW24064   4.664   5.422   4.628
 7722SOL    HW124065   4.744   5.365   4.649
 7722SOL    HW224066   4.615   5.382   4.551
 7723SOL     OW24067   5.271   3.946   5.453
 7723SOL    HW124068   5.266   3.983   5.545
 7723SOL    HW224069   5.199   3.877   5.441
 7724SOL     OW24070   4.505   3.988   5.473
 7724SOL    HW124071   4.572   3.927   5.516
 7724SOL    HW224072   4.432   4.007   5.538
 7725SOL     OW24073   4.612   5.238   4.919
 7725SOL    HW124074   4.589   5.213   4.825
 7725SOL    HW224075   4.673   5.169   4.958
 7726SOL     OW24076   5.075   4.314   5.157
 7726SOL    HW124077   5.103   4.271   5.242
 7726SOL    HW224078   5.100   4.410   5.158
 7727SOL     OW24079   4.527   5.126   4.648
 7727SOL    HW124080   4.617   5.140   4.606
 7727SOL    HW224081   4.456   5.128   4.577
 7728SOL     OW24082   4.646   4.227   4.623
 7728SOL    HW124083   4.621   4.218   4.527
 7728SOL    HW224084   4.694   4.145   4.654
 7729SOL     OW24085   4.263   3.788   4.236
 7729SOL    HW124086   4.182   3.789   4.294
 7729SOL    HW224087   4.266   3.871   4.181
 7730SOL     OW24088   5.158   4.912   3.765
 7730SOL    HW124089   5.190   4.836   3.822
 7730SOL    HW224090   5.066   4.939   3.795
 7731SOL     OW24091   4.021   3.759   3.895
 7731SOL    HW124092   4.070   3.843   3.874
 7731SOL    HW224093   4.083   3.694   3.940
 7732SOL     OW24094   4.800   4.407   5.188
 7732SOL    HW124095   4.720   4.346   5.191
 7732SOL    HW224096   4.881   4.354   5.164
 7733SOL     OW24097   4.951   5.294   4.517
 7733SOL    HW124098   4.972   5.368   4.452
 7733SOL    HW224099   5.019   5.294   4.590
 7734SOL     OW24100   4.183   4.876   4.465
 7734SOL    HW124101   4.112   4.849   4.530
 7734SOL    HW224102   4.157   4.848   4.372
 7735SOL     OW24103   4.995   5.521   4.315
 7735SOL    HW124104   5.039   5.585   4.251
 7735SOL    HW224105   4.945   5.573   4.385
 7736SOL     OW24106   4.756   4.273   3.740
 7736SOL    HW124107   4.715   4.355   3.701
 7736SOL    HW224108   4.820   4.299   3.813
 7737SOL     OW24109   3.802   4.280   5.110
 7737SOL    HW124110   3.894   4.279   5.069
 7737SOL    HW224111   3.796   4.354   5.177
 7738SOL     OW24112   4.590   4.178   4.366
 7738SOL    HW124113   4.558   4.250   4.304
 7738SOL    HW224114   4.614   4.097   4.313
 7739SOL     OW24115   5.153   4.897   4.591
 7739SOL    HW124116   5.098   4.813   4.584
 7739SOL    HW224117   5.179   4.926   4.499
 7740SOL     OW24118   5.190   4.314   4.716
 7740SOL    HW124119   5.160   4.219   4.723
 7740SOL    HW224120   5.263   4.330   4.782
 7741SOL     OW24121   5.581   4.557   4.101
 7741SOL    HW124122   5.623   4.493   4.165
 7741SOL    HW224123   5.543   4.506   4.023
 7742SOL     OW24124   4.212   5.109   3.898
 7742SOL    HW124125   4.125   5.094   3.945
 7742SOL    HW224126   4.195   5.135   3.803
 7743SOL     OW24127   5.388   5.004   4.381
 7743SOL    HW124128   5.487   5.012   4.395
 7743SOL    HW224129   5.343   5.088   4.412
 7744SOL     OW24130   5.114   4.299   3.802
 7744SOL    HW124131   5.060   4.278   3.883
 7744SOL    HW224132   5.205   4.258   3.811
 7745SOL     OW24133   5.478   4.947   5.312
 7745SOL    HW124134   5.569   4.908   5.299
 7745SOL    HW224135   5.486   5.043   5.336
 7746SOL     OW24136   4.788   5.071   5.064
 7746SOL    HW124137   4.708   5.048   5.119
 7746SOL    HW224138   4.871   5.045   5.113
 7747SOL     OW24139   5.316   5.353   5.349
 7747SOL    HW124140   5.343   5.387   5.259
 7747SOL    HW224141   5.395   5.315   5.395
 7748SOL     OW24142   4.835   4.919   4.824
 7748SOL    HW124143   4.795   4.963   4.905
 7748SOL    HW224144   4.794   4.956   4.741
 7749SOL     OW24145   5.362   4.823   4.803
 7749SOL    HW124146   5.367   4.904   4.862
 7749SOL    HW224147   5.276   4.825   4.752
 7750SOL     OW24148   4.704   4.840   5.443
 7750SOL    HW124149   4.605   4.846   5.453
 7750SOL    HW224150   4.727   4.760   5.387
 7751SOL     OW24151   4.429   4.774   4.092
 7751SOL    HW124152   4.415   4.781   4.191
 7751SOL    HW224153   4.513   4.723   4.074
 7752SOL     OW24154   4.998   4.110   4.986
 7752SOL    HW124155   5.019   4.184   5.050
 7752SOL    HW224156   4.909   4.127   4.943
 7753SOL     OW24157   3.788   5.288   5.055
 7753SOL    HW124158   3.742   5.370   5.021
 7753SOL    HW224159   3.886   5.307   5.064
 7754SOL     OW24160   4.091   4.824   4.225
 7754SOL    HW124161   4.084   4.907   4.169
 7754SOL    HW224162   4.095   4.744   4.165
 7755SOL     OW24163   4.976   5.072   4.112
 7755SOL    HW124164   5.026   5.149   4.152
 7755SOL    HW224165   4.881   5.074   4.144
 7756SOL     OW24166   4.996   5.169   4.866
 7756SOL    HW124167   5.043   5.182   4.953
 7756SOL    HW224168   4.930   5.095   4.875
 7757SOL     OW24169   5.306   4.363   4.196
 7757SOL    HW124170   5.275   4.424   4.269
 7757SOL    HW224171   5.356   4.415   4.127
 7758SOL     OW24172   4.078   5.234   5.053
 7758SOL    HW124173   4.057   5.190   4.966
 7758SOL    HW224174   4.175   5.260   5.056
 7759SOL     OW24175   5.311   4.503   5.394
 7759SOL    HW124176   5.219   4.541   5.389
 7759SOL    HW224177   5.371   4.550   5.329
 7760SOL     OW24178   4.737   3.829   5.494
 7760SOL    HW124179   4.743   3.914   5.442
 7760SOL    HW224180   4.769   3.753   5.437
 7761SOL     OW24181   4.228   3.774   5.464
 7761SOL    HW124182   4.186   3.717   5.394
 7761SOL    HW224183   4.162   3.843   5.496
 7762SOL     OW24184   4.297   4.594   4.753
 7762SOL    HW124185   4.341   4.683   4.744
 7762SOL    HW224186   4.234   4.594   4.830
 7763SOL     OW24187   5.084   4.586   4.769
 7763SOL    HW124188   5.009   4.586   4.703
 7763SOL    HW224189   5.121   4.494   4.778
 7764SOL     OW24190   4.933   4.249   3.999
 7764SOL    HW124191   4.946   4.165   4.053
 7764SOL    HW224192   4.904   4.323   4.059
 7765SOL     OW24193   4.031   3.937   4.955
 7765SOL    HW124194   4.008   3.974   5.045
 7765SOL    HW224195   4.001   3.842   4.949
 7766SOL     OW24196   3.761   5.034   5.006
 7766SOL    HW124197   3.814   4.985   5.074
 7766SOL    HW224198   3.783   5.132   5.011
 7767SOL     OW24199   4.456   4.358   4.788
 7767SOL    HW124200   4.515   4.332   4.712
 7767SOL    HW224201   4.428   4.454   4.777
 7768SOL     OW24202   5.452   4.659   5.578
 7768SOL    HW124203   5.406   4.652   5.489
 7768SOL    HW224204   5.390   4.703   5.644
 7769SOL     OW24205   4.031   3.787   4.342
 7769SOL    HW124206   4.020   3.881   4.375
 7769SOL    HW224207   4.026   3.724   4.419
 7770SOL     OW24208   5.346   4.091   4.098
 7770SOL    HW124209   5.348   4.015   4.162
 7770SOL    HW224210   5.298   4.168   4.138
 7771SOL     OW24211   4.747   4.490   4.690
 7771SOL    HW124212   4.762   4.511   4.786
 7771SOL    HW224213   4.717   4.395   4.681
 7772SOL     OW24214   4.704   5.297   5.424
 7772SOL    HW124215   4.684   5.341   5.336
 7772SOL    HW224216   4.743   5.206   5.408
 7773SOL     OW24217   5.583   5.242   5.329
 7773SOL    HW124218   5.597   5.269   5.234
 7773SOL    HW224219   5.666   5.264   5.382
 7774SOL     OW24220   4.074   4.622   5.528
 7774SOL    HW124221   4.150   4.666   5.576
 7774SOL    HW224222   4.109   4.575   5.446
 7775SOL     OW24223   5.264   3.998   3.849
 7775SOL    HW124224   5.203   3.923   3.872
 7775SOL    HW224225   5.286   4.050   3.932
 7776SOL     OW24226   5.027   4.562   3.766
 7776SOL    HW124227   5.061   4.469   3.781
 7776SOL    HW224228   5.045   4.589   3.671
 7777SOL     OW24229   4.792   5.057   4.573
 7777SOL    HW124230   4.799   4.973   4.518
 7777SOL    HW224231   4.854   5.126   4.537
 7778SOL     OW24232   4.862   4.104   5.402
 7778SOL    HW124233   4.817   4.167   5.466
 7778SOL    HW224234   4.955   4.135   5.385
 7779SOL     OW24235   4.884   3.931   5.201
 7779SOL    HW124236   4.884   3.995   5.278
 7779SOL    HW224237   4.912   3.979   5.118
 7780SOL     OW24238   3.732   5.050   3.924
 7780SOL    HW124239   3.639   5.071   3.893
 7780SOL    HW224240   3.742   4.951   3.937
 7781SOL     OW24241   3.812   5.525   4.651
 7781SOL    HW124242   3.770   5.439   4.624
 7781SOL    HW224243   3.906   5.528   4.617
 7782SOL     OW24244   4.228   5.292   4.634
 7782SOL    HW124245   4.294   5.366   4.643
 7782SOL    HW224246   4.272   5.213   4.592
 7783SOL     OW24247   4.726   4.520   4.962
 7783SOL    HW124248   4.767   4.488   5.048
 7783SOL    HW224249   4.630   4.493   4.959
 7784SOL     OW24250   3.764   4.268   4.838
 7784SOL    HW124251   3.849   4.235   4.797
 7784SOL    HW224252   3.777   4.283   4.936
 7785SOL     OW24253   3.913   4.244   5.446
 7785SOL    HW124254   3.972   4.204   5.376
 7785SOL    HW224255   3.855   4.315   5.405
 7786SOL     OW24256   5.093   4.674   5.384
 7786SOL    HW124257   5.132   4.763   5.404
 7786SOL    HW224258   5.103   4.654   5.287
 7787SOL     OW24259   4.539   4.296   4.049
 7787SOL    HW124260   4.546   4.207   4.003
 7787SOL    HW224261   4.445   4.330   4.041
 7788SOL     OW24262   5.381   4.328   4.930
 7788SOL    HW124263   5.343   4.259   4.992
 7788SOL    HW224264   5.463   4.292   4.886
 7789SOL     OW24265   3.976   5.288   5.468
 7789SOL    HW124266   3.946   5.345   5.544
 7789SOL    HW224267   3.969   5.191   5.494
 7790SOL     OW24268   4.654   5.402   5.189
 7790SOL    HW124269   4.630   5.384   5.094
 7790SOL    HW224270   4.684   5.496   5.199
 7791SOL     OW24271   3.883   4.861   5.190
 7791SOL    HW124272   3.905   4.800   5.266
 7791SOL    HW224273   3.893   4.812   5.104
 7792SOL     OW24274   5.071   4.783   4.958
 7792SOL    HW124275   5.095   4.720   4.884
 7792SOL    HW224276   4.981   4.823   4.940
 7793SOL     OW24277   5.026   4.579   4.033
 7793SOL    HW124278   4.940   4.548   4.075
 7793SOL    HW224279   5.022   4.565   3.934
 7794SOL     OW24280   5.483   5.471   4.878
 7794SOL    HW124281   5.544   5.501   4.805
 7794SOL    HW224282   5.445   5.382   4.856
 7795SOL     OW24283   4.976   5.455   4.852
 7795SOL    HW124284   5.060   5.460   4.798
 7795SOL    HW224285   4.953   5.359   4.870
 7796SOL     OW24286   3.807   4.982   4.746
 7796SOL    HW124287   3.802   4.981   4.846
 7796SOL    HW224288   3.724   4.941   4.708
 7797SOL     OW24289   4.412   5.386   5.440
 7797SOL    HW124290   4.356   5.467   5.449
 7797SOL    HW224291   4.464   5.390   5.354
 7798SOL     OW24292   5.450   3.859   4.247
 7798SOL    HW124293   5.523   3.842   4.180
 7798SOL    HW224294   5.419   3.772   4.285
 7799SOL     OW24295   5.112   5.297   4.201
 7799SOL    HW124296   5.179   5.309   4.127
 7799SOL    HW224297   5.072   5.386   4.224
 7800SOL     OW24298   3.854   5.518   5.575
 7800SOL    HW124299   3.813   5.444   5.628
 7800SOL    HW224300   3.918   5.569   5.633
 7801SOL     OW24301   5.004   4.651   4.396
 7801SOL    HW124302   5.064   4.570   4.398
 7801SOL    HW224303   5.044   4.720   4.336
 7802SOL     OW24304   4.554   4.997   5.146
 7802SOL    HW124305   4.549   5.030   5.241
 7802SOL    HW224306   4.468   5.016   5.100
 7803SOL     OW24307   4.396   5.340   3.878
 7803SOL    HW124308   4.405   5.350   3.779
 7803SOL    HW224309   4.356   5.251   3.899
 7804SOL     OW24310   5.374   5.444   5.118
 7804SOL    HW124311   5.427   5.454   5.034
 7804SOL    HW224312   5.347   5.534   5.152
 7805SOL     OW24313   5.565   3.899   4.687
 7805SOL    HW124314   5.604   3.814   4.651
 7805SOL    HW224315   5.467   3.901   4.668
 7806SOL     OW24316   3.987   4.050   4.444
 7806SOL    HW124317   3.908   4.101   4.410
 7806SOL    HW224318   3.978   4.035   4.542
 7807SOL     OW24319   4.918   5.336   3.755
 7807SOL    HW124320   4.924   5.243   3.792
 7807SOL    HW224321   4.859   5.336   3.675
 7808SOL     OW24322   4.546   4.726   5.096
 7808SOL    HW124323   4.586   4.725   5.004
 7808SOL    HW224324   4.556   4.818   5.136
 7809SOL     OW24325   4.640   4.634   4.015
 7809SOL    HW124326   4.703   4.672   3.947
 7809SOL    HW224327   4.680   4.551   4.054
 7810SOL     OW24328   5.228   5.331   3.768
 7810SOL    HW124329   5.136   5.368   3.775
 7810SOL    HW224330   5.266   5.351   3.678
 7811SOL     OW24331   4.096   5.012   5.214
 7811SOL    HW124332   4.083   5.105   5.180
 7811SOL    HW224333   4.012   4.960   5.201
 7812SOL     OW24334   5.338   5.016   5.013
 7812SOL    HW124335   5.398   5.019   5.093
 7812SOL    HW224336   5.263   5.080   5.026
 7813SOL     OW24337   4.763   4.822   4.420
 7813SOL    HW124338   4.693   4.775   4.474
 7813SOL    HW224339   4.822   4.754   4.377
 7814SOL     OW24340   4.738   3.960   4.695
 7814SOL    HW124341   4.730   3.924   4.602
 7814SOL    HW224342   4.736   3.884   4.760
 7815SOL     OW24343   4.314   5.211   4.215
 7815SOL    HW124344   4.356   5.153   4.145
 7815SOL    HW224345   4.270   5.290   4.171
 7816SOL     OW24346   5.433   4.109   5.105
 7816SOL    HW124347   5.506   4.178   5.109
 7816SOL    HW224348   5.461   4.034   5.046
 7817SOL     OW24349   3.979   5.072   4.014
 7817SOL    HW124350   3.883   5.073   3.987
 7817SOL    HW224351   3.991   5.125   4.098
 7818SOL     OW24352   3.829   4.737   5.450
 7818SOL    HW124353   3.752   4.704   5.504
 7818SOL    HW224354   3.914   4.707   5.492
 7819SOL     OW24355   3.799   4.069   3.757
 7819SOL    HW124356   3.707   4.041   3.728
 7819SOL    HW224357   3.830   4.146   3.701
 7820SOL     OW24358   5.164   4.580   5.122
 7820SOL    HW124359   5.107   4.632   5.059
 7820SOL    HW224360   5.260   4.592   5.098
 7821SOL     OW24361   3.796   3.890   4.042
 7821SOL    HW124362   3.779   3.973   3.988
 7821SOL    HW224363   3.886   3.853   4.020
 7822SOL     OW24364   4.907   5.059   3.843
 7822SOL    HW124365   4.808   5.048   3.845
 7822SOL    HW224366   4.941   5.074   3.936
 7823SOL     OW24367   5.217   5.491   4.683
 7823SOL    HW124368   5.250   5.555   4.614
 7823SOL    HW224369   5.283   5.485   4.758
 7824SOL     OW24370   4.440   4.289   5.432
 7824SOL    HW124371   4.459   4.354   5.506
 7824SOL    HW224372   4.500   4.209   5.441
 7825SOL     OW24373   5.174   4.944   5.357
 7825SOL    HW124374   5.165   4.934   5.456
 7825SOL    HW224375   5.270   4.937   5.331
 7826SOL     OW24376   4.114   5.465   5.284
 7826SOL    HW124377   4.023   5.506   5.282
 7826SOL    HW224378   4.107   5.371   5.316
 7827SOL     OW24379   5.398   4.607   4.978
 7827SOL    HW124380   5.371   4.518   4.941
 7827SOL    HW224381   5.399   4.675   4.905
 7828SOL     OW24382   4.949   4.049   4.173
 7828SOL    HW124383   5.014   3.975   4.162
 7828SOL    HW224384   4.969   4.099   4.257
 7829SOL     OW24385   4.318   4.469   4.376
 7829SOL    HW124386   4.368   4.554   4.357
 7829SOL    HW224387   4.230   4.471   4.328
 7830SOL     OW24388   5.501   4.066   5.366
 7830SOL    HW124389   5.484   4.097   5.272
 7830SOL    HW224390   5.417   4.029   5.404
 7831SOL     OW24391   5.454   4.658   5.241
 7831SOL    HW124392   5.492   4.749   5.256
 7831SOL    HW224393   5.446   4.641   5.142
 7832SOL     OW24394   4.583   5.098   3.740
 7832SOL    HW124395   4.537   5.113   3.828
 7832SOL    HW224396   4.627   5.183   3.710
 7833SOL     OW24397   4.385   5.514   4.677
 7833SOL    HW124398   4.339   5.602   4.664
 7833SOL    HW224399   4.484   5.526   4.670
 7834SOL     OW24400   4.583   4.680   4.585
 7834SOL    HW124401   4.637   4.611   4.633
 7834SOL    HW224402   4.551   4.749   4.651
 7835SOL     OW24403   4.807   4.708   3.811
 7835SOL    HW124404   4.784   4.761   3.729
 7835SOL    HW224405   4.888   4.652   3.792
 7836SOL     OW24406   5.585   5.293   4.575
 7836SOL    HW124407   5.514   5.281   4.505
 7836SOL    HW224408   5.586   5.214   4.635
 7837SOL     OW24409   3.945   5.038   5.568
 7837SOL    HW124410   3.880   4.965   5.547
 7837SOL    HW224411   3.949   5.052   5.666
 7838SOL     OW24412   3.803   4.964   4.377
 7838SOL    HW124413   3.802   4.917   4.465
 7838SOL    HW224414   3.885   4.936   4.326
 7839SOL     OW24415   4.396   5.115   5.348
 7839SOL    HW124416   4.318   5.065   5.386
 7839SOL    HW224417   4.393   5.210   5.379
 7840SOL     OW24418   5.548   3.916   4.951
 7840SOL    HW124419   5.544   3.826   4.995
 7840SOL    HW224420   5.551   3.905   4.852
 7841SOL     OW24421   4.152   4.148   4.244
 7841SOL    HW124422   4.182   4.076   4.182
 7841SOL    HW224423   4.113   4.108   4.327
 7842SOL     OW24424   5.429   5.211   4.828
 7842SOL    HW124425   5.336   5.186   4.801
 7842SOL    HW224426   5.455   5.161   4.910
 7843SOL     OW24427   4.536   5.310   4.411
 7843SOL    HW124428   4.568   5.320   4.317
 7843SOL    HW224429   4.457   5.248   4.413
 7844SOL     OW24430   5.148   3.938   4.836
 7844SOL    HW124431   5.200   3.873   4.891
 7844SOL    HW224432   5.099   4.001   4.897
 7845SOL     OW24433   4.494   5.054   4.025
 7845SOL    HW124434   4.448   4.967   4.042
 7845SOL    HW224435   4.585   5.051   4.066
 7846SOL     OW24436   4.342   5.291   5.008
 7846SOL    HW124437   4.337   5.373   5.065
 7846SOL    HW224438   4.431   5.288   4.963
 7847SOL     OW24439   5.076   3.776   3.892
 7847SOL    HW124440   5.111   3.735   3.808
 7847SOL    HW224441   4.986   3.738   3.912
 7848SOL     OW24442   5.024   4.177   4.415
 7848SOL    HW124443   4.965   4.257   4.419
 7848SOL    HW224444   5.039   4.142   4.508
 7849SOL     OW24445   5.317   3.945   4.606
 7849SOL    HW124446   5.233   3.944   4.660
 7849SOL    HW224447   5.319   4.028   4.550
 7850SOL     OW24448   3.763   4.801   4.024
 7850SOL    HW124449   3.862   4.790   4.015
 7850SOL    HW224450   3.723   4.715   4.056
 7851SOL     OW24451   4.599   5.370   4.061
 7851SOL    HW124452   4.522   5.335   4.007
 7851SOL    HW224453   4.567   5.441   4.123
 7852SOL     OW24454   3.954   4.352   5.699
 7852SOL    HW124455   3.861   4.350   5.736
 7852SOL    HW224456   3.955   4.313   5.607
 7853SOL     OW24457   3.949   3.999   6.582
 7853SOL    HW124458   3.984   3.982   6.674
 7853SOL    HW224459   3.861   3.954   6.570
 7854SOL     OW24460   3.743   4.092   6.233
 7854SOL    HW124461   3.661   4.135   6.272
 7854SOL    HW224462   3.715   4.019   6.170
 7855SOL     OW24463   4.293   4.999   6.751
 7855SOL    HW124464   4.200   4.992   6.714
 7855SOL    HW224465   4.304   5.088   6.795
 7856SOL     OW24466   5.279   5.235   6.289
 7856SOL    HW124467   5.222   5.219   6.370
 7856SOL    HW224468   5.220   5.245   6.209
 7857SOL     OW24469   4.859   4.427   6.303
 7857SOL    HW124470   4.916   4.505   6.278
 7857SOL    HW224471   4.799   4.453   6.379
 7858SOL     OW24472   5.479   4.331   5.817
 7858SOL    HW124473   5.467   4.318   5.718
 7858SOL    HW224474   5.449   4.250   5.866
 7859SOL     OW24475   4.492   4.868   6.609
 7859SOL    HW124476   4.414   4.885   6.669
 7859SOL    HW224477   4.526   4.955   6.573
 7860SOL     OW24478   4.409   4.736   6.251
 7860SOL    HW124479   4.478   4.720   6.321
 7860SOL    HW224480   4.336   4.793   6.289
 7861SOL     OW24481   4.059   5.159   6.647
 7861SOL    HW124482   3.981   5.128   6.594
 7861SOL    HW224483   4.117   5.217   6.590
 7862SOL     OW24484   5.327   4.171   6.323
 7862SOL    HW124485   5.253   4.217   6.273
 7862SOL    HW224486   5.378   4.239   6.376
 7863SOL     OW24487   3.955   5.437   6.069
 7863SOL    HW124488   3.989   5.514   6.123
 7863SOL    HW224489   3.999   5.437   5.979
 7864SOL     OW24490   3.954   5.158   6.124
 7864SOL    HW124491   3.928   5.254   6.124
 7864SOL    HW224492   3.883   5.104   6.169
 7865SOL     OW24493   3.964   4.815   6.472
 7865SOL    HW124494   3.978   4.731   6.524
 7865SOL    HW224495   3.909   4.879   6.527
 7866SOL     OW24496   4.344   5.510   7.025
 7866SOL    HW124497   4.252   5.493   7.060
 7866SOL    HW224498   4.372   5.602   7.051
 7867SOL     OW24499   4.330   4.688   5.709
 7867SOL    HW124500   4.337   4.772   5.655
 7867SOL    HW224501   4.376   4.701   5.797
 7868SOL     OW24502   3.846   4.367   6.149
 7868SOL    HW124503   3.801   4.279   6.166
 7868SOL    HW224504   3.845   4.421   6.233
 7869SOL     OW24505   5.566   5.491   5.945
 7869SOL    HW124506   5.620   5.462   6.025
 7869SOL    HW224507   5.596   5.581   5.916
 7870SOL     OW24508   3.751   5.320   5.703
 7870SOL    HW124509   3.732   5.224   5.724
 7870SOL    HW224510   3.718   5.378   5.778
 7871SOL     OW24511   5.413   4.646   6.198
 7871SOL    HW124512   5.508   4.617   6.206
 7871SOL    HW224513   5.405   4.711   6.123
 7872SOL     OW24514   5.365   4.832   6.018
 7872SOL    HW124515   5.451   4.834   5.966
 7872SOL    HW224516   5.379   4.879   6.106
 7873SOL     OW24517   4.337   5.089   6.312
 7873SOL    HW124518   4.288   5.002   6.321
 7873SOL    HW224519   4.314   5.132   6.225
 7874SOL     OW24520   4.533   3.728   6.088
 7874SOL    HW124521   4.573   3.819   6.079
 7874SOL    HW224522   4.433   3.736   6.094
 7875SOL     OW24523   3.921   4.700   6.850
 7875SOL    HW124524   4.010   4.655   6.836
 7875SOL    HW224525   3.848   4.635   6.831
 7876SOL     OW24526   5.249   4.723   5.776
 7876SOL    HW124527   5.186   4.647   5.789
 7876SOL    HW224528   5.297   4.741   5.862
 7877SOL     OW24529   5.190   5.141   6.539
 7877SOL    HW124530   5.131   5.147   6.619
 7877SOL    HW224531   5.175   5.053   6.493
 7878SOL     OW24532   5.391   5.438   6.158
 7878SOL    HW124533   5.350   5.415   6.070
 7878SOL    HW224534   5.373   5.364   6.223
 7879SOL     OW24535   4.322   4.453   5.856
 7879SOL    HW124536   4.346   4.522   5.788
 7879SOL    HW224537   4.244   4.486   5.910
 7880SOL     OW24538   5.005   4.069   6.530
 7880SOL    HW124539   4.919   4.019   6.517
 7880SOL    HW224540   5.067   4.015   6.586
 7881SOL     OW24541   5.300   5.386   5.893
 7881SOL    HW124542   5.389   5.432   5.896
 7881SOL    HW224543   5.279   5.362   5.798
 7882SOL     OW24544   4.531   4.329   7.051
 7882SOL    HW124545   4.484   4.326   7.140
 7882SOL    HW224546   4.480   4.274   6.985
 7883SOL     OW24547   4.715   4.134   6.828
 7883SOL    HW124548   4.638   4.168   6.882
 7883SOL    HW224549   4.681   4.083   6.749
 7884SOL     OW24550   4.765   4.425   6.015
 7884SOL    HW124551   4.791   4.421   6.111
 7884SOL    HW224552   4.680   4.374   6.001
 7885SOL     OW24553   3.800   4.535   6.375
 7885SOL    HW124554   3.899   4.523   6.384
 7885SOL    HW224555   3.776   4.630   6.396
 7886SOL     OW24556   3.854   5.545   7.157
 7886SOL    HW124557   3.844   5.530   7.256
 7886SOL    HW224558   3.768   5.581   7.121
 7887SOL     OW24559   4.589   4.072   5.781
 7887SOL    HW124560   4.648   4.135   5.732
 7887SOL    HW224561   4.608   3.978   5.752
 7888SOL     OW24562   5.086   4.868   6.131
 7888SOL    HW124563   5.169   4.839   6.083
 7888SOL    HW224564   5.037   4.935   6.075
 7889SOL     OW24565   4.274   3.920   6.471
 7889SOL    HW124566   4.269   3.915   6.571
 7889SOL    HW224567   4.276   4.016   6.442
 7890SOL     OW24568   4.732   5.180   6.063
 7890SOL    HW124569   4.686   5.252   6.011
 7890SOL    HW224570   4.728   5.200   6.161
 7891SOL     OW24571   4.075   5.525   6.439
 7891SOL    HW124572   4.125   5.439   6.445
 7891SOL    HW224573   4.140   5.602   6.436
 7892SOL     OW24574   5.519   4.790   6.459
 7892SOL    HW124575   5.457   4.775   6.383
 7892SOL    HW224576   5.467   4.801   6.544
 7893SOL     OW24577   4.045   4.667   5.828
 7893SOL    HW124578   4.127   4.706   5.786
 7893SOL    HW224579   4.018   4.585   5.779
 7894SOL     OW24580   5.182   4.459   6.314
 7894SOL    HW124581   5.177   4.394   6.389
 7894SOL    HW224582   5.262   4.518   6.327
 7895SOL     OW24583   4.835   5.500   5.823
 7895SOL    HW124584   4.775   5.438   5.873
 7895SOL    HW224585   4.866   5.456   5.738
 7896SOL     OW24586   5.356   5.101   5.667
 7896SOL    HW124587   5.324   5.195   5.657
 7896SOL    HW224588   5.280   5.038   5.655
 7897SOL     OW24589   4.188   5.467   5.909
 7897SOL    HW124590   4.221   5.506   5.995
 7897SOL    HW224591   4.264   5.460   5.844
 7898SOL     OW24592   5.124   3.831   6.012
 7898SOL    HW124593   5.100   3.794   5.922
 7898SOL    HW224594   5.223   3.847   6.016
 7899SOL     OW24595   3.973   5.509   6.827
 7899SOL    HW124596   4.030   5.444   6.877
 7899SOL    HW224597   3.957   5.476   6.734
 7900SOL     OW24598   4.664   5.422   6.490
 7900SOL    HW124599   4.744   5.365   6.511
 7900SOL    HW224600   4.615   5.382   6.413
 7901SOL     OW24601   4.106   4.424   6.066
 7901SOL    HW124602   4.151   4.334   6.063
 7901SOL    HW224603   4.012   4.413   6.099
 7902SOL     OW24604   4.338   3.846   5.703
 7902SOL    HW124605   4.436   3.824   5.710
 7902SOL    HW224606   4.307   3.829   5.610
 7903SOL     OW24607   4.612   5.238   6.781
 7903SOL    HW124608   4.589   5.213   6.687
 7903SOL    HW224609   4.673   5.169   6.820
 7904SOL     OW24610   4.527   5.126   6.510
 7904SOL    HW124611   4.617   5.140   6.468
 7904SOL    HW224612   4.456   5.128   6.439
 7905SOL     OW24613   4.646   4.227   6.485
 7905SOL    HW124614   4.621   4.218   6.389
 7905SOL    HW224615   4.694   4.145   6.516
 7906SOL     OW24616   4.263   3.788   6.098
 7906SOL    HW124617   4.182   3.789   6.156
 7906SOL    HW224618   4.266   3.871   6.043
 7907SOL     OW24619   5.158   4.912   5.627
 7907SOL    HW124620   5.190   4.836   5.684
 7907SOL    HW224621   5.066   4.939   5.657
 7908SOL     OW24622   4.021   3.759   5.757
 7908SOL    HW124623   4.070   3.843   5.736
 7908SOL    HW224624   4.083   3.694   5.802
 7909SOL     OW24625   4.659   3.960   6.066
 7909SOL    HW124626   4.611   4.001   5.988
 7909SOL    HW224627   4.758   3.958   6.047
 7910SOL     OW24628   4.951   5.294   6.379
 7910SOL    HW124629   4.972   5.368   6.314
 7910SOL    HW224630   5.019   5.294   6.452
 7911SOL     OW24631   4.183   4.876   6.327
 7911SOL    HW124632   4.112   4.849   6.392
 7911SOL    HW224633   4.157   4.848   6.234
 7912SOL     OW24634   4.995   5.521   6.177
 7912SOL    HW124635   5.039   5.585   6.113
 7912SOL    HW224636   4.945   5.573   6.247
 7913SOL     OW24637   4.756   4.273   5.602
 7913SOL    HW124638   4.715   4.355   5.563
 7913SOL    HW224639   4.820   4.299   5.675
 7914SOL     OW24640   4.285   3.946   6.733
 7914SOL    HW124641   4.323   3.862   6.770
 7914SOL    HW224642   4.197   3.965   6.777
 7915SOL     OW24643   4.590   4.178   6.228
 7915SOL    HW124644   4.558   4.250   6.166
 7915SOL    HW224645   4.614   4.097   6.175
 7916SOL     OW24646   4.741   3.763   6.339
 7916SOL    HW124647   4.669   3.768   6.270
 7916SOL    HW224648   4.717   3.694   6.408
 7917SOL     OW24649   5.153   4.897   6.453
 7917SOL    HW124650   5.098   4.813   6.446
 7917SOL    HW224651   5.179   4.926   6.361
 7918SOL     OW24652   5.190   4.314   6.578
 7918SOL    HW124653   5.160   4.219   6.585
 7918SOL    HW224654   5.263   4.330   6.644
 7919SOL     OW24655   5.581   4.557   5.963
 7919SOL    HW124656   5.623   4.493   6.027
 7919SOL    HW224657   5.543   4.506   5.885
 7920SOL     OW24658   4.212   5.109   5.760
 7920SOL    HW124659   4.125   5.094   5.807
 7920SOL    HW224660   4.195   5.135   5.665
 7921SOL     OW24661   5.388   5.004   6.243
 7921SOL    HW124662   5.487   5.012   6.257
 7921SOL    HW224663   5.343   5.088   6.274
 7922SOL     OW24664   5.114   4.299   5.664
 7922SOL    HW124665   5.060   4.278   5.745
 7922SOL    HW224666   5.205   4.258   5.673
 7923SOL     OW24667   4.251   3.980   5.914
 7923SOL    HW124668   4.278   3.921   5.839
 7923SOL    HW224669   4.251   4.075   5.883
 7924SOL     OW24670   5.478   4.947   7.174
 7924SOL    HW124671   5.569   4.908   7.161
 7924SOL    HW224672   5.486   5.043   7.198
 7925SOL     OW24673   4.835   4.919   6.686
 7925SOL    HW124674   4.795   4.963   6.767
 7925SOL    HW224675   4.794   4.956   6.603
 7926SOL     OW24676   5.362   4.823   6.665
 7926SOL    HW124677   5.367   4.904   6.724
 7926SOL    HW224678   5.276   4.825   6.614
 7927SOL     OW24679   4.429   4.774   5.954
 7927SOL    HW124680   4.415   4.781   6.053
 7927SOL    HW224681   4.513   4.723   5.936
 7928SOL     OW24682   4.134   4.537   6.837
 7928SOL    HW124683   4.220   4.549   6.887
 7928SOL    HW224684   4.092   4.450   6.864
 7929SOL     OW24685   4.998   4.110   6.848
 7929SOL    HW124686   5.019   4.184   6.912
 7929SOL    HW224687   4.909   4.127   6.805
 7930SOL     OW24688   3.788   5.288   6.917
 7930SOL    HW124689   3.742   5.370   6.883
 7930SOL    HW224690   3.886   5.307   6.926
 7931SOL     OW24691   4.091   4.824   6.087
 7931SOL    HW124692   4.084   4.907   6.031
 7931SOL    HW224693   4.095   4.744   6.027
 7932SOL     OW24694   4.290   4.261   6.451
 7932SOL    HW124695   4.302   4.327   6.377
 7932SOL    HW224696   4.336   4.295   6.534
 7933SOL     OW24697   4.976   5.072   5.974
 7933SOL    HW124698   5.026   5.149   6.014
 7933SOL    HW224699   4.881   5.074   6.006
 7934SOL     OW24700   4.996   5.169   6.728
 7934SOL    HW124701   5.043   5.182   6.815
 7934SOL    HW224702   4.930   5.095   6.737
 7935SOL     OW24703   5.306   4.363   6.058
 7935SOL    HW124704   5.275   4.424   6.131
 7935SOL    HW224705   5.356   4.415   5.989
 7936SOL     OW24706   4.078   5.234   6.915
 7936SOL    HW124707   4.057   5.190   6.828
 7936SOL    HW224708   4.175   5.260   6.918
 7937SOL     OW24709   4.297   4.594   6.615
 7937SOL    HW124710   4.341   4.683   6.606
 7937SOL    HW224711   4.234   4.594   6.692
 7938SOL     OW24712   5.084   4.586   6.631
 7938SOL    HW124713   5.009   4.586   6.565
 7938SOL    HW224714   5.121   4.494   6.640
 7939SOL     OW24715   4.933   4.249   5.861
 7939SOL    HW124716   4.946   4.165   5.915
 7939SOL    HW224717   4.904   4.323   5.921
 7940SOL     OW24718   4.031   3.937   6.817
 7940SOL    HW124719   4.008   3.974   6.907
 7940SOL    HW224720   4.001   3.842   6.811
 7941SOL     OW24721   3.761   5.034   6.868
 7941SOL    HW124722   3.814   4.985   6.936
 7941SOL    HW224723   3.783   5.132   6.873
 7942SOL     OW24724   4.456   4.358   6.650
 7942SOL    HW124725   4.515   4.332   6.574
 7942SOL    HW224726   4.428   4.454   6.639
 7943SOL     OW24727   4.031   3.787   6.204
 7943SOL    HW124728   4.020   3.881   6.237
 7943SOL    HW224729   4.026   3.724   6.281
 7944SOL     OW24730   5.346   4.091   5.960
 7944SOL    HW124731   5.348   4.015   6.024
 7944SOL    HW224732   5.298   4.168   6.000
 7945SOL     OW24733   4.747   4.490   6.552
 7945SOL    HW124734   4.762   4.511   6.648
 7945SOL    HW224735   4.717   4.395   6.543
 7946SOL     OW24736   5.264   3.998   5.711
 7946SOL    HW124737   5.203   3.923   5.734
 7946SOL    HW224738   5.286   4.050   5.794
 7947SOL     OW24739   5.027   4.562   5.628
 7947SOL    HW124740   5.061   4.469   5.643
 7947SOL    HW224741   5.045   4.589   5.533
 7948SOL     OW24742   4.792   5.057   6.435
 7948SOL    HW124743   4.799   4.973   6.380
 7948SOL    HW224744   4.854   5.126   6.399
 7949SOL     OW24745   4.043   4.534   6.535
 7949SOL    HW124746   4.136   4.570   6.540
 7949SOL    HW224747   4.037   4.449   6.587
 7950SOL     OW24748   4.063   4.233   6.592
 7950SOL    HW124749   4.011   4.150   6.575
 7950SOL    HW224750   4.140   4.238   6.528
 7951SOL     OW24751   4.884   3.931   7.063
 7951SOL    HW124752   4.884   3.995   7.140
 7951SOL    HW224753   4.912   3.979   6.980
 7952SOL     OW24754   3.732   5.050   5.786
 7952SOL    HW124755   3.639   5.071   5.755
 7952SOL    HW224756   3.742   4.951   5.799
 7953SOL     OW24757   3.812   5.525   6.513
 7953SOL    HW124758   3.770   5.439   6.486
 7953SOL    HW224759   3.906   5.528   6.479
 7954SOL     OW24760   4.228   5.292   6.496
 7954SOL    HW124761   4.294   5.366   6.505
 7954SOL    HW224762   4.272   5.213   6.454
 7955SOL     OW24763   4.726   4.520   6.824
 7955SOL    HW124764   4.767   4.488   6.910
 7955SOL    HW224765   4.630   4.493   6.821
 7956SOL     OW24766   3.764   4.268   6.700
 7956SOL    HW124767   3.849   4.235   6.659
 7956SOL    HW224768   3.777   4.283   6.798
 7957SOL     OW24769   4.539   4.296   5.911
 7957SOL    HW124770   4.546   4.207   5.865
 7957SOL    HW224771   4.445   4.330   5.903
 7958SOL     OW24772   5.381   4.328   6.792
 7958SOL    HW124773   5.343   4.259   6.854
 7958SOL    HW224774   5.463   4.292   6.748
 7959SOL     OW24775   4.395   4.188   6.855
 7959SOL    HW124776   4.361   4.099   6.825
 7959SOL    HW224777   4.421   4.242   6.775
 7960SOL     OW24778   4.654   5.402   7.051
 7960SOL    HW124779   4.630   5.384   6.956
 7960SOL    HW224780   4.684   5.496   7.061
 7961SOL     OW24781   4.197   4.224   5.777
 7961SOL    HW124782   4.258   4.304   5.781
 7961SOL    HW224783   4.102   4.255   5.784
 7962SOL     OW24784   3.883   4.861   7.052
 7962SOL    HW124785   3.905   4.800   7.128
 7962SOL    HW224786   3.893   4.812   6.966
 7963SOL     OW24787   5.071   4.783   6.820
 7963SOL    HW124788   5.095   4.720   6.746
 7963SOL    HW224789   4.981   4.823   6.802
 7964SOL     OW24790   5.026   4.579   5.895
 7964SOL    HW124791   4.940   4.548   5.937
 7964SOL    HW224792   5.022   4.565   5.796
 7965SOL     OW24793   5.483   5.471   6.740
 7965SOL    HW124794   5.544   5.501   6.667
 7965SOL    HW224795   5.445   5.382   6.718
 7966SOL     OW24796   4.976   5.455   6.714
 7966SOL    HW124797   5.060   5.460   6.660
 7966SOL    HW224798   4.953   5.359   6.732
 7967SOL     OW24799   3.807   4.982   6.608
 7967SOL    HW124800   3.802   4.981   6.708
 7967SOL    HW224801   3.724   4.941   6.570
 7968SOL     OW24802   5.450   3.859   6.109
 7968SOL    HW124803   5.523   3.842   6.042
 7968SOL    HW224804   5.419   3.772   6.147
 7969SOL     OW24805   5.112   5.297   6.063
 7969SOL    HW124806   5.179   5.309   5.989
 7969SOL    HW224807   5.072   5.386   6.086
 7970SOL     OW24808   5.004   4.651   6.258
 7970SOL    HW124809   5.064   4.570   6.260
 7970SOL    HW224810   5.044   4.720   6.198
 7971SOL     OW24811   4.396   5.340   5.740
 7971SOL    HW124812   4.405   5.350   5.641
 7971SOL    HW224813   4.356   5.251   5.761
 7972SOL     OW24814   5.565   3.899   6.549
 7972SOL    HW124815   5.604   3.814   6.513
 7972SOL    HW224816   5.467   3.901   6.530
 7973SOL     OW24817   3.987   4.050   6.306
 7973SOL    HW124818   3.908   4.101   6.272
 7973SOL    HW224819   3.978   4.035   6.404
 7974SOL     OW24820   4.918   5.336   5.617
 7974SOL    HW124821   4.924   5.243   5.654
 7974SOL    HW224822   4.859   5.336   5.537
 7975SOL     OW24823   4.546   4.726   6.958
 7975SOL    HW124824   4.586   4.725   6.866
 7975SOL    HW224825   4.556   4.818   6.998
 7976SOL     OW24826   4.640   4.634   5.877
 7976SOL    HW124827   4.703   4.672   5.809
 7976SOL    HW224828   4.680   4.551   5.916
 7977SOL     OW24829   5.228   5.331   5.630
 7977SOL    HW124830   5.136   5.368   5.637
 7977SOL    HW224831   5.266   5.351   5.540
 7978SOL     OW24832   5.338   5.016   6.875
 7978SOL    HW124833   5.398   5.019   6.955
 7978SOL    HW224834   5.263   5.080   6.888
 7979SOL     OW24835   4.763   4.822   6.282
 7979SOL    HW124836   4.693   4.775   6.336
 7979SOL    HW224837   4.822   4.754   6.239
 7980SOL     OW24838   4.738   3.960   6.557
 7980SOL    HW124839   4.730   3.924   6.464
 7980SOL    HW224840   4.736   3.884   6.622
 7981SOL     OW24841   4.314   5.211   6.077
 7981SOL    HW124842   4.356   5.153   6.007
 7981SOL    HW224843   4.270   5.290   6.033
 7982SOL     OW24844   5.433   4.109   6.967
 7982SOL    HW124845   5.506   4.178   6.971
 7982SOL    HW224846   5.461   4.034   6.908
 7983SOL     OW24847   3.979   5.072   5.876
 7983SOL    HW124848   3.883   5.073   5.849
 7983SOL    HW224849   3.991   5.125   5.960
 7984SOL     OW24850   4.396   3.927   7.075
 7984SOL    HW124851   4.486   3.911   7.035
 7984SOL    HW224852   4.404   3.932   7.174
 7985SOL     OW24853   3.799   4.069   5.619
 7985SOL    HW124854   3.707   4.041   5.590
 7985SOL    HW224855   3.830   4.146   5.563
 7986SOL     OW24856   3.796   3.890   5.904
 7986SOL    HW124857   3.779   3.973   5.850
 7986SOL    HW224858   3.886   3.853   5.882
 7987SOL     OW24859   4.907   5.059   5.705
 7987SOL    HW124860   4.808   5.048   5.707
 7987SOL    HW224861   4.941   5.074   5.798
 7988SOL     OW24862   5.217   5.491   6.545
 7988SOL    HW124863   5.250   5.555   6.476
 7988SOL    HW224864   5.283   5.485   6.620
 7989SOL     OW24865   5.174   4.944   7.219
 7989SOL    HW124866   5.165   4.934   7.318
 7989SOL    HW224867   5.270   4.937   7.193
 7990SOL     OW24868   4.114   5.465   7.146
 7990SOL    HW124869   4.023   5.506   7.144
 7990SOL    HW224870   4.107   5.371   7.178
 7991SOL     OW24871   5.398   4.607   6.840
 7991SOL    HW124872   5.371   4.518   6.803
 7991SOL    HW224873   5.399   4.675   6.767
 7992SOL     OW24874   4.949   4.049   6.035
 7992SOL    HW124875   5.014   3.975   6.024
 7992SOL    HW224876   4.969   4.099   6.119
 7993SOL     OW24877   4.318   4.469   6.238
 7993SOL    HW124878   4.368   4.554   6.219
 7993SOL    HW224879   4.230   4.471   6.190
 7994SOL     OW24880   5.454   4.658   7.103
 7994SOL    HW124881   5.492   4.749   7.118
 7994SOL    HW224882   5.446   4.641   7.004
 7995SOL     OW24883   4.583   5.098   5.602
 7995SOL    HW124884   4.537   5.113   5.690
 7995SOL    HW224885   4.627   5.183   5.572
 7996SOL     OW24886   4.385   5.514   6.539
 7996SOL    HW124887   4.339   5.602   6.526
 7996SOL    HW224888   4.484   5.526   6.532
 7997SOL     OW24889   4.583   4.680   6.447
 7997SOL    HW124890   4.637   4.611   6.495
 7997SOL    HW224891   4.551   4.749   6.513
 7998SOL     OW24892   4.807   4.708   5.673
 7998SOL    HW124893   4.784   4.761   5.591
 7998SOL    HW224894   4.888   4.652   5.654
 7999SOL     OW24895   5.585   5.293   6.437
 7999SOL    HW124896   5.514   5.281   6.367
 7999SOL    HW224897   5.586   5.214   6.497
 8000SOL     OW24898   3.803   4.964   6.239
 8000SOL    HW124899   3.802   4.917   6.327
 8000SOL    HW224900   3.885   4.936   6.188
 8001SOL     OW24901   5.548   3.916   6.813
 8001SOL    HW124902   5.544   3.826   6.857
 8001SOL    HW224903   5.551   3.905   6.714
 8002SOL     OW24904   4.152   4.148   6.106
 8002SOL    HW124905   4.182   4.076   6.044
 8002SOL    HW224906   4.113   4.108   6.189
 8003SOL     OW24907   5.429   5.211   6.690
 8003SOL    HW124908   5.336   5.186   6.663
 8003SOL    HW224909   5.455   5.161   6.772
 8004SOL     OW24910   4.041   4.271   6.866
 8004SOL    HW124911   4.079   4.212   6.938
 8004SOL    HW224912   4.081   4.245   6.778
 8005SOL     OW24913   4.536   5.310   6.273
 8005SOL    HW124914   4.568   5.320   6.179
 8005SOL    HW224915   4.457   5.248   6.275
 8006SOL     OW24916   5.148   3.938   6.698
 8006SOL    HW124917   5.200   3.873   6.753
 8006SOL    HW224918   5.099   4.001   6.759
 8007SOL     OW24919   4.725   3.758   6.740
 8007SOL    HW124920   4.662   3.686   6.709
 8007SOL    HW224921   4.818   3.722   6.740
 8008SOL     OW24922   4.494   5.054   5.887
 8008SOL    HW124923   4.448   4.967   5.904
 8008SOL    HW224924   4.585   5.051   5.928
 8009SOL     OW24925   4.342   5.291   6.870
 8009SOL    HW124926   4.337   5.373   6.927
 8009SOL    HW224927   4.431   5.288   6.825
 8010SOL     OW24928   5.076   3.776   5.754
 8010SOL    HW124929   5.111   3.735   5.670
 8010SOL    HW224930   4.986   3.738   5.774
 8011SOL     OW24931   5.024   4.177   6.277
 8011SOL    HW124932   4.965   4.257   6.281
 8011SOL    HW224933   5.039   4.142   6.370
 8012SOL     OW24934   5.317   3.945   6.468
 8012SOL    HW124935   5.233   3.944   6.522
 8012SOL    HW224936   5.319   4.028   6.412
 8013SOL     OW24937   3.763   4.801   5.886
 8013SOL    HW124938   3.862   4.790   5.877
 8013SOL    HW224939   3.723   4.715   5.918
 8014SOL     OW24940   4.599   5.370   5.923
 8014SOL    HW124941   4.522   5.335   5.869
 8014SOL    HW224942   4.567   5.441   5.985
 8015SOL     OW24943   3.954   6.214   0.113
 8015SOL    HW124944   3.861   6.212   0.150
 8015SOL    HW224945   3.955   6.175   0.021
 8016SOL     OW24946   3.949   5.861   0.996
 8016SOL    HW124947   3.984   5.844   1.088
 8016SOL    HW224948   3.861   5.816   0.984
 8017SOL     OW24949   3.743   5.954   0.647
 8017SOL    HW124950   3.661   5.997   0.686
 8017SOL    HW224951   3.715   5.881   0.584
 8018SOL     OW24952   4.293   6.861   1.165
 8018SOL    HW124953   4.200   6.854   1.128
 8018SOL    HW224954   4.304   6.950   1.209
 8019SOL     OW24955   5.279   7.097   0.703
 8019SOL    HW124956   5.222   7.081   0.784
 8019SOL    HW224957   5.220   7.107   0.623
 8020SOL     OW24958   4.859   6.289   0.717
 8020SOL    HW124959   4.916   6.367   0.692
 8020SOL    HW224960   4.799   6.315   0.793
 8021SOL     OW24961   5.479   6.193   0.231
 8021SOL    HW124962   5.467   6.180   0.132
 8021SOL    HW224963   5.449   6.112   0.280
 8022SOL     OW24964   4.492   6.730   1.023
 8022SOL    HW124965   4.414   6.747   1.083
 8022SOL    HW224966   4.526   6.817   0.987
 8023SOL     OW24967   4.574   6.384   1.823
 8023SOL    HW124968   4.570   6.460   1.888
 8023SOL    HW224969   4.596   6.420   1.732
 8024SOL     OW24970   4.409   6.598   0.665
 8024SOL    HW124971   4.478   6.582   0.735
 8024SOL    HW224972   4.336   6.655   0.703
 8025SOL     OW24973   4.410   6.747   1.803
 8025SOL    HW124974   4.470   6.826   1.817
 8025SOL    HW224975   4.324   6.778   1.762
 8026SOL     OW24976   4.059   7.021   1.061
 8026SOL    HW124977   3.981   6.990   1.008
 8026SOL    HW224978   4.117   7.079   1.004
 8027SOL     OW24979   4.162   5.978   1.499
 8027SOL    HW124980   4.244   5.922   1.508
 8027SOL    HW224981   4.081   5.920   1.503
 8028SOL     OW24982   5.327   6.033   0.737
 8028SOL    HW124983   5.253   6.079   0.687
 8028SOL    HW224984   5.378   6.101   0.790
 8029SOL     OW24985   3.964   6.677   0.886
 8029SOL    HW124986   3.978   6.593   0.938
 8029SOL    HW224987   3.909   6.741   0.941
 8030SOL     OW24988   4.330   6.550   0.123
 8030SOL    HW124989   4.337   6.634   0.069
 8030SOL    HW224990   4.376   6.563   0.211
 8031SOL     OW24991   5.318   5.700   1.480
 8031SOL    HW124992   5.300   5.767   1.408
 8031SOL    HW224993   5.315   5.746   1.569
 8032SOL     OW24994   3.846   6.229   0.563
 8032SOL    HW124995   3.801   6.141   0.580
 8032SOL    HW224996   3.845   6.283   0.647
 8033SOL     OW24997   5.413   6.508   0.612
 8033SOL    HW124998   5.508   6.479   0.620
 8033SOL    HW224999   5.405   6.573   0.537
 8034SOL     OW25000   5.365   6.694   0.432
 8034SOL    HW125001   5.451   6.696   0.380
 8034SOL    HW225002   5.379   6.741   0.520
 8035SOL     OW25003   3.837   6.323   1.597
 8035SOL    HW125004   3.925   6.310   1.642
 8035SOL    HW225005   3.824   6.420   1.575
 8036SOL     OW25006   5.017   6.814   1.423
 8036SOL    HW125007   5.054   6.741   1.365
 8036SOL    HW225008   5.069   6.819   1.508
 8037SOL     OW25009   4.533   5.590   0.502
 8037SOL    HW125010   4.573   5.681   0.493
 8037SOL    HW225011   4.433   5.598   0.508
 8038SOL     OW25012   3.921   6.562   1.264
 8038SOL    HW125013   4.010   6.517   1.250
 8038SOL    HW225014   3.848   6.497   1.245
 8039SOL     OW25015   5.249   6.585   0.190
 8039SOL    HW125016   5.186   6.509   0.203
 8039SOL    HW225017   5.297   6.603   0.276
 8040SOL     OW25018   4.041   5.837   1.801
 8040SOL    HW125019   4.112   5.908   1.807
 8040SOL    HW225020   3.953   5.876   1.829
 8041SOL     OW25021   5.190   7.003   0.953
 8041SOL    HW125022   5.131   7.009   1.033
 8041SOL    HW225023   5.175   6.915   0.907
 8042SOL     OW25024   4.322   6.315   0.270
 8042SOL    HW125025   4.346   6.384   0.202
 8042SOL    HW225026   4.244   6.348   0.324
 8043SOL     OW25027   5.005   5.931   0.944
 8043SOL    HW125028   4.919   5.881   0.931
 8043SOL    HW225029   5.067   5.877   1.000
 8044SOL     OW25030   4.531   6.191   1.465
 8044SOL    HW125031   4.484   6.188   1.554
 8044SOL    HW225032   4.480   6.136   1.399
 8045SOL     OW25033   5.118   6.055   1.674
 8045SOL    HW125034   5.098   6.098   1.762
 8045SOL    HW225035   5.196   5.993   1.683
 8046SOL     OW25036   4.697   6.476   1.572
 8046SOL    HW125037   4.743   6.392   1.543
 8046SOL    HW225038   4.641   6.510   1.497
 8047SOL     OW25039   4.715   5.996   1.242
 8047SOL    HW125040   4.638   6.030   1.296
 8047SOL    HW225041   4.681   5.945   1.163
 8048SOL     OW25042   4.765   6.287   0.429
 8048SOL    HW125043   4.791   6.283   0.525
 8048SOL    HW225044   4.680   6.236   0.415
 8049SOL     OW25045   3.800   6.397   0.789
 8049SOL    HW125046   3.899   6.385   0.798
 8049SOL    HW225047   3.776   6.492   0.810
 8050SOL     OW25048   4.589   5.934   0.195
 8050SOL    HW125049   4.648   5.997   0.146
 8050SOL    HW225050   4.608   5.840   0.166
 8051SOL     OW25051   5.443   6.171   1.831
 8051SOL    HW125052   5.417   6.260   1.795
 8051SOL    HW225053   5.441   6.103   1.758
 8052SOL     OW25054   5.086   6.730   0.545
 8052SOL    HW125055   5.169   6.701   0.497
 8052SOL    HW225056   5.037   6.797   0.489
 8053SOL     OW25057   4.274   5.782   0.885
 8053SOL    HW125058   4.269   5.777   0.985
 8053SOL    HW225059   4.276   5.878   0.856
 8054SOL     OW25060   5.519   6.652   0.873
 8054SOL    HW125061   5.457   6.637   0.797
 8054SOL    HW225062   5.467   6.663   0.958
 8055SOL     OW25063   4.045   6.529   0.242
 8055SOL    HW125064   4.127   6.568   0.200
 8055SOL    HW225065   4.018   6.447   0.193
 8056SOL     OW25066   5.182   6.321   0.728
 8056SOL    HW125067   5.177   6.256   0.803
 8056SOL    HW225068   5.262   6.380   0.741
 8057SOL     OW25069   3.926   5.871   1.498
 8057SOL    HW125070   3.846   5.931   1.485
 8057SOL    HW225071   3.916   5.822   1.584
 8058SOL     OW25072   5.356   6.963   0.081
 8058SOL    HW125073   5.324   7.057   0.071
 8058SOL    HW225074   5.280   6.900   0.069
 8059SOL     OW25075   4.106   6.286   0.480
 8059SOL    HW125076   4.151   6.196   0.477
 8059SOL    HW225077   4.012   6.275   0.513
 8060SOL     OW25078   5.271   5.808   1.729
 8060SOL    HW125079   5.266   5.845   1.821
 8060SOL    HW225080   5.199   5.739   1.717
 8061SOL     OW25081   4.505   5.850   1.749
 8061SOL    HW125082   4.572   5.789   1.792
 8061SOL    HW225083   4.432   5.869   1.814
 8062SOL     OW25084   5.075   6.176   1.433
 8062SOL    HW125085   5.103   6.133   1.518
 8062SOL    HW225086   5.100   6.272   1.434
 8063SOL     OW25087   4.646   6.089   0.899
 8063SOL    HW125088   4.621   6.080   0.803
 8063SOL    HW225089   4.694   6.007   0.930
 8064SOL     OW25090   4.263   5.650   0.512
 8064SOL    HW125091   4.182   5.651   0.570
 8064SOL    HW225092   4.266   5.733   0.457
 8065SOL     OW25093   5.158   6.774   0.041
 8065SOL    HW125094   5.190   6.698   0.098
 8065SOL    HW225095   5.066   6.801   0.071
 8066SOL     OW25096   4.659   5.822   0.480
 8066SOL    HW125097   4.611   5.863   0.402
 8066SOL    HW225098   4.758   5.820   0.461
 8067SOL     OW25099   4.800   6.269   1.464
 8067SOL    HW125100   4.720   6.208   1.467
 8067SOL    HW225101   4.881   6.216   1.440
 8068SOL     OW25102   4.951   7.156   0.793
 8068SOL    HW125103   4.972   7.230   0.728
 8068SOL    HW225104   5.019   7.156   0.866
 8069SOL     OW25105   4.183   6.738   0.741
 8069SOL    HW125106   4.112   6.711   0.806
 8069SOL    HW225107   4.157   6.710   0.648
 8070SOL     OW25108   4.756   6.135   0.016
 8070SOL    HW125109   4.715   6.217  -0.023
 8070SOL    HW225110   4.820   6.161   0.089
 8071SOL     OW25111   3.802   6.142   1.386
 8071SOL    HW125112   3.894   6.141   1.345
 8071SOL    HW225113   3.796   6.216   1.453
 8072SOL     OW25114   4.285   5.808   1.147
 8072SOL    HW125115   4.323   5.724   1.184
 8072SOL    HW225116   4.197   5.827   1.191
 8073SOL     OW25117   4.590   6.040   0.642
 8073SOL    HW125118   4.558   6.112   0.580
 8073SOL    HW225119   4.614   5.959   0.589
 8074SOL     OW25120   4.741   5.625   0.753
 8074SOL    HW125121   4.669   5.630   0.684
 8074SOL    HW225122   4.717   5.556   0.822
 8075SOL     OW25123   5.153   6.759   0.867
 8075SOL    HW125124   5.098   6.675   0.860
 8075SOL    HW225125   5.179   6.788   0.775
 8076SOL     OW25126   5.190   6.176   0.992
 8076SOL    HW125127   5.160   6.081   0.999
 8076SOL    HW225128   5.263   6.192   1.058
 8077SOL     OW25129   5.581   6.419   0.377
 8077SOL    HW125130   5.623   6.355   0.441
 8077SOL    HW225131   5.543   6.368   0.299
 8078SOL     OW25132   5.388   6.866   0.657
 8078SOL    HW125133   5.487   6.874   0.671
 8078SOL    HW225134   5.343   6.950   0.688
 8079SOL     OW25135   5.114   6.161   0.078
 8079SOL    HW125136   5.060   6.140   0.159
 8079SOL    HW225137   5.205   6.120   0.087
 8080SOL     OW25138   4.251   5.842   0.328
 8080SOL    HW125139   4.278   5.783   0.253
 8080SOL    HW225140   4.251   5.937   0.297
 8081SOL     OW25141   5.478   6.809   1.588
 8081SOL    HW125142   5.569   6.770   1.575
 8081SOL    HW225143   5.486   6.905   1.612
 8082SOL     OW25144   4.788   6.933   1.340
 8082SOL    HW125145   4.708   6.910   1.395
 8082SOL    HW225146   4.871   6.907   1.389
 8083SOL     OW25147   4.835   6.781   1.100
 8083SOL    HW125148   4.795   6.825   1.181
 8083SOL    HW225149   4.794   6.818   1.017
 8084SOL     OW25150   5.362   6.685   1.079
 8084SOL    HW125151   5.367   6.766   1.138
 8084SOL    HW225152   5.276   6.687   1.028
 8085SOL     OW25153   4.639   5.675   1.402
 8085SOL    HW125154   4.664   5.655   1.307
 8085SOL    HW225155   4.711   5.731   1.444
 8086SOL     OW25156   4.704   6.702   1.719
 8086SOL    HW125157   4.605   6.708   1.729
 8086SOL    HW225158   4.727   6.622   1.663
 8087SOL     OW25159   4.429   6.636   0.368
 8087SOL    HW125160   4.415   6.643   0.467
 8087SOL    HW225161   4.513   6.585   0.350
 8088SOL     OW25162   4.134   6.399   1.251
 8088SOL    HW125163   4.220   6.411   1.301
 8088SOL    HW225164   4.092   6.312   1.278
 8089SOL     OW25165   4.998   5.972   1.262
 8089SOL    HW125166   5.019   6.046   1.326
 8089SOL    HW225167   4.909   5.989   1.219
 8090SOL     OW25168   4.091   6.686   0.501
 8090SOL    HW125169   4.084   6.769   0.445
 8090SOL    HW225170   4.095   6.606   0.441
 8091SOL     OW25171   4.290   6.123   0.865
 8091SOL    HW125172   4.302   6.189   0.791
 8091SOL    HW225173   4.336   6.157   0.948
 8092SOL     OW25174   5.306   6.225   0.472
 8092SOL    HW125175   5.275   6.286   0.545
 8092SOL    HW225176   5.356   6.277   0.403
 8093SOL     OW25177   4.126   6.337   1.598
 8093SOL    HW125178   4.194   6.392   1.551
 8093SOL    HW225179   4.166   6.249   1.625
 8094SOL     OW25180   5.311   6.365   1.670
 8094SOL    HW125181   5.219   6.403   1.665
 8094SOL    HW225182   5.371   6.412   1.605
 8095SOL     OW25183   4.737   5.691   1.770
 8095SOL    HW125184   4.743   5.776   1.718
 8095SOL    HW225185   4.769   5.615   1.713
 8096SOL     OW25186   4.228   5.636   1.740
 8096SOL    HW125187   4.186   5.579   1.670
 8096SOL    HW225188   4.162   5.705   1.772
 8097SOL     OW25189   4.297   6.456   1.029
 8097SOL    HW125190   4.341   6.545   1.020
 8097SOL    HW225191   4.234   6.456   1.106
 8098SOL     OW25192   5.084   6.448   1.045
 8098SOL    HW125193   5.009   6.448   0.979
 8098SOL    HW225194   5.121   6.356   1.054
 8099SOL     OW25195   4.933   6.111   0.275
 8099SOL    HW125196   4.946   6.027   0.329
 8099SOL    HW225197   4.904   6.185   0.335
 8100SOL     OW25198   4.031   5.799   1.231
 8100SOL    HW125199   4.008   5.836   1.321
 8100SOL    HW225200   4.001   5.704   1.225
 8101SOL     OW25201   3.761   6.896   1.282
 8101SOL    HW125202   3.814   6.847   1.350
 8101SOL    HW225203   3.783   6.994   1.287
 8102SOL     OW25204   4.456   6.220   1.064
 8102SOL    HW125205   4.515   6.194   0.988
 8102SOL    HW225206   4.428   6.316   1.053
 8103SOL     OW25207   5.452   6.521   1.854
 8103SOL    HW125208   5.406   6.514   1.765
 8103SOL    HW225209   5.390   6.565   1.920
 8104SOL     OW25210   4.031   5.649   0.618
 8104SOL    HW125211   4.020   5.743   0.651
 8104SOL    HW225212   4.026   5.586   0.695
 8105SOL     OW25213   5.346   5.953   0.374
 8105SOL    HW125214   5.348   5.877   0.438
 8105SOL    HW225215   5.298   6.030   0.414
 8106SOL     OW25216   4.747   6.352   0.966
 8106SOL    HW125217   4.762   6.373   1.062
 8106SOL    HW225218   4.717   6.257   0.957
 8107SOL     OW25219   5.583   7.104   1.605
 8107SOL    HW125220   5.597   7.131   1.510
 8107SOL    HW225221   5.666   7.126   1.658
 8108SOL     OW25222   4.074   6.484   1.804
 8108SOL    HW125223   4.150   6.528   1.852
 8108SOL    HW225224   4.109   6.437   1.722
 8109SOL     OW25225   5.264   5.860   0.125
 8109SOL    HW125226   5.203   5.785   0.148
 8109SOL    HW225227   5.286   5.912   0.208
 8110SOL     OW25228   5.027   6.424   0.042
 8110SOL    HW125229   5.061   6.331   0.057
 8110SOL    HW225230   5.045   6.451  -0.053
 8111SOL     OW25231   4.043   6.396   0.949
 8111SOL    HW125232   4.136   6.432   0.954
 8111SOL    HW225233   4.037   6.311   1.001
 8112SOL     OW25234   4.063   6.095   1.006
 8112SOL    HW125235   4.011   6.012   0.989
 8112SOL    HW225236   4.140   6.100   0.942
 8113SOL     OW25237   4.862   5.966   1.678
 8113SOL    HW125238   4.817   6.029   1.742
 8113SOL    HW225239   4.955   5.997   1.661
 8114SOL     OW25240   4.884   5.793   1.477
 8114SOL    HW125241   4.884   5.857   1.554
 8114SOL    HW225242   4.912   5.841   1.394
 8115SOL     OW25243   4.726   6.382   1.238
 8115SOL    HW125244   4.767   6.350   1.324
 8115SOL    HW225245   4.630   6.355   1.235
 8116SOL     OW25246   3.764   6.130   1.114
 8116SOL    HW125247   3.849   6.097   1.073
 8116SOL    HW225248   3.777   6.145   1.212
 8117SOL     OW25249   3.913   6.106   1.722
 8117SOL    HW125250   3.972   6.066   1.652
 8117SOL    HW225251   3.855   6.177   1.681
 8118SOL     OW25252   5.093   6.536   1.660
 8118SOL    HW125253   5.132   6.625   1.680
 8118SOL    HW225254   5.103   6.516   1.563
 8119SOL     OW25255   4.539   6.158   0.325
 8119SOL    HW125256   4.546   6.069   0.279
 8119SOL    HW225257   4.445   6.192   0.317
 8120SOL     OW25258   5.381   6.190   1.206
 8120SOL    HW125259   5.343   6.121   1.268
 8120SOL    HW225260   5.463   6.154   1.162
 8121SOL     OW25261   4.395   6.050   1.269
 8121SOL    HW125262   4.361   5.961   1.239
 8121SOL    HW225263   4.421   6.104   1.189
 8122SOL     OW25264   4.197   6.086   0.191
 8122SOL    HW125265   4.258   6.166   0.195
 8122SOL    HW225266   4.102   6.117   0.198
 8123SOL     OW25267   3.883   6.723   1.466
 8123SOL    HW125268   3.905   6.662   1.542
 8123SOL    HW225269   3.893   6.674   1.380
 8124SOL     OW25270   5.071   6.645   1.234
 8124SOL    HW125271   5.095   6.582   1.160
 8124SOL    HW225272   4.981   6.685   1.216
 8125SOL     OW25273   5.026   6.441   0.309
 8125SOL    HW125274   4.940   6.410   0.351
 8125SOL    HW225275   5.022   6.427   0.210
 8126SOL     OW25276   3.807   6.844   1.022
 8126SOL    HW125277   3.802   6.843   1.122
 8126SOL    HW225278   3.724   6.803   0.984
 8127SOL     OW25279   4.627   5.672   0.133
 8127SOL    HW125280   4.678   5.673   0.047
 8127SOL    HW225281   4.683   5.630   0.204
 8128SOL     OW25282   5.450   5.721   0.523
 8128SOL    HW125283   5.523   5.704   0.456
 8128SOL    HW225284   5.419   5.634   0.561
 8129SOL     OW25285   5.004   6.513   0.672
 8129SOL    HW125286   5.064   6.432   0.674
 8129SOL    HW225287   5.044   6.582   0.612
 8130SOL     OW25288   4.554   6.859   1.422
 8130SOL    HW125289   4.549   6.892   1.517
 8130SOL    HW225290   4.468   6.878   1.376
 8131SOL     OW25291   5.565   5.761   0.963
 8131SOL    HW125292   5.604   5.676   0.927
 8131SOL    HW225293   5.467   5.763   0.944
 8132SOL     OW25294   3.987   5.912   0.720
 8132SOL    HW125295   3.908   5.963   0.686
 8132SOL    HW225296   3.978   5.897   0.818
 8133SOL     OW25297   4.546   6.588   1.372
 8133SOL    HW125298   4.586   6.587   1.280
 8133SOL    HW225299   4.556   6.680   1.412
 8134SOL     OW25300   4.640   6.496   0.291
 8134SOL    HW125301   4.703   6.534   0.223
 8134SOL    HW225302   4.680   6.413   0.330
 8135SOL     OW25303   4.096   6.874   1.490
 8135SOL    HW125304   4.083   6.967   1.456
 8135SOL    HW225305   4.012   6.822   1.477
 8136SOL     OW25306   5.338   6.878   1.289
 8136SOL    HW125307   5.398   6.881   1.369
 8136SOL    HW225308   5.263   6.942   1.302
 8137SOL     OW25309   4.763   6.684   0.696
 8137SOL    HW125310   4.693   6.637   0.750
 8137SOL    HW225311   4.822   6.616   0.653
 8138SOL     OW25312   4.738   5.822   0.971
 8138SOL    HW125313   4.730   5.786   0.878
 8138SOL    HW225314   4.736   5.746   1.036
 8139SOL     OW25315   5.433   5.971   1.381
 8139SOL    HW125316   5.506   6.040   1.385
 8139SOL    HW225317   5.461   5.896   1.322
 8140SOL     OW25318   3.829   6.599   1.726
 8140SOL    HW125319   3.752   6.566   1.780
 8140SOL    HW225320   3.914   6.569   1.768
 8141SOL     OW25321   4.396   5.789   1.489
 8141SOL    HW125322   4.486   5.773   1.449
 8141SOL    HW225323   4.404   5.794   1.588
 8142SOL     OW25324   3.799   5.931   0.033
 8142SOL    HW125325   3.707   5.903   0.004
 8142SOL    HW225326   3.830   6.008  -0.023
 8143SOL     OW25327   5.164   6.442   1.398
 8143SOL    HW125328   5.107   6.494   1.335
 8143SOL    HW225329   5.260   6.454   1.374
 8144SOL     OW25330   3.796   5.752   0.318
 8144SOL    HW125331   3.779   5.835   0.264
 8144SOL    HW225332   3.886   5.715   0.296
 8145SOL     OW25333   4.337   6.428   1.431
 8145SOL    HW125334   4.393   6.509   1.414
 8145SOL    HW225335   4.396   6.348   1.434
 8146SOL     OW25336   4.440   6.151   1.708
 8146SOL    HW125337   4.459   6.216   1.782
 8146SOL    HW225338   4.500   6.071   1.717
 8147SOL     OW25339   5.174   6.806   1.633
 8147SOL    HW125340   5.165   6.796   1.732
 8147SOL    HW225341   5.270   6.799   1.607
 8148SOL     OW25342   5.398   6.469   1.254
 8148SOL    HW125343   5.371   6.380   1.217
 8148SOL    HW225344   5.399   6.537   1.181
 8149SOL     OW25345   4.949   5.911   0.449
 8149SOL    HW125346   5.014   5.837   0.438
 8149SOL    HW225347   4.969   5.961   0.533
 8150SOL     OW25348   4.318   6.331   0.652
 8150SOL    HW125349   4.368   6.416   0.633
 8150SOL    HW225350   4.230   6.333   0.604
 8151SOL     OW25351   5.501   5.928   1.642
 8151SOL    HW125352   5.484   5.959   1.548
 8151SOL    HW225353   5.417   5.891   1.680
 8152SOL     OW25354   5.454   6.520   1.517
 8152SOL    HW125355   5.492   6.611   1.532
 8152SOL    HW225356   5.446   6.503   1.418
 8153SOL     OW25357   4.583   6.542   0.861
 8153SOL    HW125358   4.637   6.473   0.909
 8153SOL    HW225359   4.551   6.611   0.927
 8154SOL     OW25360   4.807   6.570   0.087
 8154SOL    HW125361   4.784   6.623   0.005
 8154SOL    HW225362   4.888   6.514   0.068
 8155SOL     OW25363   3.945   6.900   1.844
 8155SOL    HW125364   3.880   6.827   1.823
 8155SOL    HW225365   3.949   6.914   1.942
 8156SOL     OW25366   3.803   6.826   0.653
 8156SOL    HW125367   3.802   6.779   0.741
 8156SOL    HW225368   3.885   6.798   0.602
 8157SOL     OW25369   4.396   6.977   1.624
 8157SOL    HW125370   4.318   6.927   1.662
 8157SOL    HW225371   4.393   7.072   1.655
 8158SOL     OW25372   5.548   5.778   1.227
 8158SOL    HW125373   5.544   5.688   1.271
 8158SOL    HW225374   5.551   5.767   1.128
 8159SOL     OW25375   4.152   6.010   0.520
 8159SOL    HW125376   4.182   5.938   0.458
 8159SOL    HW225377   4.113   5.970   0.603
 8160SOL     OW25378   5.429   7.073   1.104
 8160SOL    HW125379   5.336   7.048   1.077
 8160SOL    HW225380   5.455   7.023   1.186
 8161SOL     OW25381   4.041   6.133   1.280
 8161SOL    HW125382   4.079   6.074   1.352
 8161SOL    HW225383   4.081   6.107   1.192
 8162SOL     OW25384   5.148   5.800   1.112
 8162SOL    HW125385   5.200   5.735   1.167
 8162SOL    HW225386   5.099   5.863   1.173
 8163SOL     OW25387   4.725   5.620   1.154
 8163SOL    HW125388   4.662   5.548   1.123
 8163SOL    HW225389   4.818   5.584   1.154
 8164SOL     OW25390   4.494   6.916   0.301
 8164SOL    HW125391   4.448   6.829   0.318
 8164SOL    HW225392   4.585   6.913   0.342
 8165SOL     OW25393   5.076   5.638   0.168
 8165SOL    HW125394   5.111   5.597   0.084
 8165SOL    HW225395   4.986   5.600   0.188
 8166SOL     OW25396   5.024   6.039   0.691
 8166SOL    HW125397   4.965   6.119   0.695
 8166SOL    HW225398   5.039   6.004   0.784
 8167SOL     OW25399   5.317   5.807   0.882
 8167SOL    HW125400   5.233   5.806   0.936
 8167SOL    HW225401   5.319   5.890   0.826
 8168SOL     OW25402   3.763   6.663   0.300
 8168SOL    HW125403   3.862   6.652   0.291
 8168SOL    HW225404   3.723   6.577   0.332
 8169SOL     OW25405   3.954   6.214   1.975
 8169SOL    HW125406   3.861   6.212   2.012
 8169SOL    HW225407   3.955   6.175   1.883
 8170SOL     OW25408   3.949   5.861   2.858
 8170SOL    HW125409   3.984   5.844   2.950
 8170SOL    HW225410   3.861   5.816   2.846
 8171SOL     OW25411   3.743   5.954   2.509
 8171SOL    HW125412   3.661   5.997   2.548
 8171SOL    HW225413   3.715   5.881   2.446
 8172SOL     OW25414   4.293   6.861   3.027
 8172SOL    HW125415   4.200   6.854   2.990
 8172SOL    HW225416   4.304   6.950   3.071
 8173SOL     OW25417   5.279   7.097   2.565
 8173SOL    HW125418   5.222   7.081   2.646
 8173SOL    HW225419   5.220   7.107   2.485
 8174SOL     OW25420   4.859   6.289   2.579
 8174SOL    HW125421   4.916   6.367   2.554
 8174SOL    HW225422   4.799   6.315   2.655
 8175SOL     OW25423   5.479   6.193   2.093
 8175SOL    HW125424   5.467   6.180   1.994
 8175SOL    HW225425   5.449   6.112   2.142
 8176SOL     OW25426   4.492   6.730   2.885
 8176SOL    HW125427   4.414   6.747   2.945
 8176SOL    HW225428   4.526   6.817   2.849
 8177SOL     OW25429   4.574   6.384   3.685
 8177SOL    HW125430   4.570   6.460   3.750
 8177SOL    HW225431   4.596   6.420   3.594
 8178SOL     OW25432   4.409   6.598   2.527
 8178SOL    HW125433   4.478   6.582   2.597
 8178SOL    HW225434   4.336   6.655   2.565
 8179SOL     OW25435   4.410   6.747   3.665
 8179SOL    HW125436   4.470   6.826   3.679
 8179SOL    HW225437   4.324   6.778   3.624
 8180SOL     OW25438   4.059   7.021   2.923
 8180SOL    HW125439   3.981   6.990   2.870
 8180SOL    HW225440   4.117   7.079   2.866
 8181SOL     OW25441   4.162   5.978   3.361
 8181SOL    HW125442   4.244   5.922   3.370
 8181SOL    HW225443   4.081   5.920   3.365
 8182SOL     OW25444   5.327   6.033   2.599
 8182SOL    HW125445   5.253   6.079   2.549
 8182SOL    HW225446   5.378   6.101   2.652
 8183SOL     OW25447   3.964   6.677   2.748
 8183SOL    HW125448   3.978   6.593   2.800
 8183SOL    HW225449   3.909   6.741   2.803
 8184SOL     OW25450   4.330   6.550   1.985
 8184SOL    HW125451   4.337   6.634   1.931
 8184SOL    HW225452   4.376   6.563   2.073
 8185SOL     OW25453   5.318   5.700   3.342
 8185SOL    HW125454   5.300   5.767   3.270
 8185SOL    HW225455   5.315   5.746   3.431
 8186SOL     OW25456   3.846   6.229   2.425
 8186SOL    HW125457   3.801   6.141   2.442
 8186SOL    HW225458   3.845   6.283   2.509
 8187SOL     OW25459   5.413   6.508   2.474
 8187SOL    HW125460   5.508   6.479   2.482
 8187SOL    HW225461   5.405   6.573   2.399
 8188SOL     OW25462   5.365   6.694   2.294
 8188SOL    HW125463   5.451   6.696   2.242
 8188SOL    HW225464   5.379   6.741   2.382
 8189SOL     OW25465   3.837   6.323   3.459
 8189SOL    HW125466   3.925   6.310   3.504
 8189SOL    HW225467   3.824   6.420   3.437
 8190SOL     OW25468   5.017   6.814   3.285
 8190SOL    HW125469   5.054   6.741   3.227
 8190SOL    HW225470   5.069   6.819   3.370
 8191SOL     OW25471   4.533   5.590   2.364
 8191SOL    HW125472   4.573   5.681   2.355
 8191SOL    HW225473   4.433   5.598   2.370
 8192SOL     OW25474   3.921   6.562   3.126
 8192SOL    HW125475   4.010   6.517   3.112
 8192SOL    HW225476   3.848   6.497   3.107
 8193SOL     OW25477   5.249   6.585   2.052
 8193SOL    HW125478   5.186   6.509   2.065
 8193SOL    HW225479   5.297   6.603   2.138
 8194SOL     OW25480   4.041   5.837   3.663
 8194SOL    HW125481   4.112   5.908   3.669
 8194SOL    HW225482   3.953   5.876   3.691
 8195SOL     OW25483   5.190   7.003   2.815
 8195SOL    HW125484   5.131   7.009   2.895
 8195SOL    HW225485   5.175   6.915   2.769
 8196SOL     OW25486   4.322   6.315   2.132
 8196SOL    HW125487   4.346   6.384   2.064
 8196SOL    HW225488   4.244   6.348   2.186
 8197SOL     OW25489   5.005   5.931   2.806
 8197SOL    HW125490   4.919   5.881   2.793
 8197SOL    HW225491   5.067   5.877   2.862
 8198SOL     OW25492   4.531   6.191   3.327
 8198SOL    HW125493   4.484   6.188   3.416
 8198SOL    HW225494   4.480   6.136   3.261
 8199SOL     OW25495   5.118   6.055   3.536
 8199SOL    HW125496   5.098   6.098   3.624
 8199SOL    HW225497   5.196   5.993   3.545
 8200SOL     OW25498   4.697   6.476   3.434
 8200SOL    HW125499   4.743   6.392   3.405
 8200SOL    HW225500   4.641   6.510   3.359
 8201SOL     OW25501   4.715   5.996   3.104
 8201SOL    HW125502   4.638   6.030   3.158
 8201SOL    HW225503   4.681   5.945   3.025
 8202SOL     OW25504   4.765   6.287   2.291
 8202SOL    HW125505   4.791   6.283   2.387
 8202SOL    HW225506   4.680   6.236   2.277
 8203SOL     OW25507   3.800   6.397   2.651
 8203SOL    HW125508   3.899   6.385   2.660
 8203SOL    HW225509   3.776   6.492   2.672
 8204SOL     OW25510   4.589   5.934   2.057
 8204SOL    HW125511   4.648   5.997   2.008
 8204SOL    HW225512   4.608   5.840   2.028
 8205SOL     OW25513   5.443   6.171   3.693
 8205SOL    HW125514   5.417   6.260   3.657
 8205SOL    HW225515   5.441   6.103   3.620
 8206SOL     OW25516   5.086   6.730   2.407
 8206SOL    HW125517   5.169   6.701   2.359
 8206SOL    HW225518   5.037   6.797   2.351
 8207SOL     OW25519   4.274   5.782   2.747
 8207SOL    HW125520   4.269   5.777   2.847
 8207SOL    HW225521   4.276   5.878   2.718
 8208SOL     OW25522   5.519   6.652   2.735
 8208SOL    HW125523   5.457   6.637   2.659
 8208SOL    HW225524   5.467   6.663   2.820
 8209SOL     OW25525   4.045   6.529   2.104
 8209SOL    HW125526   4.127   6.568   2.062
 8209SOL    HW225527   4.018   6.447   2.055
 8210SOL     OW25528   5.182   6.321   2.590
 8210SOL    HW125529   5.177   6.256   2.665
 8210SOL    HW225530   5.262   6.380   2.603
 8211SOL     OW25531   3.926   5.871   3.360
 8211SOL    HW125532   3.846   5.931   3.347
 8211SOL    HW225533   3.916   5.822   3.446
 8212SOL     OW25534   5.356   6.963   1.943
 8212SOL    HW125535   5.324   7.057   1.933
 8212SOL    HW225536   5.280   6.900   1.931
 8213SOL     OW25537   5.124   5.693   2.288
 8213SOL    HW125538   5.100   5.656   2.198
 8213SOL    HW225539   5.223   5.709   2.292
 8214SOL     OW25540   4.106   6.286   2.342
 8214SOL    HW125541   4.151   6.196   2.339
 8214SOL    HW225542   4.012   6.275   2.375
 8215SOL     OW25543   5.271   5.808   3.591
 8215SOL    HW125544   5.266   5.845   3.683
 8215SOL    HW225545   5.199   5.739   3.579
 8216SOL     OW25546   4.338   5.708   1.979
 8216SOL    HW125547   4.436   5.686   1.986
 8216SOL    HW225548   4.307   5.691   1.886
 8217SOL     OW25549   4.505   5.850   3.611
 8217SOL    HW125550   4.572   5.789   3.654
 8217SOL    HW225551   4.432   5.869   3.676
 8218SOL     OW25552   5.075   6.176   3.295
 8218SOL    HW125553   5.103   6.133   3.380
 8218SOL    HW225554   5.100   6.272   3.296
 8219SOL     OW25555   4.646   6.089   2.761
 8219SOL    HW125556   4.621   6.080   2.665
 8219SOL    HW225557   4.694   6.007   2.792
 8220SOL     OW25558   4.263   5.650   2.374
 8220SOL    HW125559   4.182   5.651   2.432
 8220SOL    HW225560   4.266   5.733   2.319
 8221SOL     OW25561   5.158   6.774   1.903
 8221SOL    HW125562   5.190   6.698   1.960
 8221SOL    HW225563   5.066   6.801   1.933
 8222SOL     OW25564   4.021   5.621   2.033
 8222SOL    HW125565   4.070   5.705   2.012
 8222SOL    HW225566   4.083   5.556   2.078
 8223SOL     OW25567   4.659   5.822   2.342
 8223SOL    HW125568   4.611   5.863   2.264
 8223SOL    HW225569   4.758   5.820   2.323
 8224SOL     OW25570   4.800   6.269   3.326
 8224SOL    HW125571   4.720   6.208   3.329
 8224SOL    HW225572   4.881   6.216   3.302
 8225SOL     OW25573   4.951   7.156   2.655
 8225SOL    HW125574   4.972   7.230   2.590
 8225SOL    HW225575   5.019   7.156   2.728
 8226SOL     OW25576   4.183   6.738   2.603
 8226SOL    HW125577   4.112   6.711   2.668
 8226SOL    HW225578   4.157   6.710   2.510
 8227SOL     OW25579   4.756   6.135   1.878
 8227SOL    HW125580   4.715   6.217   1.839
 8227SOL    HW225581   4.820   6.161   1.951
 8228SOL     OW25582   3.802   6.142   3.248
 8228SOL    HW125583   3.894   6.141   3.207
 8228SOL    HW225584   3.796   6.216   3.315
 8229SOL     OW25585   4.285   5.808   3.009
 8229SOL    HW125586   4.323   5.724   3.046
 8229SOL    HW225587   4.197   5.827   3.053
 8230SOL     OW25588   4.590   6.040   2.504
 8230SOL    HW125589   4.558   6.112   2.442
 8230SOL    HW225590   4.614   5.959   2.451
 8231SOL     OW25591   4.741   5.625   2.615
 8231SOL    HW125592   4.669   5.630   2.546
 8231SOL    HW225593   4.717   5.556   2.684
 8232SOL     OW25594   5.153   6.759   2.729
 8232SOL    HW125595   5.098   6.675   2.722
 8232SOL    HW225596   5.179   6.788   2.637
 8233SOL     OW25597   5.190   6.176   2.854
 8233SOL    HW125598   5.160   6.081   2.861
 8233SOL    HW225599   5.263   6.192   2.920
 8234SOL     OW25600   5.581   6.419   2.239
 8234SOL    HW125601   5.623   6.355   2.303
 8234SOL    HW225602   5.543   6.368   2.161
 8235SOL     OW25603   5.388   6.866   2.519
 8235SOL    HW125604   5.487   6.874   2.533
 8235SOL    HW225605   5.343   6.950   2.550
 8236SOL     OW25606   5.114   6.161   1.940
 8236SOL    HW125607   5.060   6.140   2.021
 8236SOL    HW225608   5.205   6.120   1.949
 8237SOL     OW25609   4.251   5.842   2.190
 8237SOL    HW125610   4.278   5.783   2.115
 8237SOL    HW225611   4.251   5.937   2.159
 8238SOL     OW25612   5.478   6.809   3.450
 8238SOL    HW125613   5.569   6.770   3.437
 8238SOL    HW225614   5.486   6.905   3.474
 8239SOL     OW25615   4.788   6.933   3.202
 8239SOL    HW125616   4.708   6.910   3.257
 8239SOL    HW225617   4.871   6.907   3.251
 8240SOL     OW25618   4.835   6.781   2.962
 8240SOL    HW125619   4.795   6.825   3.043
 8240SOL    HW225620   4.794   6.818   2.879
 8241SOL     OW25621   5.362   6.685   2.941
 8241SOL    HW125622   5.367   6.766   3.000
 8241SOL    HW225623   5.276   6.687   2.890
 8242SOL     OW25624   4.639   5.675   3.264
 8242SOL    HW125625   4.664   5.655   3.169
 8242SOL    HW225626   4.711   5.731   3.306
 8243SOL     OW25627   4.704   6.702   3.581
 8243SOL    HW125628   4.605   6.708   3.591
 8243SOL    HW225629   4.727   6.622   3.525
 8244SOL     OW25630   4.429   6.636   2.230
 8244SOL    HW125631   4.415   6.643   2.329
 8244SOL    HW225632   4.513   6.585   2.212
 8245SOL     OW25633   4.134   6.399   3.113
 8245SOL    HW125634   4.220   6.411   3.163
 8245SOL    HW225635   4.092   6.312   3.140
 8246SOL     OW25636   4.998   5.972   3.124
 8246SOL    HW125637   5.019   6.046   3.188
 8246SOL    HW225638   4.909   5.989   3.081
 8247SOL     OW25639   4.091   6.686   2.363
 8247SOL    HW125640   4.084   6.769   2.307
 8247SOL    HW225641   4.095   6.606   2.303
 8248SOL     OW25642   4.290   6.123   2.727
 8248SOL    HW125643   4.302   6.189   2.653
 8248SOL    HW225644   4.336   6.157   2.810
 8249SOL     OW25645   5.306   6.225   2.334
 8249SOL    HW125646   5.275   6.286   2.407
 8249SOL    HW225647   5.356   6.277   2.265
 8250SOL     OW25648   4.126   6.337   3.460
 8250SOL    HW125649   4.194   6.392   3.413
 8250SOL    HW225650   4.166   6.249   3.487
 8251SOL     OW25651   5.311   6.365   3.532
 8251SOL    HW125652   5.219   6.403   3.527
 8251SOL    HW225653   5.371   6.412   3.467
 8252SOL     OW25654   4.737   5.691   3.632
 8252SOL    HW125655   4.743   5.776   3.580
 8252SOL    HW225656   4.769   5.615   3.575
 8253SOL     OW25657   4.228   5.636   3.602
 8253SOL    HW125658   4.186   5.579   3.532
 8253SOL    HW225659   4.162   5.705   3.634
 8254SOL     OW25660   4.297   6.456   2.891
 8254SOL    HW125661   4.341   6.545   2.882
 8254SOL    HW225662   4.234   6.456   2.968
 8255SOL     OW25663   5.084   6.448   2.907
 8255SOL    HW125664   5.009   6.448   2.841
 8255SOL    HW225665   5.121   6.356   2.916
 8256SOL     OW25666   4.933   6.111   2.137
 8256SOL    HW125667   4.946   6.027   2.191
 8256SOL    HW225668   4.904   6.185   2.197
 8257SOL     OW25669   4.031   5.799   3.093
 8257SOL    HW125670   4.008   5.836   3.183
 8257SOL    HW225671   4.001   5.704   3.087
 8258SOL     OW25672   3.761   6.896   3.144
 8258SOL    HW125673   3.814   6.847   3.212
 8258SOL    HW225674   3.783   6.994   3.149
 8259SOL     OW25675   4.456   6.220   2.926
 8259SOL    HW125676   4.515   6.194   2.850
 8259SOL    HW225677   4.428   6.316   2.915
 8260SOL     OW25678   5.452   6.521   3.716
 8260SOL    HW125679   5.406   6.514   3.627
 8260SOL    HW225680   5.390   6.565   3.782
 8261SOL     OW25681   4.031   5.649   2.480
 8261SOL    HW125682   4.020   5.743   2.513
 8261SOL    HW225683   4.026   5.586   2.557
 8262SOL     OW25684   5.346   5.953   2.236
 8262SOL    HW125685   5.348   5.877   2.300
 8262SOL    HW225686   5.298   6.030   2.276
 8263SOL     OW25687   4.747   6.352   2.828
 8263SOL    HW125688   4.762   6.373   2.924
 8263SOL    HW225689   4.717   6.257   2.819
 8264SOL     OW25690   5.583   7.104   3.467
 8264SOL    HW125691   5.597   7.131   3.372
 8264SOL    HW225692   5.666   7.126   3.520
 8265SOL     OW25693   4.074   6.484   3.666
 8265SOL    HW125694   4.150   6.528   3.714
 8265SOL    HW225695   4.109   6.437   3.584
 8266SOL     OW25696   5.264   5.860   1.987
 8266SOL    HW125697   5.203   5.785   2.010
 8266SOL    HW225698   5.286   5.912   2.070
 8267SOL     OW25699   5.027   6.424   1.904
 8267SOL    HW125700   5.061   6.331   1.919
 8267SOL    HW225701   5.045   6.451   1.809
 8268SOL     OW25702   4.043   6.396   2.811
 8268SOL    HW125703   4.136   6.432   2.816
 8268SOL    HW225704   4.037   6.311   2.863
 8269SOL     OW25705   4.063   6.095   2.868
 8269SOL    HW125706   4.011   6.012   2.851
 8269SOL    HW225707   4.140   6.100   2.804
 8270SOL     OW25708   4.862   5.966   3.540
 8270SOL    HW125709   4.817   6.029   3.604
 8270SOL    HW225710   4.955   5.997   3.523
 8271SOL     OW25711   4.884   5.793   3.339
 8271SOL    HW125712   4.884   5.857   3.416
 8271SOL    HW225713   4.912   5.841   3.256
 8272SOL     OW25714   3.732   6.912   2.062
 8272SOL    HW125715   3.639   6.933   2.031
 8272SOL    HW225716   3.742   6.813   2.075
 8273SOL     OW25717   4.726   6.382   3.100
 8273SOL    HW125718   4.767   6.350   3.186
 8273SOL    HW225719   4.630   6.355   3.097
 8274SOL     OW25720   3.764   6.130   2.976
 8274SOL    HW125721   3.849   6.097   2.935
 8274SOL    HW225722   3.777   6.145   3.074
 8275SOL     OW25723   3.913   6.106   3.584
 8275SOL    HW125724   3.972   6.066   3.514
 8275SOL    HW225725   3.855   6.177   3.543
 8276SOL     OW25726   5.093   6.536   3.522
 8276SOL    HW125727   5.132   6.625   3.542
 8276SOL    HW225728   5.103   6.516   3.425
 8277SOL     OW25729   4.539   6.158   2.187
 8277SOL    HW125730   4.546   6.069   2.141
 8277SOL    HW225731   4.445   6.192   2.179
 8278SOL     OW25732   5.381   6.190   3.068
 8278SOL    HW125733   5.343   6.121   3.130
 8278SOL    HW225734   5.463   6.154   3.024
 8279SOL     OW25735   4.395   6.050   3.131
 8279SOL    HW125736   4.361   5.961   3.101
 8279SOL    HW225737   4.421   6.104   3.051
 8280SOL     OW25738   4.197   6.086   2.053
 8280SOL    HW125739   4.258   6.166   2.057
 8280SOL    HW225740   4.102   6.117   2.060
 8281SOL     OW25741   3.883   6.723   3.328
 8281SOL    HW125742   3.905   6.662   3.404
 8281SOL    HW225743   3.893   6.674   3.242
 8282SOL     OW25744   5.071   6.645   3.096
 8282SOL    HW125745   5.095   6.582   3.022
 8282SOL    HW225746   4.981   6.685   3.078
 8283SOL     OW25747   5.026   6.441   2.171
 8283SOL    HW125748   4.940   6.410   2.213
 8283SOL    HW225749   5.022   6.427   2.072
 8284SOL     OW25750   3.807   6.844   2.884
 8284SOL    HW125751   3.802   6.843   2.984
 8284SOL    HW225752   3.724   6.803   2.846
 8285SOL     OW25753   5.450   5.721   2.385
 8285SOL    HW125754   5.523   5.704   2.318
 8285SOL    HW225755   5.419   5.634   2.423
 8286SOL     OW25756   5.004   6.513   2.534
 8286SOL    HW125757   5.064   6.432   2.536
 8286SOL    HW225758   5.044   6.582   2.474
 8287SOL     OW25759   4.554   6.859   3.284
 8287SOL    HW125760   4.549   6.892   3.379
 8287SOL    HW225761   4.468   6.878   3.238
 8288SOL     OW25762   5.565   5.761   2.825
 8288SOL    HW125763   5.604   5.676   2.789
 8288SOL    HW225764   5.467   5.763   2.806
 8289SOL     OW25765   3.987   5.912   2.582
 8289SOL    HW125766   3.908   5.963   2.548
 8289SOL    HW225767   3.978   5.897   2.680
 8290SOL     OW25768   4.918   7.198   1.893
 8290SOL    HW125769   4.924   7.105   1.930
 8290SOL    HW225770   4.859   7.198   1.813
 8291SOL     OW25771   4.546   6.588   3.234
 8291SOL    HW125772   4.586   6.587   3.142
 8291SOL    HW225773   4.556   6.680   3.274
 8292SOL     OW25774   4.640   6.496   2.153
 8292SOL    HW125775   4.703   6.534   2.085
 8292SOL    HW225776   4.680   6.413   2.192
 8293SOL     OW25777   4.096   6.874   3.352
 8293SOL    HW125778   4.083   6.967   3.318
 8293SOL    HW225779   4.012   6.822   3.339
 8294SOL     OW25780   5.338   6.878   3.151
 8294SOL    HW125781   5.398   6.881   3.231
 8294SOL    HW225782   5.263   6.942   3.164
 8295SOL     OW25783   4.763   6.684   2.558
 8295SOL    HW125784   4.693   6.637   2.612
 8295SOL    HW225785   4.822   6.616   2.515
 8296SOL     OW25786   4.738   5.822   2.833
 8296SOL    HW125787   4.730   5.786   2.740
 8296SOL    HW225788   4.736   5.746   2.898
 8297SOL     OW25789   5.433   5.971   3.243
 8297SOL    HW125790   5.506   6.040   3.247
 8297SOL    HW225791   5.461   5.896   3.184
 8298SOL     OW25792   3.829   6.599   3.588
 8298SOL    HW125793   3.752   6.566   3.642
 8298SOL    HW225794   3.914   6.569   3.630
 8299SOL     OW25795   4.396   5.789   3.351
 8299SOL    HW125796   4.486   5.773   3.311
 8299SOL    HW225797   4.404   5.794   3.450
 8300SOL     OW25798   3.799   5.931   1.895
 8300SOL    HW125799   3.707   5.903   1.866
 8300SOL    HW225800   3.830   6.008   1.839
 8301SOL     OW25801   5.164   6.442   3.260
 8301SOL    HW125802   5.107   6.494   3.197
 8301SOL    HW225803   5.260   6.454   3.236
 8302SOL     OW25804   3.796   5.752   2.180
 8302SOL    HW125805   3.779   5.835   2.126
 8302SOL    HW225806   3.886   5.715   2.158
 8303SOL     OW25807   4.337   6.428   3.293
 8303SOL    HW125808   4.393   6.509   3.276
 8303SOL    HW225809   4.396   6.348   3.296
 8304SOL     OW25810   4.440   6.151   3.570
 8304SOL    HW125811   4.459   6.216   3.644
 8304SOL    HW225812   4.500   6.071   3.579
 8305SOL     OW25813   5.174   6.806   3.495
 8305SOL    HW125814   5.165   6.796   3.594
 8305SOL    HW225815   5.270   6.799   3.469
 8306SOL     OW25816   5.398   6.469   3.116
 8306SOL    HW125817   5.371   6.380   3.079
 8306SOL    HW225818   5.399   6.537   3.043
 8307SOL     OW25819   4.949   5.911   2.311
 8307SOL    HW125820   5.014   5.837   2.300
 8307SOL    HW225821   4.969   5.961   2.395
 8308SOL     OW25822   4.318   6.331   2.514
 8308SOL    HW125823   4.368   6.416   2.495
 8308SOL    HW225824   4.230   6.333   2.466
 8309SOL     OW25825   5.501   5.928   3.504
 8309SOL    HW125826   5.484   5.959   3.410
 8309SOL    HW225827   5.417   5.891   3.542
 8310SOL     OW25828   5.454   6.520   3.379
 8310SOL    HW125829   5.492   6.611   3.394
 8310SOL    HW225830   5.446   6.503   3.280
 8311SOL     OW25831   4.583   6.542   2.723
 8311SOL    HW125832   4.637   6.473   2.771
 8311SOL    HW225833   4.551   6.611   2.789
 8312SOL     OW25834   4.807   6.570   1.949
 8312SOL    HW125835   4.784   6.623   1.867
 8312SOL    HW225836   4.888   6.514   1.930
 8313SOL     OW25837   3.945   6.900   3.706
 8313SOL    HW125838   3.880   6.827   3.685
 8313SOL    HW225839   3.949   6.914   3.804
 8314SOL     OW25840   3.803   6.826   2.515
 8314SOL    HW125841   3.802   6.779   2.603
 8314SOL    HW225842   3.885   6.798   2.464
 8315SOL     OW25843   4.396   6.977   3.486
 8315SOL    HW125844   4.318   6.927   3.524
 8315SOL    HW225845   4.393   7.072   3.517
 8316SOL     OW25846   5.548   5.778   3.089
 8316SOL    HW125847   5.544   5.688   3.133
 8316SOL    HW225848   5.551   5.767   2.990
 8317SOL     OW25849   4.152   6.010   2.382
 8317SOL    HW125850   4.182   5.938   2.320
 8317SOL    HW225851   4.113   5.970   2.465
 8318SOL     OW25852   5.429   7.073   2.966
 8318SOL    HW125853   5.336   7.048   2.939
 8318SOL    HW225854   5.455   7.023   3.048
 8319SOL     OW25855   4.041   6.133   3.142
 8319SOL    HW125856   4.079   6.074   3.214
 8319SOL    HW225857   4.081   6.107   3.054
 8320SOL     OW25858   5.148   5.800   2.974
 8320SOL    HW125859   5.200   5.735   3.029
 8320SOL    HW225860   5.099   5.863   3.035
 8321SOL     OW25861   4.725   5.620   3.016
 8321SOL    HW125862   4.662   5.548   2.985
 8321SOL    HW225863   4.818   5.584   3.016
 8322SOL     OW25864   4.494   6.916   2.163
 8322SOL    HW125865   4.448   6.829   2.180
 8322SOL    HW225866   4.585   6.913   2.204
 8323SOL     OW25867   5.076   5.638   2.030
 8323SOL    HW125868   5.111   5.597   1.946
 8323SOL    HW225869   4.986   5.600   2.050
 8324SOL     OW25870   5.024   6.039   2.553
 8324SOL    HW125871   4.965   6.119   2.557
 8324SOL    HW225872   5.039   6.004   2.646
 8325SOL     OW25873   5.317   5.807   2.744
 8325SOL    HW125874   5.233   5.806   2.798
 8325SOL    HW225875   5.319   5.890   2.688
 8326SOL     OW25876   3.763   6.663   2.162
 8326SOL    HW125877   3.862   6.652   2.153
 8326SOL    HW225878   3.723   6.577   2.194
 8327SOL     OW25879   3.954   6.214   3.837
 8327SOL    HW125880   3.861   6.212   3.874
 8327SOL    HW225881   3.955   6.175   3.745
 8328SOL     OW25882   3.949   5.861   4.720
 8328SOL    HW125883   3.984   5.844   4.812
 8328SOL    HW225884   3.861   5.816   4.708
 8329SOL     OW25885   3.743   5.954   4.371
 8329SOL    HW125886   3.661   5.997   4.410
 8329SOL    HW225887   3.715   5.881   4.308
 8330SOL     OW25888   4.293   6.861   4.889
 8330SOL    HW125889   4.200   6.854   4.852
 8330SOL    HW225890   4.304   6.950   4.933
 8331SOL     OW25891   5.279   7.097   4.427
 8331SOL    HW125892   5.222   7.081   4.508
 8331SOL    HW225893   5.220   7.107   4.347
 8332SOL     OW25894   4.859   6.289   4.441
 8332SOL    HW125895   4.916   6.367   4.416
 8332SOL    HW225896   4.799   6.315   4.517
 8333SOL     OW25897   5.479   6.193   3.955
 8333SOL    HW125898   5.467   6.180   3.856
 8333SOL    HW225899   5.449   6.112   4.004
 8334SOL     OW25900   4.492   6.730   4.747
 8334SOL    HW125901   4.414   6.747   4.807
 8334SOL    HW225902   4.526   6.817   4.711
 8335SOL     OW25903   4.574   6.384   5.547
 8335SOL    HW125904   4.570   6.460   5.612
 8335SOL    HW225905   4.596   6.420   5.456
 8336SOL     OW25906   4.409   6.598   4.389
 8336SOL    HW125907   4.478   6.582   4.459
 8336SOL    HW225908   4.336   6.655   4.427
 8337SOL     OW25909   4.410   6.747   5.527
 8337SOL    HW125910   4.470   6.826   5.541
 8337SOL    HW225911   4.324   6.778   5.486
 8338SOL     OW25912   4.059   7.021   4.785
 8338SOL    HW125913   3.981   6.990   4.732
 8338SOL    HW225914   4.117   7.079   4.728
 8339SOL     OW25915   4.162   5.978   5.223
 8339SOL    HW125916   4.244   5.922   5.232
 8339SOL    HW225917   4.081   5.920   5.227
 8340SOL     OW25918   5.327   6.033   4.461
 8340SOL    HW125919   5.253   6.079   4.411
 8340SOL    HW225920   5.378   6.101   4.514
 8341SOL     OW25921   3.964   6.677   4.610
 8341SOL    HW125922   3.978   6.593   4.662
 8341SOL    HW225923   3.909   6.741   4.665
 8342SOL     OW25924   4.330   6.550   3.847
 8342SOL    HW125925   4.337   6.634   3.793
 8342SOL    HW225926   4.376   6.563   3.935
 8343SOL     OW25927   5.318   5.700   5.204
 8343SOL    HW125928   5.300   5.767   5.132
 8343SOL    HW225929   5.315   5.746   5.293
 8344SOL     OW25930   3.846   6.229   4.287
 8344SOL    HW125931   3.801   6.141   4.304
 8344SOL    HW225932   3.845   6.283   4.371
 8345SOL     OW25933   5.413   6.508   4.336
 8345SOL    HW125934   5.508   6.479   4.344
 8345SOL    HW225935   5.405   6.573   4.261
 8346SOL     OW25936   5.365   6.694   4.156
 8346SOL    HW125937   5.451   6.696   4.104
 8346SOL    HW225938   5.379   6.741   4.244
 8347SOL     OW25939   3.837   6.323   5.321
 8347SOL    HW125940   3.925   6.310   5.366
 8347SOL    HW225941   3.824   6.420   5.299
 8348SOL     OW25942   5.017   6.814   5.147
 8348SOL    HW125943   5.054   6.741   5.089
 8348SOL    HW225944   5.069   6.819   5.232
 8349SOL     OW25945   4.533   5.590   4.226
 8349SOL    HW125946   4.573   5.681   4.217
 8349SOL    HW225947   4.433   5.598   4.232
 8350SOL     OW25948   3.921   6.562   4.988
 8350SOL    HW125949   4.010   6.517   4.974
 8350SOL    HW225950   3.848   6.497   4.969
 8351SOL     OW25951   5.249   6.585   3.914
 8351SOL    HW125952   5.186   6.509   3.927
 8351SOL    HW225953   5.297   6.603   4.000
 8352SOL     OW25954   4.041   5.837   5.525
 8352SOL    HW125955   4.112   5.908   5.531
 8352SOL    HW225956   3.953   5.876   5.553
 8353SOL     OW25957   5.190   7.003   4.677
 8353SOL    HW125958   5.131   7.009   4.757
 8353SOL    HW225959   5.175   6.915   4.631
 8354SOL     OW25960   4.322   6.315   3.994
 8354SOL    HW125961   4.346   6.384   3.926
 8354SOL    HW225962   4.244   6.348   4.048
 8355SOL     OW25963   5.005   5.931   4.668
 8355SOL    HW125964   4.919   5.881   4.655
 8355SOL    HW225965   5.067   5.877   4.724
 8356SOL     OW25966   4.531   6.191   5.189
 8356SOL    HW125967   4.484   6.188   5.278
 8356SOL    HW225968   4.480   6.136   5.123
 8357SOL     OW25969   5.118   6.055   5.398
 8357SOL    HW125970   5.098   6.098   5.486
 8357SOL    HW225971   5.196   5.993   5.407
 8358SOL     OW25972   4.697   6.476   5.296
 8358SOL    HW125973   4.743   6.392   5.267
 8358SOL    HW225974   4.641   6.510   5.221
 8359SOL     OW25975   4.715   5.996   4.966
 8359SOL    HW125976   4.638   6.030   5.020
 8359SOL    HW225977   4.681   5.945   4.887
 8360SOL     OW25978   4.765   6.287   4.153
 8360SOL    HW125979   4.791   6.283   4.249
 8360SOL    HW225980   4.680   6.236   4.139
 8361SOL     OW25981   3.800   6.397   4.513
 8361SOL    HW125982   3.899   6.385   4.522
 8361SOL    HW225983   3.776   6.492   4.534
 8362SOL     OW25984   4.589   5.934   3.919
 8362SOL    HW125985   4.648   5.997   3.870
 8362SOL    HW225986   4.608   5.840   3.890
 8363SOL     OW25987   5.443   6.171   5.555
 8363SOL    HW125988   5.417   6.260   5.519
 8363SOL    HW225989   5.441   6.103   5.482
 8364SOL     OW25990   5.086   6.730   4.269
 8364SOL    HW125991   5.169   6.701   4.221
 8364SOL    HW225992   5.037   6.797   4.213
 8365SOL     OW25993   4.274   5.782   4.609
 8365SOL    HW125994   4.269   5.777   4.709
 8365SOL    HW225995   4.276   5.878   4.580
 8366SOL     OW25996   5.519   6.652   4.597
 8366SOL    HW125997   5.457   6.637   4.521
 8366SOL    HW225998   5.467   6.663   4.682
 8367SOL     OW25999   4.045   6.529   3.966
 8367SOL    HW126000   4.127   6.568   3.924
 8367SOL    HW226001   4.018   6.447   3.917
 8368SOL     OW26002   5.182   6.321   4.452
 8368SOL    HW126003   5.177   6.256   4.527
 8368SOL    HW226004   5.262   6.380   4.465
 8369SOL     OW26005   3.926   5.871   5.222
 8369SOL    HW126006   3.846   5.931   5.209
 8369SOL    HW226007   3.916   5.822   5.308
 8370SOL     OW26008   5.356   6.963   3.805
 8370SOL    HW126009   5.324   7.057   3.795
 8370SOL    HW226010   5.280   6.900   3.793
 8371SOL     OW26011   5.124   5.693   4.150
 8371SOL    HW126012   5.100   5.656   4.060
 8371SOL    HW226013   5.223   5.709   4.154
 8372SOL     OW26014   4.106   6.286   4.204
 8372SOL    HW126015   4.151   6.196   4.201
 8372SOL    HW226016   4.012   6.275   4.237
 8373SOL     OW26017   5.271   5.808   5.453
 8373SOL    HW126018   5.266   5.845   5.545
 8373SOL    HW226019   5.199   5.739   5.441
 8374SOL     OW26020   4.338   5.708   3.841
 8374SOL    HW126021   4.436   5.686   3.848
 8374SOL    HW226022   4.307   5.691   3.748
 8375SOL     OW26023   4.505   5.850   5.473
 8375SOL    HW126024   4.572   5.789   5.516
 8375SOL    HW226025   4.432   5.869   5.538
 8376SOL     OW26026   5.075   6.176   5.157
 8376SOL    HW126027   5.103   6.133   5.242
 8376SOL    HW226028   5.100   6.272   5.158
 8377SOL     OW26029   4.646   6.089   4.623
 8377SOL    HW126030   4.621   6.080   4.527
 8377SOL    HW226031   4.694   6.007   4.654
 8378SOL     OW26032   4.263   5.650   4.236
 8378SOL    HW126033   4.182   5.651   4.294
 8378SOL    HW226034   4.266   5.733   4.181
 8379SOL     OW26035   5.158   6.774   3.765
 8379SOL    HW126036   5.190   6.698   3.822
 8379SOL    HW226037   5.066   6.801   3.795
 8380SOL     OW26038   4.021   5.621   3.895
 8380SOL    HW126039   4.070   5.705   3.874
 8380SOL    HW226040   4.083   5.556   3.940
 8381SOL     OW26041   4.659   5.822   4.204
 8381SOL    HW126042   4.611   5.863   4.126
 8381SOL    HW226043   4.758   5.820   4.185
 8382SOL     OW26044   4.800   6.269   5.188
 8382SOL    HW126045   4.720   6.208   5.191
 8382SOL    HW226046   4.881   6.216   5.164
 8383SOL     OW26047   4.951   7.156   4.517
 8383SOL    HW126048   4.972   7.230   4.452
 8383SOL    HW226049   5.019   7.156   4.590
 8384SOL     OW26050   4.183   6.738   4.465
 8384SOL    HW126051   4.112   6.711   4.530
 8384SOL    HW226052   4.157   6.710   4.372
 8385SOL     OW26053   4.756   6.135   3.740
 8385SOL    HW126054   4.715   6.217   3.701
 8385SOL    HW226055   4.820   6.161   3.813
 8386SOL     OW26056   3.802   6.142   5.110
 8386SOL    HW126057   3.894   6.141   5.069
 8386SOL    HW226058   3.796   6.216   5.177
 8387SOL     OW26059   4.285   5.808   4.871
 8387SOL    HW126060   4.323   5.724   4.908
 8387SOL    HW226061   4.197   5.827   4.915
 8388SOL     OW26062   4.590   6.040   4.366
 8388SOL    HW126063   4.558   6.112   4.304
 8388SOL    HW226064   4.614   5.959   4.313
 8389SOL     OW26065   4.741   5.625   4.477
 8389SOL    HW126066   4.669   5.630   4.408
 8389SOL    HW226067   4.717   5.556   4.546
 8390SOL     OW26068   5.153   6.759   4.591
 8390SOL    HW126069   5.098   6.675   4.584
 8390SOL    HW226070   5.179   6.788   4.499
 8391SOL     OW26071   5.190   6.176   4.716
 8391SOL    HW126072   5.160   6.081   4.723
 8391SOL    HW226073   5.263   6.192   4.782
 8392SOL     OW26074   5.581   6.419   4.101
 8392SOL    HW126075   5.623   6.355   4.165
 8392SOL    HW226076   5.543   6.368   4.023
 8393SOL     OW26077   5.388   6.866   4.381
 8393SOL    HW126078   5.487   6.874   4.395
 8393SOL    HW226079   5.343   6.950   4.412
 8394SOL     OW26080   5.114   6.161   3.802
 8394SOL    HW126081   5.060   6.140   3.883
 8394SOL    HW226082   5.205   6.120   3.811
 8395SOL     OW26083   4.251   5.842   4.052
 8395SOL    HW126084   4.278   5.783   3.977
 8395SOL    HW226085   4.251   5.937   4.021
 8396SOL     OW26086   5.478   6.809   5.312
 8396SOL    HW126087   5.569   6.770   5.299
 8396SOL    HW226088   5.486   6.905   5.336
 8397SOL     OW26089   4.788   6.933   5.064
 8397SOL    HW126090   4.708   6.910   5.119
 8397SOL    HW226091   4.871   6.907   5.113
 8398SOL     OW26092   4.835   6.781   4.824
 8398SOL    HW126093   4.795   6.825   4.905
 8398SOL    HW226094   4.794   6.818   4.741
 8399SOL     OW26095   5.362   6.685   4.803
 8399SOL    HW126096   5.367   6.766   4.862
 8399SOL    HW226097   5.276   6.687   4.752
 8400SOL     OW26098   4.639   5.675   5.126
 8400SOL    HW126099   4.664   5.655   5.031
 8400SOL    HW226100   4.711   5.731   5.168
 8401SOL     OW26101   4.704   6.702   5.443
 8401SOL    HW126102   4.605   6.708   5.453
 8401SOL    HW226103   4.727   6.622   5.387
 8402SOL     OW26104   4.429   6.636   4.092
 8402SOL    HW126105   4.415   6.643   4.191
 8402SOL    HW226106   4.513   6.585   4.074
 8403SOL     OW26107   4.134   6.399   4.975
 8403SOL    HW126108   4.220   6.411   5.025
 8403SOL    HW226109   4.092   6.312   5.002
 8404SOL     OW26110   4.998   5.972   4.986
 8404SOL    HW126111   5.019   6.046   5.050
 8404SOL    HW226112   4.909   5.989   4.943
 8405SOL     OW26113   4.091   6.686   4.225
 8405SOL    HW126114   4.084   6.769   4.169
 8405SOL    HW226115   4.095   6.606   4.165
 8406SOL     OW26116   4.290   6.123   4.589
 8406SOL    HW126117   4.302   6.189   4.515
 8406SOL    HW226118   4.336   6.157   4.672
 8407SOL     OW26119   5.306   6.225   4.196
 8407SOL    HW126120   5.275   6.286   4.269
 8407SOL    HW226121   5.356   6.277   4.127
 8408SOL     OW26122   4.126   6.337   5.322
 8408SOL    HW126123   4.194   6.392   5.275
 8408SOL    HW226124   4.166   6.249   5.349
 8409SOL     OW26125   5.311   6.365   5.394
 8409SOL    HW126126   5.219   6.403   5.389
 8409SOL    HW226127   5.371   6.412   5.329
 8410SOL     OW26128   4.737   5.691   5.494
 8410SOL    HW126129   4.743   5.776   5.442
 8410SOL    HW226130   4.769   5.615   5.437
 8411SOL     OW26131   4.228   5.636   5.464
 8411SOL    HW126132   4.186   5.579   5.394
 8411SOL    HW226133   4.162   5.705   5.496
 8412SOL     OW26134   4.297   6.456   4.753
 8412SOL    HW126135   4.341   6.545   4.744
 8412SOL    HW226136   4.234   6.456   4.830
 8413SOL     OW26137   5.084   6.448   4.769
 8413SOL    HW126138   5.009   6.448   4.703
 8413SOL    HW226139   5.121   6.356   4.778
 8414SOL     OW26140   4.933   6.111   3.999
 8414SOL    HW126141   4.946   6.027   4.053
 8414SOL    HW226142   4.904   6.185   4.059
 8415SOL     OW26143   4.031   5.799   4.955
 8415SOL    HW126144   4.008   5.836   5.045
 8415SOL    HW226145   4.001   5.704   4.949
 8416SOL     OW26146   3.761   6.896   5.006
 8416SOL    HW126147   3.814   6.847   5.074
 8416SOL    HW226148   3.783   6.994   5.011
 8417SOL     OW26149   4.456   6.220   4.788
 8417SOL    HW126150   4.515   6.194   4.712
 8417SOL    HW226151   4.428   6.316   4.777
 8418SOL     OW26152   5.452   6.521   5.578
 8418SOL    HW126153   5.406   6.514   5.489
 8418SOL    HW226154   5.390   6.565   5.644
 8419SOL     OW26155   4.031   5.649   4.342
 8419SOL    HW126156   4.020   5.743   4.375
 8419SOL    HW226157   4.026   5.586   4.419
 8420SOL     OW26158   5.346   5.953   4.098
 8420SOL    HW126159   5.348   5.877   4.162
 8420SOL    HW226160   5.298   6.030   4.138
 8421SOL     OW26161   4.747   6.352   4.690
 8421SOL    HW126162   4.762   6.373   4.786
 8421SOL    HW226163   4.717   6.257   4.681
 8422SOL     OW26164   5.583   7.104   5.329
 8422SOL    HW126165   5.597   7.131   5.234
 8422SOL    HW226166   5.666   7.126   5.382
 8423SOL     OW26167   4.074   6.484   5.528
 8423SOL    HW126168   4.150   6.528   5.576
 8423SOL    HW226169   4.109   6.437   5.446
 8424SOL     OW26170   5.264   5.860   3.849
 8424SOL    HW126171   5.203   5.785   3.872
 8424SOL    HW226172   5.286   5.912   3.932
 8425SOL     OW26173   5.027   6.424   3.766
 8425SOL    HW126174   5.061   6.331   3.781
 8425SOL    HW226175   5.045   6.451   3.671
 8426SOL     OW26176   4.043   6.396   4.673
 8426SOL    HW126177   4.136   6.432   4.678
 8426SOL    HW226178   4.037   6.311   4.725
 8427SOL     OW26179   4.063   6.095   4.730
 8427SOL    HW126180   4.011   6.012   4.713
 8427SOL    HW226181   4.140   6.100   4.666
 8428SOL     OW26182   4.862   5.966   5.402
 8428SOL    HW126183   4.817   6.029   5.466
 8428SOL    HW226184   4.955   5.997   5.385
 8429SOL     OW26185   4.884   5.793   5.201
 8429SOL    HW126186   4.884   5.857   5.278
 8429SOL    HW226187   4.912   5.841   5.118
 8430SOL     OW26188   3.732   6.912   3.924
 8430SOL    HW126189   3.639   6.933   3.893
 8430SOL    HW226190   3.742   6.813   3.937
 8431SOL     OW26191   4.726   6.382   4.962
 8431SOL    HW126192   4.767   6.350   5.048
 8431SOL    HW226193   4.630   6.355   4.959
 8432SOL     OW26194   3.764   6.130   4.838
 8432SOL    HW126195   3.849   6.097   4.797
 8432SOL    HW226196   3.777   6.145   4.936
 8433SOL     OW26197   3.913   6.106   5.446
 8433SOL    HW126198   3.972   6.066   5.376
 8433SOL    HW226199   3.855   6.177   5.405
 8434SOL     OW26200   5.093   6.536   5.384
 8434SOL    HW126201   5.132   6.625   5.404
 8434SOL    HW226202   5.103   6.516   5.287
 8435SOL     OW26203   4.539   6.158   4.049
 8435SOL    HW126204   4.546   6.069   4.003
 8435SOL    HW226205   4.445   6.192   4.041
 8436SOL     OW26206   5.381   6.190   4.930
 8436SOL    HW126207   5.343   6.121   4.992
 8436SOL    HW226208   5.463   6.154   4.886
 8437SOL     OW26209   4.395   6.050   4.993
 8437SOL    HW126210   4.361   5.961   4.963
 8437SOL    HW226211   4.421   6.104   4.913
 8438SOL     OW26212   4.197   6.086   3.915
 8438SOL    HW126213   4.258   6.166   3.919
 8438SOL    HW226214   4.102   6.117   3.922
 8439SOL     OW26215   3.883   6.723   5.190
 8439SOL    HW126216   3.905   6.662   5.266
 8439SOL    HW226217   3.893   6.674   5.104
 8440SOL     OW26218   5.071   6.645   4.958
 8440SOL    HW126219   5.095   6.582   4.884
 8440SOL    HW226220   4.981   6.685   4.940
 8441SOL     OW26221   5.026   6.441   4.033
 8441SOL    HW126222   4.940   6.410   4.075
 8441SOL    HW226223   5.022   6.427   3.934
 8442SOL     OW26224   3.807   6.844   4.746
 8442SOL    HW126225   3.802   6.843   4.846
 8442SOL    HW226226   3.724   6.803   4.708
 8443SOL     OW26227   5.450   5.721   4.247
 8443SOL    HW126228   5.523   5.704   4.180
 8443SOL    HW226229   5.419   5.634   4.285
 8444SOL     OW26230   5.004   6.513   4.396
 8444SOL    HW126231   5.064   6.432   4.398
 8444SOL    HW226232   5.044   6.582   4.336
 8445SOL     OW26233   4.554   6.859   5.146
 8445SOL    HW126234   4.549   6.892   5.241
 8445SOL    HW226235   4.468   6.878   5.100
 8446SOL     OW26236   5.565   5.761   4.687
 8446SOL    HW126237   5.604   5.676   4.651
 8446SOL    HW226238   5.467   5.763   4.668
 8447SOL     OW26239   3.987   5.912   4.444
 8447SOL    HW126240   3.908   5.963   4.410
 8447SOL    HW226241   3.978   5.897   4.542
 8448SOL     OW26242   4.918   7.198   3.755
 8448SOL    HW126243   4.924   7.105   3.792
 8448SOL    HW226244   4.859   7.198   3.675
 8449SOL     OW26245   4.546   6.588   5.096
 8449SOL    HW126246   4.586   6.587   5.004
 8449SOL    HW226247   4.556   6.680   5.136
 8450SOL     OW26248   4.640   6.496   4.015
 8450SOL    HW126249   4.703   6.534   3.947
 8450SOL    HW226250   4.680   6.413   4.054
 8451SOL     OW26251   4.096   6.874   5.214
 8451SOL    HW126252   4.083   6.967   5.180
 8451SOL    HW226253   4.012   6.822   5.201
 8452SOL     OW26254   5.338   6.878   5.013
 8452SOL    HW126255   5.398   6.881   5.093
 8452SOL    HW226256   5.263   6.942   5.026
 8453SOL     OW26257   4.763   6.684   4.420
 8453SOL    HW126258   4.693   6.637   4.474
 8453SOL    HW226259   4.822   6.616   4.377
 8454SOL     OW26260   4.738   5.822   4.695
 8454SOL    HW126261   4.730   5.786   4.602
 8454SOL    HW226262   4.736   5.746   4.760
 8455SOL     OW26263   5.433   5.971   5.105
 8455SOL    HW126264   5.506   6.040   5.109
 8455SOL    HW226265   5.461   5.896   5.046
 8456SOL     OW26266   3.829   6.599   5.450
 8456SOL    HW126267   3.752   6.566   5.504
 8456SOL    HW226268   3.914   6.569   5.492
 8457SOL     OW26269   4.396   5.789   5.213
 8457SOL    HW126270   4.486   5.773   5.173
 8457SOL    HW226271   4.404   5.794   5.312
 8458SOL     OW26272   3.799   5.931   3.757
 8458SOL    HW126273   3.707   5.903   3.728
 8458SOL    HW226274   3.830   6.008   3.701
 8459SOL     OW26275   5.164   6.442   5.122
 8459SOL    HW126276   5.107   6.494   5.059
 8459SOL    HW226277   5.260   6.454   5.098
 8460SOL     OW26278   3.796   5.752   4.042
 8460SOL    HW126279   3.779   5.835   3.988
 8460SOL    HW226280   3.886   5.715   4.020
 8461SOL     OW26281   4.337   6.428   5.155
 8461SOL    HW126282   4.393   6.509   5.138
 8461SOL    HW226283   4.396   6.348   5.158
 8462SOL     OW26284   4.440   6.151   5.432
 8462SOL    HW126285   4.459   6.216   5.506
 8462SOL    HW226286   4.500   6.071   5.441
 8463SOL     OW26287   5.174   6.806   5.357
 8463SOL    HW126288   5.165   6.796   5.456
 8463SOL    HW226289   5.270   6.799   5.331
 8464SOL     OW26290   5.398   6.469   4.978
 8464SOL    HW126291   5.371   6.380   4.941
 8464SOL    HW226292   5.399   6.537   4.905
 8465SOL     OW26293   4.949   5.911   4.173
 8465SOL    HW126294   5.014   5.837   4.162
 8465SOL    HW226295   4.969   5.961   4.257
 8466SOL     OW26296   4.318   6.331   4.376
 8466SOL    HW126297   4.368   6.416   4.357
 8466SOL    HW226298   4.230   6.333   4.328
 8467SOL     OW26299   5.501   5.928   5.366
 8467SOL    HW126300   5.484   5.959   5.272
 8467SOL    HW226301   5.417   5.891   5.404
 8468SOL     OW26302   5.454   6.520   5.241
 8468SOL    HW126303   5.492   6.611   5.256
 8468SOL    HW226304   5.446   6.503   5.142
 8469SOL     OW26305   4.583   6.542   4.585
 8469SOL    HW126306   4.637   6.473   4.633
 8469SOL    HW226307   4.551   6.611   4.651
 8470SOL     OW26308   4.807   6.570   3.811
 8470SOL    HW126309   4.784   6.623   3.729
 8470SOL    HW226310   4.888   6.514   3.792
 8471SOL     OW26311   3.945   6.900   5.568
 8471SOL    HW126312   3.880   6.827   5.547
 8471SOL    HW226313   3.949   6.914   5.666
 8472SOL     OW26314   3.803   6.826   4.377
 8472SOL    HW126315   3.802   6.779   4.465
 8472SOL    HW226316   3.885   6.798   4.326
 8473SOL     OW26317   4.396   6.977   5.348
 8473SOL    HW126318   4.318   6.927   5.386
 8473SOL    HW226319   4.393   7.072   5.379
 8474SOL     OW26320   5.548   5.778   4.951
 8474SOL    HW126321   5.544   5.688   4.995
 8474SOL    HW226322   5.551   5.767   4.852
 8475SOL     OW26323   4.152   6.010   4.244
 8475SOL    HW126324   4.182   5.938   4.182
 8475SOL    HW226325   4.113   5.970   4.327
 8476SOL     OW26326   5.429   7.073   4.828
 8476SOL    HW126327   5.336   7.048   4.801
 8476SOL    HW226328   5.455   7.023   4.910
 8477SOL     OW26329   4.041   6.133   5.004
 8477SOL    HW126330   4.079   6.074   5.076
 8477SOL    HW226331   4.081   6.107   4.916
 8478SOL     OW26332   5.148   5.800   4.836
 8478SOL    HW126333   5.200   5.735   4.891
 8478SOL    HW226334   5.099   5.863   4.897
 8479SOL     OW26335   4.725   5.620   4.878
 8479SOL    HW126336   4.662   5.548   4.847
 8479SOL    HW226337   4.818   5.584   4.878
 8480SOL     OW26338   4.494   6.916   4.025
 8480SOL    HW126339   4.448   6.829   4.042
 8480SOL    HW226340   4.585   6.913   4.066
 8481SOL     OW26341   5.076   5.638   3.892
 8481SOL    HW126342   5.111   5.597   3.808
 8481SOL    HW226343   4.986   5.600   3.912
 8482SOL     OW26344   5.024   6.039   4.415
 8482SOL    HW126345   4.965   6.119   4.419
 8482SOL    HW226346   5.039   6.004   4.508
 8483SOL     OW26347   5.317   5.807   4.606
 8483SOL    HW126348   5.233   5.806   4.660
 8483SOL    HW226349   5.319   5.890   4.550
 8484SOL     OW26350   3.763   6.663   4.024
 8484SOL    HW126351   3.862   6.652   4.015
 8484SOL    HW226352   3.723   6.577   4.056
 8485SOL     OW26353   3.954   6.214   5.699
 8485SOL    HW126354   3.861   6.212   5.736
 8485SOL    HW226355   3.955   6.175   5.607
 8486SOL     OW26356   3.949   5.861   6.582
 8486SOL    HW126357   3.984   5.844   6.674
 8486SOL    HW226358   3.861   5.816   6.570
 8487SOL     OW26359   3.743   5.954   6.233
 8487SOL    HW126360   3.661   5.997   6.272
 8487SOL    HW226361   3.715   5.881   6.170
 8488SOL     OW26362   4.293   6.861   6.751
 8488SOL    HW126363   4.200   6.854   6.714
 8488SOL    HW226364   4.304   6.950   6.795
 8489SOL     OW26365   5.279   7.097   6.289
 8489SOL    HW126366   5.222   7.081   6.370
 8489SOL    HW226367   5.220   7.107   6.209
 8490SOL     OW26368   4.859   6.289   6.303
 8490SOL    HW126369   4.916   6.367   6.278
 8490SOL    HW226370   4.799   6.315   6.379
 8491SOL     OW26371   5.479   6.193   5.817
 8491SOL    HW126372   5.467   6.180   5.718
 8491SOL    HW226373   5.449   6.112   5.866
 8492SOL     OW26374   4.492   6.730   6.609
 8492SOL    HW126375   4.414   6.747   6.669
 8492SOL    HW226376   4.526   6.817   6.573
 8493SOL     OW26377   4.409   6.598   6.251
 8493SOL    HW126378   4.478   6.582   6.321
 8493SOL    HW226379   4.336   6.655   6.289
 8494SOL     OW26380   4.059   7.021   6.647
 8494SOL    HW126381   3.981   6.990   6.594
 8494SOL    HW226382   4.117   7.079   6.590
 8495SOL     OW26383   5.327   6.033   6.323
 8495SOL    HW126384   5.253   6.079   6.273
 8495SOL    HW226385   5.378   6.101   6.376
 8496SOL     OW26386   3.964   6.677   6.472
 8496SOL    HW126387   3.978   6.593   6.524
 8496SOL    HW226388   3.909   6.741   6.527
 8497SOL     OW26389   4.330   6.550   5.709
 8497SOL    HW126390   4.337   6.634   5.655
 8497SOL    HW226391   4.376   6.563   5.797
 8498SOL     OW26392   3.846   6.229   6.149
 8498SOL    HW126393   3.801   6.141   6.166
 8498SOL    HW226394   3.845   6.283   6.233
 8499SOL     OW26395   5.413   6.508   6.198
 8499SOL    HW126396   5.508   6.479   6.206
 8499SOL    HW226397   5.405   6.573   6.123
 8500SOL     OW26398   5.365   6.694   6.018
 8500SOL    HW126399   5.451   6.696   5.966
 8500SOL    HW226400   5.379   6.741   6.106
 8501SOL     OW26401   4.533   5.590   6.088
 8501SOL    HW126402   4.573   5.681   6.079
 8501SOL    HW226403   4.433   5.598   6.094
 8502SOL     OW26404   3.921   6.562   6.850
 8502SOL    HW126405   4.010   6.517   6.836
 8502SOL    HW226406   3.848   6.497   6.831
 8503SOL     OW26407   5.249   6.585   5.776
 8503SOL    HW126408   5.186   6.509   5.789
 8503SOL    HW226409   5.297   6.603   5.862
 8504SOL     OW26410   5.190   7.003   6.539
 8504SOL    HW126411   5.131   7.009   6.619
 8504SOL    HW226412   5.175   6.915   6.493
 8505SOL     OW26413   4.322   6.315   5.856
 8505SOL    HW126414   4.346   6.384   5.788
 8505SOL    HW226415   4.244   6.348   5.910
 8506SOL     OW26416   5.005   5.931   6.530
 8506SOL    HW126417   4.919   5.881   6.517
 8506SOL    HW226418   5.067   5.877   6.586
 8507SOL     OW26419   4.531   6.191   7.051
 8507SOL    HW126420   4.484   6.188   7.140
 8507SOL    HW226421   4.480   6.136   6.985
 8508SOL     OW26422   4.715   5.996   6.828
 8508SOL    HW126423   4.638   6.030   6.882
 8508SOL    HW226424   4.681   5.945   6.749
 8509SOL     OW26425   4.765   6.287   6.015
 8509SOL    HW126426   4.791   6.283   6.111
 8509SOL    HW226427   4.680   6.236   6.001
 8510SOL     OW26428   3.800   6.397   6.375
 8510SOL    HW126429   3.899   6.385   6.384
 8510SOL    HW226430   3.776   6.492   6.396
 8511SOL     OW26431   4.589   5.934   5.781
 8511SOL    HW126432   4.648   5.997   5.732
 8511SOL    HW226433   4.608   5.840   5.752
 8512SOL     OW26434   5.086   6.730   6.131
 8512SOL    HW126435   5.169   6.701   6.083
 8512SOL    HW226436   5.037   6.797   6.075
 8513SOL     OW26437   4.274   5.782   6.471
 8513SOL    HW126438   4.269   5.777   6.571
 8513SOL    HW226439   4.276   5.878   6.442
 8514SOL     OW26440   5.519   6.652   6.459
 8514SOL    HW126441   5.457   6.637   6.383
 8514SOL    HW226442   5.467   6.663   6.544
 8515SOL     OW26443   4.045   6.529   5.828
 8515SOL    HW126444   4.127   6.568   5.786
 8515SOL    HW226445   4.018   6.447   5.779
 8516SOL     OW26446   5.182   6.321   6.314
 8516SOL    HW126447   5.177   6.256   6.389
 8516SOL    HW226448   5.262   6.380   6.327
 8517SOL     OW26449   5.356   6.963   5.667
 8517SOL    HW126450   5.324   7.057   5.657
 8517SOL    HW226451   5.280   6.900   5.655
 8518SOL     OW26452   5.124   5.693   6.012
 8518SOL    HW126453   5.100   5.656   5.922
 8518SOL    HW226454   5.223   5.709   6.016
 8519SOL     OW26455   4.106   6.286   6.066
 8519SOL    HW126456   4.151   6.196   6.063
 8519SOL    HW226457   4.012   6.275   6.099
 8520SOL     OW26458   4.338   5.708   5.703
 8520SOL    HW126459   4.436   5.686   5.710
 8520SOL    HW226460   4.307   5.691   5.610
 8521SOL     OW26461   4.646   6.089   6.485
 8521SOL    HW126462   4.621   6.080   6.389
 8521SOL    HW226463   4.694   6.007   6.516
 8522SOL     OW26464   4.263   5.650   6.098
 8522SOL    HW126465   4.182   5.651   6.156
 8522SOL    HW226466   4.266   5.733   6.043
 8523SOL     OW26467   5.158   6.774   5.627
 8523SOL    HW126468   5.190   6.698   5.684
 8523SOL    HW226469   5.066   6.801   5.657
 8524SOL     OW26470   4.021   5.621   5.757
 8524SOL    HW126471   4.070   5.705   5.736
 8524SOL    HW226472   4.083   5.556   5.802
 8525SOL     OW26473   4.659   5.822   6.066
 8525SOL    HW126474   4.611   5.863   5.988
 8525SOL    HW226475   4.758   5.820   6.047
 8526SOL     OW26476   4.951   7.156   6.379
 8526SOL    HW126477   4.972   7.230   6.314
 8526SOL    HW226478   5.019   7.156   6.452
 8527SOL     OW26479   4.183   6.738   6.327
 8527SOL    HW126480   4.112   6.711   6.392
 8527SOL    HW226481   4.157   6.710   6.234
 8528SOL     OW26482   4.756   6.135   5.602
 8528SOL    HW126483   4.715   6.217   5.563
 8528SOL    HW226484   4.820   6.161   5.675
 8529SOL     OW26485   4.285   5.808   6.733
 8529SOL    HW126486   4.323   5.724   6.770
 8529SOL    HW226487   4.197   5.827   6.777
 8530SOL     OW26488   4.590   6.040   6.228
 8530SOL    HW126489   4.558   6.112   6.166
 8530SOL    HW226490   4.614   5.959   6.175
 8531SOL     OW26491   4.741   5.625   6.339
 8531SOL    HW126492   4.669   5.630   6.270
 8531SOL    HW226493   4.717   5.556   6.408
 8532SOL     OW26494   5.153   6.759   6.453
 8532SOL    HW126495   5.098   6.675   6.446
 8532SOL    HW226496   5.179   6.788   6.361
 8533SOL     OW26497   5.190   6.176   6.578
 8533SOL    HW126498   5.160   6.081   6.585
 8533SOL    HW226499   5.263   6.192   6.644
 8534SOL     OW26500   5.581   6.419   5.963
 8534SOL    HW126501   5.623   6.355   6.027
 8534SOL    HW226502   5.543   6.368   5.885
 8535SOL     OW26503   5.388   6.866   6.243
 8535SOL    HW126504   5.487   6.874   6.257
 8535SOL    HW226505   5.343   6.950   6.274
 8536SOL     OW26506   5.114   6.161   5.664
 8536SOL    HW126507   5.060   6.140   5.745
 8536SOL    HW226508   5.205   6.120   5.673
 8537SOL     OW26509   4.251   5.842   5.914
 8537SOL    HW126510   4.278   5.783   5.839
 8537SOL    HW226511   4.251   5.937   5.883
 8538SOL     OW26512   5.478   6.809   7.174
 8538SOL    HW126513   5.569   6.770   7.161
 8538SOL    HW226514   5.486   6.905   7.198
 8539SOL     OW26515   4.788   6.933   6.926
 8539SOL    HW126516   4.708   6.910   6.981
 8539SOL    HW226517   4.871   6.907   6.975
 8540SOL     OW26518   4.835   6.781   6.686
 8540SOL    HW126519   4.795   6.825   6.767
 8540SOL    HW226520   4.794   6.818   6.603
 8541SOL     OW26521   5.362   6.685   6.665
 8541SOL    HW126522   5.367   6.766   6.724
 8541SOL    HW226523   5.276   6.687   6.614
 8542SOL     OW26524   4.429   6.636   5.954
 8542SOL    HW126525   4.415   6.643   6.053
 8542SOL    HW226526   4.513   6.585   5.936
 8543SOL     OW26527   4.134   6.399   6.837
 8543SOL    HW126528   4.220   6.411   6.887
 8543SOL    HW226529   4.092   6.312   6.864
 8544SOL     OW26530   4.998   5.972   6.848
 8544SOL    HW126531   5.019   6.046   6.912
 8544SOL    HW226532   4.909   5.989   6.805
 8545SOL     OW26533   4.091   6.686   6.087
 8545SOL    HW126534   4.084   6.769   6.031
 8545SOL    HW226535   4.095   6.606   6.027
 8546SOL     OW26536   4.290   6.123   6.451
 8546SOL    HW126537   4.302   6.189   6.377
 8546SOL    HW226538   4.336   6.157   6.534
 8547SOL     OW26539   5.306   6.225   6.058
 8547SOL    HW126540   5.275   6.286   6.131
 8547SOL    HW226541   5.356   6.277   5.989
 8548SOL     OW26542   4.297   6.456   6.615
 8548SOL    HW126543   4.341   6.545   6.606
 8548SOL    HW226544   4.234   6.456   6.692
 8549SOL     OW26545   5.084   6.448   6.631
 8549SOL    HW126546   5.009   6.448   6.565
 8549SOL    HW226547   5.121   6.356   6.640
 8550SOL     OW26548   4.933   6.111   5.861
 8550SOL    HW126549   4.946   6.027   5.915
 8550SOL    HW226550   4.904   6.185   5.921
 8551SOL     OW26551   4.031   5.799   6.817
 8551SOL    HW126552   4.008   5.836   6.907
 8551SOL    HW226553   4.001   5.704   6.811
 8552SOL     OW26554   3.761   6.896   6.868
 8552SOL    HW126555   3.814   6.847   6.936
 8552SOL    HW226556   3.783   6.994   6.873
 8553SOL     OW26557   4.456   6.220   6.650
 8553SOL    HW126558   4.515   6.194   6.574
 8553SOL    HW226559   4.428   6.316   6.639
 8554SOL     OW26560   4.031   5.649   6.204
 8554SOL    HW126561   4.020   5.743   6.237
 8554SOL    HW226562   4.026   5.586   6.281
 8555SOL     OW26563   5.346   5.953   5.960
 8555SOL    HW126564   5.348   5.877   6.024
 8555SOL    HW226565   5.298   6.030   6.000
 8556SOL     OW26566   4.747   6.352   6.552
 8556SOL    HW126567   4.762   6.373   6.648
 8556SOL    HW226568   4.717   6.257   6.543
 8557SOL     OW26569   5.264   5.860   5.711
 8557SOL    HW126570   5.203   5.785   5.734
 8557SOL    HW226571   5.286   5.912   5.794
 8558SOL     OW26572   5.027   6.424   5.628
 8558SOL    HW126573   5.061   6.331   5.643
 8558SOL    HW226574   5.045   6.451   5.533
 8559SOL     OW26575   4.043   6.396   6.535
 8559SOL    HW126576   4.136   6.432   6.540
 8559SOL    HW226577   4.037   6.311   6.587
 8560SOL     OW26578   4.063   6.095   6.592
 8560SOL    HW126579   4.011   6.012   6.575
 8560SOL    HW226580   4.140   6.100   6.528
 8561SOL     OW26581   4.884   5.793   7.063
 8561SOL    HW126582   4.884   5.857   7.140
 8561SOL    HW226583   4.912   5.841   6.980
 8562SOL     OW26584   3.732   6.912   5.786
 8562SOL    HW126585   3.639   6.933   5.755
 8562SOL    HW226586   3.742   6.813   5.799
 8563SOL     OW26587   4.726   6.382   6.824
 8563SOL    HW126588   4.767   6.350   6.910
 8563SOL    HW226589   4.630   6.355   6.821
 8564SOL     OW26590   3.764   6.130   6.700
 8564SOL    HW126591   3.849   6.097   6.659
 8564SOL    HW226592   3.777   6.145   6.798
 8565SOL     OW26593   4.539   6.158   5.911
 8565SOL    HW126594   4.546   6.069   5.865
 8565SOL    HW226595   4.445   6.192   5.903
 8566SOL     OW26596   5.381   6.190   6.792
 8566SOL    HW126597   5.343   6.121   6.854
 8566SOL    HW226598   5.463   6.154   6.748
 8567SOL     OW26599   4.395   6.050   6.855
 8567SOL    HW126600   4.361   5.961   6.825
 8567SOL    HW226601   4.421   6.104   6.775
 8568SOL     OW26602   4.197   6.086   5.777
 8568SOL    HW126603   4.258   6.166   5.781
 8568SOL    HW226604   4.102   6.117   5.784
 8569SOL     OW26605   3.883   6.723   7.052
 8569SOL    HW126606   3.905   6.662   7.128
 8569SOL    HW226607   3.893   6.674   6.966
 8570SOL     OW26608   5.071   6.645   6.820
 8570SOL    HW126609   5.095   6.582   6.746
 8570SOL    HW226610   4.981   6.685   6.802
 8571SOL     OW26611   5.026   6.441   5.895
 8571SOL    HW126612   4.940   6.410   5.937
 8571SOL    HW226613   5.022   6.427   5.796
 8572SOL     OW26614   3.807   6.844   6.608
 8572SOL    HW126615   3.802   6.843   6.708
 8572SOL    HW226616   3.724   6.803   6.570
 8573SOL     OW26617   5.450   5.721   6.109
 8573SOL    HW126618   5.523   5.704   6.042
 8573SOL    HW226619   5.419   5.634   6.147
 8574SOL     OW26620   5.004   6.513   6.258
 8574SOL    HW126621   5.064   6.432   6.260
 8574SOL    HW226622   5.044   6.582   6.198
 8575SOL     OW26623   4.554   6.859   7.008
 8575SOL    HW126624   4.549   6.892   7.103
 8575SOL    HW226625   4.468   6.878   6.962
 8576SOL     OW26626   5.565   5.761   6.549
 8576SOL    HW126627   5.604   5.676   6.513
 8576SOL    HW226628   5.467   5.763   6.530
 8577SOL     OW26629   3.987   5.912   6.306
 8577SOL    HW126630   3.908   5.963   6.272
 8577SOL    HW226631   3.978   5.897   6.404
 8578SOL     OW26632   4.918   7.198   5.617
 8578SOL    HW126633   4.924   7.105   5.654
 8578SOL    HW226634   4.859   7.198   5.537
 8579SOL     OW26635   4.546   6.588   6.958
 8579SOL    HW126636   4.586   6.587   6.866
 8579SOL    HW226637   4.556   6.680   6.998
 8580SOL     OW26638   4.640   6.496   5.877
 8580SOL    HW126639   4.703   6.534   5.809
 8580SOL    HW226640   4.680   6.413   5.916
 8581SOL     OW26641   4.096   6.874   7.076
 8581SOL    HW126642   4.083   6.967   7.042
 8581SOL    HW226643   4.012   6.822   7.063
 8582SOL     OW26644   5.338   6.878   6.875
 8582SOL    HW126645   5.398   6.881   6.955
 8582SOL    HW226646   5.263   6.942   6.888
 8583SOL     OW26647   4.763   6.684   6.282
 8583SOL    HW126648   4.693   6.637   6.336
 8583SOL    HW226649   4.822   6.616   6.239
 8584SOL     OW26650   4.738   5.822   6.557
 8584SOL    HW126651   4.730   5.786   6.464
 8584SOL    HW226652   4.736   5.746   6.622
 8585SOL     OW26653   5.433   5.971   6.967
 8585SOL    HW126654   5.506   6.040   6.971
 8585SOL    HW226655   5.461   5.896   6.908
 8586SOL     OW26656   4.396   5.789   7.075
 8586SOL    HW126657   4.486   5.773   7.035
 8586SOL    HW226658   4.404   5.794   7.174
 8587SOL     OW26659   3.799   5.931   5.619
 8587SOL    HW126660   3.707   5.903   5.590
 8587SOL    HW226661   3.830   6.008   5.563
 8588SOL     OW26662   3.796   5.752   5.904
 8588SOL    HW126663   3.779   5.835   5.850
 8588SOL    HW226664   3.886   5.715   5.882
 8589SOL     OW26665   5.174   6.806   7.219
 8589SOL    HW126666   5.165   6.796   7.318
 8589SOL    HW226667   5.270   6.799   7.193
 8590SOL     OW26668   5.398   6.469   6.840
 8590SOL    HW126669   5.371   6.380   6.803
 8590SOL    HW226670   5.399   6.537   6.767
 8591SOL     OW26671   4.949   5.911   6.035
 8591SOL    HW126672   5.014   5.837   6.024
 8591SOL    HW226673   4.969   5.961   6.119
 8592SOL     OW26674   4.318   6.331   6.238
 8592SOL    HW126675   4.368   6.416   6.219
 8592SOL    HW226676   4.230   6.333   6.190
 8593SOL     OW26677   5.454   6.520   7.103
 8593SOL    HW126678   5.492   6.611   7.118
 8593SOL    HW226679   5.446   6.503   7.004
 8594SOL     OW26680   4.583   6.542   6.447
 8594SOL    HW126681   4.637   6.473   6.495
 8594SOL    HW226682   4.551   6.611   6.513
 8595SOL     OW26683   4.807   6.570   5.673
 8595SOL    HW126684   4.784   6.623   5.591
 8595SOL    HW226685   4.888   6.514   5.654
 8596SOL     OW26686   3.803   6.826   6.239
 8596SOL    HW126687   3.802   6.779   6.327
 8596SOL    HW226688   3.885   6.798   6.188
 8597SOL     OW26689   5.548   5.778   6.813
 8597SOL    HW126690   5.544   5.688   6.857
 8597SOL    HW226691   5.551   5.767   6.714
 8598SOL     OW26692   4.152   6.010   6.106
 8598SOL    HW126693   4.182   5.938   6.044
 8598SOL    HW226694   4.113   5.970   6.189
 8599SOL     OW26695   5.429   7.073   6.690
 8599SOL    HW126696   5.336   7.048   6.663
 8599SOL    HW226697   5.455   7.023   6.772
 8600SOL     OW26698   4.041   6.133   6.866
 8600SOL    HW126699   4.079   6.074   6.938
 8600SOL    HW226700   4.081   6.107   6.778
 8601SOL     OW26701   5.148   5.800   6.698
 8601SOL    HW126702   5.200   5.735   6.753
 8601SOL    HW226703   5.099   5.863   6.759
 8602SOL     OW26704   4.725   5.620   6.740
 8602SOL    HW126705   4.662   5.548   6.709
 8602SOL    HW226706   4.818   5.584   6.740
 8603SOL     OW26707   4.494   6.916   5.887
 8603SOL    HW126708   4.448   6.829   5.904
 8603SOL    HW226709   4.585   6.913   5.928
 8604SOL     OW26710   5.076   5.638   5.754
 8604SOL    HW126711   5.111   5.597   5.670
 8604SOL    HW226712   4.986   5.600   5.774
 8605SOL     OW26713   5.024   6.039   6.277
 8605SOL    HW126714   4.965   6.119   6.281
 8605SOL    HW226715   5.039   6.004   6.370
 8606SOL     OW26716   5.317   5.807   6.468
 8606SOL    HW126717   5.233   5.806   6.522
 8606SOL    HW226718   5.319   5.890   6.412
 8607SOL     OW26719   3.763   6.663   5.886
 8607SOL    HW126720   3.862   6.652   5.877
 8607SOL    HW226721   3.723   6.577   5.918
 8608SOL     OW26722   5.816   0.628   0.113
 8608SOL    HW126723   5.723   0.626   0.150
 8608SOL    HW226724   5.817   0.589   0.021
 8609SOL     OW26725   5.811   0.275   0.996
 8609SOL    HW126726   5.846   0.258   1.088
 8609SOL    HW226727   5.723   0.230   0.984
 8610SOL     OW26728   5.605   0.368   0.647
 8610SOL    HW126729   5.523   0.411   0.686
 8610SOL    HW226730   5.577   0.295   0.584
 8611SOL     OW26731   6.155   1.275   1.165
 8611SOL    HW126732   6.062   1.268   1.128
 8611SOL    HW226733   6.166   1.364   1.209
 8612SOL     OW26734   7.141   1.511   0.703
 8612SOL    HW126735   7.084   1.495   0.784
 8612SOL    HW226736   7.082   1.521   0.623
 8613SOL     OW26737   6.721   0.703   0.717
 8613SOL    HW126738   6.778   0.781   0.692
 8613SOL    HW226739   6.661   0.729   0.793
 8614SOL     OW26740   6.354   1.144   1.023
 8614SOL    HW126741   6.276   1.161   1.083
 8614SOL    HW226742   6.388   1.231   0.987
 8615SOL     OW26743   6.436   0.798   1.823
 8615SOL    HW126744   6.432   0.874   1.888
 8615SOL    HW226745   6.458   0.834   1.732
 8616SOL     OW26746   6.271   1.012   0.665
 8616SOL    HW126747   6.340   0.996   0.735
 8616SOL    HW226748   6.198   1.069   0.703
 8617SOL     OW26749   6.272   1.161   1.803
 8617SOL    HW126750   6.332   1.240   1.817
 8617SOL    HW226751   6.186   1.192   1.762
 8618SOL     OW26752   5.921   1.435   1.061
 8618SOL    HW126753   5.843   1.404   1.008
 8618SOL    HW226754   5.979   1.493   1.004
 8619SOL     OW26755   6.024   0.392   1.499
 8619SOL    HW126756   6.106   0.336   1.508
 8619SOL    HW226757   5.943   0.334   1.503
 8620SOL     OW26758   5.817   1.713   0.483
 8620SOL    HW126759   5.851   1.790   0.537
 8620SOL    HW226760   5.861   1.713   0.393
 8621SOL     OW26761   6.713   1.341   1.690
 8621SOL    HW126762   6.760   1.341   1.778
 8621SOL    HW226763   6.665   1.254   1.679
 8622SOL     OW26764   5.816   1.434   0.538
 8622SOL    HW126765   5.790   1.530   0.538
 8622SOL    HW226766   5.745   1.380   0.583
 8623SOL     OW26767   5.826   1.091   0.886
 8623SOL    HW126768   5.840   1.007   0.938
 8623SOL    HW226769   5.771   1.155   0.941
 8624SOL     OW26770   6.206   1.786   1.439
 8624SOL    HW126771   6.114   1.769   1.474
 8624SOL    HW226772   6.234   1.878   1.465
 8625SOL     OW26773   6.192   0.964   0.123
 8625SOL    HW126774   6.199   1.048   0.069
 8625SOL    HW226775   6.238   0.977   0.211
 8626SOL     OW26776   5.708   0.643   0.563
 8626SOL    HW126777   5.663   0.555   0.580
 8626SOL    HW226778   5.707   0.697   0.647
 8627SOL     OW26779   5.613   1.596   0.117
 8627SOL    HW126780   5.594   1.500   0.138
 8627SOL    HW226781   5.580   1.654   0.192
 8628SOL     OW26782   5.699   0.737   1.597
 8628SOL    HW126783   5.787   0.724   1.642
 8628SOL    HW226784   5.686   0.834   1.575
 8629SOL     OW26785   6.199   1.365   0.726
 8629SOL    HW126786   6.150   1.278   0.735
 8629SOL    HW226787   6.176   1.408   0.639
 8630SOL     OW26788   6.879   1.228   1.423
 8630SOL    HW126789   6.916   1.155   1.365
 8630SOL    HW226790   6.931   1.233   1.508
 8631SOL     OW26791   6.395   0.004   0.502
 8631SOL    HW126792   6.435   0.095   0.493
 8631SOL    HW226793   6.295   0.012   0.508
 8632SOL     OW26794   5.783   0.976   1.264
 8632SOL    HW126795   5.872   0.931   1.250
 8632SOL    HW226796   5.710   0.911   1.245
 8633SOL     OW26797   6.773   1.792   1.616
 8633SOL    HW126798   6.797   1.852   1.540
 8633SOL    HW226799   6.780   1.697   1.586
 8634SOL     OW26800   5.903   0.251   1.801
 8634SOL    HW126801   5.974   0.322   1.807
 8634SOL    HW226802   5.815   0.290   1.829
 8635SOL     OW26803   6.184   0.729   0.270
 8635SOL    HW126804   6.208   0.798   0.202
 8635SOL    HW226805   6.106   0.762   0.324
 8636SOL     OW26806   6.867   0.345   0.944
 8636SOL    HW126807   6.781   0.295   0.931
 8636SOL    HW226808   6.929   0.291   1.000
 8637SOL     OW26809   6.393   0.605   1.465
 8637SOL    HW126810   6.346   0.602   1.554
 8637SOL    HW226811   6.342   0.550   1.399
 8638SOL     OW26812   6.980   0.469   1.674
 8638SOL    HW126813   6.960   0.512   1.762
 8638SOL    HW226814   7.058   0.407   1.683
 8639SOL     OW26815   6.559   0.890   1.572
 8639SOL    HW126816   6.605   0.806   1.543
 8639SOL    HW226817   6.503   0.924   1.497
 8640SOL     OW26818   6.577   0.410   1.242
 8640SOL    HW126819   6.500   0.444   1.296
 8640SOL    HW226820   6.543   0.359   1.163
 8641SOL     OW26821   6.627   0.701   0.429
 8641SOL    HW126822   6.653   0.697   0.525
 8641SOL    HW226823   6.542   0.650   0.415
 8642SOL     OW26824   5.662   0.811   0.789
 8642SOL    HW126825   5.761   0.799   0.798
 8642SOL    HW226826   5.638   0.906   0.810
 8643SOL     OW26827   5.716   1.821   1.571
 8643SOL    HW126828   5.706   1.806   1.670
 8643SOL    HW226829   5.630   1.857   1.535
 8644SOL     OW26830   6.451   0.348   0.195
 8644SOL    HW126831   6.510   0.411   0.146
 8644SOL    HW226832   6.470   0.254   0.166
 8645SOL     OW26833   6.948   1.144   0.545
 8645SOL    HW126834   7.031   1.115   0.497
 8645SOL    HW226835   6.899   1.211   0.489
 8646SOL     OW26836   6.136   0.196   0.885
 8646SOL    HW126837   6.131   0.191   0.985
 8646SOL    HW226838   6.138   0.292   0.856
 8647SOL     OW26839   6.594   1.456   0.477
 8647SOL    HW126840   6.548   1.528   0.425
 8647SOL    HW226841   6.590   1.476   0.575
 8648SOL     OW26842   5.937   1.801   0.853
 8648SOL    HW126843   5.987   1.715   0.859
 8648SOL    HW226844   6.002   1.878   0.850
 8649SOL     OW26845   6.813   1.550   1.506
 8649SOL    HW126846   6.819   1.473   1.570
 8649SOL    HW226847   6.761   1.524   1.426
 8650SOL     OW26848   5.907   0.943   0.242
 8650SOL    HW126849   5.989   0.982   0.200
 8650SOL    HW226850   5.880   0.861   0.193
 8651SOL     OW26851   6.047   1.266   1.727
 8651SOL    HW126852   5.997   1.267   1.641
 8651SOL    HW226853   5.984   1.248   1.803
 8652SOL     OW26854   6.697   1.776   0.237
 8652SOL    HW126855   6.637   1.714   0.287
 8652SOL    HW226856   6.728   1.732   0.152
 8653SOL     OW26857   5.788   0.285   1.498
 8653SOL    HW126858   5.708   0.345   1.485
 8653SOL    HW226859   5.778   0.236   1.584
 8654SOL     OW26860   7.218   1.377   0.081
 8654SOL    HW126861   7.186   1.471   0.071
 8654SOL    HW226862   7.142   1.314   0.069
 8655SOL     OW26863   6.050   1.743   0.323
 8655SOL    HW126864   6.083   1.782   0.409
 8655SOL    HW226865   6.126   1.736   0.258
 8656SOL     OW26866   5.835   1.785   1.241
 8656SOL    HW126867   5.892   1.720   1.291
 8656SOL    HW226868   5.819   1.752   1.148
 8657SOL     OW26869   6.526   1.698   0.904
 8657SOL    HW126870   6.606   1.641   0.925
 8657SOL    HW226871   6.477   1.658   0.827
 8658SOL     OW26872   5.968   0.700   0.480
 8658SOL    HW126873   6.013   0.610   0.477
 8658SOL    HW226874   5.874   0.689   0.513
 8659SOL     OW26875   6.200   0.122   0.117
 8659SOL    HW126876   6.298   0.100   0.124
 8659SOL    HW226877   6.169   0.105   0.024
 8660SOL     OW26878   6.367   0.264   1.749
 8660SOL    HW126879   6.434   0.203   1.792
 8660SOL    HW226880   6.294   0.283   1.814
 8661SOL     OW26881   6.474   1.514   1.195
 8661SOL    HW126882   6.451   1.489   1.101
 8661SOL    HW226883   6.535   1.445   1.234
 8662SOL     OW26884   6.389   1.402   0.924
 8662SOL    HW126885   6.479   1.416   0.882
 8662SOL    HW226886   6.318   1.404   0.853
 8663SOL     OW26887   6.508   0.503   0.899
 8663SOL    HW126888   6.483   0.494   0.803
 8663SOL    HW226889   6.556   0.421   0.930
 8664SOL     OW26890   6.125   0.064   0.512
 8664SOL    HW126891   6.044   0.065   0.570
 8664SOL    HW226892   6.128   0.147   0.457
 8665SOL     OW26893   5.883   0.035   0.171
 8665SOL    HW126894   5.932   0.119   0.150
 8665SOL    HW226895   5.945  -0.030   0.216
 8666SOL     OW26896   6.521   0.236   0.480
 8666SOL    HW126897   6.473   0.277   0.402
 8666SOL    HW226898   6.620   0.234   0.461
 8667SOL     OW26899   6.662   0.683   1.464
 8667SOL    HW126900   6.582   0.622   1.467
 8667SOL    HW226901   6.743   0.630   1.440
 8668SOL     OW26902   6.813   1.570   0.793
 8668SOL    HW126903   6.834   1.644   0.728
 8668SOL    HW226904   6.881   1.570   0.866
 8669SOL     OW26905   6.045   1.152   0.741
 8669SOL    HW126906   5.974   1.125   0.806
 8669SOL    HW226907   6.019   1.124   0.648
 8670SOL     OW26908   6.857   1.797   0.591
 8670SOL    HW126909   6.901   1.861   0.527
 8670SOL    HW226910   6.807   1.849   0.661
 8671SOL     OW26911   6.618   0.549   0.016
 8671SOL    HW126912   6.577   0.631  -0.023
 8671SOL    HW226913   6.682   0.575   0.089
 8672SOL     OW26914   5.664   0.556   1.386
 8672SOL    HW126915   5.756   0.555   1.345
 8672SOL    HW226916   5.658   0.630   1.453
 8673SOL     OW26917   6.147   0.222   1.147
 8673SOL    HW126918   6.185   0.138   1.184
 8673SOL    HW226919   6.059   0.241   1.191
 8674SOL     OW26920   6.452   0.454   0.642
 8674SOL    HW126921   6.420   0.526   0.580
 8674SOL    HW226922   6.476   0.373   0.589
 8675SOL     OW26923   6.603   0.039   0.753
 8675SOL    HW126924   6.531   0.044   0.684
 8675SOL    HW226925   6.579  -0.030   0.822
 8676SOL     OW26926   6.074   1.385   0.174
 8676SOL    HW126927   5.987   1.370   0.221
 8676SOL    HW226928   6.057   1.411   0.079
 8677SOL     OW26929   6.113   0.256   0.328
 8677SOL    HW126930   6.140   0.197   0.253
 8677SOL    HW226931   6.113   0.351   0.297
 8678SOL     OW26932   6.650   1.347   1.340
 8678SOL    HW126933   6.570   1.324   1.395
 8678SOL    HW226934   6.733   1.321   1.389
 8679SOL     OW26935   6.697   1.195   1.100
 8679SOL    HW126936   6.657   1.239   1.181
 8679SOL    HW226937   6.656   1.232   1.017
 8680SOL     OW26938   6.501   0.089   1.402
 8680SOL    HW126939   6.526   0.069   1.307
 8680SOL    HW226940   6.573   0.145   1.444
 8681SOL     OW26941   6.566   1.116   1.719
 8681SOL    HW126942   6.467   1.122   1.729
 8681SOL    HW226943   6.589   1.036   1.663
 8682SOL     OW26944   6.291   1.050   0.368
 8682SOL    HW126945   6.277   1.057   0.467
 8682SOL    HW226946   6.375   0.999   0.350
 8683SOL     OW26947   5.996   0.813   1.251
 8683SOL    HW126948   6.082   0.825   1.301
 8683SOL    HW226949   5.954   0.726   1.278
 8684SOL     OW26950   6.860   0.386   1.262
 8684SOL    HW126951   6.881   0.460   1.326
 8684SOL    HW226952   6.771   0.403   1.219
 8685SOL     OW26953   5.650   1.564   1.331
 8685SOL    HW126954   5.604   1.646   1.297
 8685SOL    HW226955   5.748   1.583   1.340
 8686SOL     OW26956   5.953   1.100   0.501
 8686SOL    HW126957   5.946   1.183   0.445
 8686SOL    HW226958   5.957   1.020   0.441
 8687SOL     OW26959   6.152   0.537   0.865
 8687SOL    HW126960   6.164   0.603   0.791
 8687SOL    HW226961   6.198   0.571   0.948
 8688SOL     OW26962   6.838   1.348   0.388
 8688SOL    HW126963   6.888   1.425   0.428
 8688SOL    HW226964   6.743   1.350   0.420
 8689SOL     OW26965   6.858   1.445   1.142
 8689SOL    HW126966   6.905   1.458   1.229
 8689SOL    HW226967   6.792   1.371   1.151
 8690SOL     OW26968   5.940   1.510   1.329
 8690SOL    HW126969   5.919   1.466   1.242
 8690SOL    HW226970   6.037   1.536   1.332
 8691SOL     OW26971   5.988   0.751   1.598
 8691SOL    HW126972   6.056   0.806   1.551
 8691SOL    HW226973   6.028   0.663   1.625
 8692SOL     OW26974   6.599   0.105   1.770
 8692SOL    HW126975   6.605   0.190   1.718
 8692SOL    HW226976   6.631   0.029   1.713
 8693SOL     OW26977   6.090   0.050   1.740
 8693SOL    HW126978   6.048  -0.007   1.670
 8693SOL    HW226979   6.024   0.119   1.772
 8694SOL     OW26980   6.159   0.870   1.029
 8694SOL    HW126981   6.203   0.959   1.020
 8694SOL    HW226982   6.096   0.870   1.106
 8695SOL     OW26983   6.946   0.862   1.045
 8695SOL    HW126984   6.871   0.862   0.979
 8695SOL    HW226985   6.983   0.770   1.054
 8696SOL     OW26986   6.795   0.525   0.275
 8696SOL    HW126987   6.808   0.441   0.329
 8696SOL    HW226988   6.766   0.599   0.335
 8697SOL     OW26989   5.893   0.213   1.231
 8697SOL    HW126990   5.870   0.250   1.321
 8697SOL    HW226991   5.863   0.118   1.225
 8698SOL     OW26992   5.623   1.310   1.282
 8698SOL    HW126993   5.676   1.261   1.350
 8698SOL    HW226994   5.645   1.408   1.287
 8699SOL     OW26995   6.318   0.634   1.064
 8699SOL    HW126996   6.377   0.608   0.988
 8699SOL    HW226997   6.290   0.730   1.053
 8700SOL     OW26998   5.893   0.063   0.618
 8700SOL    HW126999   5.882   0.157   0.651
 8700SOL    HW227000   5.888   0.000   0.695
 8701SOL     OW27001   7.208   0.367   0.374
 8701SOL    HW127002   7.210   0.291   0.438
 8701SOL    HW227003   7.160   0.444   0.414
 8702SOL     OW27004   6.609   0.766   0.966
 8702SOL    HW127005   6.624   0.787   1.062
 8702SOL    HW227006   6.579   0.671   0.957
 8703SOL     OW27007   6.566   1.573   1.700
 8703SOL    HW127008   6.546   1.617   1.612
 8703SOL    HW227009   6.605   1.482   1.684
 8704SOL     OW27010   5.936   0.898   1.804
 8704SOL    HW127011   6.012   0.942   1.852
 8704SOL    HW227012   5.971   0.851   1.722
 8705SOL     OW27013   6.889   0.838   0.042
 8705SOL    HW127014   6.923   0.745   0.057
 8705SOL    HW227015   6.907   0.865  -0.053
 8706SOL     OW27016   6.654   1.333   0.849
 8706SOL    HW127017   6.661   1.249   0.794
 8706SOL    HW227018   6.716   1.402   0.813
 8707SOL     OW27019   5.905   0.810   0.949
 8707SOL    HW127020   5.998   0.846   0.954
 8707SOL    HW227021   5.899   0.725   1.001
 8708SOL     OW27022   5.925   0.509   1.006
 8708SOL    HW127023   5.873   0.426   0.989
 8708SOL    HW227024   6.002   0.514   0.942
 8709SOL     OW27025   6.724   0.380   1.678
 8709SOL    HW127026   6.679   0.443   1.742
 8709SOL    HW227027   6.817   0.411   1.661
 8710SOL     OW27028   6.746   0.207   1.477
 8710SOL    HW127029   6.746   0.271   1.554
 8710SOL    HW227030   6.774   0.255   1.394
 8711SOL     OW27031   5.674   1.801   0.927
 8711SOL    HW127032   5.632   1.715   0.900
 8711SOL    HW227033   5.768   1.804   0.893
 8712SOL     OW27034   6.090   1.568   0.910
 8712SOL    HW127035   6.156   1.642   0.919
 8712SOL    HW227036   6.134   1.489   0.868
 8713SOL     OW27037   6.588   0.796   1.238
 8713SOL    HW127038   6.629   0.764   1.324
 8713SOL    HW227039   6.492   0.769   1.235
 8714SOL     OW27040   5.626   0.544   1.114
 8714SOL    HW127041   5.711   0.511   1.073
 8714SOL    HW227042   5.639   0.559   1.212
 8715SOL     OW27043   5.775   0.520   1.722
 8715SOL    HW127044   5.834   0.480   1.652
 8715SOL    HW227045   5.717   0.591   1.681
 8716SOL     OW27046   6.401   0.572   0.325
 8716SOL    HW127047   6.408   0.483   0.279
 8716SOL    HW227048   6.307   0.606   0.317
 8717SOL     OW27049   5.838   1.564   1.744
 8717SOL    HW127050   5.808   1.621   1.820
 8717SOL    HW227051   5.831   1.467   1.770
 8718SOL     OW27052   6.257   0.464   1.269
 8718SOL    HW127053   6.223   0.375   1.239
 8718SOL    HW227054   6.283   0.518   1.189
 8719SOL     OW27055   6.516   1.678   1.465
 8719SOL    HW127056   6.492   1.660   1.370
 8719SOL    HW227057   6.546   1.772   1.475
 8720SOL     OW27058   6.059   0.500   0.191
 8720SOL    HW127059   6.120   0.580   0.195
 8720SOL    HW227060   5.964   0.531   0.198
 8721SOL     OW27061   5.745   1.137   1.466
 8721SOL    HW127062   5.767   1.076   1.542
 8721SOL    HW227063   5.755   1.088   1.380
 8722SOL     OW27064   6.933   1.059   1.234
 8722SOL    HW127065   6.957   0.996   1.160
 8722SOL    HW227066   6.843   1.099   1.216
 8723SOL     OW27067   6.888   0.855   0.309
 8723SOL    HW127068   6.802   0.824   0.351
 8723SOL    HW227069   6.884   0.841   0.210
 8724SOL     OW27070   6.838   1.731   1.128
 8724SOL    HW127071   6.922   1.736   1.074
 8724SOL    HW227072   6.815   1.635   1.146
 8725SOL     OW27073   5.669   1.258   1.022
 8725SOL    HW127074   5.664   1.257   1.122
 8725SOL    HW227075   5.586   1.217   0.984
 8726SOL     OW27076   6.274   1.662   1.716
 8726SOL    HW127077   6.218   1.743   1.725
 8726SOL    HW227078   6.326   1.666   1.630
 8727SOL     OW27079   6.489   0.086   0.133
 8727SOL    HW127080   6.540   0.087   0.047
 8727SOL    HW227081   6.545   0.044   0.204
 8728SOL     OW27082   6.974   1.573   0.477
 8728SOL    HW127083   7.041   1.585   0.403
 8728SOL    HW227084   6.934   1.662   0.500
 8729SOL     OW27085   5.716   1.794   1.851
 8729SOL    HW127086   5.675   1.720   1.904
 8729SOL    HW227087   5.780   1.845   1.909
 8730SOL     OW27088   6.866   0.927   0.672
 8730SOL    HW127089   6.926   0.846   0.674
 8730SOL    HW227090   6.906   0.996   0.612
 8731SOL     OW27091   6.416   1.273   1.422
 8731SOL    HW127092   6.411   1.306   1.517
 8731SOL    HW227093   6.330   1.292   1.376
 8732SOL     OW27094   6.258   1.616   0.154
 8732SOL    HW127095   6.267   1.626   0.055
 8732SOL    HW227096   6.218   1.527   0.175
 8733SOL     OW27097   5.849   0.326   0.720
 8733SOL    HW127098   5.770   0.377   0.686
 8733SOL    HW227099   5.840   0.311   0.818
 8734SOL     OW27100   6.780   1.612   0.031
 8734SOL    HW127101   6.786   1.519   0.068
 8734SOL    HW227102   6.721   1.612  -0.049
 8735SOL     OW27103   6.408   1.002   1.372
 8735SOL    HW127104   6.448   1.001   1.280
 8735SOL    HW227105   6.418   1.094   1.412
 8736SOL     OW27106   6.502   0.910   0.291
 8736SOL    HW127107   6.565   0.948   0.223
 8736SOL    HW227108   6.542   0.827   0.330
 8737SOL     OW27109   5.958   1.288   1.490
 8737SOL    HW127110   5.945   1.381   1.456
 8737SOL    HW227111   5.874   1.236   1.477
 8738SOL     OW27112   6.625   1.098   0.696
 8738SOL    HW127113   6.555   1.051   0.750
 8738SOL    HW227114   6.684   1.030   0.653
 8739SOL     OW27115   6.600   0.236   0.971
 8739SOL    HW127116   6.592   0.200   0.878
 8739SOL    HW227117   6.598   0.160   1.036
 8740SOL     OW27118   6.176   1.487   0.491
 8740SOL    HW127119   6.218   1.429   0.421
 8740SOL    HW227120   6.132   1.566   0.447
 8741SOL     OW27121   5.841   1.348   0.290
 8741SOL    HW127122   5.745   1.349   0.263
 8741SOL    HW227123   5.853   1.401   0.374
 8742SOL     OW27124   5.691   1.013   1.726
 8742SOL    HW127125   5.614   0.980   1.780
 8742SOL    HW227126   5.776   0.983   1.768
 8743SOL     OW27127   6.258   0.203   1.489
 8743SOL    HW127128   6.348   0.187   1.449
 8743SOL    HW227129   6.266   0.208   1.588
 8744SOL     OW27130   5.661   0.345   0.033
 8744SOL    HW127131   5.569   0.317   0.004
 8744SOL    HW227132   5.692   0.422  -0.023
 8745SOL     OW27133   5.658   0.166   0.318
 8745SOL    HW127134   5.641   0.249   0.264
 8745SOL    HW227135   5.748   0.129   0.296
 8746SOL     OW27136   6.199   0.842   1.431
 8746SOL    HW127137   6.255   0.923   1.414
 8746SOL    HW227138   6.258   0.762   1.434
 8747SOL     OW27139   6.302   0.565   1.708
 8747SOL    HW127140   6.321   0.630   1.782
 8747SOL    HW227141   6.362   0.485   1.717
 8748SOL     OW27142   7.036   1.220   1.633
 8748SOL    HW127143   7.027   1.210   1.732
 8748SOL    HW227144   7.132   1.213   1.607
 8749SOL     OW27145   5.976   1.741   1.560
 8749SOL    HW127146   5.885   1.782   1.558
 8749SOL    HW227147   5.969   1.647   1.592
 8750SOL     OW27148   6.811   0.325   0.449
 8750SOL    HW127149   6.876   0.251   0.438
 8750SOL    HW227150   6.831   0.375   0.533
 8751SOL     OW27151   6.180   0.745   0.652
 8751SOL    HW127152   6.230   0.830   0.633
 8751SOL    HW227153   6.092   0.747   0.604
 8752SOL     OW27154   6.445   1.374   0.016
 8752SOL    HW127155   6.399   1.389   0.104
 8752SOL    HW227156   6.489   1.459  -0.014
 8753SOL     OW27157   6.247   1.790   0.953
 8753SOL    HW127158   6.201   1.878   0.940
 8753SOL    HW227159   6.346   1.802   0.946
 8754SOL     OW27160   6.445   0.956   0.861
 8754SOL    HW127161   6.499   0.887   0.909
 8754SOL    HW227162   6.413   1.025   0.927
 8755SOL     OW27163   6.669   0.984   0.087
 8755SOL    HW127164   6.646   1.037   0.005
 8755SOL    HW227165   6.750   0.928   0.068
 8756SOL     OW27166   5.807   1.314   1.844
 8756SOL    HW127167   5.742   1.241   1.823
 8756SOL    HW227168   5.811   1.328   1.942
 8757SOL     OW27169   5.665   1.240   0.653
 8757SOL    HW127170   5.664   1.193   0.741
 8757SOL    HW227171   5.747   1.212   0.602
 8758SOL     OW27172   6.258   1.391   1.624
 8758SOL    HW127173   6.180   1.341   1.662
 8758SOL    HW227174   6.255   1.486   1.655
 8759SOL     OW27175   6.014   0.424   0.520
 8759SOL    HW127176   6.044   0.352   0.458
 8759SOL    HW227177   5.975   0.384   0.603
 8760SOL     OW27178   5.903   0.547   1.280
 8760SOL    HW127179   5.941   0.488   1.352
 8760SOL    HW227180   5.943   0.521   1.192
 8761SOL     OW27181   6.398   1.586   0.687
 8761SOL    HW127182   6.430   1.596   0.593
 8761SOL    HW227183   6.319   1.524   0.689
 8762SOL     OW27184   7.010   0.214   1.112
 8762SOL    HW127185   7.062   0.149   1.167
 8762SOL    HW227186   6.961   0.277   1.173
 8763SOL     OW27187   6.587   0.034   1.154
 8763SOL    HW127188   6.524  -0.038   1.123
 8763SOL    HW227189   6.680  -0.002   1.154
 8764SOL     OW27190   6.356   1.330   0.301
 8764SOL    HW127191   6.310   1.243   0.318
 8764SOL    HW227192   6.447   1.327   0.342
 8765SOL     OW27193   6.204   1.567   1.284
 8765SOL    HW127194   6.199   1.649   1.341
 8765SOL    HW227195   6.293   1.564   1.239
 8766SOL     OW27196   5.625   1.077   0.300
 8766SOL    HW127197   5.724   1.066   0.291
 8766SOL    HW227198   5.585   0.991   0.332
 8767SOL     OW27199   6.461   1.646   0.337
 8767SOL    HW127200   6.384   1.611   0.283
 8767SOL    HW227201   6.429   1.717   0.399
 8768SOL     OW27202   5.816   0.628   1.975
 8768SOL    HW127203   5.723   0.626   2.012
 8768SOL    HW227204   5.817   0.589   1.883
 8769SOL     OW27205   5.811   0.275   2.858
 8769SOL    HW127206   5.846   0.258   2.950
 8769SOL    HW227207   5.723   0.230   2.846
 8770SOL     OW27208   5.605   0.368   2.509
 8770SOL    HW127209   5.523   0.411   2.548
 8770SOL    HW227210   5.577   0.295   2.446
 8771SOL     OW27211   6.155   1.275   3.027
 8771SOL    HW127212   6.062   1.268   2.990
 8771SOL    HW227213   6.166   1.364   3.071
 8772SOL     OW27214   7.141   1.511   2.565
 8772SOL    HW127215   7.084   1.495   2.646
 8772SOL    HW227216   7.082   1.521   2.485
 8773SOL     OW27217   6.721   0.703   2.579
 8773SOL    HW127218   6.778   0.781   2.554
 8773SOL    HW227219   6.661   0.729   2.655
 8774SOL     OW27220   6.354   1.144   2.885
 8774SOL    HW127221   6.276   1.161   2.945
 8774SOL    HW227222   6.388   1.231   2.849
 8775SOL     OW27223   6.436   0.798   3.685
 8775SOL    HW127224   6.432   0.874   3.750
 8775SOL    HW227225   6.458   0.834   3.594
 8776SOL     OW27226   6.271   1.012   2.527
 8776SOL    HW127227   6.340   0.996   2.597
 8776SOL    HW227228   6.198   1.069   2.565
 8777SOL     OW27229   6.272   1.161   3.665
 8777SOL    HW127230   6.332   1.240   3.679
 8777SOL    HW227231   6.186   1.192   3.624
 8778SOL     OW27232   5.921   1.435   2.923
 8778SOL    HW127233   5.843   1.404   2.870
 8778SOL    HW227234   5.979   1.493   2.866
 8779SOL     OW27235   6.024   0.392   3.361
 8779SOL    HW127236   6.106   0.336   3.370
 8779SOL    HW227237   5.943   0.334   3.365
 8780SOL     OW27238   5.817   1.713   2.345
 8780SOL    HW127239   5.851   1.790   2.399
 8780SOL    HW227240   5.861   1.713   2.255
 8781SOL     OW27241   6.713   1.341   3.552
 8781SOL    HW127242   6.760   1.341   3.640
 8781SOL    HW227243   6.665   1.254   3.541
 8782SOL     OW27244   5.816   1.434   2.400
 8782SOL    HW127245   5.790   1.530   2.400
 8782SOL    HW227246   5.745   1.380   2.445
 8783SOL     OW27247   5.826   1.091   2.748
 8783SOL    HW127248   5.840   1.007   2.800
 8783SOL    HW227249   5.771   1.155   2.803
 8784SOL     OW27250   6.206   1.786   3.301
 8784SOL    HW127251   6.114   1.769   3.336
 8784SOL    HW227252   6.234   1.878   3.327
 8785SOL     OW27253   6.192   0.964   1.985
 8785SOL    HW127254   6.199   1.048   1.931
 8785SOL    HW227255   6.238   0.977   2.073
 8786SOL     OW27256   5.708   0.643   2.425
 8786SOL    HW127257   5.663   0.555   2.442
 8786SOL    HW227258   5.707   0.697   2.509
 8787SOL     OW27259   5.613   1.596   1.979
 8787SOL    HW127260   5.594   1.500   2.000
 8787SOL    HW227261   5.580   1.654   2.054
 8788SOL     OW27262   5.699   0.737   3.459
 8788SOL    HW127263   5.787   0.724   3.504
 8788SOL    HW227264   5.686   0.834   3.437
 8789SOL     OW27265   6.199   1.365   2.588
 8789SOL    HW127266   6.150   1.278   2.597
 8789SOL    HW227267   6.176   1.408   2.501
 8790SOL     OW27268   6.879   1.228   3.285
 8790SOL    HW127269   6.916   1.155   3.227
 8790SOL    HW227270   6.931   1.233   3.370
 8791SOL     OW27271   6.395   0.004   2.364
 8791SOL    HW127272   6.435   0.095   2.355
 8791SOL    HW227273   6.295   0.012   2.370
 8792SOL     OW27274   5.783   0.976   3.126
 8792SOL    HW127275   5.872   0.931   3.112
 8792SOL    HW227276   5.710   0.911   3.107
 8793SOL     OW27277   6.773   1.792   3.478
 8793SOL    HW127278   6.797   1.852   3.402
 8793SOL    HW227279   6.780   1.697   3.448
 8794SOL     OW27280   5.903   0.251   3.663
 8794SOL    HW127281   5.974   0.322   3.669
 8794SOL    HW227282   5.815   0.290   3.691
 8795SOL     OW27283   6.184   0.729   2.132
 8795SOL    HW127284   6.208   0.798   2.064
 8795SOL    HW227285   6.106   0.762   2.186
 8796SOL     OW27286   6.867   0.345   2.806
 8796SOL    HW127287   6.781   0.295   2.793
 8796SOL    HW227288   6.929   0.291   2.862
 8797SOL     OW27289   6.393   0.605   3.327
 8797SOL    HW127290   6.346   0.602   3.416
 8797SOL    HW227291   6.342   0.550   3.261
 8798SOL     OW27292   6.980   0.469   3.536
 8798SOL    HW127293   6.960   0.512   3.624
 8798SOL    HW227294   7.058   0.407   3.545
 8799SOL     OW27295   6.559   0.890   3.434
 8799SOL    HW127296   6.605   0.806   3.405
 8799SOL    HW227297   6.503   0.924   3.359
 8800SOL     OW27298   6.577   0.410   3.104
 8800SOL    HW127299   6.500   0.444   3.158
 8800SOL    HW227300   6.543   0.359   3.025
 8801SOL     OW27301   6.627   0.701   2.291
 8801SOL    HW127302   6.653   0.697   2.387
 8801SOL    HW227303   6.542   0.650   2.277
 8802SOL     OW27304   5.662   0.811   2.651
 8802SOL    HW127305   5.761   0.799   2.660
 8802SOL    HW227306   5.638   0.906   2.672
 8803SOL     OW27307   5.716   1.821   3.433
 8803SOL    HW127308   5.706   1.806   3.532
 8803SOL    HW227309   5.630   1.857   3.397
 8804SOL     OW27310   6.451   0.348   2.057
 8804SOL    HW127311   6.510   0.411   2.008
 8804SOL    HW227312   6.470   0.254   2.028
 8805SOL     OW27313   6.948   1.144   2.407
 8805SOL    HW127314   7.031   1.115   2.359
 8805SOL    HW227315   6.899   1.211   2.351
 8806SOL     OW27316   6.136   0.196   2.747
 8806SOL    HW127317   6.131   0.191   2.847
 8806SOL    HW227318   6.138   0.292   2.718
 8807SOL     OW27319   6.594   1.456   2.339
 8807SOL    HW127320   6.548   1.528   2.287
 8807SOL    HW227321   6.590   1.476   2.437
 8808SOL     OW27322   5.937   1.801   2.715
 8808SOL    HW127323   5.987   1.715   2.721
 8808SOL    HW227324   6.002   1.878   2.712
 8809SOL     OW27325   6.813   1.550   3.368
 8809SOL    HW127326   6.819   1.473   3.432
 8809SOL    HW227327   6.761   1.524   3.288
 8810SOL     OW27328   5.907   0.943   2.104
 8810SOL    HW127329   5.989   0.982   2.062
 8810SOL    HW227330   5.880   0.861   2.055
 8811SOL     OW27331   6.047   1.266   3.589
 8811SOL    HW127332   5.997   1.267   3.503
 8811SOL    HW227333   5.984   1.248   3.665
 8812SOL     OW27334   6.697   1.776   2.099
 8812SOL    HW127335   6.637   1.714   2.149
 8812SOL    HW227336   6.728   1.732   2.014
 8813SOL     OW27337   5.788   0.285   3.360
 8813SOL    HW127338   5.708   0.345   3.347
 8813SOL    HW227339   5.778   0.236   3.446
 8814SOL     OW27340   6.050   1.743   2.185
 8814SOL    HW127341   6.083   1.782   2.271
 8814SOL    HW227342   6.126   1.736   2.120
 8815SOL     OW27343   5.835   1.785   3.103
 8815SOL    HW127344   5.892   1.720   3.153
 8815SOL    HW227345   5.819   1.752   3.010
 8816SOL     OW27346   6.526   1.698   2.766
 8816SOL    HW127347   6.606   1.641   2.787
 8816SOL    HW227348   6.477   1.658   2.689
 8817SOL     OW27349   5.968   0.700   2.342
 8817SOL    HW127350   6.013   0.610   2.339
 8817SOL    HW227351   5.874   0.689   2.375
 8818SOL     OW27352   6.200   0.122   1.979
 8818SOL    HW127353   6.298   0.100   1.986
 8818SOL    HW227354   6.169   0.105   1.886
 8819SOL     OW27355   6.367   0.264   3.611
 8819SOL    HW127356   6.434   0.203   3.654
 8819SOL    HW227357   6.294   0.283   3.676
 8820SOL     OW27358   6.474   1.514   3.057
 8820SOL    HW127359   6.451   1.489   2.963
 8820SOL    HW227360   6.535   1.445   3.096
 8821SOL     OW27361   6.389   1.402   2.786
 8821SOL    HW127362   6.479   1.416   2.744
 8821SOL    HW227363   6.318   1.404   2.715
 8822SOL     OW27364   6.508   0.503   2.761
 8822SOL    HW127365   6.483   0.494   2.665
 8822SOL    HW227366   6.556   0.421   2.792
 8823SOL     OW27367   6.125   0.064   2.374
 8823SOL    HW127368   6.044   0.065   2.432
 8823SOL    HW227369   6.128   0.147   2.319
 8824SOL     OW27370   7.020   1.188   1.903
 8824SOL    HW127371   7.052   1.112   1.960
 8824SOL    HW227372   6.928   1.215   1.933
 8825SOL     OW27373   5.883   0.035   2.033
 8825SOL    HW127374   5.932   0.119   2.012
 8825SOL    HW227375   5.945  -0.030   2.078
 8826SOL     OW27376   6.521   0.236   2.342
 8826SOL    HW127377   6.473   0.277   2.264
 8826SOL    HW227378   6.620   0.234   2.323
 8827SOL     OW27379   6.662   0.683   3.326
 8827SOL    HW127380   6.582   0.622   3.329
 8827SOL    HW227381   6.743   0.630   3.302
 8828SOL     OW27382   6.813   1.570   2.655
 8828SOL    HW127383   6.834   1.644   2.590
 8828SOL    HW227384   6.881   1.570   2.728
 8829SOL     OW27385   6.045   1.152   2.603
 8829SOL    HW127386   5.974   1.125   2.668
 8829SOL    HW227387   6.019   1.124   2.510
 8830SOL     OW27388   6.857   1.797   2.453
 8830SOL    HW127389   6.901   1.861   2.389
 8830SOL    HW227390   6.807   1.849   2.523
 8831SOL     OW27391   6.618   0.549   1.878
 8831SOL    HW127392   6.577   0.631   1.839
 8831SOL    HW227393   6.682   0.575   1.951
 8832SOL     OW27394   5.664   0.556   3.248
 8832SOL    HW127395   5.756   0.555   3.207
 8832SOL    HW227396   5.658   0.630   3.315
 8833SOL     OW27397   6.147   0.222   3.009
 8833SOL    HW127398   6.185   0.138   3.046
 8833SOL    HW227399   6.059   0.241   3.053
 8834SOL     OW27400   6.452   0.454   2.504
 8834SOL    HW127401   6.420   0.526   2.442
 8834SOL    HW227402   6.476   0.373   2.451
 8835SOL     OW27403   6.603   0.039   2.615
 8835SOL    HW127404   6.531   0.044   2.546
 8835SOL    HW227405   6.579  -0.030   2.684
 8836SOL     OW27406   6.074   1.385   2.036
 8836SOL    HW127407   5.987   1.370   2.083
 8836SOL    HW227408   6.057   1.411   1.941
 8837SOL     OW27409   6.113   0.256   2.190
 8837SOL    HW127410   6.140   0.197   2.115
 8837SOL    HW227411   6.113   0.351   2.159
 8838SOL     OW27412   6.650   1.347   3.202
 8838SOL    HW127413   6.570   1.324   3.257
 8838SOL    HW227414   6.733   1.321   3.251
 8839SOL     OW27415   6.697   1.195   2.962
 8839SOL    HW127416   6.657   1.239   3.043
 8839SOL    HW227417   6.656   1.232   2.879
 8840SOL     OW27418   6.501   0.089   3.264
 8840SOL    HW127419   6.526   0.069   3.169
 8840SOL    HW227420   6.573   0.145   3.306
 8841SOL     OW27421   6.566   1.116   3.581
 8841SOL    HW127422   6.467   1.122   3.591
 8841SOL    HW227423   6.589   1.036   3.525
 8842SOL     OW27424   6.291   1.050   2.230
 8842SOL    HW127425   6.277   1.057   2.329
 8842SOL    HW227426   6.375   0.999   2.212
 8843SOL     OW27427   5.996   0.813   3.113
 8843SOL    HW127428   6.082   0.825   3.163
 8843SOL    HW227429   5.954   0.726   3.140
 8844SOL     OW27430   6.860   0.386   3.124
 8844SOL    HW127431   6.881   0.460   3.188
 8844SOL    HW227432   6.771   0.403   3.081
 8845SOL     OW27433   5.650   1.564   3.193
 8845SOL    HW127434   5.604   1.646   3.159
 8845SOL    HW227435   5.748   1.583   3.202
 8846SOL     OW27436   5.953   1.100   2.363
 8846SOL    HW127437   5.946   1.183   2.307
 8846SOL    HW227438   5.957   1.020   2.303
 8847SOL     OW27439   6.152   0.537   2.727
 8847SOL    HW127440   6.164   0.603   2.653
 8847SOL    HW227441   6.198   0.571   2.810
 8848SOL     OW27442   6.838   1.348   2.250
 8848SOL    HW127443   6.888   1.425   2.290
 8848SOL    HW227444   6.743   1.350   2.282
 8849SOL     OW27445   6.858   1.445   3.004
 8849SOL    HW127446   6.905   1.458   3.091
 8849SOL    HW227447   6.792   1.371   3.013
 8850SOL     OW27448   5.940   1.510   3.191
 8850SOL    HW127449   5.919   1.466   3.104
 8850SOL    HW227450   6.037   1.536   3.194
 8851SOL     OW27451   5.988   0.751   3.460
 8851SOL    HW127452   6.056   0.806   3.413
 8851SOL    HW227453   6.028   0.663   3.487
 8852SOL     OW27454   6.599   0.105   3.632
 8852SOL    HW127455   6.605   0.190   3.580
 8852SOL    HW227456   6.631   0.029   3.575
 8853SOL     OW27457   6.090   0.050   3.602
 8853SOL    HW127458   6.048  -0.007   3.532
 8853SOL    HW227459   6.024   0.119   3.634
 8854SOL     OW27460   6.159   0.870   2.891
 8854SOL    HW127461   6.203   0.959   2.882
 8854SOL    HW227462   6.096   0.870   2.968
 8855SOL     OW27463   6.946   0.862   2.907
 8855SOL    HW127464   6.871   0.862   2.841
 8855SOL    HW227465   6.983   0.770   2.916
 8856SOL     OW27466   6.795   0.525   2.137
 8856SOL    HW127467   6.808   0.441   2.191
 8856SOL    HW227468   6.766   0.599   2.197
 8857SOL     OW27469   5.893   0.213   3.093
 8857SOL    HW127470   5.870   0.250   3.183
 8857SOL    HW227471   5.863   0.118   3.087
 8858SOL     OW27472   5.623   1.310   3.144
 8858SOL    HW127473   5.676   1.261   3.212
 8858SOL    HW227474   5.645   1.408   3.149
 8859SOL     OW27475   6.318   0.634   2.926
 8859SOL    HW127476   6.377   0.608   2.850
 8859SOL    HW227477   6.290   0.730   2.915
 8860SOL     OW27478   5.893   0.063   2.480
 8860SOL    HW127479   5.882   0.157   2.513
 8860SOL    HW227480   5.888   0.000   2.557
 8861SOL     OW27481   7.208   0.367   2.236
 8861SOL    HW127482   7.210   0.291   2.300
 8861SOL    HW227483   7.160   0.444   2.276
 8862SOL     OW27484   6.609   0.766   2.828
 8862SOL    HW127485   6.624   0.787   2.924
 8862SOL    HW227486   6.579   0.671   2.819
 8863SOL     OW27487   6.566   1.573   3.562
 8863SOL    HW127488   6.546   1.617   3.474
 8863SOL    HW227489   6.605   1.482   3.546
 8864SOL     OW27490   5.936   0.898   3.666
 8864SOL    HW127491   6.012   0.942   3.714
 8864SOL    HW227492   5.971   0.851   3.584
 8865SOL     OW27493   6.889   0.838   1.904
 8865SOL    HW127494   6.923   0.745   1.919
 8865SOL    HW227495   6.907   0.865   1.809
 8866SOL     OW27496   6.654   1.333   2.711
 8866SOL    HW127497   6.661   1.249   2.656
 8866SOL    HW227498   6.716   1.402   2.675
 8867SOL     OW27499   5.905   0.810   2.811
 8867SOL    HW127500   5.998   0.846   2.816
 8867SOL    HW227501   5.899   0.725   2.863
 8868SOL     OW27502   5.925   0.509   2.868
 8868SOL    HW127503   5.873   0.426   2.851
 8868SOL    HW227504   6.002   0.514   2.804
 8869SOL     OW27505   6.724   0.380   3.540
 8869SOL    HW127506   6.679   0.443   3.604
 8869SOL    HW227507   6.817   0.411   3.523
 8870SOL     OW27508   6.746   0.207   3.339
 8870SOL    HW127509   6.746   0.271   3.416
 8870SOL    HW227510   6.774   0.255   3.256
 8871SOL     OW27511   5.594   1.326   2.062
 8871SOL    HW127512   5.501   1.347   2.031
 8871SOL    HW227513   5.604   1.227   2.075
 8872SOL     OW27514   5.674   1.801   2.789
 8872SOL    HW127515   5.632   1.715   2.762
 8872SOL    HW227516   5.768   1.804   2.755
 8873SOL     OW27517   6.090   1.568   2.772
 8873SOL    HW127518   6.156   1.642   2.781
 8873SOL    HW227519   6.134   1.489   2.730
 8874SOL     OW27520   6.588   0.796   3.100
 8874SOL    HW127521   6.629   0.764   3.186
 8874SOL    HW227522   6.492   0.769   3.097
 8875SOL     OW27523   5.626   0.544   2.976
 8875SOL    HW127524   5.711   0.511   2.935
 8875SOL    HW227525   5.639   0.559   3.074
 8876SOL     OW27526   5.775   0.520   3.584
 8876SOL    HW127527   5.834   0.480   3.514
 8876SOL    HW227528   5.717   0.591   3.543
 8877SOL     OW27529   6.401   0.572   2.187
 8877SOL    HW127530   6.408   0.483   2.141
 8877SOL    HW227531   6.307   0.606   2.179
 8878SOL     OW27532   5.838   1.564   3.606
 8878SOL    HW127533   5.808   1.621   3.682
 8878SOL    HW227534   5.831   1.467   3.632
 8879SOL     OW27535   6.257   0.464   3.131
 8879SOL    HW127536   6.223   0.375   3.101
 8879SOL    HW227537   6.283   0.518   3.051
 8880SOL     OW27538   6.516   1.678   3.327
 8880SOL    HW127539   6.492   1.660   3.232
 8880SOL    HW227540   6.546   1.772   3.337
 8881SOL     OW27541   6.059   0.500   2.053
 8881SOL    HW127542   6.120   0.580   2.057
 8881SOL    HW227543   5.964   0.531   2.060
 8882SOL     OW27544   5.745   1.137   3.328
 8882SOL    HW127545   5.767   1.076   3.404
 8882SOL    HW227546   5.755   1.088   3.242
 8883SOL     OW27547   6.933   1.059   3.096
 8883SOL    HW127548   6.957   0.996   3.022
 8883SOL    HW227549   6.843   1.099   3.078
 8884SOL     OW27550   6.888   0.855   2.171
 8884SOL    HW127551   6.802   0.824   2.213
 8884SOL    HW227552   6.884   0.841   2.072
 8885SOL     OW27553   6.838   1.731   2.990
 8885SOL    HW127554   6.922   1.736   2.936
 8885SOL    HW227555   6.815   1.635   3.008
 8886SOL     OW27556   5.669   1.258   2.884
 8886SOL    HW127557   5.664   1.257   2.984
 8886SOL    HW227558   5.586   1.217   2.846
 8887SOL     OW27559   6.274   1.662   3.578
 8887SOL    HW127560   6.218   1.743   3.587
 8887SOL    HW227561   6.326   1.666   3.492
 8888SOL     OW27562   6.974   1.573   2.339
 8888SOL    HW127563   7.041   1.585   2.265
 8888SOL    HW227564   6.934   1.662   2.362
 8889SOL     OW27565   5.716   1.794   3.713
 8889SOL    HW127566   5.675   1.720   3.766
 8889SOL    HW227567   5.780   1.845   3.771
 8890SOL     OW27568   6.866   0.927   2.534
 8890SOL    HW127569   6.926   0.846   2.536
 8890SOL    HW227570   6.906   0.996   2.474
 8891SOL     OW27571   6.416   1.273   3.284
 8891SOL    HW127572   6.411   1.306   3.379
 8891SOL    HW227573   6.330   1.292   3.238
 8892SOL     OW27574   6.258   1.616   2.016
 8892SOL    HW127575   6.267   1.626   1.917
 8892SOL    HW227576   6.218   1.527   2.037
 8893SOL     OW27577   5.849   0.326   2.582
 8893SOL    HW127578   5.770   0.377   2.548
 8893SOL    HW227579   5.840   0.311   2.680
 8894SOL     OW27580   6.780   1.612   1.893
 8894SOL    HW127581   6.786   1.519   1.930
 8894SOL    HW227582   6.721   1.612   1.813
 8895SOL     OW27583   6.408   1.002   3.234
 8895SOL    HW127584   6.448   1.001   3.142
 8895SOL    HW227585   6.418   1.094   3.274
 8896SOL     OW27586   6.502   0.910   2.153
 8896SOL    HW127587   6.565   0.948   2.085
 8896SOL    HW227588   6.542   0.827   2.192
 8897SOL     OW27589   5.958   1.288   3.352
 8897SOL    HW127590   5.945   1.381   3.318
 8897SOL    HW227591   5.874   1.236   3.339
 8898SOL     OW27592   6.625   1.098   2.558
 8898SOL    HW127593   6.555   1.051   2.612
 8898SOL    HW227594   6.684   1.030   2.515
 8899SOL     OW27595   6.600   0.236   2.833
 8899SOL    HW127596   6.592   0.200   2.740
 8899SOL    HW227597   6.598   0.160   2.898
 8900SOL     OW27598   6.176   1.487   2.353
 8900SOL    HW127599   6.218   1.429   2.283
 8900SOL    HW227600   6.132   1.566   2.309
 8901SOL     OW27601   5.841   1.348   2.152
 8901SOL    HW127602   5.745   1.349   2.125
 8901SOL    HW227603   5.853   1.401   2.236
 8902SOL     OW27604   5.691   1.013   3.588
 8902SOL    HW127605   5.614   0.980   3.642
 8902SOL    HW227606   5.776   0.983   3.630
 8903SOL     OW27607   6.258   0.203   3.351
 8903SOL    HW127608   6.348   0.187   3.311
 8903SOL    HW227609   6.266   0.208   3.450
 8904SOL     OW27610   5.661   0.345   1.895
 8904SOL    HW127611   5.569   0.317   1.866
 8904SOL    HW227612   5.692   0.422   1.839
 8905SOL     OW27613   5.658   0.166   2.180
 8905SOL    HW127614   5.641   0.249   2.126
 8905SOL    HW227615   5.748   0.129   2.158
 8906SOL     OW27616   6.199   0.842   3.293
 8906SOL    HW127617   6.255   0.923   3.276
 8906SOL    HW227618   6.258   0.762   3.296
 8907SOL     OW27619   6.302   0.565   3.570
 8907SOL    HW127620   6.321   0.630   3.644
 8907SOL    HW227621   6.362   0.485   3.579
 8908SOL     OW27622   7.036   1.220   3.495
 8908SOL    HW127623   7.027   1.210   3.594
 8908SOL    HW227624   7.132   1.213   3.469
 8909SOL     OW27625   5.976   1.741   3.422
 8909SOL    HW127626   5.885   1.782   3.420
 8909SOL    HW227627   5.969   1.647   3.454
 8910SOL     OW27628   6.811   0.325   2.311
 8910SOL    HW127629   6.876   0.251   2.300
 8910SOL    HW227630   6.831   0.375   2.395
 8911SOL     OW27631   6.180   0.745   2.514
 8911SOL    HW127632   6.230   0.830   2.495
 8911SOL    HW227633   6.092   0.747   2.466
 8912SOL     OW27634   6.445   1.374   1.878
 8912SOL    HW127635   6.399   1.389   1.966
 8912SOL    HW227636   6.489   1.459   1.848
 8913SOL     OW27637   6.247   1.790   2.815
 8913SOL    HW127638   6.201   1.878   2.802
 8913SOL    HW227639   6.346   1.802   2.808
 8914SOL     OW27640   6.445   0.956   2.723
 8914SOL    HW127641   6.499   0.887   2.771
 8914SOL    HW227642   6.413   1.025   2.789
 8915SOL     OW27643   6.669   0.984   1.949
 8915SOL    HW127644   6.646   1.037   1.867
 8915SOL    HW227645   6.750   0.928   1.930
 8916SOL     OW27646   5.807   1.314   3.706
 8916SOL    HW127647   5.742   1.241   3.685
 8916SOL    HW227648   5.811   1.328   3.804
 8917SOL     OW27649   5.665   1.240   2.515
 8917SOL    HW127650   5.664   1.193   2.603
 8917SOL    HW227651   5.747   1.212   2.464
 8918SOL     OW27652   6.258   1.391   3.486
 8918SOL    HW127653   6.180   1.341   3.524
 8918SOL    HW227654   6.255   1.486   3.517
 8919SOL     OW27655   6.014   0.424   2.382
 8919SOL    HW127656   6.044   0.352   2.320
 8919SOL    HW227657   5.975   0.384   2.465
 8920SOL     OW27658   5.903   0.547   3.142
 8920SOL    HW127659   5.941   0.488   3.214
 8920SOL    HW227660   5.943   0.521   3.054
 8921SOL     OW27661   6.398   1.586   2.549
 8921SOL    HW127662   6.430   1.596   2.455
 8921SOL    HW227663   6.319   1.524   2.551
 8922SOL     OW27664   7.010   0.214   2.974
 8922SOL    HW127665   7.062   0.149   3.029
 8922SOL    HW227666   6.961   0.277   3.035
 8923SOL     OW27667   6.587   0.034   3.016
 8923SOL    HW127668   6.524  -0.038   2.985
 8923SOL    HW227669   6.680  -0.002   3.016
 8924SOL     OW27670   6.356   1.330   2.163
 8924SOL    HW127671   6.310   1.243   2.180
 8924SOL    HW227672   6.447   1.327   2.204
 8925SOL     OW27673   6.204   1.567   3.146
 8925SOL    HW127674   6.199   1.649   3.203
 8925SOL    HW227675   6.293   1.564   3.101
 8926SOL     OW27676   5.625   1.077   2.162
 8926SOL    HW127677   5.724   1.066   2.153
 8926SOL    HW227678   5.585   0.991   2.194
 8927SOL     OW27679   6.461   1.646   2.199
 8927SOL    HW127680   6.384   1.611   2.145
 8927SOL    HW227681   6.429   1.717   2.261
 8928SOL     OW27682   5.816   0.628   3.837
 8928SOL    HW127683   5.723   0.626   3.874
 8928SOL    HW227684   5.817   0.589   3.745
 8929SOL     OW27685   5.811   0.275   4.720
 8929SOL    HW127686   5.846   0.258   4.812
 8929SOL    HW227687   5.723   0.230   4.708
 8930SOL     OW27688   5.605   0.368   4.371
 8930SOL    HW127689   5.523   0.411   4.410
 8930SOL    HW227690   5.577   0.295   4.308
 8931SOL     OW27691   6.155   1.275   4.889
 8931SOL    HW127692   6.062   1.268   4.852
 8931SOL    HW227693   6.166   1.364   4.933
 8932SOL     OW27694   7.141   1.511   4.427
 8932SOL    HW127695   7.084   1.495   4.508
 8932SOL    HW227696   7.082   1.521   4.347
 8933SOL     OW27697   6.721   0.703   4.441
 8933SOL    HW127698   6.778   0.781   4.416
 8933SOL    HW227699   6.661   0.729   4.517
 8934SOL     OW27700   6.354   1.144   4.747
 8934SOL    HW127701   6.276   1.161   4.807
 8934SOL    HW227702   6.388   1.231   4.711
 8935SOL     OW27703   6.436   0.798   5.547
 8935SOL    HW127704   6.432   0.874   5.612
 8935SOL    HW227705   6.458   0.834   5.456
 8936SOL     OW27706   6.271   1.012   4.389
 8936SOL    HW127707   6.340   0.996   4.459
 8936SOL    HW227708   6.198   1.069   4.427
 8937SOL     OW27709   6.272   1.161   5.527
 8937SOL    HW127710   6.332   1.240   5.541
 8937SOL    HW227711   6.186   1.192   5.486
 8938SOL     OW27712   5.921   1.435   4.785
 8938SOL    HW127713   5.843   1.404   4.732
 8938SOL    HW227714   5.979   1.493   4.728
 8939SOL     OW27715   6.024   0.392   5.223
 8939SOL    HW127716   6.106   0.336   5.232
 8939SOL    HW227717   5.943   0.334   5.227
 8940SOL     OW27718   5.817   1.713   4.207
 8940SOL    HW127719   5.851   1.790   4.261
 8940SOL    HW227720   5.861   1.713   4.117
 8941SOL     OW27721   6.713   1.341   5.414
 8941SOL    HW127722   6.760   1.341   5.502
 8941SOL    HW227723   6.665   1.254   5.403
 8942SOL     OW27724   5.816   1.434   4.262
 8942SOL    HW127725   5.790   1.530   4.262
 8942SOL    HW227726   5.745   1.380   4.307
 8943SOL     OW27727   5.826   1.091   4.610
 8943SOL    HW127728   5.840   1.007   4.662
 8943SOL    HW227729   5.771   1.155   4.665
 8944SOL     OW27730   6.206   1.786   5.163
 8944SOL    HW127731   6.114   1.769   5.198
 8944SOL    HW227732   6.234   1.878   5.189
 8945SOL     OW27733   6.192   0.964   3.847
 8945SOL    HW127734   6.199   1.048   3.793
 8945SOL    HW227735   6.238   0.977   3.935
 8946SOL     OW27736   5.708   0.643   4.287
 8946SOL    HW127737   5.663   0.555   4.304
 8946SOL    HW227738   5.707   0.697   4.371
 8947SOL     OW27739   5.613   1.596   3.841
 8947SOL    HW127740   5.594   1.500   3.862
 8947SOL    HW227741   5.580   1.654   3.916
 8948SOL     OW27742   5.699   0.737   5.321
 8948SOL    HW127743   5.787   0.724   5.366
 8948SOL    HW227744   5.686   0.834   5.299
 8949SOL     OW27745   6.199   1.365   4.450
 8949SOL    HW127746   6.150   1.278   4.459
 8949SOL    HW227747   6.176   1.408   4.363
 8950SOL     OW27748   6.879   1.228   5.147
 8950SOL    HW127749   6.916   1.155   5.089
 8950SOL    HW227750   6.931   1.233   5.232
 8951SOL     OW27751   6.395   0.004   4.226
 8951SOL    HW127752   6.435   0.095   4.217
 8951SOL    HW227753   6.295   0.012   4.232
 8952SOL     OW27754   5.783   0.976   4.988
 8952SOL    HW127755   5.872   0.931   4.974
 8952SOL    HW227756   5.710   0.911   4.969
 8953SOL     OW27757   6.773   1.792   5.340
 8953SOL    HW127758   6.797   1.852   5.264
 8953SOL    HW227759   6.780   1.697   5.310
 8954SOL     OW27760   5.903   0.251   5.525
 8954SOL    HW127761   5.974   0.322   5.531
 8954SOL    HW227762   5.815   0.290   5.553
 8955SOL     OW27763   6.184   0.729   3.994
 8955SOL    HW127764   6.208   0.798   3.926
 8955SOL    HW227765   6.106   0.762   4.048
 8956SOL     OW27766   6.867   0.345   4.668
 8956SOL    HW127767   6.781   0.295   4.655
 8956SOL    HW227768   6.929   0.291   4.724
 8957SOL     OW27769   6.393   0.605   5.189
 8957SOL    HW127770   6.346   0.602   5.278
 8957SOL    HW227771   6.342   0.550   5.123
 8958SOL     OW27772   6.980   0.469   5.398
 8958SOL    HW127773   6.960   0.512   5.486
 8958SOL    HW227774   7.058   0.407   5.407
 8959SOL     OW27775   6.559   0.890   5.296
 8959SOL    HW127776   6.605   0.806   5.267
 8959SOL    HW227777   6.503   0.924   5.221
 8960SOL     OW27778   6.577   0.410   4.966
 8960SOL    HW127779   6.500   0.444   5.020
 8960SOL    HW227780   6.543   0.359   4.887
 8961SOL     OW27781   6.627   0.701   4.153
 8961SOL    HW127782   6.653   0.697   4.249
 8961SOL    HW227783   6.542   0.650   4.139
 8962SOL     OW27784   5.662   0.811   4.513
 8962SOL    HW127785   5.761   0.799   4.522
 8962SOL    HW227786   5.638   0.906   4.534
 8963SOL     OW27787   5.716   1.821   5.295
 8963SOL    HW127788   5.706   1.806   5.394
 8963SOL    HW227789   5.630   1.857   5.259
 8964SOL     OW27790   6.451   0.348   3.919
 8964SOL    HW127791   6.510   0.411   3.870
 8964SOL    HW227792   6.470   0.254   3.890
 8965SOL     OW27793   6.948   1.144   4.269
 8965SOL    HW127794   7.031   1.115   4.221
 8965SOL    HW227795   6.899   1.211   4.213
 8966SOL     OW27796   6.136   0.196   4.609
 8966SOL    HW127797   6.131   0.191   4.709
 8966SOL    HW227798   6.138   0.292   4.580
 8967SOL     OW27799   6.594   1.456   4.201
 8967SOL    HW127800   6.548   1.528   4.149
 8967SOL    HW227801   6.590   1.476   4.299
 8968SOL     OW27802   5.937   1.801   4.577
 8968SOL    HW127803   5.987   1.715   4.583
 8968SOL    HW227804   6.002   1.878   4.574
 8969SOL     OW27805   6.813   1.550   5.230
 8969SOL    HW127806   6.819   1.473   5.294
 8969SOL    HW227807   6.761   1.524   5.150
 8970SOL     OW27808   5.907   0.943   3.966
 8970SOL    HW127809   5.989   0.982   3.924
 8970SOL    HW227810   5.880   0.861   3.917
 8971SOL     OW27811   6.047   1.266   5.451
 8971SOL    HW127812   5.997   1.267   5.365
 8971SOL    HW227813   5.984   1.248   5.527
 8972SOL     OW27814   6.697   1.776   3.961
 8972SOL    HW127815   6.637   1.714   4.011
 8972SOL    HW227816   6.728   1.732   3.876
 8973SOL     OW27817   5.788   0.285   5.222
 8973SOL    HW127818   5.708   0.345   5.209
 8973SOL    HW227819   5.778   0.236   5.308
 8974SOL     OW27820   6.050   1.743   4.047
 8974SOL    HW127821   6.083   1.782   4.133
 8974SOL    HW227822   6.126   1.736   3.982
 8975SOL     OW27823   5.835   1.785   4.965
 8975SOL    HW127824   5.892   1.720   5.015
 8975SOL    HW227825   5.819   1.752   4.872
 8976SOL     OW27826   6.526   1.698   4.628
 8976SOL    HW127827   6.606   1.641   4.649
 8976SOL    HW227828   6.477   1.658   4.551
 8977SOL     OW27829   5.968   0.700   4.204
 8977SOL    HW127830   6.013   0.610   4.201
 8977SOL    HW227831   5.874   0.689   4.237
 8978SOL     OW27832   6.200   0.122   3.841
 8978SOL    HW127833   6.298   0.100   3.848
 8978SOL    HW227834   6.169   0.105   3.748
 8979SOL     OW27835   6.367   0.264   5.473
 8979SOL    HW127836   6.434   0.203   5.516
 8979SOL    HW227837   6.294   0.283   5.538
 8980SOL     OW27838   6.474   1.514   4.919
 8980SOL    HW127839   6.451   1.489   4.825
 8980SOL    HW227840   6.535   1.445   4.958
 8981SOL     OW27841   6.389   1.402   4.648
 8981SOL    HW127842   6.479   1.416   4.606
 8981SOL    HW227843   6.318   1.404   4.577
 8982SOL     OW27844   6.508   0.503   4.623
 8982SOL    HW127845   6.483   0.494   4.527
 8982SOL    HW227846   6.556   0.421   4.654
 8983SOL     OW27847   6.125   0.064   4.236
 8983SOL    HW127848   6.044   0.065   4.294
 8983SOL    HW227849   6.128   0.147   4.181
 8984SOL     OW27850   7.020   1.188   3.765
 8984SOL    HW127851   7.052   1.112   3.822
 8984SOL    HW227852   6.928   1.215   3.795
 8985SOL     OW27853   5.883   0.035   3.895
 8985SOL    HW127854   5.932   0.119   3.874
 8985SOL    HW227855   5.945  -0.030   3.940
 8986SOL     OW27856   6.521   0.236   4.204
 8986SOL    HW127857   6.473   0.277   4.126
 8986SOL    HW227858   6.620   0.234   4.185
 8987SOL     OW27859   6.662   0.683   5.188
 8987SOL    HW127860   6.582   0.622   5.191
 8987SOL    HW227861   6.743   0.630   5.164
 8988SOL     OW27862   6.813   1.570   4.517
 8988SOL    HW127863   6.834   1.644   4.452
 8988SOL    HW227864   6.881   1.570   4.590
 8989SOL     OW27865   6.045   1.152   4.465
 8989SOL    HW127866   5.974   1.125   4.530
 8989SOL    HW227867   6.019   1.124   4.372
 8990SOL     OW27868   6.857   1.797   4.315
 8990SOL    HW127869   6.901   1.861   4.251
 8990SOL    HW227870   6.807   1.849   4.385
 8991SOL     OW27871   6.618   0.549   3.740
 8991SOL    HW127872   6.577   0.631   3.701
 8991SOL    HW227873   6.682   0.575   3.813
 8992SOL     OW27874   5.664   0.556   5.110
 8992SOL    HW127875   5.756   0.555   5.069
 8992SOL    HW227876   5.658   0.630   5.177
 8993SOL     OW27877   6.147   0.222   4.871
 8993SOL    HW127878   6.185   0.138   4.908
 8993SOL    HW227879   6.059   0.241   4.915
 8994SOL     OW27880   6.452   0.454   4.366
 8994SOL    HW127881   6.420   0.526   4.304
 8994SOL    HW227882   6.476   0.373   4.313
 8995SOL     OW27883   6.603   0.039   4.477
 8995SOL    HW127884   6.531   0.044   4.408
 8995SOL    HW227885   6.579  -0.030   4.546
 8996SOL     OW27886   6.074   1.385   3.898
 8996SOL    HW127887   5.987   1.370   3.945
 8996SOL    HW227888   6.057   1.411   3.803
 8997SOL     OW27889   6.113   0.256   4.052
 8997SOL    HW127890   6.140   0.197   3.977
 8997SOL    HW227891   6.113   0.351   4.021
 8998SOL     OW27892   6.650   1.347   5.064
 8998SOL    HW127893   6.570   1.324   5.119
 8998SOL    HW227894   6.733   1.321   5.113
 8999SOL     OW27895   6.697   1.195   4.824
 8999SOL    HW127896   6.657   1.239   4.905
 8999SOL    HW227897   6.656   1.232   4.741
 9000SOL     OW27898   6.501   0.089   5.126
 9000SOL    HW127899   6.526   0.069   5.031
 9000SOL    HW227900   6.573   0.145   5.168
 9001SOL     OW27901   6.566   1.116   5.443
 9001SOL    HW127902   6.467   1.122   5.453
 9001SOL    HW227903   6.589   1.036   5.387
 9002SOL     OW27904   6.291   1.050   4.092
 9002SOL    HW127905   6.277   1.057   4.191
 9002SOL    HW227906   6.375   0.999   4.074
 9003SOL     OW27907   5.996   0.813   4.975
 9003SOL    HW127908   6.082   0.825   5.025
 9003SOL    HW227909   5.954   0.726   5.002
 9004SOL     OW27910   6.860   0.386   4.986
 9004SOL    HW127911   6.881   0.460   5.050
 9004SOL    HW227912   6.771   0.403   4.943
 9005SOL     OW27913   5.650   1.564   5.055
 9005SOL    HW127914   5.604   1.646   5.021
 9005SOL    HW227915   5.748   1.583   5.064
 9006SOL     OW27916   5.953   1.100   4.225
 9006SOL    HW127917   5.946   1.183   4.169
 9006SOL    HW227918   5.957   1.020   4.165
 9007SOL     OW27919   6.152   0.537   4.589
 9007SOL    HW127920   6.164   0.603   4.515
 9007SOL    HW227921   6.198   0.571   4.672
 9008SOL     OW27922   6.838   1.348   4.112
 9008SOL    HW127923   6.888   1.425   4.152
 9008SOL    HW227924   6.743   1.350   4.144
 9009SOL     OW27925   6.858   1.445   4.866
 9009SOL    HW127926   6.905   1.458   4.953
 9009SOL    HW227927   6.792   1.371   4.875
 9010SOL     OW27928   5.940   1.510   5.053
 9010SOL    HW127929   5.919   1.466   4.966
 9010SOL    HW227930   6.037   1.536   5.056
 9011SOL     OW27931   5.988   0.751   5.322
 9011SOL    HW127932   6.056   0.806   5.275
 9011SOL    HW227933   6.028   0.663   5.349
 9012SOL     OW27934   6.599   0.105   5.494
 9012SOL    HW127935   6.605   0.190   5.442
 9012SOL    HW227936   6.631   0.029   5.437
 9013SOL     OW27937   6.090   0.050   5.464
 9013SOL    HW127938   6.048  -0.007   5.394
 9013SOL    HW227939   6.024   0.119   5.496
 9014SOL     OW27940   6.159   0.870   4.753
 9014SOL    HW127941   6.203   0.959   4.744
 9014SOL    HW227942   6.096   0.870   4.830
 9015SOL     OW27943   6.946   0.862   4.769
 9015SOL    HW127944   6.871   0.862   4.703
 9015SOL    HW227945   6.983   0.770   4.778
 9016SOL     OW27946   6.795   0.525   3.999
 9016SOL    HW127947   6.808   0.441   4.053
 9016SOL    HW227948   6.766   0.599   4.059
 9017SOL     OW27949   5.893   0.213   4.955
 9017SOL    HW127950   5.870   0.250   5.045
 9017SOL    HW227951   5.863   0.118   4.949
 9018SOL     OW27952   5.623   1.310   5.006
 9018SOL    HW127953   5.676   1.261   5.074
 9018SOL    HW227954   5.645   1.408   5.011
 9019SOL     OW27955   6.318   0.634   4.788
 9019SOL    HW127956   6.377   0.608   4.712
 9019SOL    HW227957   6.290   0.730   4.777
 9020SOL     OW27958   5.893   0.063   4.342
 9020SOL    HW127959   5.882   0.157   4.375
 9020SOL    HW227960   5.888   0.000   4.419
 9021SOL     OW27961   7.208   0.367   4.098
 9021SOL    HW127962   7.210   0.291   4.162
 9021SOL    HW227963   7.160   0.444   4.138
 9022SOL     OW27964   6.609   0.766   4.690
 9022SOL    HW127965   6.624   0.787   4.786
 9022SOL    HW227966   6.579   0.671   4.681
 9023SOL     OW27967   6.566   1.573   5.424
 9023SOL    HW127968   6.546   1.617   5.336
 9023SOL    HW227969   6.605   1.482   5.408
 9024SOL     OW27970   5.936   0.898   5.528
 9024SOL    HW127971   6.012   0.942   5.576
 9024SOL    HW227972   5.971   0.851   5.446
 9025SOL     OW27973   6.889   0.838   3.766
 9025SOL    HW127974   6.923   0.745   3.781
 9025SOL    HW227975   6.907   0.865   3.671
 9026SOL     OW27976   6.654   1.333   4.573
 9026SOL    HW127977   6.661   1.249   4.518
 9026SOL    HW227978   6.716   1.402   4.537
 9027SOL     OW27979   5.905   0.810   4.673
 9027SOL    HW127980   5.998   0.846   4.678
 9027SOL    HW227981   5.899   0.725   4.725
 9028SOL     OW27982   5.925   0.509   4.730
 9028SOL    HW127983   5.873   0.426   4.713
 9028SOL    HW227984   6.002   0.514   4.666
 9029SOL     OW27985   6.724   0.380   5.402
 9029SOL    HW127986   6.679   0.443   5.466
 9029SOL    HW227987   6.817   0.411   5.385
 9030SOL     OW27988   6.746   0.207   5.201
 9030SOL    HW127989   6.746   0.271   5.278
 9030SOL    HW227990   6.774   0.255   5.118
 9031SOL     OW27991   5.594   1.326   3.924
 9031SOL    HW127992   5.501   1.347   3.893
 9031SOL    HW227993   5.604   1.227   3.937
 9032SOL     OW27994   5.674   1.801   4.651
 9032SOL    HW127995   5.632   1.715   4.624
 9032SOL    HW227996   5.768   1.804   4.617
 9033SOL     OW27997   6.090   1.568   4.634
 9033SOL    HW127998   6.156   1.642   4.643
 9033SOL    HW227999   6.134   1.489   4.592
 9034SOL     OW28000   6.588   0.796   4.962
 9034SOL    HW128001   6.629   0.764   5.048
 9034SOL    HW228002   6.492   0.769   4.959
 9035SOL     OW28003   5.626   0.544   4.838
 9035SOL    HW128004   5.711   0.511   4.797
 9035SOL    HW228005   5.639   0.559   4.936
 9036SOL     OW28006   5.775   0.520   5.446
 9036SOL    HW128007   5.834   0.480   5.376
 9036SOL    HW228008   5.717   0.591   5.405
 9037SOL     OW28009   6.401   0.572   4.049
 9037SOL    HW128010   6.408   0.483   4.003
 9037SOL    HW228011   6.307   0.606   4.041
 9038SOL     OW28012   5.838   1.564   5.468
 9038SOL    HW128013   5.808   1.621   5.544
 9038SOL    HW228014   5.831   1.467   5.494
 9039SOL     OW28015   6.257   0.464   4.993
 9039SOL    HW128016   6.223   0.375   4.963
 9039SOL    HW228017   6.283   0.518   4.913
 9040SOL     OW28018   6.516   1.678   5.189
 9040SOL    HW128019   6.492   1.660   5.094
 9040SOL    HW228020   6.546   1.772   5.199
 9041SOL     OW28021   6.059   0.500   3.915
 9041SOL    HW128022   6.120   0.580   3.919
 9041SOL    HW228023   5.964   0.531   3.922
 9042SOL     OW28024   5.745   1.137   5.190
 9042SOL    HW128025   5.767   1.076   5.266
 9042SOL    HW228026   5.755   1.088   5.104
 9043SOL     OW28027   6.933   1.059   4.958
 9043SOL    HW128028   6.957   0.996   4.884
 9043SOL    HW228029   6.843   1.099   4.940
 9044SOL     OW28030   6.888   0.855   4.033
 9044SOL    HW128031   6.802   0.824   4.075
 9044SOL    HW228032   6.884   0.841   3.934
 9045SOL     OW28033   6.838   1.731   4.852
 9045SOL    HW128034   6.922   1.736   4.798
 9045SOL    HW228035   6.815   1.635   4.870
 9046SOL     OW28036   5.669   1.258   4.746
 9046SOL    HW128037   5.664   1.257   4.846
 9046SOL    HW228038   5.586   1.217   4.708
 9047SOL     OW28039   6.274   1.662   5.440
 9047SOL    HW128040   6.218   1.743   5.449
 9047SOL    HW228041   6.326   1.666   5.354
 9048SOL     OW28042   6.974   1.573   4.201
 9048SOL    HW128043   7.041   1.585   4.127
 9048SOL    HW228044   6.934   1.662   4.224
 9049SOL     OW28045   5.716   1.794   5.575
 9049SOL    HW128046   5.675   1.720   5.628
 9049SOL    HW228047   5.780   1.845   5.633
 9050SOL     OW28048   6.866   0.927   4.396
 9050SOL    HW128049   6.926   0.846   4.398
 9050SOL    HW228050   6.906   0.996   4.336
 9051SOL     OW28051   6.416   1.273   5.146
 9051SOL    HW128052   6.411   1.306   5.241
 9051SOL    HW228053   6.330   1.292   5.100
 9052SOL     OW28054   6.258   1.616   3.878
 9052SOL    HW128055   6.267   1.626   3.779
 9052SOL    HW228056   6.218   1.527   3.899
 9053SOL     OW28057   5.849   0.326   4.444
 9053SOL    HW128058   5.770   0.377   4.410
 9053SOL    HW228059   5.840   0.311   4.542
 9054SOL     OW28060   6.780   1.612   3.755
 9054SOL    HW128061   6.786   1.519   3.792
 9054SOL    HW228062   6.721   1.612   3.675
 9055SOL     OW28063   6.408   1.002   5.096
 9055SOL    HW128064   6.448   1.001   5.004
 9055SOL    HW228065   6.418   1.094   5.136
 9056SOL     OW28066   6.502   0.910   4.015
 9056SOL    HW128067   6.565   0.948   3.947
 9056SOL    HW228068   6.542   0.827   4.054
 9057SOL     OW28069   5.958   1.288   5.214
 9057SOL    HW128070   5.945   1.381   5.180
 9057SOL    HW228071   5.874   1.236   5.201
 9058SOL     OW28072   6.625   1.098   4.420
 9058SOL    HW128073   6.555   1.051   4.474
 9058SOL    HW228074   6.684   1.030   4.377
 9059SOL     OW28075   6.600   0.236   4.695
 9059SOL    HW128076   6.592   0.200   4.602
 9059SOL    HW228077   6.598   0.160   4.760
 9060SOL     OW28078   6.176   1.487   4.215
 9060SOL    HW128079   6.218   1.429   4.145
 9060SOL    HW228080   6.132   1.566   4.171
 9061SOL     OW28081   5.841   1.348   4.014
 9061SOL    HW128082   5.745   1.349   3.987
 9061SOL    HW228083   5.853   1.401   4.098
 9062SOL     OW28084   5.691   1.013   5.450
 9062SOL    HW128085   5.614   0.980   5.504
 9062SOL    HW228086   5.776   0.983   5.492
 9063SOL     OW28087   6.258   0.203   5.213
 9063SOL    HW128088   6.348   0.187   5.173
 9063SOL    HW228089   6.266   0.208   5.312
 9064SOL     OW28090   5.661   0.345   3.757
 9064SOL    HW128091   5.569   0.317   3.728
 9064SOL    HW228092   5.692   0.422   3.701
 9065SOL     OW28093   5.658   0.166   4.042
 9065SOL    HW128094   5.641   0.249   3.988
 9065SOL    HW228095   5.748   0.129   4.020
 9066SOL     OW28096   6.199   0.842   5.155
 9066SOL    HW128097   6.255   0.923   5.138
 9066SOL    HW228098   6.258   0.762   5.158
 9067SOL     OW28099   6.302   0.565   5.432
 9067SOL    HW128100   6.321   0.630   5.506
 9067SOL    HW228101   6.362   0.485   5.441
 9068SOL     OW28102   7.036   1.220   5.357
 9068SOL    HW128103   7.027   1.210   5.456
 9068SOL    HW228104   7.132   1.213   5.331
 9069SOL     OW28105   5.976   1.741   5.284
 9069SOL    HW128106   5.885   1.782   5.282
 9069SOL    HW228107   5.969   1.647   5.316
 9070SOL     OW28108   6.811   0.325   4.173
 9070SOL    HW128109   6.876   0.251   4.162
 9070SOL    HW228110   6.831   0.375   4.257
 9071SOL     OW28111   6.180   0.745   4.376
 9071SOL    HW128112   6.230   0.830   4.357
 9071SOL    HW228113   6.092   0.747   4.328
 9072SOL     OW28114   6.445   1.374   3.740
 9072SOL    HW128115   6.399   1.389   3.828
 9072SOL    HW228116   6.489   1.459   3.710
 9073SOL     OW28117   6.247   1.790   4.677
 9073SOL    HW128118   6.201   1.878   4.664
 9073SOL    HW228119   6.346   1.802   4.670
 9074SOL     OW28120   6.445   0.956   4.585
 9074SOL    HW128121   6.499   0.887   4.633
 9074SOL    HW228122   6.413   1.025   4.651
 9075SOL     OW28123   6.669   0.984   3.811
 9075SOL    HW128124   6.646   1.037   3.729
 9075SOL    HW228125   6.750   0.928   3.792
 9076SOL     OW28126   5.807   1.314   5.568
 9076SOL    HW128127   5.742   1.241   5.547
 9076SOL    HW228128   5.811   1.328   5.666
 9077SOL     OW28129   5.665   1.240   4.377
 9077SOL    HW128130   5.664   1.193   4.465
 9077SOL    HW228131   5.747   1.212   4.326
 9078SOL     OW28132   6.258   1.391   5.348
 9078SOL    HW128133   6.180   1.341   5.386
 9078SOL    HW228134   6.255   1.486   5.379
 9079SOL     OW28135   6.014   0.424   4.244
 9079SOL    HW128136   6.044   0.352   4.182
 9079SOL    HW228137   5.975   0.384   4.327
 9080SOL     OW28138   5.903   0.547   5.004
 9080SOL    HW128139   5.941   0.488   5.076
 9080SOL    HW228140   5.943   0.521   4.916
 9081SOL     OW28141   6.398   1.586   4.411
 9081SOL    HW128142   6.430   1.596   4.317
 9081SOL    HW228143   6.319   1.524   4.413
 9082SOL     OW28144   7.010   0.214   4.836
 9082SOL    HW128145   7.062   0.149   4.891
 9082SOL    HW228146   6.961   0.277   4.897
 9083SOL     OW28147   6.587   0.034   4.878
 9083SOL    HW128148   6.524  -0.038   4.847
 9083SOL    HW228149   6.680  -0.002   4.878
 9084SOL     OW28150   6.356   1.330   4.025
 9084SOL    HW128151   6.310   1.243   4.042
 9084SOL    HW228152   6.447   1.327   4.066
 9085SOL     OW28153   6.204   1.567   5.008
 9085SOL    HW128154   6.199   1.649   5.065
 9085SOL    HW228155   6.293   1.564   4.963
 9086SOL     OW28156   5.625   1.077   4.024
 9086SOL    HW128157   5.724   1.066   4.015
 9086SOL    HW228158   5.585   0.991   4.056
 9087SOL     OW28159   6.461   1.646   4.061
 9087SOL    HW128160   6.384   1.611   4.007
 9087SOL    HW228161   6.429   1.717   4.123
 9088SOL     OW28162   5.816   0.628   5.699
 9088SOL    HW128163   5.723   0.626   5.736
 9088SOL    HW228164   5.817   0.589   5.607
 9089SOL     OW28165   5.811   0.275   6.582
 9089SOL    HW128166   5.846   0.258   6.674
 9089SOL    HW228167   5.723   0.230   6.570
 9090SOL     OW28168   5.605   0.368   6.233
 9090SOL    HW128169   5.523   0.411   6.272
 9090SOL    HW228170   5.577   0.295   6.170
 9091SOL     OW28171   6.155   1.275   6.751
 9091SOL    HW128172   6.062   1.268   6.714
 9091SOL    HW228173   6.166   1.364   6.795
 9092SOL     OW28174   7.141   1.511   6.289
 9092SOL    HW128175   7.084   1.495   6.370
 9092SOL    HW228176   7.082   1.521   6.209
 9093SOL     OW28177   6.721   0.703   6.303
 9093SOL    HW128178   6.778   0.781   6.278
 9093SOL    HW228179   6.661   0.729   6.379
 9094SOL     OW28180   6.354   1.144   6.609
 9094SOL    HW128181   6.276   1.161   6.669
 9094SOL    HW228182   6.388   1.231   6.573
 9095SOL     OW28183   6.271   1.012   6.251
 9095SOL    HW128184   6.340   0.996   6.321
 9095SOL    HW228185   6.198   1.069   6.289
 9096SOL     OW28186   5.921   1.435   6.647
 9096SOL    HW128187   5.843   1.404   6.594
 9096SOL    HW228188   5.979   1.493   6.590
 9097SOL     OW28189   5.817   1.713   6.069
 9097SOL    HW128190   5.851   1.790   6.123
 9097SOL    HW228191   5.861   1.713   5.979
 9098SOL     OW28192   5.816   1.434   6.124
 9098SOL    HW128193   5.790   1.530   6.124
 9098SOL    HW228194   5.745   1.380   6.169
 9099SOL     OW28195   5.826   1.091   6.472
 9099SOL    HW128196   5.840   1.007   6.524
 9099SOL    HW228197   5.771   1.155   6.527
 9100SOL     OW28198   6.206   1.786   7.025
 9100SOL    HW128199   6.114   1.769   7.060
 9100SOL    HW228200   6.234   1.878   7.051
 9101SOL     OW28201   6.192   0.964   5.709
 9101SOL    HW128202   6.199   1.048   5.655
 9101SOL    HW228203   6.238   0.977   5.797
 9102SOL     OW28204   5.708   0.643   6.149
 9102SOL    HW128205   5.663   0.555   6.166
 9102SOL    HW228206   5.707   0.697   6.233
 9103SOL     OW28207   5.613   1.596   5.703
 9103SOL    HW128208   5.594   1.500   5.724
 9103SOL    HW228209   5.580   1.654   5.778
 9104SOL     OW28210   6.199   1.365   6.312
 9104SOL    HW128211   6.150   1.278   6.321
 9104SOL    HW228212   6.176   1.408   6.225
 9105SOL     OW28213   6.879   1.228   7.009
 9105SOL    HW128214   6.916   1.155   6.951
 9105SOL    HW228215   6.931   1.233   7.094
 9106SOL     OW28216   6.395   0.004   6.088
 9106SOL    HW128217   6.435   0.095   6.079
 9106SOL    HW228218   6.295   0.012   6.094
 9107SOL     OW28219   5.783   0.976   6.850
 9107SOL    HW128220   5.872   0.931   6.836
 9107SOL    HW228221   5.710   0.911   6.831
 9108SOL     OW28222   6.184   0.729   5.856
 9108SOL    HW128223   6.208   0.798   5.788
 9108SOL    HW228224   6.106   0.762   5.910
 9109SOL     OW28225   6.867   0.345   6.530
 9109SOL    HW128226   6.781   0.295   6.517
 9109SOL    HW228227   6.929   0.291   6.586
 9110SOL     OW28228   6.393   0.605   7.051
 9110SOL    HW128229   6.346   0.602   7.140
 9110SOL    HW228230   6.342   0.550   6.985
 9111SOL     OW28231   6.577   0.410   6.828
 9111SOL    HW128232   6.500   0.444   6.882
 9111SOL    HW228233   6.543   0.359   6.749
 9112SOL     OW28234   6.627   0.701   6.015
 9112SOL    HW128235   6.653   0.697   6.111
 9112SOL    HW228236   6.542   0.650   6.001
 9113SOL     OW28237   5.662   0.811   6.375
 9113SOL    HW128238   5.761   0.799   6.384
 9113SOL    HW228239   5.638   0.906   6.396
 9114SOL     OW28240   5.716   1.821   7.157
 9114SOL    HW128241   5.706   1.806   7.256
 9114SOL    HW228242   5.630   1.857   7.121
 9115SOL     OW28243   6.451   0.348   5.781
 9115SOL    HW128244   6.510   0.411   5.732
 9115SOL    HW228245   6.470   0.254   5.752
 9116SOL     OW28246   6.948   1.144   6.131
 9116SOL    HW128247   7.031   1.115   6.083
 9116SOL    HW228248   6.899   1.211   6.075
 9117SOL     OW28249   6.136   0.196   6.471
 9117SOL    HW128250   6.131   0.191   6.571
 9117SOL    HW228251   6.138   0.292   6.442
 9118SOL     OW28252   6.594   1.456   6.063
 9118SOL    HW128253   6.548   1.528   6.011
 9118SOL    HW228254   6.590   1.476   6.161
 9119SOL     OW28255   5.937   1.801   6.439
 9119SOL    HW128256   5.987   1.715   6.445
 9119SOL    HW228257   6.002   1.878   6.436
 9120SOL     OW28258   5.907   0.943   5.828
 9120SOL    HW128259   5.989   0.982   5.786
 9120SOL    HW228260   5.880   0.861   5.779
 9121SOL     OW28261   6.697   1.776   5.823
 9121SOL    HW128262   6.637   1.714   5.873
 9121SOL    HW228263   6.728   1.732   5.738
 9122SOL     OW28264   6.050   1.743   5.909
 9122SOL    HW128265   6.083   1.782   5.995
 9122SOL    HW228266   6.126   1.736   5.844
 9123SOL     OW28267   5.835   1.785   6.827
 9123SOL    HW128268   5.892   1.720   6.877
 9123SOL    HW228269   5.819   1.752   6.734
 9124SOL     OW28270   6.526   1.698   6.490
 9124SOL    HW128271   6.606   1.641   6.511
 9124SOL    HW228272   6.477   1.658   6.413
 9125SOL     OW28273   5.968   0.700   6.066
 9125SOL    HW128274   6.013   0.610   6.063
 9125SOL    HW228275   5.874   0.689   6.099
 9126SOL     OW28276   6.200   0.122   5.703
 9126SOL    HW128277   6.298   0.100   5.710
 9126SOL    HW228278   6.169   0.105   5.610
 9127SOL     OW28279   6.474   1.514   6.781
 9127SOL    HW128280   6.451   1.489   6.687
 9127SOL    HW228281   6.535   1.445   6.820
 9128SOL     OW28282   6.389   1.402   6.510
 9128SOL    HW128283   6.479   1.416   6.468
 9128SOL    HW228284   6.318   1.404   6.439
 9129SOL     OW28285   6.508   0.503   6.485
 9129SOL    HW128286   6.483   0.494   6.389
 9129SOL    HW228287   6.556   0.421   6.516
 9130SOL     OW28288   6.125   0.064   6.098
 9130SOL    HW128289   6.044   0.065   6.156
 9130SOL    HW228290   6.128   0.147   6.043
 9131SOL     OW28291   7.020   1.188   5.627
 9131SOL    HW128292   7.052   1.112   5.684
 9131SOL    HW228293   6.928   1.215   5.657
 9132SOL     OW28294   5.883   0.035   5.757
 9132SOL    HW128295   5.932   0.119   5.736
 9132SOL    HW228296   5.945  -0.030   5.802
 9133SOL     OW28297   6.521   0.236   6.066
 9133SOL    HW128298   6.473   0.277   5.988
 9133SOL    HW228299   6.620   0.234   6.047
 9134SOL     OW28300   6.813   1.570   6.379
 9134SOL    HW128301   6.834   1.644   6.314
 9134SOL    HW228302   6.881   1.570   6.452
 9135SOL     OW28303   6.045   1.152   6.327
 9135SOL    HW128304   5.974   1.125   6.392
 9135SOL    HW228305   6.019   1.124   6.234
 9136SOL     OW28306   6.857   1.797   6.177
 9136SOL    HW128307   6.901   1.861   6.113
 9136SOL    HW228308   6.807   1.849   6.247
 9137SOL     OW28309   6.618   0.549   5.602
 9137SOL    HW128310   6.577   0.631   5.563
 9137SOL    HW228311   6.682   0.575   5.675
 9138SOL     OW28312   6.147   0.222   6.733
 9138SOL    HW128313   6.185   0.138   6.770
 9138SOL    HW228314   6.059   0.241   6.777
 9139SOL     OW28315   6.452   0.454   6.228
 9139SOL    HW128316   6.420   0.526   6.166
 9139SOL    HW228317   6.476   0.373   6.175
 9140SOL     OW28318   6.603   0.039   6.339
 9140SOL    HW128319   6.531   0.044   6.270
 9140SOL    HW228320   6.579  -0.030   6.408
 9141SOL     OW28321   6.074   1.385   5.760
 9141SOL    HW128322   5.987   1.370   5.807
 9141SOL    HW228323   6.057   1.411   5.665
 9142SOL     OW28324   6.113   0.256   5.914
 9142SOL    HW128325   6.140   0.197   5.839
 9142SOL    HW228326   6.113   0.351   5.883
 9143SOL     OW28327   7.178   1.629   7.211
 9143SOL    HW128328   7.205   1.663   7.121
 9143SOL    HW228329   7.257   1.591   7.257
 9144SOL     OW28330   6.697   1.195   6.686
 9144SOL    HW128331   6.657   1.239   6.767
 9144SOL    HW228332   6.656   1.232   6.603
 9145SOL     OW28333   6.291   1.050   5.954
 9145SOL    HW128334   6.277   1.057   6.053
 9145SOL    HW228335   6.375   0.999   5.936
 9146SOL     OW28336   5.996   0.813   6.837
 9146SOL    HW128337   6.082   0.825   6.887
 9146SOL    HW228338   5.954   0.726   6.864
 9147SOL     OW28339   6.860   0.386   6.848
 9147SOL    HW128340   6.881   0.460   6.912
 9147SOL    HW228341   6.771   0.403   6.805
 9148SOL     OW28342   5.650   1.564   6.917
 9148SOL    HW128343   5.604   1.646   6.883
 9148SOL    HW228344   5.748   1.583   6.926
 9149SOL     OW28345   5.953   1.100   6.087
 9149SOL    HW128346   5.946   1.183   6.031
 9149SOL    HW228347   5.957   1.020   6.027
 9150SOL     OW28348   6.152   0.537   6.451
 9150SOL    HW128349   6.164   0.603   6.377
 9150SOL    HW228350   6.198   0.571   6.534
 9151SOL     OW28351   6.838   1.348   5.974
 9151SOL    HW128352   6.888   1.425   6.014
 9151SOL    HW228353   6.743   1.350   6.006
 9152SOL     OW28354   6.858   1.445   6.728
 9152SOL    HW128355   6.905   1.458   6.815
 9152SOL    HW228356   6.792   1.371   6.737
 9153SOL     OW28357   5.940   1.510   6.915
 9153SOL    HW128358   5.919   1.466   6.828
 9153SOL    HW228359   6.037   1.536   6.918
 9154SOL     OW28360   6.159   0.870   6.615
 9154SOL    HW128361   6.203   0.959   6.606
 9154SOL    HW228362   6.096   0.870   6.692
 9155SOL     OW28363   6.946   0.862   6.631
 9155SOL    HW128364   6.871   0.862   6.565
 9155SOL    HW228365   6.983   0.770   6.640
 9156SOL     OW28366   6.795   0.525   5.861
 9156SOL    HW128367   6.808   0.441   5.915
 9156SOL    HW228368   6.766   0.599   5.921
 9157SOL     OW28369   5.893   0.213   6.817
 9157SOL    HW128370   5.870   0.250   6.907
 9157SOL    HW228371   5.863   0.118   6.811
 9158SOL     OW28372   5.623   1.310   6.868
 9158SOL    HW128373   5.676   1.261   6.936
 9158SOL    HW228374   5.645   1.408   6.873
 9159SOL     OW28375   6.318   0.634   6.650
 9159SOL    HW128376   6.377   0.608   6.574
 9159SOL    HW228377   6.290   0.730   6.639
 9160SOL     OW28378   5.893   0.063   6.204
 9160SOL    HW128379   5.882   0.157   6.237
 9160SOL    HW228380   5.888   0.000   6.281
 9161SOL     OW28381   7.208   0.367   5.960
 9161SOL    HW128382   7.210   0.291   6.024
 9161SOL    HW228383   7.160   0.444   6.000
 9162SOL     OW28384   6.609   0.766   6.552
 9162SOL    HW128385   6.624   0.787   6.648
 9162SOL    HW228386   6.579   0.671   6.543
 9163SOL     OW28387   6.889   0.838   5.628
 9163SOL    HW128388   6.923   0.745   5.643
 9163SOL    HW228389   6.907   0.865   5.533
 9164SOL     OW28390   6.654   1.333   6.435
 9164SOL    HW128391   6.661   1.249   6.380
 9164SOL    HW228392   6.716   1.402   6.399
 9165SOL     OW28393   5.905   0.810   6.535
 9165SOL    HW128394   5.998   0.846   6.540
 9165SOL    HW228395   5.899   0.725   6.587
 9166SOL     OW28396   5.925   0.509   6.592
 9166SOL    HW128397   5.873   0.426   6.575
 9166SOL    HW228398   6.002   0.514   6.528
 9167SOL     OW28399   6.746   0.207   7.063
 9167SOL    HW128400   6.746   0.271   7.140
 9167SOL    HW228401   6.774   0.255   6.980
 9168SOL     OW28402   5.594   1.326   5.786
 9168SOL    HW128403   5.501   1.347   5.755
 9168SOL    HW228404   5.604   1.227   5.799
 9169SOL     OW28405   5.674   1.801   6.513
 9169SOL    HW128406   5.632   1.715   6.486
 9169SOL    HW228407   5.768   1.804   6.479
 9170SOL     OW28408   6.090   1.568   6.496
 9170SOL    HW128409   6.156   1.642   6.505
 9170SOL    HW228410   6.134   1.489   6.454
 9171SOL     OW28411   6.588   0.796   6.824
 9171SOL    HW128412   6.629   0.764   6.910
 9171SOL    HW228413   6.492   0.769   6.821
 9172SOL     OW28414   5.626   0.544   6.700
 9172SOL    HW128415   5.711   0.511   6.659
 9172SOL    HW228416   5.639   0.559   6.798
 9173SOL     OW28417   6.401   0.572   5.911
 9173SOL    HW128418   6.408   0.483   5.865
 9173SOL    HW228419   6.307   0.606   5.903
 9174SOL     OW28420   6.257   0.464   6.855
 9174SOL    HW128421   6.223   0.375   6.825
 9174SOL    HW228422   6.283   0.518   6.775
 9175SOL     OW28423   6.516   1.678   7.051
 9175SOL    HW128424   6.492   1.660   6.956
 9175SOL    HW228425   6.546   1.772   7.061
 9176SOL     OW28426   6.059   0.500   5.777
 9176SOL    HW128427   6.120   0.580   5.781
 9176SOL    HW228428   5.964   0.531   5.784
 9177SOL     OW28429   5.745   1.137   7.052
 9177SOL    HW128430   5.767   1.076   7.128
 9177SOL    HW228431   5.755   1.088   6.966
 9178SOL     OW28432   6.933   1.059   6.820
 9178SOL    HW128433   6.957   0.996   6.746
 9178SOL    HW228434   6.843   1.099   6.802
 9179SOL     OW28435   6.888   0.855   5.895
 9179SOL    HW128436   6.802   0.824   5.937
 9179SOL    HW228437   6.884   0.841   5.796
 9180SOL     OW28438   6.838   1.731   6.714
 9180SOL    HW128439   6.922   1.736   6.660
 9180SOL    HW228440   6.815   1.635   6.732
 9181SOL     OW28441   5.669   1.258   6.608
 9181SOL    HW128442   5.664   1.257   6.708
 9181SOL    HW228443   5.586   1.217   6.570
 9182SOL     OW28444   6.974   1.573   6.063
 9182SOL    HW128445   7.041   1.585   5.989
 9182SOL    HW228446   6.934   1.662   6.086
 9183SOL     OW28447   6.866   0.927   6.258
 9183SOL    HW128448   6.926   0.846   6.260
 9183SOL    HW228449   6.906   0.996   6.198
 9184SOL     OW28450   6.258   1.616   5.740
 9184SOL    HW128451   6.267   1.626   5.641
 9184SOL    HW228452   6.218   1.527   5.761
 9185SOL     OW28453   5.849   0.326   6.306
 9185SOL    HW128454   5.770   0.377   6.272
 9185SOL    HW228455   5.840   0.311   6.404
 9186SOL     OW28456   6.780   1.612   5.617
 9186SOL    HW128457   6.786   1.519   5.654
 9186SOL    HW228458   6.721   1.612   5.537
 9187SOL     OW28459   6.408   1.002   6.958
 9187SOL    HW128460   6.448   1.001   6.866
 9187SOL    HW228461   6.418   1.094   6.998
 9188SOL     OW28462   6.502   0.910   5.877
 9188SOL    HW128463   6.565   0.948   5.809
 9188SOL    HW228464   6.542   0.827   5.916
 9189SOL     OW28465   6.625   1.098   6.282
 9189SOL    HW128466   6.555   1.051   6.336
 9189SOL    HW228467   6.684   1.030   6.239
 9190SOL     OW28468   6.600   0.236   6.557
 9190SOL    HW128469   6.592   0.200   6.464
 9190SOL    HW228470   6.598   0.160   6.622
 9191SOL     OW28471   6.176   1.487   6.077
 9191SOL    HW128472   6.218   1.429   6.007
 9191SOL    HW228473   6.132   1.566   6.033
 9192SOL     OW28474   5.841   1.348   5.876
 9192SOL    HW128475   5.745   1.349   5.849
 9192SOL    HW228476   5.853   1.401   5.960
 9193SOL     OW28477   5.661   0.345   5.619
 9193SOL    HW128478   5.569   0.317   5.590
 9193SOL    HW228479   5.692   0.422   5.563
 9194SOL     OW28480   5.658   0.166   5.904
 9194SOL    HW128481   5.641   0.249   5.850
 9194SOL    HW228482   5.748   0.129   5.882
 9195SOL     OW28483   5.976   1.741   7.146
 9195SOL    HW128484   5.885   1.782   7.144
 9195SOL    HW228485   5.969   1.647   7.178
 9196SOL     OW28486   6.811   0.325   6.035
 9196SOL    HW128487   6.876   0.251   6.024
 9196SOL    HW228488   6.831   0.375   6.119
 9197SOL     OW28489   6.180   0.745   6.238
 9197SOL    HW128490   6.230   0.830   6.219
 9197SOL    HW228491   6.092   0.747   6.190
 9198SOL     OW28492   6.445   1.374   5.602
 9198SOL    HW128493   6.399   1.389   5.690
 9198SOL    HW228494   6.489   1.459   5.572
 9199SOL     OW28495   6.247   1.790   6.539
 9199SOL    HW128496   6.201   1.878   6.526
 9199SOL    HW228497   6.346   1.802   6.532
 9200SOL     OW28498   6.445   0.956   6.447
 9200SOL    HW128499   6.499   0.887   6.495
 9200SOL    HW228500   6.413   1.025   6.513
 9201SOL     OW28501   6.669   0.984   5.673
 9201SOL    HW128502   6.646   1.037   5.591
 9201SOL    HW228503   6.750   0.928   5.654
 9202SOL     OW28504   5.665   1.240   6.239
 9202SOL    HW128505   5.664   1.193   6.327
 9202SOL    HW228506   5.747   1.212   6.188
 9203SOL     OW28507   6.014   0.424   6.106
 9203SOL    HW128508   6.044   0.352   6.044
 9203SOL    HW228509   5.975   0.384   6.189
 9204SOL     OW28510   5.903   0.547   6.866
 9204SOL    HW128511   5.941   0.488   6.938
 9204SOL    HW228512   5.943   0.521   6.778
 9205SOL     OW28513   6.398   1.586   6.273
 9205SOL    HW128514   6.430   1.596   6.179
 9205SOL    HW228515   6.319   1.524   6.275
 9206SOL     OW28516   7.010   0.214   6.698
 9206SOL    HW128517   7.062   0.149   6.753
 9206SOL    HW228518   6.961   0.277   6.759
 9207SOL     OW28519   6.587   0.034   6.740
 9207SOL    HW128520   6.524  -0.038   6.709
 9207SOL    HW228521   6.680  -0.002   6.740
 9208SOL     OW28522   6.356   1.330   5.887
 9208SOL    HW128523   6.310   1.243   5.904
 9208SOL    HW228524   6.447   1.327   5.928
 9209SOL     OW28525   6.204   1.567   6.870
 9209SOL    HW128526   6.199   1.649   6.927
 9209SOL    HW228527   6.293   1.564   6.825
 9210SOL     OW28528   5.625   1.077   5.886
 9210SOL    HW128529   5.724   1.066   5.877
 9210SOL    HW228530   5.585   0.991   5.918
 9211SOL     OW28531   6.461   1.646   5.923
 9211SOL    HW128532   6.384   1.611   5.869
 9211SOL    HW228533   6.429   1.717   5.985
 9212SOL     OW28534   5.816   2.490   0.113
 9212SOL    HW128535   5.723   2.488   0.150
 9212SOL    HW228536   5.817   2.451   0.021
 9213SOL     OW28537   5.811   2.137   0.996
 9213SOL    HW128538   5.846   2.120   1.088
 9213SOL    HW228539   5.723   2.092   0.984
 9214SOL     OW28540   5.605   2.230   0.647
 9214SOL    HW128541   5.523   2.273   0.686
 9214SOL    HW228542   5.577   2.157   0.584
 9215SOL     OW28543   6.155   3.137   1.165
 9215SOL    HW128544   6.062   3.130   1.128
 9215SOL    HW228545   6.166   3.226   1.209
 9216SOL     OW28546   7.141   3.373   0.703
 9216SOL    HW128547   7.084   3.357   0.784
 9216SOL    HW228548   7.082   3.383   0.623
 9217SOL     OW28549   6.721   2.565   0.717
 9217SOL    HW128550   6.778   2.643   0.692
 9217SOL    HW228551   6.661   2.591   0.793
 9218SOL     OW28552   6.354   3.006   1.023
 9218SOL    HW128553   6.276   3.023   1.083
 9218SOL    HW228554   6.388   3.093   0.987
 9219SOL     OW28555   6.436   2.660   1.823
 9219SOL    HW128556   6.432   2.736   1.888
 9219SOL    HW228557   6.458   2.696   1.732
 9220SOL     OW28558   6.271   2.874   0.665
 9220SOL    HW128559   6.340   2.858   0.735
 9220SOL    HW228560   6.198   2.931   0.703
 9221SOL     OW28561   6.272   3.023   1.803
 9221SOL    HW128562   6.332   3.102   1.817
 9221SOL    HW228563   6.186   3.054   1.762
 9222SOL     OW28564   5.921   3.297   1.061
 9222SOL    HW128565   5.843   3.266   1.008
 9222SOL    HW228566   5.979   3.355   1.004
 9223SOL     OW28567   6.024   2.254   1.499
 9223SOL    HW128568   6.106   2.198   1.508
 9223SOL    HW228569   5.943   2.196   1.503
 9224SOL     OW28570   5.817   3.575   0.483
 9224SOL    HW128571   5.851   3.652   0.537
 9224SOL    HW228572   5.861   3.575   0.393
 9225SOL     OW28573   6.713   3.203   1.690
 9225SOL    HW128574   6.760   3.203   1.778
 9225SOL    HW228575   6.665   3.116   1.679
 9226SOL     OW28576   5.816   3.296   0.538
 9226SOL    HW128577   5.790   3.392   0.538
 9226SOL    HW228578   5.745   3.242   0.583
 9227SOL     OW28579   5.826   2.953   0.886
 9227SOL    HW128580   5.840   2.869   0.938
 9227SOL    HW228581   5.771   3.017   0.941
 9228SOL     OW28582   6.206   3.648   1.439
 9228SOL    HW128583   6.114   3.631   1.474
 9228SOL    HW228584   6.234   3.740   1.465
 9229SOL     OW28585   6.192   2.826   0.123
 9229SOL    HW128586   6.199   2.910   0.069
 9229SOL    HW228587   6.238   2.839   0.211
 9230SOL     OW28588   5.708   2.505   0.563
 9230SOL    HW128589   5.663   2.417   0.580
 9230SOL    HW228590   5.707   2.559   0.647
 9231SOL     OW28591   5.613   3.458   0.117
 9231SOL    HW128592   5.594   3.362   0.138
 9231SOL    HW228593   5.580   3.516   0.192
 9232SOL     OW28594   5.699   2.599   1.597
 9232SOL    HW128595   5.787   2.586   1.642
 9232SOL    HW228596   5.686   2.696   1.575
 9233SOL     OW28597   6.199   3.227   0.726
 9233SOL    HW128598   6.150   3.140   0.735
 9233SOL    HW228599   6.176   3.270   0.639
 9234SOL     OW28600   6.879   3.090   1.423
 9234SOL    HW128601   6.916   3.017   1.365
 9234SOL    HW228602   6.931   3.095   1.508
 9235SOL     OW28603   6.395   1.866   0.502
 9235SOL    HW128604   6.435   1.957   0.493
 9235SOL    HW228605   6.295   1.874   0.508
 9236SOL     OW28606   5.783   2.838   1.264
 9236SOL    HW128607   5.872   2.793   1.250
 9236SOL    HW228608   5.710   2.773   1.245
 9237SOL     OW28609   6.773   3.654   1.616
 9237SOL    HW128610   6.797   3.714   1.540
 9237SOL    HW228611   6.780   3.559   1.586
 9238SOL     OW28612   5.903   2.113   1.801
 9238SOL    HW128613   5.974   2.184   1.807
 9238SOL    HW228614   5.815   2.152   1.829
 9239SOL     OW28615   6.184   2.591   0.270
 9239SOL    HW128616   6.208   2.660   0.202
 9239SOL    HW228617   6.106   2.624   0.324
 9240SOL     OW28618   6.867   2.207   0.944
 9240SOL    HW128619   6.781   2.157   0.931
 9240SOL    HW228620   6.929   2.153   1.000
 9241SOL     OW28621   6.393   2.467   1.465
 9241SOL    HW128622   6.346   2.464   1.554
 9241SOL    HW228623   6.342   2.412   1.399
 9242SOL     OW28624   6.980   2.331   1.674
 9242SOL    HW128625   6.960   2.374   1.762
 9242SOL    HW228626   7.058   2.269   1.683
 9243SOL     OW28627   6.559   2.752   1.572
 9243SOL    HW128628   6.605   2.668   1.543
 9243SOL    HW228629   6.503   2.786   1.497
 9244SOL     OW28630   6.577   2.272   1.242
 9244SOL    HW128631   6.500   2.306   1.296
 9244SOL    HW228632   6.543   2.221   1.163
 9245SOL     OW28633   6.627   2.563   0.429
 9245SOL    HW128634   6.653   2.559   0.525
 9245SOL    HW228635   6.542   2.512   0.415
 9246SOL     OW28636   5.662   2.673   0.789
 9246SOL    HW128637   5.761   2.661   0.798
 9246SOL    HW228638   5.638   2.768   0.810
 9247SOL     OW28639   5.716   3.683   1.571
 9247SOL    HW128640   5.706   3.668   1.670
 9247SOL    HW228641   5.630   3.719   1.535
 9248SOL     OW28642   6.451   2.210   0.195
 9248SOL    HW128643   6.510   2.273   0.146
 9248SOL    HW228644   6.470   2.116   0.166
 9249SOL     OW28645   6.948   3.006   0.545
 9249SOL    HW128646   7.031   2.977   0.497
 9249SOL    HW228647   6.899   3.073   0.489
 9250SOL     OW28648   6.136   2.058   0.885
 9250SOL    HW128649   6.131   2.053   0.985
 9250SOL    HW228650   6.138   2.154   0.856
 9251SOL     OW28651   6.594   3.318   0.477
 9251SOL    HW128652   6.548   3.390   0.425
 9251SOL    HW228653   6.590   3.338   0.575
 9252SOL     OW28654   5.937   3.663   0.853
 9252SOL    HW128655   5.987   3.577   0.859
 9252SOL    HW228656   6.002   3.740   0.850
 9253SOL     OW28657   6.813   3.412   1.506
 9253SOL    HW128658   6.819   3.335   1.570
 9253SOL    HW228659   6.761   3.386   1.426
 9254SOL     OW28660   5.907   2.805   0.242
 9254SOL    HW128661   5.989   2.844   0.200
 9254SOL    HW228662   5.880   2.723   0.193
 9255SOL     OW28663   6.047   3.128   1.727
 9255SOL    HW128664   5.997   3.129   1.641
 9255SOL    HW228665   5.984   3.110   1.803
 9256SOL     OW28666   6.697   3.638   0.237
 9256SOL    HW128667   6.637   3.576   0.287
 9256SOL    HW228668   6.728   3.594   0.152
 9257SOL     OW28669   5.788   2.147   1.498
 9257SOL    HW128670   5.708   2.207   1.485
 9257SOL    HW228671   5.778   2.098   1.584
 9258SOL     OW28672   7.218   3.239   0.081
 9258SOL    HW128673   7.186   3.333   0.071
 9258SOL    HW228674   7.142   3.176   0.069
 9259SOL     OW28675   6.050   3.605   0.323
 9259SOL    HW128676   6.083   3.644   0.409
 9259SOL    HW228677   6.126   3.598   0.258
 9260SOL     OW28678   5.835   3.647   1.241
 9260SOL    HW128679   5.892   3.582   1.291
 9260SOL    HW228680   5.819   3.614   1.148
 9261SOL     OW28681   6.526   3.560   0.904
 9261SOL    HW128682   6.606   3.503   0.925
 9261SOL    HW228683   6.477   3.520   0.827
 9262SOL     OW28684   5.968   2.562   0.480
 9262SOL    HW128685   6.013   2.472   0.477
 9262SOL    HW228686   5.874   2.551   0.513
 9263SOL     OW28687   6.367   2.126   1.749
 9263SOL    HW128688   6.434   2.065   1.792
 9263SOL    HW228689   6.294   2.145   1.814
 9264SOL     OW28690   6.474   3.376   1.195
 9264SOL    HW128691   6.451   3.351   1.101
 9264SOL    HW228692   6.535   3.307   1.234
 9265SOL     OW28693   6.389   3.264   0.924
 9265SOL    HW128694   6.479   3.278   0.882
 9265SOL    HW228695   6.318   3.266   0.853
 9266SOL     OW28696   6.508   2.365   0.899
 9266SOL    HW128697   6.483   2.356   0.803
 9266SOL    HW228698   6.556   2.283   0.930
 9267SOL     OW28699   6.125   1.926   0.512
 9267SOL    HW128700   6.044   1.927   0.570
 9267SOL    HW228701   6.128   2.009   0.457
 9268SOL     OW28702   6.521   2.098   0.480
 9268SOL    HW128703   6.473   2.139   0.402
 9268SOL    HW228704   6.620   2.096   0.461
 9269SOL     OW28705   6.662   2.545   1.464
 9269SOL    HW128706   6.582   2.484   1.467
 9269SOL    HW228707   6.743   2.492   1.440
 9270SOL     OW28708   6.813   3.432   0.793
 9270SOL    HW128709   6.834   3.506   0.728
 9270SOL    HW228710   6.881   3.432   0.866
 9271SOL     OW28711   6.045   3.014   0.741
 9271SOL    HW128712   5.974   2.987   0.806
 9271SOL    HW228713   6.019   2.986   0.648
 9272SOL     OW28714   6.857   3.659   0.591
 9272SOL    HW128715   6.901   3.723   0.527
 9272SOL    HW228716   6.807   3.711   0.661
 9273SOL     OW28717   6.618   2.411   0.016
 9273SOL    HW128718   6.577   2.493  -0.023
 9273SOL    HW228719   6.682   2.437   0.089
 9274SOL     OW28720   5.664   2.418   1.386
 9274SOL    HW128721   5.756   2.417   1.345
 9274SOL    HW228722   5.658   2.492   1.453
 9275SOL     OW28723   6.147   2.084   1.147
 9275SOL    HW128724   6.185   2.000   1.184
 9275SOL    HW228725   6.059   2.103   1.191
 9276SOL     OW28726   6.452   2.316   0.642
 9276SOL    HW128727   6.420   2.388   0.580
 9276SOL    HW228728   6.476   2.235   0.589
 9277SOL     OW28729   6.603   1.901   0.753
 9277SOL    HW128730   6.531   1.906   0.684
 9277SOL    HW228731   6.579   1.832   0.822
 9278SOL     OW28732   6.074   3.247   0.174
 9278SOL    HW128733   5.987   3.232   0.221
 9278SOL    HW228734   6.057   3.273   0.079
 9279SOL     OW28735   6.113   2.118   0.328
 9279SOL    HW128736   6.140   2.059   0.253
 9279SOL    HW228737   6.113   2.213   0.297
 9280SOL     OW28738   6.650   3.209   1.340
 9280SOL    HW128739   6.570   3.186   1.395
 9280SOL    HW228740   6.733   3.183   1.389
 9281SOL     OW28741   6.697   3.057   1.100
 9281SOL    HW128742   6.657   3.101   1.181
 9281SOL    HW228743   6.656   3.094   1.017
 9282SOL     OW28744   6.501   1.951   1.402
 9282SOL    HW128745   6.526   1.931   1.307
 9282SOL    HW228746   6.573   2.007   1.444
 9283SOL     OW28747   6.566   2.978   1.719
 9283SOL    HW128748   6.467   2.984   1.729
 9283SOL    HW228749   6.589   2.898   1.663
 9284SOL     OW28750   6.291   2.912   0.368
 9284SOL    HW128751   6.277   2.919   0.467
 9284SOL    HW228752   6.375   2.861   0.350
 9285SOL     OW28753   5.996   2.675   1.251
 9285SOL    HW128754   6.082   2.687   1.301
 9285SOL    HW228755   5.954   2.588   1.278
 9286SOL     OW28756   6.860   2.248   1.262
 9286SOL    HW128757   6.881   2.322   1.326
 9286SOL    HW228758   6.771   2.265   1.219
 9287SOL     OW28759   5.650   3.426   1.331
 9287SOL    HW128760   5.604   3.508   1.297
 9287SOL    HW228761   5.748   3.445   1.340
 9288SOL     OW28762   5.953   2.962   0.501
 9288SOL    HW128763   5.946   3.045   0.445
 9288SOL    HW228764   5.957   2.882   0.441
 9289SOL     OW28765   6.152   2.399   0.865
 9289SOL    HW128766   6.164   2.465   0.791
 9289SOL    HW228767   6.198   2.433   0.948
 9290SOL     OW28768   6.838   3.210   0.388
 9290SOL    HW128769   6.888   3.287   0.428
 9290SOL    HW228770   6.743   3.212   0.420
 9291SOL     OW28771   6.858   3.307   1.142
 9291SOL    HW128772   6.905   3.320   1.229
 9291SOL    HW228773   6.792   3.233   1.151
 9292SOL     OW28774   5.940   3.372   1.329
 9292SOL    HW128775   5.919   3.328   1.242
 9292SOL    HW228776   6.037   3.398   1.332
 9293SOL     OW28777   5.988   2.613   1.598
 9293SOL    HW128778   6.056   2.668   1.551
 9293SOL    HW228779   6.028   2.525   1.625
 9294SOL     OW28780   6.599   1.967   1.770
 9294SOL    HW128781   6.605   2.052   1.718
 9294SOL    HW228782   6.631   1.891   1.713
 9295SOL     OW28783   6.090   1.912   1.740
 9295SOL    HW128784   6.048   1.855   1.670
 9295SOL    HW228785   6.024   1.981   1.772
 9296SOL     OW28786   6.159   2.732   1.029
 9296SOL    HW128787   6.203   2.821   1.020
 9296SOL    HW228788   6.096   2.732   1.106
 9297SOL     OW28789   6.946   2.724   1.045
 9297SOL    HW128790   6.871   2.724   0.979
 9297SOL    HW228791   6.983   2.632   1.054
 9298SOL     OW28792   6.795   2.387   0.275
 9298SOL    HW128793   6.808   2.303   0.329
 9298SOL    HW228794   6.766   2.461   0.335
 9299SOL     OW28795   5.893   2.075   1.231
 9299SOL    HW128796   5.870   2.112   1.321
 9299SOL    HW228797   5.863   1.980   1.225
 9300SOL     OW28798   5.623   3.172   1.282
 9300SOL    HW128799   5.676   3.123   1.350
 9300SOL    HW228800   5.645   3.270   1.287
 9301SOL     OW28801   6.318   2.496   1.064
 9301SOL    HW128802   6.377   2.470   0.988
 9301SOL    HW228803   6.290   2.592   1.053
 9302SOL     OW28804   5.893   1.925   0.618
 9302SOL    HW128805   5.882   2.019   0.651
 9302SOL    HW228806   5.888   1.862   0.695
 9303SOL     OW28807   7.208   2.229   0.374
 9303SOL    HW128808   7.210   2.153   0.438
 9303SOL    HW228809   7.160   2.306   0.414
 9304SOL     OW28810   6.609   2.628   0.966
 9304SOL    HW128811   6.624   2.649   1.062
 9304SOL    HW228812   6.579   2.533   0.957
 9305SOL     OW28813   6.566   3.435   1.700
 9305SOL    HW128814   6.546   3.479   1.612
 9305SOL    HW228815   6.605   3.344   1.684
 9306SOL     OW28816   5.936   2.760   1.804
 9306SOL    HW128817   6.012   2.804   1.852
 9306SOL    HW228818   5.971   2.713   1.722
 9307SOL     OW28819   6.889   2.700   0.042
 9307SOL    HW128820   6.923   2.607   0.057
 9307SOL    HW228821   6.907   2.727  -0.053
 9308SOL     OW28822   6.654   3.195   0.849
 9308SOL    HW128823   6.661   3.111   0.794
 9308SOL    HW228824   6.716   3.264   0.813
 9309SOL     OW28825   5.905   2.672   0.949
 9309SOL    HW128826   5.998   2.708   0.954
 9309SOL    HW228827   5.899   2.587   1.001
 9310SOL     OW28828   5.925   2.371   1.006
 9310SOL    HW128829   5.873   2.288   0.989
 9310SOL    HW228830   6.002   2.376   0.942
 9311SOL     OW28831   6.724   2.242   1.678
 9311SOL    HW128832   6.679   2.305   1.742
 9311SOL    HW228833   6.817   2.273   1.661
 9312SOL     OW28834   6.746   2.069   1.477
 9312SOL    HW128835   6.746   2.133   1.554
 9312SOL    HW228836   6.774   2.117   1.394
 9313SOL     OW28837   5.674   3.663   0.927
 9313SOL    HW128838   5.632   3.577   0.900
 9313SOL    HW228839   5.768   3.666   0.893
 9314SOL     OW28840   6.090   3.430   0.910
 9314SOL    HW128841   6.156   3.504   0.919
 9314SOL    HW228842   6.134   3.351   0.868
 9315SOL     OW28843   6.588   2.658   1.238
 9315SOL    HW128844   6.629   2.626   1.324
 9315SOL    HW228845   6.492   2.631   1.235
 9316SOL     OW28846   5.626   2.406   1.114
 9316SOL    HW128847   5.711   2.373   1.073
 9316SOL    HW228848   5.639   2.421   1.212
 9317SOL     OW28849   5.775   2.382   1.722
 9317SOL    HW128850   5.834   2.342   1.652
 9317SOL    HW228851   5.717   2.453   1.681
 9318SOL     OW28852   6.401   2.434   0.325
 9318SOL    HW128853   6.408   2.345   0.279
 9318SOL    HW228854   6.307   2.468   0.317
 9319SOL     OW28855   5.838   3.426   1.744
 9319SOL    HW128856   5.808   3.483   1.820
 9319SOL    HW228857   5.831   3.329   1.770
 9320SOL     OW28858   6.257   2.326   1.269
 9320SOL    HW128859   6.223   2.237   1.239
 9320SOL    HW228860   6.283   2.380   1.189
 9321SOL     OW28861   6.516   3.540   1.465
 9321SOL    HW128862   6.492   3.522   1.370
 9321SOL    HW228863   6.546   3.634   1.475
 9322SOL     OW28864   6.059   2.362   0.191
 9322SOL    HW128865   6.120   2.442   0.195
 9322SOL    HW228866   5.964   2.393   0.198
 9323SOL     OW28867   5.745   2.999   1.466
 9323SOL    HW128868   5.767   2.938   1.542
 9323SOL    HW228869   5.755   2.950   1.380
 9324SOL     OW28870   6.933   2.921   1.234
 9324SOL    HW128871   6.957   2.858   1.160
 9324SOL    HW228872   6.843   2.961   1.216
 9325SOL     OW28873   6.888   2.717   0.309
 9325SOL    HW128874   6.802   2.686   0.351
 9325SOL    HW228875   6.884   2.703   0.210
 9326SOL     OW28876   6.838   3.593   1.128
 9326SOL    HW128877   6.922   3.598   1.074
 9326SOL    HW228878   6.815   3.497   1.146
 9327SOL     OW28879   5.669   3.120   1.022
 9327SOL    HW128880   5.664   3.119   1.122
 9327SOL    HW228881   5.586   3.079   0.984
 9328SOL     OW28882   6.274   3.524   1.716
 9328SOL    HW128883   6.218   3.605   1.725
 9328SOL    HW228884   6.326   3.528   1.630
 9329SOL     OW28885   6.489   1.948   0.133
 9329SOL    HW128886   6.540   1.949   0.047
 9329SOL    HW228887   6.545   1.906   0.204
 9330SOL     OW28888   6.974   3.435   0.477
 9330SOL    HW128889   7.041   3.447   0.403
 9330SOL    HW228890   6.934   3.524   0.500
 9331SOL     OW28891   5.716   3.656   1.851
 9331SOL    HW128892   5.675   3.582   1.904
 9331SOL    HW228893   5.780   3.707   1.909
 9332SOL     OW28894   6.866   2.789   0.672
 9332SOL    HW128895   6.926   2.708   0.674
 9332SOL    HW228896   6.906   2.858   0.612
 9333SOL     OW28897   6.416   3.135   1.422
 9333SOL    HW128898   6.411   3.168   1.517
 9333SOL    HW228899   6.330   3.154   1.376
 9334SOL     OW28900   6.258   3.478   0.154
 9334SOL    HW128901   6.267   3.488   0.055
 9334SOL    HW228902   6.218   3.389   0.175
 9335SOL     OW28903   5.849   2.188   0.720
 9335SOL    HW128904   5.770   2.239   0.686
 9335SOL    HW228905   5.840   2.173   0.818
 9336SOL     OW28906   6.780   3.474   0.031
 9336SOL    HW128907   6.786   3.381   0.068
 9336SOL    HW228908   6.721   3.474  -0.049
 9337SOL     OW28909   6.408   2.864   1.372
 9337SOL    HW128910   6.448   2.863   1.280
 9337SOL    HW228911   6.418   2.956   1.412
 9338SOL     OW28912   6.502   2.772   0.291
 9338SOL    HW128913   6.565   2.810   0.223
 9338SOL    HW228914   6.542   2.689   0.330
 9339SOL     OW28915   5.958   3.150   1.490
 9339SOL    HW128916   5.945   3.243   1.456
 9339SOL    HW228917   5.874   3.098   1.477
 9340SOL     OW28918   6.625   2.960   0.696
 9340SOL    HW128919   6.555   2.913   0.750
 9340SOL    HW228920   6.684   2.892   0.653
 9341SOL     OW28921   6.600   2.098   0.971
 9341SOL    HW128922   6.592   2.062   0.878
 9341SOL    HW228923   6.598   2.022   1.036
 9342SOL     OW28924   6.176   3.349   0.491
 9342SOL    HW128925   6.218   3.291   0.421
 9342SOL    HW228926   6.132   3.428   0.447
 9343SOL     OW28927   5.841   3.210   0.290
 9343SOL    HW128928   5.745   3.211   0.263
 9343SOL    HW228929   5.853   3.263   0.374
 9344SOL     OW28930   5.691   2.875   1.726
 9344SOL    HW128931   5.614   2.842   1.780
 9344SOL    HW228932   5.776   2.845   1.768
 9345SOL     OW28933   6.258   2.065   1.489
 9345SOL    HW128934   6.348   2.049   1.449
 9345SOL    HW228935   6.266   2.070   1.588
 9346SOL     OW28936   5.661   2.207   0.033
 9346SOL    HW128937   5.569   2.179   0.004
 9346SOL    HW228938   5.692   2.284  -0.023
 9347SOL     OW28939   5.658   2.028   0.318
 9347SOL    HW128940   5.641   2.111   0.264
 9347SOL    HW228941   5.748   1.991   0.296
 9348SOL     OW28942   6.199   2.704   1.431
 9348SOL    HW128943   6.255   2.785   1.414
 9348SOL    HW228944   6.258   2.624   1.434
 9349SOL     OW28945   6.302   2.427   1.708
 9349SOL    HW128946   6.321   2.492   1.782
 9349SOL    HW228947   6.362   2.347   1.717
 9350SOL     OW28948   7.036   3.082   1.633
 9350SOL    HW128949   7.027   3.072   1.732
 9350SOL    HW228950   7.132   3.075   1.607
 9351SOL     OW28951   5.976   3.603   1.560
 9351SOL    HW128952   5.885   3.644   1.558
 9351SOL    HW228953   5.969   3.509   1.592
 9352SOL     OW28954   6.811   2.187   0.449
 9352SOL    HW128955   6.876   2.113   0.438
 9352SOL    HW228956   6.831   2.237   0.533
 9353SOL     OW28957   6.180   2.607   0.652
 9353SOL    HW128958   6.230   2.692   0.633
 9353SOL    HW228959   6.092   2.609   0.604
 9354SOL     OW28960   6.445   3.236   0.016
 9354SOL    HW128961   6.399   3.251   0.104
 9354SOL    HW228962   6.489   3.321  -0.014
 9355SOL     OW28963   6.247   3.652   0.953
 9355SOL    HW128964   6.201   3.740   0.940
 9355SOL    HW228965   6.346   3.664   0.946
 9356SOL     OW28966   6.445   2.818   0.861
 9356SOL    HW128967   6.499   2.749   0.909
 9356SOL    HW228968   6.413   2.887   0.927
 9357SOL     OW28969   6.669   2.846   0.087
 9357SOL    HW128970   6.646   2.899   0.005
 9357SOL    HW228971   6.750   2.790   0.068
 9358SOL     OW28972   5.807   3.176   1.844
 9358SOL    HW128973   5.742   3.103   1.823
 9358SOL    HW228974   5.811   3.190   1.942
 9359SOL     OW28975   5.665   3.102   0.653
 9359SOL    HW128976   5.664   3.055   0.741
 9359SOL    HW228977   5.747   3.074   0.602
 9360SOL     OW28978   6.258   3.253   1.624
 9360SOL    HW128979   6.180   3.203   1.662
 9360SOL    HW228980   6.255   3.348   1.655
 9361SOL     OW28981   6.014   2.286   0.520
 9361SOL    HW128982   6.044   2.214   0.458
 9361SOL    HW228983   5.975   2.246   0.603
 9362SOL     OW28984   5.903   2.409   1.280
 9362SOL    HW128985   5.941   2.350   1.352
 9362SOL    HW228986   5.943   2.383   1.192
 9363SOL     OW28987   6.398   3.448   0.687
 9363SOL    HW128988   6.430   3.458   0.593
 9363SOL    HW228989   6.319   3.386   0.689
 9364SOL     OW28990   7.010   2.076   1.112
 9364SOL    HW128991   7.062   2.011   1.167
 9364SOL    HW228992   6.961   2.139   1.173
 9365SOL     OW28993   6.587   1.896   1.154
 9365SOL    HW128994   6.524   1.824   1.123
 9365SOL    HW228995   6.680   1.860   1.154
 9366SOL     OW28996   6.356   3.192   0.301
 9366SOL    HW128997   6.310   3.105   0.318
 9366SOL    HW228998   6.447   3.189   0.342
 9367SOL     OW28999   6.204   3.429   1.284
 9367SOL    HW129000   6.199   3.511   1.341
 9367SOL    HW229001   6.293   3.426   1.239
 9368SOL     OW29002   5.625   2.939   0.300
 9368SOL    HW129003   5.724   2.928   0.291
 9368SOL    HW229004   5.585   2.853   0.332
 9369SOL     OW29005   6.461   3.508   0.337
 9369SOL    HW129006   6.384   3.473   0.283
 9369SOL    HW229007   6.429   3.579   0.399
 9370SOL     OW29008   5.816   2.490   1.975
 9370SOL    HW129009   5.723   2.488   2.012
 9370SOL    HW229010   5.817   2.451   1.883
 9371SOL     OW29011   5.811   2.137   2.858
 9371SOL    HW129012   5.846   2.120   2.950
 9371SOL    HW229013   5.723   2.092   2.846
 9372SOL     OW29014   5.605   2.230   2.509
 9372SOL    HW129015   5.523   2.273   2.548
 9372SOL    HW229016   5.577   2.157   2.446
 9373SOL     OW29017   6.155   3.137   3.027
 9373SOL    HW129018   6.062   3.130   2.990
 9373SOL    HW229019   6.166   3.226   3.071
 9374SOL     OW29020   7.141   3.373   2.565
 9374SOL    HW129021   7.084   3.357   2.646
 9374SOL    HW229022   7.082   3.383   2.485
 9375SOL     OW29023   6.721   2.565   2.579
 9375SOL    HW129024   6.778   2.643   2.554
 9375SOL    HW229025   6.661   2.591   2.655
 9376SOL     OW29026   6.354   3.006   2.885
 9376SOL    HW129027   6.276   3.023   2.945
 9376SOL    HW229028   6.388   3.093   2.849
 9377SOL     OW29029   6.436   2.660   3.685
 9377SOL    HW129030   6.432   2.736   3.750
 9377SOL    HW229031   6.458   2.696   3.594
 9378SOL     OW29032   6.271   2.874   2.527
 9378SOL    HW129033   6.340   2.858   2.597
 9378SOL    HW229034   6.198   2.931   2.565
 9379SOL     OW29035   6.272   3.023   3.665
 9379SOL    HW129036   6.332   3.102   3.679
 9379SOL    HW229037   6.186   3.054   3.624
 9380SOL     OW29038   5.921   3.297   2.923
 9380SOL    HW129039   5.843   3.266   2.870
 9380SOL    HW229040   5.979   3.355   2.866
 9381SOL     OW29041   6.024   2.254   3.361
 9381SOL    HW129042   6.106   2.198   3.370
 9381SOL    HW229043   5.943   2.196   3.365
 9382SOL     OW29044   5.817   3.575   2.345
 9382SOL    HW129045   5.851   3.652   2.399
 9382SOL    HW229046   5.861   3.575   2.255
 9383SOL     OW29047   6.713   3.203   3.552
 9383SOL    HW129048   6.760   3.203   3.640
 9383SOL    HW229049   6.665   3.116   3.541
 9384SOL     OW29050   5.816   3.296   2.400
 9384SOL    HW129051   5.790   3.392   2.400
 9384SOL    HW229052   5.745   3.242   2.445
 9385SOL     OW29053   5.826   2.953   2.748
 9385SOL    HW129054   5.840   2.869   2.800
 9385SOL    HW229055   5.771   3.017   2.803
 9386SOL     OW29056   6.206   3.648   3.301
 9386SOL    HW129057   6.114   3.631   3.336
 9386SOL    HW229058   6.234   3.740   3.327
 9387SOL     OW29059   6.192   2.826   1.985
 9387SOL    HW129060   6.199   2.910   1.931
 9387SOL    HW229061   6.238   2.839   2.073
 9388SOL     OW29062   5.708   2.505   2.425
 9388SOL    HW129063   5.663   2.417   2.442
 9388SOL    HW229064   5.707   2.559   2.509
 9389SOL     OW29065   5.613   3.458   1.979
 9389SOL    HW129066   5.594   3.362   2.000
 9389SOL    HW229067   5.580   3.516   2.054
 9390SOL     OW29068   5.699   2.599   3.459
 9390SOL    HW129069   5.787   2.586   3.504
 9390SOL    HW229070   5.686   2.696   3.437
 9391SOL     OW29071   6.199   3.227   2.588
 9391SOL    HW129072   6.150   3.140   2.597
 9391SOL    HW229073   6.176   3.270   2.501
 9392SOL     OW29074   6.879   3.090   3.285
 9392SOL    HW129075   6.916   3.017   3.227
 9392SOL    HW229076   6.931   3.095   3.370
 9393SOL     OW29077   6.395   1.866   2.364
 9393SOL    HW129078   6.435   1.957   2.355
 9393SOL    HW229079   6.295   1.874   2.370
 9394SOL     OW29080   5.783   2.838   3.126
 9394SOL    HW129081   5.872   2.793   3.112
 9394SOL    HW229082   5.710   2.773   3.107
 9395SOL     OW29083   6.773   3.654   3.478
 9395SOL    HW129084   6.797   3.714   3.402
 9395SOL    HW229085   6.780   3.559   3.448
 9396SOL     OW29086   5.903   2.113   3.663
 9396SOL    HW129087   5.974   2.184   3.669
 9396SOL    HW229088   5.815   2.152   3.691
 9397SOL     OW29089   6.184   2.591   2.132
 9397SOL    HW129090   6.208   2.660   2.064
 9397SOL    HW229091   6.106   2.624   2.186
 9398SOL     OW29092   6.867   2.207   2.806
 9398SOL    HW129093   6.781   2.157   2.793
 9398SOL    HW229094   6.929   2.153   2.862
 9399SOL     OW29095   6.393   2.467   3.327
 9399SOL    HW129096   6.346   2.464   3.416
 9399SOL    HW229097   6.342   2.412   3.261
 9400SOL     OW29098   6.980   2.331   3.536
 9400SOL    HW129099   6.960   2.374   3.624
 9400SOL    HW229100   7.058   2.269   3.545
 9401SOL     OW29101   6.559   2.752   3.434
 9401SOL    HW129102   6.605   2.668   3.405
 9401SOL    HW229103   6.503   2.786   3.359
 9402SOL     OW29104   6.577   2.272   3.104
 9402SOL    HW129105   6.500   2.306   3.158
 9402SOL    HW229106   6.543   2.221   3.025
 9403SOL     OW29107   6.627   2.563   2.291
 9403SOL    HW129108   6.653   2.559   2.387
 9403SOL    HW229109   6.542   2.512   2.277
 9404SOL     OW29110   5.662   2.673   2.651
 9404SOL    HW129111   5.761   2.661   2.660
 9404SOL    HW229112   5.638   2.768   2.672
 9405SOL     OW29113   5.716   3.683   3.433
 9405SOL    HW129114   5.706   3.668   3.532
 9405SOL    HW229115   5.630   3.719   3.397
 9406SOL     OW29116   6.451   2.210   2.057
 9406SOL    HW129117   6.510   2.273   2.008
 9406SOL    HW229118   6.470   2.116   2.028
 9407SOL     OW29119   6.948   3.006   2.407
 9407SOL    HW129120   7.031   2.977   2.359
 9407SOL    HW229121   6.899   3.073   2.351
 9408SOL     OW29122   6.136   2.058   2.747
 9408SOL    HW129123   6.131   2.053   2.847
 9408SOL    HW229124   6.138   2.154   2.718
 9409SOL     OW29125   6.594   3.318   2.339
 9409SOL    HW129126   6.548   3.390   2.287
 9409SOL    HW229127   6.590   3.338   2.437
 9410SOL     OW29128   5.937   3.663   2.715
 9410SOL    HW129129   5.987   3.577   2.721
 9410SOL    HW229130   6.002   3.740   2.712
 9411SOL     OW29131   6.813   3.412   3.368
 9411SOL    HW129132   6.819   3.335   3.432
 9411SOL    HW229133   6.761   3.386   3.288
 9412SOL     OW29134   5.907   2.805   2.104
 9412SOL    HW129135   5.989   2.844   2.062
 9412SOL    HW229136   5.880   2.723   2.055
 9413SOL     OW29137   6.047   3.128   3.589
 9413SOL    HW129138   5.997   3.129   3.503
 9413SOL    HW229139   5.984   3.110   3.665
 9414SOL     OW29140   6.697   3.638   2.099
 9414SOL    HW129141   6.637   3.576   2.149
 9414SOL    HW229142   6.728   3.594   2.014
 9415SOL     OW29143   5.788   2.147   3.360
 9415SOL    HW129144   5.708   2.207   3.347
 9415SOL    HW229145   5.778   2.098   3.446
 9416SOL     OW29146   6.050   3.605   2.185
 9416SOL    HW129147   6.083   3.644   2.271
 9416SOL    HW229148   6.126   3.598   2.120
 9417SOL     OW29149   5.835   3.647   3.103
 9417SOL    HW129150   5.892   3.582   3.153
 9417SOL    HW229151   5.819   3.614   3.010
 9418SOL     OW29152   6.526   3.560   2.766
 9418SOL    HW129153   6.606   3.503   2.787
 9418SOL    HW229154   6.477   3.520   2.689
 9419SOL     OW29155   5.968   2.562   2.342
 9419SOL    HW129156   6.013   2.472   2.339
 9419SOL    HW229157   5.874   2.551   2.375
 9420SOL     OW29158   6.200   1.984   1.979
 9420SOL    HW129159   6.298   1.962   1.986
 9420SOL    HW229160   6.169   1.967   1.886
 9421SOL     OW29161   6.367   2.126   3.611
 9421SOL    HW129162   6.434   2.065   3.654
 9421SOL    HW229163   6.294   2.145   3.676
 9422SOL     OW29164   6.474   3.376   3.057
 9422SOL    HW129165   6.451   3.351   2.963
 9422SOL    HW229166   6.535   3.307   3.096
 9423SOL     OW29167   6.389   3.264   2.786
 9423SOL    HW129168   6.479   3.278   2.744
 9423SOL    HW229169   6.318   3.266   2.715
 9424SOL     OW29170   6.508   2.365   2.761
 9424SOL    HW129171   6.483   2.356   2.665
 9424SOL    HW229172   6.556   2.283   2.792
 9425SOL     OW29173   6.125   1.926   2.374
 9425SOL    HW129174   6.044   1.927   2.432
 9425SOL    HW229175   6.128   2.009   2.319
 9426SOL     OW29176   7.020   3.050   1.903
 9426SOL    HW129177   7.052   2.974   1.960
 9426SOL    HW229178   6.928   3.077   1.933
 9427SOL     OW29179   5.883   1.897   2.033
 9427SOL    HW129180   5.932   1.981   2.012
 9427SOL    HW229181   5.945   1.832   2.078
 9428SOL     OW29182   6.521   2.098   2.342
 9428SOL    HW129183   6.473   2.139   2.264
 9428SOL    HW229184   6.620   2.096   2.323
 9429SOL     OW29185   6.662   2.545   3.326
 9429SOL    HW129186   6.582   2.484   3.329
 9429SOL    HW229187   6.743   2.492   3.302
 9430SOL     OW29188   6.813   3.432   2.655
 9430SOL    HW129189   6.834   3.506   2.590
 9430SOL    HW229190   6.881   3.432   2.728
 9431SOL     OW29191   6.045   3.014   2.603
 9431SOL    HW129192   5.974   2.987   2.668
 9431SOL    HW229193   6.019   2.986   2.510
 9432SOL     OW29194   6.857   3.659   2.453
 9432SOL    HW129195   6.901   3.723   2.389
 9432SOL    HW229196   6.807   3.711   2.523
 9433SOL     OW29197   6.618   2.411   1.878
 9433SOL    HW129198   6.577   2.493   1.839
 9433SOL    HW229199   6.682   2.437   1.951
 9434SOL     OW29200   5.664   2.418   3.248
 9434SOL    HW129201   5.756   2.417   3.207
 9434SOL    HW229202   5.658   2.492   3.315
 9435SOL     OW29203   6.147   2.084   3.009
 9435SOL    HW129204   6.185   2.000   3.046
 9435SOL    HW229205   6.059   2.103   3.053
 9436SOL     OW29206   6.452   2.316   2.504
 9436SOL    HW129207   6.420   2.388   2.442
 9436SOL    HW229208   6.476   2.235   2.451
 9437SOL     OW29209   6.603   1.901   2.615
 9437SOL    HW129210   6.531   1.906   2.546
 9437SOL    HW229211   6.579   1.832   2.684
 9438SOL     OW29212   6.074   3.247   2.036
 9438SOL    HW129213   5.987   3.232   2.083
 9438SOL    HW229214   6.057   3.273   1.941
 9439SOL     OW29215   6.113   2.118   2.190
 9439SOL    HW129216   6.140   2.059   2.115
 9439SOL    HW229217   6.113   2.213   2.159
 9440SOL     OW29218   6.650   3.209   3.202
 9440SOL    HW129219   6.570   3.186   3.257
 9440SOL    HW229220   6.733   3.183   3.251
 9441SOL     OW29221   6.697   3.057   2.962
 9441SOL    HW129222   6.657   3.101   3.043
 9441SOL    HW229223   6.656   3.094   2.879
 9442SOL     OW29224   6.501   1.951   3.264
 9442SOL    HW129225   6.526   1.931   3.169
 9442SOL    HW229226   6.573   2.007   3.306
 9443SOL     OW29227   6.566   2.978   3.581
 9443SOL    HW129228   6.467   2.984   3.591
 9443SOL    HW229229   6.589   2.898   3.525
 9444SOL     OW29230   6.291   2.912   2.230
 9444SOL    HW129231   6.277   2.919   2.329
 9444SOL    HW229232   6.375   2.861   2.212
 9445SOL     OW29233   5.996   2.675   3.113
 9445SOL    HW129234   6.082   2.687   3.163
 9445SOL    HW229235   5.954   2.588   3.140
 9446SOL     OW29236   6.860   2.248   3.124
 9446SOL    HW129237   6.881   2.322   3.188
 9446SOL    HW229238   6.771   2.265   3.081
 9447SOL     OW29239   5.650   3.426   3.193
 9447SOL    HW129240   5.604   3.508   3.159
 9447SOL    HW229241   5.748   3.445   3.202
 9448SOL     OW29242   5.953   2.962   2.363
 9448SOL    HW129243   5.946   3.045   2.307
 9448SOL    HW229244   5.957   2.882   2.303
 9449SOL     OW29245   6.152   2.399   2.727
 9449SOL    HW129246   6.164   2.465   2.653
 9449SOL    HW229247   6.198   2.433   2.810
 9450SOL     OW29248   6.838   3.210   2.250
 9450SOL    HW129249   6.888   3.287   2.290
 9450SOL    HW229250   6.743   3.212   2.282
 9451SOL     OW29251   6.858   3.307   3.004
 9451SOL    HW129252   6.905   3.320   3.091
 9451SOL    HW229253   6.792   3.233   3.013
 9452SOL     OW29254   5.940   3.372   3.191
 9452SOL    HW129255   5.919   3.328   3.104
 9452SOL    HW229256   6.037   3.398   3.194
 9453SOL     OW29257   5.988   2.613   3.460
 9453SOL    HW129258   6.056   2.668   3.413
 9453SOL    HW229259   6.028   2.525   3.487
 9454SOL     OW29260   6.599   1.967   3.632
 9454SOL    HW129261   6.605   2.052   3.580
 9454SOL    HW229262   6.631   1.891   3.575
 9455SOL     OW29263   6.090   1.912   3.602
 9455SOL    HW129264   6.048   1.855   3.532
 9455SOL    HW229265   6.024   1.981   3.634
 9456SOL     OW29266   6.159   2.732   2.891
 9456SOL    HW129267   6.203   2.821   2.882
 9456SOL    HW229268   6.096   2.732   2.968
 9457SOL     OW29269   6.946   2.724   2.907
 9457SOL    HW129270   6.871   2.724   2.841
 9457SOL    HW229271   6.983   2.632   2.916
 9458SOL     OW29272   6.795   2.387   2.137
 9458SOL    HW129273   6.808   2.303   2.191
 9458SOL    HW229274   6.766   2.461   2.197
 9459SOL     OW29275   5.893   2.075   3.093
 9459SOL    HW129276   5.870   2.112   3.183
 9459SOL    HW229277   5.863   1.980   3.087
 9460SOL     OW29278   5.623   3.172   3.144
 9460SOL    HW129279   5.676   3.123   3.212
 9460SOL    HW229280   5.645   3.270   3.149
 9461SOL     OW29281   6.318   2.496   2.926
 9461SOL    HW129282   6.377   2.470   2.850
 9461SOL    HW229283   6.290   2.592   2.915
 9462SOL     OW29284   5.893   1.925   2.480
 9462SOL    HW129285   5.882   2.019   2.513
 9462SOL    HW229286   5.888   1.862   2.557
 9463SOL     OW29287   7.208   2.229   2.236
 9463SOL    HW129288   7.210   2.153   2.300
 9463SOL    HW229289   7.160   2.306   2.276
 9464SOL     OW29290   6.566   3.435   3.562
 9464SOL    HW129291   6.546   3.479   3.474
 9464SOL    HW229292   6.605   3.344   3.546
 9465SOL     OW29293   5.936   2.760   3.666
 9465SOL    HW129294   6.012   2.804   3.714
 9465SOL    HW229295   5.971   2.713   3.584
 9466SOL     OW29296   6.889   2.700   1.904
 9466SOL    HW129297   6.923   2.607   1.919
 9466SOL    HW229298   6.907   2.727   1.809
 9467SOL     OW29299   6.654   3.195   2.711
 9467SOL    HW129300   6.661   3.111   2.656
 9467SOL    HW229301   6.716   3.264   2.675
 9468SOL     OW29302   5.905   2.672   2.811
 9468SOL    HW129303   5.998   2.708   2.816
 9468SOL    HW229304   5.899   2.587   2.863
 9469SOL     OW29305   5.925   2.371   2.868
 9469SOL    HW129306   5.873   2.288   2.851
 9469SOL    HW229307   6.002   2.376   2.804
 9470SOL     OW29308   6.724   2.242   3.540
 9470SOL    HW129309   6.679   2.305   3.604
 9470SOL    HW229310   6.817   2.273   3.523
 9471SOL     OW29311   6.746   2.069   3.339
 9471SOL    HW129312   6.746   2.133   3.416
 9471SOL    HW229313   6.774   2.117   3.256
 9472SOL     OW29314   5.594   3.188   2.062
 9472SOL    HW129315   5.501   3.209   2.031
 9472SOL    HW229316   5.604   3.089   2.075
 9473SOL     OW29317   5.674   3.663   2.789
 9473SOL    HW129318   5.632   3.577   2.762
 9473SOL    HW229319   5.768   3.666   2.755
 9474SOL     OW29320   6.090   3.430   2.772
 9474SOL    HW129321   6.156   3.504   2.781
 9474SOL    HW229322   6.134   3.351   2.730
 9475SOL     OW29323   6.588   2.658   3.100
 9475SOL    HW129324   6.629   2.626   3.186
 9475SOL    HW229325   6.492   2.631   3.097
 9476SOL     OW29326   5.626   2.406   2.976
 9476SOL    HW129327   5.711   2.373   2.935
 9476SOL    HW229328   5.639   2.421   3.074
 9477SOL     OW29329   5.775   2.382   3.584
 9477SOL    HW129330   5.834   2.342   3.514
 9477SOL    HW229331   5.717   2.453   3.543
 9478SOL     OW29332   6.401   2.434   2.187
 9478SOL    HW129333   6.408   2.345   2.141
 9478SOL    HW229334   6.307   2.468   2.179
 9479SOL     OW29335   5.838   3.426   3.606
 9479SOL    HW129336   5.808   3.483   3.682
 9479SOL    HW229337   5.831   3.329   3.632
 9480SOL     OW29338   6.257   2.326   3.131
 9480SOL    HW129339   6.223   2.237   3.101
 9480SOL    HW229340   6.283   2.380   3.051
 9481SOL     OW29341   6.516   3.540   3.327
 9481SOL    HW129342   6.492   3.522   3.232
 9481SOL    HW229343   6.546   3.634   3.337
 9482SOL     OW29344   6.059   2.362   2.053
 9482SOL    HW129345   6.120   2.442   2.057
 9482SOL    HW229346   5.964   2.393   2.060
 9483SOL     OW29347   5.745   2.999   3.328
 9483SOL    HW129348   5.767   2.938   3.404
 9483SOL    HW229349   5.755   2.950   3.242
 9484SOL     OW29350   6.933   2.921   3.096
 9484SOL    HW129351   6.957   2.858   3.022
 9484SOL    HW229352   6.843   2.961   3.078
 9485SOL     OW29353   6.888   2.717   2.171
 9485SOL    HW129354   6.802   2.686   2.213
 9485SOL    HW229355   6.884   2.703   2.072
 9486SOL     OW29356   6.838   3.593   2.990
 9486SOL    HW129357   6.922   3.598   2.936
 9486SOL    HW229358   6.815   3.497   3.008
 9487SOL     OW29359   5.669   3.120   2.884
 9487SOL    HW129360   5.664   3.119   2.984
 9487SOL    HW229361   5.586   3.079   2.846
 9488SOL     OW29362   6.274   3.524   3.578
 9488SOL    HW129363   6.218   3.605   3.587
 9488SOL    HW229364   6.326   3.528   3.492
 9489SOL     OW29365   6.974   3.435   2.339
 9489SOL    HW129366   7.041   3.447   2.265
 9489SOL    HW229367   6.934   3.524   2.362
 9490SOL     OW29368   5.716   3.656   3.713
 9490SOL    HW129369   5.675   3.582   3.766
 9490SOL    HW229370   5.780   3.707   3.771
 9491SOL     OW29371   6.866   2.789   2.534
 9491SOL    HW129372   6.926   2.708   2.536
 9491SOL    HW229373   6.906   2.858   2.474
 9492SOL     OW29374   6.416   3.135   3.284
 9492SOL    HW129375   6.411   3.168   3.379
 9492SOL    HW229376   6.330   3.154   3.238
 9493SOL     OW29377   6.258   3.478   2.016
 9493SOL    HW129378   6.267   3.488   1.917
 9493SOL    HW229379   6.218   3.389   2.037
 9494SOL     OW29380   5.849   2.188   2.582
 9494SOL    HW129381   5.770   2.239   2.548
 9494SOL    HW229382   5.840   2.173   2.680
 9495SOL     OW29383   6.780   3.474   1.893
 9495SOL    HW129384   6.786   3.381   1.930
 9495SOL    HW229385   6.721   3.474   1.813
 9496SOL     OW29386   6.408   2.864   3.234
 9496SOL    HW129387   6.448   2.863   3.142
 9496SOL    HW229388   6.418   2.956   3.274
 9497SOL     OW29389   6.502   2.772   2.153
 9497SOL    HW129390   6.565   2.810   2.085
 9497SOL    HW229391   6.542   2.689   2.192
 9498SOL     OW29392   5.958   3.150   3.352
 9498SOL    HW129393   5.945   3.243   3.318
 9498SOL    HW229394   5.874   3.098   3.339
 9499SOL     OW29395   6.625   2.960   2.558
 9499SOL    HW129396   6.555   2.913   2.612
 9499SOL    HW229397   6.684   2.892   2.515
 9500SOL     OW29398   6.600   2.098   2.833
 9500SOL    HW129399   6.592   2.062   2.740
 9500SOL    HW229400   6.598   2.022   2.898
 9501SOL     OW29401   6.176   3.349   2.353
 9501SOL    HW129402   6.218   3.291   2.283
 9501SOL    HW229403   6.132   3.428   2.309
 9502SOL     OW29404   5.841   3.210   2.152
 9502SOL    HW129405   5.745   3.211   2.125
 9502SOL    HW229406   5.853   3.263   2.236
 9503SOL     OW29407   5.691   2.875   3.588
 9503SOL    HW129408   5.614   2.842   3.642
 9503SOL    HW229409   5.776   2.845   3.630
 9504SOL     OW29410   6.258   2.065   3.351
 9504SOL    HW129411   6.348   2.049   3.311
 9504SOL    HW229412   6.266   2.070   3.450
 9505SOL     OW29413   5.661   2.207   1.895
 9505SOL    HW129414   5.569   2.179   1.866
 9505SOL    HW229415   5.692   2.284   1.839
 9506SOL     OW29416   5.658   2.028   2.180
 9506SOL    HW129417   5.641   2.111   2.126
 9506SOL    HW229418   5.748   1.991   2.158
 9507SOL     OW29419   6.199   2.704   3.293
 9507SOL    HW129420   6.255   2.785   3.276
 9507SOL    HW229421   6.258   2.624   3.296
 9508SOL     OW29422   6.302   2.427   3.570
 9508SOL    HW129423   6.321   2.492   3.644
 9508SOL    HW229424   6.362   2.347   3.579
 9509SOL     OW29425   7.036   3.082   3.495
 9509SOL    HW129426   7.027   3.072   3.594
 9509SOL    HW229427   7.132   3.075   3.469
 9510SOL     OW29428   5.976   3.603   3.422
 9510SOL    HW129429   5.885   3.644   3.420
 9510SOL    HW229430   5.969   3.509   3.454
 9511SOL     OW29431   6.811   2.187   2.311
 9511SOL    HW129432   6.876   2.113   2.300
 9511SOL    HW229433   6.831   2.237   2.395
 9512SOL     OW29434   6.180   2.607   2.514
 9512SOL    HW129435   6.230   2.692   2.495
 9512SOL    HW229436   6.092   2.609   2.466
 9513SOL     OW29437   6.445   3.236   1.878
 9513SOL    HW129438   6.399   3.251   1.966
 9513SOL    HW229439   6.489   3.321   1.848
 9514SOL     OW29440   6.247   3.652   2.815
 9514SOL    HW129441   6.201   3.740   2.802
 9514SOL    HW229442   6.346   3.664   2.808
 9515SOL     OW29443   6.445   2.818   2.723
 9515SOL    HW129444   6.499   2.749   2.771
 9515SOL    HW229445   6.413   2.887   2.789
 9516SOL     OW29446   6.669   2.846   1.949
 9516SOL    HW129447   6.646   2.899   1.867
 9516SOL    HW229448   6.750   2.790   1.930
 9517SOL     OW29449   5.807   3.176   3.706
 9517SOL    HW129450   5.742   3.103   3.685
 9517SOL    HW229451   5.811   3.190   3.804
 9518SOL     OW29452   5.665   3.102   2.515
 9518SOL    HW129453   5.664   3.055   2.603
 9518SOL    HW229454   5.747   3.074   2.464
 9519SOL     OW29455   6.258   3.253   3.486
 9519SOL    HW129456   6.180   3.203   3.524
 9519SOL    HW229457   6.255   3.348   3.517
 9520SOL     OW29458   6.014   2.286   2.382
 9520SOL    HW129459   6.044   2.214   2.320
 9520SOL    HW229460   5.975   2.246   2.465
 9521SOL     OW29461   5.903   2.409   3.142
 9521SOL    HW129462   5.941   2.350   3.214
 9521SOL    HW229463   5.943   2.383   3.054
 9522SOL     OW29464   6.398   3.448   2.549
 9522SOL    HW129465   6.430   3.458   2.455
 9522SOL    HW229466   6.319   3.386   2.551
 9523SOL     OW29467   7.010   2.076   2.974
 9523SOL    HW129468   7.062   2.011   3.029
 9523SOL    HW229469   6.961   2.139   3.035
 9524SOL     OW29470   6.587   1.896   3.016
 9524SOL    HW129471   6.524   1.824   2.985
 9524SOL    HW229472   6.680   1.860   3.016
 9525SOL     OW29473   6.356   3.192   2.163
 9525SOL    HW129474   6.310   3.105   2.180
 9525SOL    HW229475   6.447   3.189   2.204
 9526SOL     OW29476   6.204   3.429   3.146
 9526SOL    HW129477   6.199   3.511   3.203
 9526SOL    HW229478   6.293   3.426   3.101
 9527SOL     OW29479   6.938   1.914   2.030
 9527SOL    HW129480   6.973   1.873   1.946
 9527SOL    HW229481   6.848   1.876   2.050
 9528SOL     OW29482   5.625   2.939   2.162
 9528SOL    HW129483   5.724   2.928   2.153
 9528SOL    HW229484   5.585   2.853   2.194
 9529SOL     OW29485   6.461   3.508   2.199
 9529SOL    HW129486   6.384   3.473   2.145
 9529SOL    HW229487   6.429   3.579   2.261
 9530SOL     OW29488   5.816   2.490   3.837
 9530SOL    HW129489   5.723   2.488   3.874
 9530SOL    HW229490   5.817   2.451   3.745
 9531SOL     OW29491   5.811   2.137   4.720
 9531SOL    HW129492   5.846   2.120   4.812
 9531SOL    HW229493   5.723   2.092   4.708
 9532SOL     OW29494   5.605   2.230   4.371
 9532SOL    HW129495   5.523   2.273   4.410
 9532SOL    HW229496   5.577   2.157   4.308
 9533SOL     OW29497   6.155   3.137   4.889
 9533SOL    HW129498   6.062   3.130   4.852
 9533SOL    HW229499   6.166   3.226   4.933
 9534SOL     OW29500   7.141   3.373   4.427
 9534SOL    HW129501   7.084   3.357   4.508
 9534SOL    HW229502   7.082   3.383   4.347
 9535SOL     OW29503   6.721   2.565   4.441
 9535SOL    HW129504   6.778   2.643   4.416
 9535SOL    HW229505   6.661   2.591   4.517
 9536SOL     OW29506   6.354   3.006   4.747
 9536SOL    HW129507   6.276   3.023   4.807
 9536SOL    HW229508   6.388   3.093   4.711
 9537SOL     OW29509   6.436   2.660   5.547
 9537SOL    HW129510   6.432   2.736   5.612
 9537SOL    HW229511   6.458   2.696   5.456
 9538SOL     OW29512   6.271   2.874   4.389
 9538SOL    HW129513   6.340   2.858   4.459
 9538SOL    HW229514   6.198   2.931   4.427
 9539SOL     OW29515   6.272   3.023   5.527
 9539SOL    HW129516   6.332   3.102   5.541
 9539SOL    HW229517   6.186   3.054   5.486
 9540SOL     OW29518   5.921   3.297   4.785
 9540SOL    HW129519   5.843   3.266   4.732
 9540SOL    HW229520   5.979   3.355   4.728
 9541SOL     OW29521   6.024   2.254   5.223
 9541SOL    HW129522   6.106   2.198   5.232
 9541SOL    HW229523   5.943   2.196   5.227
 9542SOL     OW29524   5.817   3.575   4.207
 9542SOL    HW129525   5.851   3.652   4.261
 9542SOL    HW229526   5.861   3.575   4.117
 9543SOL     OW29527   6.713   3.203   5.414
 9543SOL    HW129528   6.760   3.203   5.502
 9543SOL    HW229529   6.665   3.116   5.403
 9544SOL     OW29530   5.816   3.296   4.262
 9544SOL    HW129531   5.790   3.392   4.262
 9544SOL    HW229532   5.745   3.242   4.307
 9545SOL     OW29533   5.826   2.953   4.610
 9545SOL    HW129534   5.840   2.869   4.662
 9545SOL    HW229535   5.771   3.017   4.665
 9546SOL     OW29536   6.206   3.648   5.163
 9546SOL    HW129537   6.114   3.631   5.198
 9546SOL    HW229538   6.234   3.740   5.189
 9547SOL     OW29539   6.192   2.826   3.847
 9547SOL    HW129540   6.199   2.910   3.793
 9547SOL    HW229541   6.238   2.839   3.935
 9548SOL     OW29542   5.708   2.505   4.287
 9548SOL    HW129543   5.663   2.417   4.304
 9548SOL    HW229544   5.707   2.559   4.371
 9549SOL     OW29545   5.613   3.458   3.841
 9549SOL    HW129546   5.594   3.362   3.862
 9549SOL    HW229547   5.580   3.516   3.916
 9550SOL     OW29548   5.699   2.599   5.321
 9550SOL    HW129549   5.787   2.586   5.366
 9550SOL    HW229550   5.686   2.696   5.299
 9551SOL     OW29551   6.199   3.227   4.450
 9551SOL    HW129552   6.150   3.140   4.459
 9551SOL    HW229553   6.176   3.270   4.363
 9552SOL     OW29554   6.879   3.090   5.147
 9552SOL    HW129555   6.916   3.017   5.089
 9552SOL    HW229556   6.931   3.095   5.232
 9553SOL     OW29557   6.395   1.866   4.226
 9553SOL    HW129558   6.435   1.957   4.217
 9553SOL    HW229559   6.295   1.874   4.232
 9554SOL     OW29560   5.783   2.838   4.988
 9554SOL    HW129561   5.872   2.793   4.974
 9554SOL    HW229562   5.710   2.773   4.969
 9555SOL     OW29563   6.773   3.654   5.340
 9555SOL    HW129564   6.797   3.714   5.264
 9555SOL    HW229565   6.780   3.559   5.310
 9556SOL     OW29566   5.903   2.113   5.525
 9556SOL    HW129567   5.974   2.184   5.531
 9556SOL    HW229568   5.815   2.152   5.553
 9557SOL     OW29569   6.184   2.591   3.994
 9557SOL    HW129570   6.208   2.660   3.926
 9557SOL    HW229571   6.106   2.624   4.048
 9558SOL     OW29572   6.867   2.207   4.668
 9558SOL    HW129573   6.781   2.157   4.655
 9558SOL    HW229574   6.929   2.153   4.724
 9559SOL     OW29575   6.393   2.467   5.189
 9559SOL    HW129576   6.346   2.464   5.278
 9559SOL    HW229577   6.342   2.412   5.123
 9560SOL     OW29578   6.980   2.331   5.398
 9560SOL    HW129579   6.960   2.374   5.486
 9560SOL    HW229580   7.058   2.269   5.407
 9561SOL     OW29581   6.559   2.752   5.296
 9561SOL    HW129582   6.605   2.668   5.267
 9561SOL    HW229583   6.503   2.786   5.221
 9562SOL     OW29584   6.577   2.272   4.966
 9562SOL    HW129585   6.500   2.306   5.020
 9562SOL    HW229586   6.543   2.221   4.887
 9563SOL     OW29587   6.627   2.563   4.153
 9563SOL    HW129588   6.653   2.559   4.249
 9563SOL    HW229589   6.542   2.512   4.139
 9564SOL     OW29590   5.662   2.673   4.513
 9564SOL    HW129591   5.761   2.661   4.522
 9564SOL    HW229592   5.638   2.768   4.534
 9565SOL     OW29593   5.716   3.683   5.295
 9565SOL    HW129594   5.706   3.668   5.394
 9565SOL    HW229595   5.630   3.719   5.259
 9566SOL     OW29596   6.451   2.210   3.919
 9566SOL    HW129597   6.510   2.273   3.870
 9566SOL    HW229598   6.470   2.116   3.890
 9567SOL     OW29599   6.948   3.006   4.269
 9567SOL    HW129600   7.031   2.977   4.221
 9567SOL    HW229601   6.899   3.073   4.213
 9568SOL     OW29602   6.136   2.058   4.609
 9568SOL    HW129603   6.131   2.053   4.709
 9568SOL    HW229604   6.138   2.154   4.580
 9569SOL     OW29605   6.594   3.318   4.201
 9569SOL    HW129606   6.548   3.390   4.149
 9569SOL    HW229607   6.590   3.338   4.299
 9570SOL     OW29608   5.937   3.663   4.577
 9570SOL    HW129609   5.987   3.577   4.583
 9570SOL    HW229610   6.002   3.740   4.574
 9571SOL     OW29611   6.813   3.412   5.230
 9571SOL    HW129612   6.819   3.335   5.294
 9571SOL    HW229613   6.761   3.386   5.150
 9572SOL     OW29614   5.907   2.805   3.966
 9572SOL    HW129615   5.989   2.844   3.924
 9572SOL    HW229616   5.880   2.723   3.917
 9573SOL     OW29617   6.047   3.128   5.451
 9573SOL    HW129618   5.997   3.129   5.365
 9573SOL    HW229619   5.984   3.110   5.527
 9574SOL     OW29620   6.697   3.638   3.961
 9574SOL    HW129621   6.637   3.576   4.011
 9574SOL    HW229622   6.728   3.594   3.876
 9575SOL     OW29623   5.788   2.147   5.222
 9575SOL    HW129624   5.708   2.207   5.209
 9575SOL    HW229625   5.778   2.098   5.308
 9576SOL     OW29626   6.050   3.605   4.047
 9576SOL    HW129627   6.083   3.644   4.133
 9576SOL    HW229628   6.126   3.598   3.982
 9577SOL     OW29629   5.835   3.647   4.965
 9577SOL    HW129630   5.892   3.582   5.015
 9577SOL    HW229631   5.819   3.614   4.872
 9578SOL     OW29632   6.526   3.560   4.628
 9578SOL    HW129633   6.606   3.503   4.649
 9578SOL    HW229634   6.477   3.520   4.551
 9579SOL     OW29635   5.968   2.562   4.204
 9579SOL    HW129636   6.013   2.472   4.201
 9579SOL    HW229637   5.874   2.551   4.237
 9580SOL     OW29638   6.200   1.984   3.841
 9580SOL    HW129639   6.298   1.962   3.848
 9580SOL    HW229640   6.169   1.967   3.748
 9581SOL     OW29641   6.367   2.126   5.473
 9581SOL    HW129642   6.434   2.065   5.516
 9581SOL    HW229643   6.294   2.145   5.538
 9582SOL     OW29644   6.474   3.376   4.919
 9582SOL    HW129645   6.451   3.351   4.825
 9582SOL    HW229646   6.535   3.307   4.958
 9583SOL     OW29647   6.389   3.264   4.648
 9583SOL    HW129648   6.479   3.278   4.606
 9583SOL    HW229649   6.318   3.266   4.577
 9584SOL     OW29650   6.508   2.365   4.623
 9584SOL    HW129651   6.483   2.356   4.527
 9584SOL    HW229652   6.556   2.283   4.654
 9585SOL     OW29653   6.125   1.926   4.236
 9585SOL    HW129654   6.044   1.927   4.294
 9585SOL    HW229655   6.128   2.009   4.181
 9586SOL     OW29656   7.020   3.050   3.765
 9586SOL    HW129657   7.052   2.974   3.822
 9586SOL    HW229658   6.928   3.077   3.795
 9587SOL     OW29659   5.883   1.897   3.895
 9587SOL    HW129660   5.932   1.981   3.874
 9587SOL    HW229661   5.945   1.832   3.940
 9588SOL     OW29662   6.521   2.098   4.204
 9588SOL    HW129663   6.473   2.139   4.126
 9588SOL    HW229664   6.620   2.096   4.185
 9589SOL     OW29665   6.662   2.545   5.188
 9589SOL    HW129666   6.582   2.484   5.191
 9589SOL    HW229667   6.743   2.492   5.164
 9590SOL     OW29668   6.813   3.432   4.517
 9590SOL    HW129669   6.834   3.506   4.452
 9590SOL    HW229670   6.881   3.432   4.590
 9591SOL     OW29671   6.045   3.014   4.465
 9591SOL    HW129672   5.974   2.987   4.530
 9591SOL    HW229673   6.019   2.986   4.372
 9592SOL     OW29674   6.857   3.659   4.315
 9592SOL    HW129675   6.901   3.723   4.251
 9592SOL    HW229676   6.807   3.711   4.385
 9593SOL     OW29677   6.618   2.411   3.740
 9593SOL    HW129678   6.577   2.493   3.701
 9593SOL    HW229679   6.682   2.437   3.813
 9594SOL     OW29680   5.664   2.418   5.110
 9594SOL    HW129681   5.756   2.417   5.069
 9594SOL    HW229682   5.658   2.492   5.177
 9595SOL     OW29683   6.147   2.084   4.871
 9595SOL    HW129684   6.185   2.000   4.908
 9595SOL    HW229685   6.059   2.103   4.915
 9596SOL     OW29686   6.452   2.316   4.366
 9596SOL    HW129687   6.420   2.388   4.304
 9596SOL    HW229688   6.476   2.235   4.313
 9597SOL     OW29689   6.603   1.901   4.477
 9597SOL    HW129690   6.531   1.906   4.408
 9597SOL    HW229691   6.579   1.832   4.546
 9598SOL     OW29692   6.074   3.247   3.898
 9598SOL    HW129693   5.987   3.232   3.945
 9598SOL    HW229694   6.057   3.273   3.803
 9599SOL     OW29695   6.113   2.118   4.052
 9599SOL    HW129696   6.140   2.059   3.977
 9599SOL    HW229697   6.113   2.213   4.021
 9600SOL     OW29698   6.650   3.209   5.064
 9600SOL    HW129699   6.570   3.186   5.119
 9600SOL    HW229700   6.733   3.183   5.113
 9601SOL     OW29701   6.697   3.057   4.824
 9601SOL    HW129702   6.657   3.101   4.905
 9601SOL    HW229703   6.656   3.094   4.741
 9602SOL     OW29704   6.501   1.951   5.126
 9602SOL    HW129705   6.526   1.931   5.031
 9602SOL    HW229706   6.573   2.007   5.168
 9603SOL     OW29707   6.566   2.978   5.443
 9603SOL    HW129708   6.467   2.984   5.453
 9603SOL    HW229709   6.589   2.898   5.387
 9604SOL     OW29710   6.291   2.912   4.092
 9604SOL    HW129711   6.277   2.919   4.191
 9604SOL    HW229712   6.375   2.861   4.074
 9605SOL     OW29713   5.996   2.675   4.975
 9605SOL    HW129714   6.082   2.687   5.025
 9605SOL    HW229715   5.954   2.588   5.002
 9606SOL     OW29716   6.860   2.248   4.986
 9606SOL    HW129717   6.881   2.322   5.050
 9606SOL    HW229718   6.771   2.265   4.943
 9607SOL     OW29719   5.650   3.426   5.055
 9607SOL    HW129720   5.604   3.508   5.021
 9607SOL    HW229721   5.748   3.445   5.064
 9608SOL     OW29722   5.953   2.962   4.225
 9608SOL    HW129723   5.946   3.045   4.169
 9608SOL    HW229724   5.957   2.882   4.165
 9609SOL     OW29725   6.152   2.399   4.589
 9609SOL    HW129726   6.164   2.465   4.515
 9609SOL    HW229727   6.198   2.433   4.672
 9610SOL     OW29728   6.838   3.210   4.112
 9610SOL    HW129729   6.888   3.287   4.152
 9610SOL    HW229730   6.743   3.212   4.144
 9611SOL     OW29731   6.858   3.307   4.866
 9611SOL    HW129732   6.905   3.320   4.953
 9611SOL    HW229733   6.792   3.233   4.875
 9612SOL     OW29734   5.940   3.372   5.053
 9612SOL    HW129735   5.919   3.328   4.966
 9612SOL    HW229736   6.037   3.398   5.056
 9613SOL     OW29737   5.988   2.613   5.322
 9613SOL    HW129738   6.056   2.668   5.275
 9613SOL    HW229739   6.028   2.525   5.349
 9614SOL     OW29740   6.599   1.967   5.494
 9614SOL    HW129741   6.605   2.052   5.442
 9614SOL    HW229742   6.631   1.891   5.437
 9615SOL     OW29743   6.090   1.912   5.464
 9615SOL    HW129744   6.048   1.855   5.394
 9615SOL    HW229745   6.024   1.981   5.496
 9616SOL     OW29746   6.159   2.732   4.753
 9616SOL    HW129747   6.203   2.821   4.744
 9616SOL    HW229748   6.096   2.732   4.830
 9617SOL     OW29749   6.946   2.724   4.769
 9617SOL    HW129750   6.871   2.724   4.703
 9617SOL    HW229751   6.983   2.632   4.778
 9618SOL     OW29752   6.795   2.387   3.999
 9618SOL    HW129753   6.808   2.303   4.053
 9618SOL    HW229754   6.766   2.461   4.059
 9619SOL     OW29755   5.893   2.075   4.955
 9619SOL    HW129756   5.870   2.112   5.045
 9619SOL    HW229757   5.863   1.980   4.949
 9620SOL     OW29758   5.623   3.172   5.006
 9620SOL    HW129759   5.676   3.123   5.074
 9620SOL    HW229760   5.645   3.270   5.011
 9621SOL     OW29761   6.318   2.496   4.788
 9621SOL    HW129762   6.377   2.470   4.712
 9621SOL    HW229763   6.290   2.592   4.777
 9622SOL     OW29764   5.893   1.925   4.342
 9622SOL    HW129765   5.882   2.019   4.375
 9622SOL    HW229766   5.888   1.862   4.419
 9623SOL     OW29767   7.208   2.229   4.098
 9623SOL    HW129768   7.210   2.153   4.162
 9623SOL    HW229769   7.160   2.306   4.138
 9624SOL     OW29770   6.609   2.628   4.690
 9624SOL    HW129771   6.624   2.649   4.786
 9624SOL    HW229772   6.579   2.533   4.681
 9625SOL     OW29773   6.566   3.435   5.424
 9625SOL    HW129774   6.546   3.479   5.336
 9625SOL    HW229775   6.605   3.344   5.408
 9626SOL     OW29776   5.936   2.760   5.528
 9626SOL    HW129777   6.012   2.804   5.576
 9626SOL    HW229778   5.971   2.713   5.446
 9627SOL     OW29779   6.889   2.700   3.766
 9627SOL    HW129780   6.923   2.607   3.781
 9627SOL    HW229781   6.907   2.727   3.671
 9628SOL     OW29782   6.654   3.195   4.573
 9628SOL    HW129783   6.661   3.111   4.518
 9628SOL    HW229784   6.716   3.264   4.537
 9629SOL     OW29785   5.905   2.672   4.673
 9629SOL    HW129786   5.998   2.708   4.678
 9629SOL    HW229787   5.899   2.587   4.725
 9630SOL     OW29788   5.925   2.371   4.730
 9630SOL    HW129789   5.873   2.288   4.713
 9630SOL    HW229790   6.002   2.376   4.666
 9631SOL     OW29791   6.724   2.242   5.402
 9631SOL    HW129792   6.679   2.305   5.466
 9631SOL    HW229793   6.817   2.273   5.385
 9632SOL     OW29794   6.746   2.069   5.201
 9632SOL    HW129795   6.746   2.133   5.278
 9632SOL    HW229796   6.774   2.117   5.118
 9633SOL     OW29797   5.594   3.188   3.924
 9633SOL    HW129798   5.501   3.209   3.893
 9633SOL    HW229799   5.604   3.089   3.937
 9634SOL     OW29800   5.674   3.663   4.651
 9634SOL    HW129801   5.632   3.577   4.624
 9634SOL    HW229802   5.768   3.666   4.617
 9635SOL     OW29803   6.090   3.430   4.634
 9635SOL    HW129804   6.156   3.504   4.643
 9635SOL    HW229805   6.134   3.351   4.592
 9636SOL     OW29806   6.588   2.658   4.962
 9636SOL    HW129807   6.629   2.626   5.048
 9636SOL    HW229808   6.492   2.631   4.959
 9637SOL     OW29809   5.626   2.406   4.838
 9637SOL    HW129810   5.711   2.373   4.797
 9637SOL    HW229811   5.639   2.421   4.936
 9638SOL     OW29812   5.775   2.382   5.446
 9638SOL    HW129813   5.834   2.342   5.376
 9638SOL    HW229814   5.717   2.453   5.405
 9639SOL     OW29815   6.401   2.434   4.049
 9639SOL    HW129816   6.408   2.345   4.003
 9639SOL    HW229817   6.307   2.468   4.041
 9640SOL     OW29818   5.838   3.426   5.468
 9640SOL    HW129819   5.808   3.483   5.544
 9640SOL    HW229820   5.831   3.329   5.494
 9641SOL     OW29821   6.257   2.326   4.993
 9641SOL    HW129822   6.223   2.237   4.963
 9641SOL    HW229823   6.283   2.380   4.913
 9642SOL     OW29824   6.516   3.540   5.189
 9642SOL    HW129825   6.492   3.522   5.094
 9642SOL    HW229826   6.546   3.634   5.199
 9643SOL     OW29827   6.059   2.362   3.915
 9643SOL    HW129828   6.120   2.442   3.919
 9643SOL    HW229829   5.964   2.393   3.922
 9644SOL     OW29830   5.745   2.999   5.190
 9644SOL    HW129831   5.767   2.938   5.266
 9644SOL    HW229832   5.755   2.950   5.104
 9645SOL     OW29833   6.933   2.921   4.958
 9645SOL    HW129834   6.957   2.858   4.884
 9645SOL    HW229835   6.843   2.961   4.940
 9646SOL     OW29836   6.888   2.717   4.033
 9646SOL    HW129837   6.802   2.686   4.075
 9646SOL    HW229838   6.884   2.703   3.934
 9647SOL     OW29839   6.838   3.593   4.852
 9647SOL    HW129840   6.922   3.598   4.798
 9647SOL    HW229841   6.815   3.497   4.870
 9648SOL     OW29842   5.669   3.120   4.746
 9648SOL    HW129843   5.664   3.119   4.846
 9648SOL    HW229844   5.586   3.079   4.708
 9649SOL     OW29845   6.274   3.524   5.440
 9649SOL    HW129846   6.218   3.605   5.449
 9649SOL    HW229847   6.326   3.528   5.354
 9650SOL     OW29848   6.974   3.435   4.201
 9650SOL    HW129849   7.041   3.447   4.127
 9650SOL    HW229850   6.934   3.524   4.224
 9651SOL     OW29851   5.716   3.656   5.575
 9651SOL    HW129852   5.675   3.582   5.628
 9651SOL    HW229853   5.780   3.707   5.633
 9652SOL     OW29854   6.866   2.789   4.396
 9652SOL    HW129855   6.926   2.708   4.398
 9652SOL    HW229856   6.906   2.858   4.336
 9653SOL     OW29857   6.416   3.135   5.146
 9653SOL    HW129858   6.411   3.168   5.241
 9653SOL    HW229859   6.330   3.154   5.100
 9654SOL     OW29860   6.258   3.478   3.878
 9654SOL    HW129861   6.267   3.488   3.779
 9654SOL    HW229862   6.218   3.389   3.899
 9655SOL     OW29863   5.849   2.188   4.444
 9655SOL    HW129864   5.770   2.239   4.410
 9655SOL    HW229865   5.840   2.173   4.542
 9656SOL     OW29866   6.780   3.474   3.755
 9656SOL    HW129867   6.786   3.381   3.792
 9656SOL    HW229868   6.721   3.474   3.675
 9657SOL     OW29869   6.408   2.864   5.096
 9657SOL    HW129870   6.448   2.863   5.004
 9657SOL    HW229871   6.418   2.956   5.136
 9658SOL     OW29872   6.502   2.772   4.015
 9658SOL    HW129873   6.565   2.810   3.947
 9658SOL    HW229874   6.542   2.689   4.054
 9659SOL     OW29875   5.958   3.150   5.214
 9659SOL    HW129876   5.945   3.243   5.180
 9659SOL    HW229877   5.874   3.098   5.201
 9660SOL     OW29878   6.625   2.960   4.420
 9660SOL    HW129879   6.555   2.913   4.474
 9660SOL    HW229880   6.684   2.892   4.377
 9661SOL     OW29881   6.600   2.098   4.695
 9661SOL    HW129882   6.592   2.062   4.602
 9661SOL    HW229883   6.598   2.022   4.760
 9662SOL     OW29884   6.176   3.349   4.215
 9662SOL    HW129885   6.218   3.291   4.145
 9662SOL    HW229886   6.132   3.428   4.171
 9663SOL     OW29887   5.841   3.210   4.014
 9663SOL    HW129888   5.745   3.211   3.987
 9663SOL    HW229889   5.853   3.263   4.098
 9664SOL     OW29890   5.691   2.875   5.450
 9664SOL    HW129891   5.614   2.842   5.504
 9664SOL    HW229892   5.776   2.845   5.492
 9665SOL     OW29893   6.258   2.065   5.213
 9665SOL    HW129894   6.348   2.049   5.173
 9665SOL    HW229895   6.266   2.070   5.312
 9666SOL     OW29896   5.661   2.207   3.757
 9666SOL    HW129897   5.569   2.179   3.728
 9666SOL    HW229898   5.692   2.284   3.701
 9667SOL     OW29899   5.658   2.028   4.042
 9667SOL    HW129900   5.641   2.111   3.988
 9667SOL    HW229901   5.748   1.991   4.020
 9668SOL     OW29902   6.199   2.704   5.155
 9668SOL    HW129903   6.255   2.785   5.138
 9668SOL    HW229904   6.258   2.624   5.158
 9669SOL     OW29905   6.302   2.427   5.432
 9669SOL    HW129906   6.321   2.492   5.506
 9669SOL    HW229907   6.362   2.347   5.441
 9670SOL     OW29908   7.036   3.082   5.357
 9670SOL    HW129909   7.027   3.072   5.456
 9670SOL    HW229910   7.132   3.075   5.331
 9671SOL     OW29911   5.976   3.603   5.284
 9671SOL    HW129912   5.885   3.644   5.282
 9671SOL    HW229913   5.969   3.509   5.316
 9672SOL     OW29914   6.811   2.187   4.173
 9672SOL    HW129915   6.876   2.113   4.162
 9672SOL    HW229916   6.831   2.237   4.257
 9673SOL     OW29917   6.180   2.607   4.376
 9673SOL    HW129918   6.230   2.692   4.357
 9673SOL    HW229919   6.092   2.609   4.328
 9674SOL     OW29920   6.445   3.236   3.740
 9674SOL    HW129921   6.399   3.251   3.828
 9674SOL    HW229922   6.489   3.321   3.710
 9675SOL     OW29923   6.247   3.652   4.677
 9675SOL    HW129924   6.201   3.740   4.664
 9675SOL    HW229925   6.346   3.664   4.670
 9676SOL     OW29926   6.445   2.818   4.585
 9676SOL    HW129927   6.499   2.749   4.633
 9676SOL    HW229928   6.413   2.887   4.651
 9677SOL     OW29929   6.669   2.846   3.811
 9677SOL    HW129930   6.646   2.899   3.729
 9677SOL    HW229931   6.750   2.790   3.792
 9678SOL     OW29932   5.807   3.176   5.568
 9678SOL    HW129933   5.742   3.103   5.547
 9678SOL    HW229934   5.811   3.190   5.666
 9679SOL     OW29935   5.665   3.102   4.377
 9679SOL    HW129936   5.664   3.055   4.465
 9679SOL    HW229937   5.747   3.074   4.326
 9680SOL     OW29938   6.258   3.253   5.348
 9680SOL    HW129939   6.180   3.203   5.386
 9680SOL    HW229940   6.255   3.348   5.379
 9681SOL     OW29941   6.014   2.286   4.244
 9681SOL    HW129942   6.044   2.214   4.182
 9681SOL    HW229943   5.975   2.246   4.327
 9682SOL     OW29944   5.903   2.409   5.004
 9682SOL    HW129945   5.941   2.350   5.076
 9682SOL    HW229946   5.943   2.383   4.916
 9683SOL     OW29947   6.398   3.448   4.411
 9683SOL    HW129948   6.430   3.458   4.317
 9683SOL    HW229949   6.319   3.386   4.413
 9684SOL     OW29950   7.010   2.076   4.836
 9684SOL    HW129951   7.062   2.011   4.891
 9684SOL    HW229952   6.961   2.139   4.897
 9685SOL     OW29953   6.587   1.896   4.878
 9685SOL    HW129954   6.524   1.824   4.847
 9685SOL    HW229955   6.680   1.860   4.878
 9686SOL     OW29956   6.356   3.192   4.025
 9686SOL    HW129957   6.310   3.105   4.042
 9686SOL    HW229958   6.447   3.189   4.066
 9687SOL     OW29959   6.204   3.429   5.008
 9687SOL    HW129960   6.199   3.511   5.065
 9687SOL    HW229961   6.293   3.426   4.963
 9688SOL     OW29962   6.938   1.914   3.892
 9688SOL    HW129963   6.973   1.873   3.808
 9688SOL    HW229964   6.848   1.876   3.912
 9689SOL     OW29965   5.625   2.939   4.024
 9689SOL    HW129966   5.724   2.928   4.015
 9689SOL    HW229967   5.585   2.853   4.056
 9690SOL     OW29968   6.461   3.508   4.061
 9690SOL    HW129969   6.384   3.473   4.007
 9690SOL    HW229970   6.429   3.579   4.123
 9691SOL     OW29971   5.816   2.490   5.699
 9691SOL    HW129972   5.723   2.488   5.736
 9691SOL    HW229973   5.817   2.451   5.607
 9692SOL     OW29974   5.811   2.137   6.582
 9692SOL    HW129975   5.846   2.120   6.674
 9692SOL    HW229976   5.723   2.092   6.570
 9693SOL     OW29977   5.605   2.230   6.233
 9693SOL    HW129978   5.523   2.273   6.272
 9693SOL    HW229979   5.577   2.157   6.170
 9694SOL     OW29980   6.155   3.137   6.751
 9694SOL    HW129981   6.062   3.130   6.714
 9694SOL    HW229982   6.166   3.226   6.795
 9695SOL     OW29983   7.141   3.373   6.289
 9695SOL    HW129984   7.084   3.357   6.370
 9695SOL    HW229985   7.082   3.383   6.209
 9696SOL     OW29986   6.721   2.565   6.303
 9696SOL    HW129987   6.778   2.643   6.278
 9696SOL    HW229988   6.661   2.591   6.379
 9697SOL     OW29989   6.354   3.006   6.609
 9697SOL    HW129990   6.276   3.023   6.669
 9697SOL    HW229991   6.388   3.093   6.573
 9698SOL     OW29992   6.271   2.874   6.251
 9698SOL    HW129993   6.340   2.858   6.321
 9698SOL    HW229994   6.198   2.931   6.289
 9699SOL     OW29995   5.921   3.297   6.647
 9699SOL    HW129996   5.843   3.266   6.594
 9699SOL    HW229997   5.979   3.355   6.590
 9700SOL     OW29998   5.817   3.575   6.069
 9700SOL    HW129999   5.851   3.652   6.123
 9700SOL    HW230000   5.861   3.575   5.979
 9701SOL     OW30001   5.816   3.296   6.124
 9701SOL    HW130002   5.790   3.392   6.124
 9701SOL    HW230003   5.745   3.242   6.169
 9702SOL     OW30004   5.826   2.953   6.472
 9702SOL    HW130005   5.840   2.869   6.524
 9702SOL    HW230006   5.771   3.017   6.527
 9703SOL     OW30007   6.206   3.648   7.025
 9703SOL    HW130008   6.114   3.631   7.060
 9703SOL    HW230009   6.234   3.740   7.051
 9704SOL     OW30010   6.192   2.826   5.709
 9704SOL    HW130011   6.199   2.910   5.655
 9704SOL    HW230012   6.238   2.839   5.797
 9705SOL     OW30013   7.180   1.976   7.066
 9705SOL    HW130014   7.162   2.043   6.994
 9705SOL    HW230015   7.177   2.022   7.155
 9706SOL     OW30016   5.708   2.505   6.149
 9706SOL    HW130017   5.663   2.417   6.166
 9706SOL    HW230018   5.707   2.559   6.233
 9707SOL     OW30019   5.613   3.458   5.703
 9707SOL    HW130020   5.594   3.362   5.724
 9707SOL    HW230021   5.580   3.516   5.778
 9708SOL     OW30022   6.199   3.227   6.312
 9708SOL    HW130023   6.150   3.140   6.321
 9708SOL    HW230024   6.176   3.270   6.225
 9709SOL     OW30025   6.879   3.090   7.009
 9709SOL    HW130026   6.916   3.017   6.951
 9709SOL    HW230027   6.931   3.095   7.094
 9710SOL     OW30028   6.395   1.866   6.088
 9710SOL    HW130029   6.435   1.957   6.079
 9710SOL    HW230030   6.295   1.874   6.094
 9711SOL     OW30031   5.783   2.838   6.850
 9711SOL    HW130032   5.872   2.793   6.836
 9711SOL    HW230033   5.710   2.773   6.831
 9712SOL     OW30034   6.184   2.591   5.856
 9712SOL    HW130035   6.208   2.660   5.788
 9712SOL    HW230036   6.106   2.624   5.910
 9713SOL     OW30037   6.867   2.207   6.530
 9713SOL    HW130038   6.781   2.157   6.517
 9713SOL    HW230039   6.929   2.153   6.586
 9714SOL     OW30040   6.393   2.467   7.051
 9714SOL    HW130041   6.346   2.464   7.140
 9714SOL    HW230042   6.342   2.412   6.985
 9715SOL     OW30043   6.577   2.272   6.828
 9715SOL    HW130044   6.500   2.306   6.882
 9715SOL    HW230045   6.543   2.221   6.749
 9716SOL     OW30046   6.627   2.563   6.015
 9716SOL    HW130047   6.653   2.559   6.111
 9716SOL    HW230048   6.542   2.512   6.001
 9717SOL     OW30049   5.662   2.673   6.375
 9717SOL    HW130050   5.761   2.661   6.384
 9717SOL    HW230051   5.638   2.768   6.396
 9718SOL     OW30052   5.716   3.683   7.157
 9718SOL    HW130053   5.706   3.668   7.256
 9718SOL    HW230054   5.630   3.719   7.121
 9719SOL     OW30055   6.451   2.210   5.781
 9719SOL    HW130056   6.510   2.273   5.732
 9719SOL    HW230057   6.470   2.116   5.752
 9720SOL     OW30058   6.948   3.006   6.131
 9720SOL    HW130059   7.031   2.977   6.083
 9720SOL    HW230060   6.899   3.073   6.075
 9721SOL     OW30061   6.136   2.058   6.471
 9721SOL    HW130062   6.131   2.053   6.571
 9721SOL    HW230063   6.138   2.154   6.442
 9722SOL     OW30064   6.594   3.318   6.063
 9722SOL    HW130065   6.548   3.390   6.011
 9722SOL    HW230066   6.590   3.338   6.161
 9723SOL     OW30067   5.937   3.663   6.439
 9723SOL    HW130068   5.987   3.577   6.445
 9723SOL    HW230069   6.002   3.740   6.436
 9724SOL     OW30070   5.907   2.805   5.828
 9724SOL    HW130071   5.989   2.844   5.786
 9724SOL    HW230072   5.880   2.723   5.779
 9725SOL     OW30073   6.697   3.638   5.823
 9725SOL    HW130074   6.637   3.576   5.873
 9725SOL    HW230075   6.728   3.594   5.738
 9726SOL     OW30076   6.050   3.605   5.909
 9726SOL    HW130077   6.083   3.644   5.995
 9726SOL    HW230078   6.126   3.598   5.844
 9727SOL     OW30079   5.835   3.647   6.827
 9727SOL    HW130080   5.892   3.582   6.877
 9727SOL    HW230081   5.819   3.614   6.734
 9728SOL     OW30082   6.526   3.560   6.490
 9728SOL    HW130083   6.606   3.503   6.511
 9728SOL    HW230084   6.477   3.520   6.413
 9729SOL     OW30085   5.968   2.562   6.066
 9729SOL    HW130086   6.013   2.472   6.063
 9729SOL    HW230087   5.874   2.551   6.099
 9730SOL     OW30088   6.200   1.984   5.703
 9730SOL    HW130089   6.298   1.962   5.710
 9730SOL    HW230090   6.169   1.967   5.610
 9731SOL     OW30091   6.474   3.376   6.781
 9731SOL    HW130092   6.451   3.351   6.687
 9731SOL    HW230093   6.535   3.307   6.820
 9732SOL     OW30094   6.389   3.264   6.510
 9732SOL    HW130095   6.479   3.278   6.468
 9732SOL    HW230096   6.318   3.266   6.439
 9733SOL     OW30097   6.508   2.365   6.485
 9733SOL    HW130098   6.483   2.356   6.389
 9733SOL    HW230099   6.556   2.283   6.516
 9734SOL     OW30100   6.125   1.926   6.098
 9734SOL    HW130101   6.044   1.927   6.156
 9734SOL    HW230102   6.128   2.009   6.043
 9735SOL     OW30103   7.020   3.050   5.627
 9735SOL    HW130104   7.052   2.974   5.684
 9735SOL    HW230105   6.928   3.077   5.657
 9736SOL     OW30106   5.883   1.897   5.757
 9736SOL    HW130107   5.932   1.981   5.736
 9736SOL    HW230108   5.945   1.832   5.802
 9737SOL     OW30109   6.521   2.098   6.066
 9737SOL    HW130110   6.473   2.139   5.988
 9737SOL    HW230111   6.620   2.096   6.047
 9738SOL     OW30112   6.813   3.432   6.379
 9738SOL    HW130113   6.834   3.506   6.314
 9738SOL    HW230114   6.881   3.432   6.452
 9739SOL     OW30115   6.045   3.014   6.327
 9739SOL    HW130116   5.974   2.987   6.392
 9739SOL    HW230117   6.019   2.986   6.234
 9740SOL     OW30118   6.857   3.659   6.177
 9740SOL    HW130119   6.901   3.723   6.113
 9740SOL    HW230120   6.807   3.711   6.247
 9741SOL     OW30121   6.618   2.411   5.602
 9741SOL    HW130122   6.577   2.493   5.563
 9741SOL    HW230123   6.682   2.437   5.675
 9742SOL     OW30124   6.147   2.084   6.733
 9742SOL    HW130125   6.185   2.000   6.770
 9742SOL    HW230126   6.059   2.103   6.777
 9743SOL     OW30127   6.452   2.316   6.228
 9743SOL    HW130128   6.420   2.388   6.166
 9743SOL    HW230129   6.476   2.235   6.175
 9744SOL     OW30130   6.603   1.901   6.339
 9744SOL    HW130131   6.531   1.906   6.270
 9744SOL    HW230132   6.579   1.832   6.408
 9745SOL     OW30133   6.074   3.247   5.760
 9745SOL    HW130134   5.987   3.232   5.807
 9745SOL    HW230135   6.057   3.273   5.665
 9746SOL     OW30136   6.113   2.118   5.914
 9746SOL    HW130137   6.140   2.059   5.839
 9746SOL    HW230138   6.113   2.213   5.883
 9747SOL     OW30139   7.178   3.491   7.211
 9747SOL    HW130140   7.205   3.525   7.121
 9747SOL    HW230141   7.257   3.453   7.257
 9748SOL     OW30142   6.697   3.057   6.686
 9748SOL    HW130143   6.657   3.101   6.767
 9748SOL    HW230144   6.656   3.094   6.603
 9749SOL     OW30145   6.291   2.912   5.954
 9749SOL    HW130146   6.277   2.919   6.053
 9749SOL    HW230147   6.375   2.861   5.936
 9750SOL     OW30148   5.996   2.675   6.837
 9750SOL    HW130149   6.082   2.687   6.887
 9750SOL    HW230150   5.954   2.588   6.864
 9751SOL     OW30151   6.860   2.248   6.848
 9751SOL    HW130152   6.881   2.322   6.912
 9751SOL    HW230153   6.771   2.265   6.805
 9752SOL     OW30154   5.650   3.426   6.917
 9752SOL    HW130155   5.604   3.508   6.883
 9752SOL    HW230156   5.748   3.445   6.926
 9753SOL     OW30157   5.953   2.962   6.087
 9753SOL    HW130158   5.946   3.045   6.031
 9753SOL    HW230159   5.957   2.882   6.027
 9754SOL     OW30160   6.152   2.399   6.451
 9754SOL    HW130161   6.164   2.465   6.377
 9754SOL    HW230162   6.198   2.433   6.534
 9755SOL     OW30163   6.838   3.210   5.974
 9755SOL    HW130164   6.888   3.287   6.014
 9755SOL    HW230165   6.743   3.212   6.006
 9756SOL     OW30166   6.858   3.307   6.728
 9756SOL    HW130167   6.905   3.320   6.815
 9756SOL    HW230168   6.792   3.233   6.737
 9757SOL     OW30169   5.940   3.372   6.915
 9757SOL    HW130170   5.919   3.328   6.828
 9757SOL    HW230171   6.037   3.398   6.918
 9758SOL     OW30172   6.159   2.732   6.615
 9758SOL    HW130173   6.203   2.821   6.606
 9758SOL    HW230174   6.096   2.732   6.692
 9759SOL     OW30175   6.946   2.724   6.631
 9759SOL    HW130176   6.871   2.724   6.565
 9759SOL    HW230177   6.983   2.632   6.640
 9760SOL     OW30178   6.795   2.387   5.861
 9760SOL    HW130179   6.808   2.303   5.915
 9760SOL    HW230180   6.766   2.461   5.921
 9761SOL     OW30181   5.893   2.075   6.817
 9761SOL    HW130182   5.870   2.112   6.907
 9761SOL    HW230183   5.863   1.980   6.811
 9762SOL     OW30184   5.623   3.172   6.868
 9762SOL    HW130185   5.676   3.123   6.936
 9762SOL    HW230186   5.645   3.270   6.873
 9763SOL     OW30187   6.318   2.496   6.650
 9763SOL    HW130188   6.377   2.470   6.574
 9763SOL    HW230189   6.290   2.592   6.639
 9764SOL     OW30190   5.893   1.925   6.204
 9764SOL    HW130191   5.882   2.019   6.237
 9764SOL    HW230192   5.888   1.862   6.281
 9765SOL     OW30193   7.208   2.229   5.960
 9765SOL    HW130194   7.210   2.153   6.024
 9765SOL    HW230195   7.160   2.306   6.000
 9766SOL     OW30196   6.609   2.628   6.552
 9766SOL    HW130197   6.624   2.649   6.648
 9766SOL    HW230198   6.579   2.533   6.543
 9767SOL     OW30199   6.889   2.700   5.628
 9767SOL    HW130200   6.923   2.607   5.643
 9767SOL    HW230201   6.907   2.727   5.533
 9768SOL     OW30202   6.654   3.195   6.435
 9768SOL    HW130203   6.661   3.111   6.380
 9768SOL    HW230204   6.716   3.264   6.399
 9769SOL     OW30205   5.905   2.672   6.535
 9769SOL    HW130206   5.998   2.708   6.540
 9769SOL    HW230207   5.899   2.587   6.587
 9770SOL     OW30208   5.925   2.371   6.592
 9770SOL    HW130209   5.873   2.288   6.575
 9770SOL    HW230210   6.002   2.376   6.528
 9771SOL     OW30211   6.746   2.069   7.063
 9771SOL    HW130212   6.746   2.133   7.140
 9771SOL    HW230213   6.774   2.117   6.980
 9772SOL     OW30214   5.594   3.188   5.786
 9772SOL    HW130215   5.501   3.209   5.755
 9772SOL    HW230216   5.604   3.089   5.799
 9773SOL     OW30217   5.674   3.663   6.513
 9773SOL    HW130218   5.632   3.577   6.486
 9773SOL    HW230219   5.768   3.666   6.479
 9774SOL     OW30220   6.090   3.430   6.496
 9774SOL    HW130221   6.156   3.504   6.505
 9774SOL    HW230222   6.134   3.351   6.454
 9775SOL     OW30223   6.588   2.658   6.824
 9775SOL    HW130224   6.629   2.626   6.910
 9775SOL    HW230225   6.492   2.631   6.821
 9776SOL     OW30226   5.626   2.406   6.700
 9776SOL    HW130227   5.711   2.373   6.659
 9776SOL    HW230228   5.639   2.421   6.798
 9777SOL     OW30229   6.401   2.434   5.911
 9777SOL    HW130230   6.408   2.345   5.865
 9777SOL    HW230231   6.307   2.468   5.903
 9778SOL     OW30232   6.257   2.326   6.855
 9778SOL    HW130233   6.223   2.237   6.825
 9778SOL    HW230234   6.283   2.380   6.775
 9779SOL     OW30235   6.516   3.540   7.051
 9779SOL    HW130236   6.492   3.522   6.956
 9779SOL    HW230237   6.546   3.634   7.061
 9780SOL     OW30238   6.059   2.362   5.777
 9780SOL    HW130239   6.120   2.442   5.781
 9780SOL    HW230240   5.964   2.393   5.784
 9781SOL     OW30241   5.745   2.999   7.052
 9781SOL    HW130242   5.767   2.938   7.128
 9781SOL    HW230243   5.755   2.950   6.966
 9782SOL     OW30244   6.933   2.921   6.820
 9782SOL    HW130245   6.957   2.858   6.746
 9782SOL    HW230246   6.843   2.961   6.802
 9783SOL     OW30247   6.888   2.717   5.895
 9783SOL    HW130248   6.802   2.686   5.937
 9783SOL    HW230249   6.884   2.703   5.796
 9784SOL     OW30250   6.838   3.593   6.714
 9784SOL    HW130251   6.922   3.598   6.660
 9784SOL    HW230252   6.815   3.497   6.732
 9785SOL     OW30253   5.669   3.120   6.608
 9785SOL    HW130254   5.664   3.119   6.708
 9785SOL    HW230255   5.586   3.079   6.570
 9786SOL     OW30256   6.974   3.435   6.063
 9786SOL    HW130257   7.041   3.447   5.989
 9786SOL    HW230258   6.934   3.524   6.086
 9787SOL     OW30259   6.866   2.789   6.258
 9787SOL    HW130260   6.926   2.708   6.260
 9787SOL    HW230261   6.906   2.858   6.198
 9788SOL     OW30262   6.258   3.478   5.740
 9788SOL    HW130263   6.267   3.488   5.641
 9788SOL    HW230264   6.218   3.389   5.761
 9789SOL     OW30265   5.849   2.188   6.306
 9789SOL    HW130266   5.770   2.239   6.272
 9789SOL    HW230267   5.840   2.173   6.404
 9790SOL     OW30268   6.780   3.474   5.617
 9790SOL    HW130269   6.786   3.381   5.654
 9790SOL    HW230270   6.721   3.474   5.537
 9791SOL     OW30271   6.408   2.864   6.958
 9791SOL    HW130272   6.448   2.863   6.866
 9791SOL    HW230273   6.418   2.956   6.998
 9792SOL     OW30274   6.502   2.772   5.877
 9792SOL    HW130275   6.565   2.810   5.809
 9792SOL    HW230276   6.542   2.689   5.916
 9793SOL     OW30277   6.625   2.960   6.282
 9793SOL    HW130278   6.555   2.913   6.336
 9793SOL    HW230279   6.684   2.892   6.239
 9794SOL     OW30280   6.600   2.098   6.557
 9794SOL    HW130281   6.592   2.062   6.464
 9794SOL    HW230282   6.598   2.022   6.622
 9795SOL     OW30283   6.176   3.349   6.077
 9795SOL    HW130284   6.218   3.291   6.007
 9795SOL    HW230285   6.132   3.428   6.033
 9796SOL     OW30286   5.841   3.210   5.876
 9796SOL    HW130287   5.745   3.211   5.849
 9796SOL    HW230288   5.853   3.263   5.960
 9797SOL     OW30289   6.258   2.065   7.075
 9797SOL    HW130290   6.348   2.049   7.035
 9797SOL    HW230291   6.266   2.070   7.174
 9798SOL     OW30292   5.661   2.207   5.619
 9798SOL    HW130293   5.569   2.179   5.590
 9798SOL    HW230294   5.692   2.284   5.563
 9799SOL     OW30295   5.658   2.028   5.904
 9799SOL    HW130296   5.641   2.111   5.850
 9799SOL    HW230297   5.748   1.991   5.882
 9800SOL     OW30298   5.976   3.603   7.146
 9800SOL    HW130299   5.885   3.644   7.144
 9800SOL    HW230300   5.969   3.509   7.178
 9801SOL     OW30301   6.811   2.187   6.035
 9801SOL    HW130302   6.876   2.113   6.024
 9801SOL    HW230303   6.831   2.237   6.119
 9802SOL     OW30304   6.180   2.607   6.238
 9802SOL    HW130305   6.230   2.692   6.219
 9802SOL    HW230306   6.092   2.609   6.190
 9803SOL     OW30307   6.445   3.236   5.602
 9803SOL    HW130308   6.399   3.251   5.690
 9803SOL    HW230309   6.489   3.321   5.572
 9804SOL     OW30310   6.247   3.652   6.539
 9804SOL    HW130311   6.201   3.740   6.526
 9804SOL    HW230312   6.346   3.664   6.532
 9805SOL     OW30313   6.445   2.818   6.447
 9805SOL    HW130314   6.499   2.749   6.495
 9805SOL    HW230315   6.413   2.887   6.513
 9806SOL     OW30316   6.669   2.846   5.673
 9806SOL    HW130317   6.646   2.899   5.591
 9806SOL    HW230318   6.750   2.790   5.654
 9807SOL     OW30319   5.665   3.102   6.239
 9807SOL    HW130320   5.664   3.055   6.327
 9807SOL    HW230321   5.747   3.074   6.188
 9808SOL     OW30322   6.014   2.286   6.106
 9808SOL    HW130323   6.044   2.214   6.044
 9808SOL    HW230324   5.975   2.246   6.189
 9809SOL     OW30325   5.903   2.409   6.866
 9809SOL    HW130326   5.941   2.350   6.938
 9809SOL    HW230327   5.943   2.383   6.778
 9810SOL     OW30328   6.398   3.448   6.273
 9810SOL    HW130329   6.430   3.458   6.179
 9810SOL    HW230330   6.319   3.386   6.275
 9811SOL     OW30331   7.010   2.076   6.698
 9811SOL    HW130332   7.062   2.011   6.753
 9811SOL    HW230333   6.961   2.139   6.759
 9812SOL     OW30334   6.587   1.896   6.740
 9812SOL    HW130335   6.524   1.824   6.709
 9812SOL    HW230336   6.680   1.860   6.740
 9813SOL     OW30337   6.356   3.192   5.887
 9813SOL    HW130338   6.310   3.105   5.904
 9813SOL    HW230339   6.447   3.189   5.928
 9814SOL     OW30340   6.204   3.429   6.870
 9814SOL    HW130341   6.199   3.511   6.927
 9814SOL    HW230342   6.293   3.426   6.825
 9815SOL     OW30343   6.938   1.914   5.754
 9815SOL    HW130344   6.973   1.873   5.670
 9815SOL    HW230345   6.848   1.876   5.774
 9816SOL     OW30346   5.625   2.939   5.886
 9816SOL    HW130347   5.724   2.928   5.877
 9816SOL    HW230348   5.585   2.853   5.918
 9817SOL     OW30349   6.461   3.508   5.923
 9817SOL    HW130350   6.384   3.473   5.869
 9817SOL    HW230351   6.429   3.579   5.985
 9818SOL     OW30352   5.816   4.352   0.113
 9818SOL    HW130353   5.723   4.350   0.150
 9818SOL    HW230354   5.817   4.313   0.021
 9819SOL     OW30355   5.811   3.999   0.996
 9819SOL    HW130356   5.846   3.982   1.088
 9819SOL    HW230357   5.723   3.954   0.984
 9820SOL     OW30358   5.605   4.092   0.647
 9820SOL    HW130359   5.523   4.135   0.686
 9820SOL    HW230360   5.577   4.019   0.584
 9821SOL     OW30361   6.155   4.999   1.165
 9821SOL    HW130362   6.062   4.992   1.128
 9821SOL    HW230363   6.166   5.088   1.209
 9822SOL     OW30364   7.141   5.235   0.703
 9822SOL    HW130365   7.084   5.219   0.784
 9822SOL    HW230366   7.082   5.245   0.623
 9823SOL     OW30367   6.721   4.427   0.717
 9823SOL    HW130368   6.778   4.505   0.692
 9823SOL    HW230369   6.661   4.453   0.793
 9824SOL     OW30370   6.354   4.868   1.023
 9824SOL    HW130371   6.276   4.885   1.083
 9824SOL    HW230372   6.388   4.955   0.987
 9825SOL     OW30373   6.436   4.522   1.823
 9825SOL    HW130374   6.432   4.598   1.888
 9825SOL    HW230375   6.458   4.558   1.732
 9826SOL     OW30376   6.271   4.736   0.665
 9826SOL    HW130377   6.340   4.720   0.735
 9826SOL    HW230378   6.198   4.793   0.703
 9827SOL     OW30379   6.272   4.885   1.803
 9827SOL    HW130380   6.332   4.964   1.817
 9827SOL    HW230381   6.186   4.916   1.762
 9828SOL     OW30382   5.921   5.159   1.061
 9828SOL    HW130383   5.843   5.128   1.008
 9828SOL    HW230384   5.979   5.217   1.004
 9829SOL     OW30385   6.024   4.116   1.499
 9829SOL    HW130386   6.106   4.060   1.508
 9829SOL    HW230387   5.943   4.058   1.503
 9830SOL     OW30388   5.817   5.437   0.483
 9830SOL    HW130389   5.851   5.514   0.537
 9830SOL    HW230390   5.861   5.437   0.393
 9831SOL     OW30391   6.713   5.065   1.690
 9831SOL    HW130392   6.760   5.065   1.778
 9831SOL    HW230393   6.665   4.978   1.679
 9832SOL     OW30394   5.816   5.158   0.538
 9832SOL    HW130395   5.790   5.254   0.538
 9832SOL    HW230396   5.745   5.104   0.583
 9833SOL     OW30397   5.826   4.815   0.886
 9833SOL    HW130398   5.840   4.731   0.938
 9833SOL    HW230399   5.771   4.879   0.941
 9834SOL     OW30400   6.206   5.510   1.439
 9834SOL    HW130401   6.114   5.493   1.474
 9834SOL    HW230402   6.234   5.602   1.465
 9835SOL     OW30403   6.192   4.688   0.123
 9835SOL    HW130404   6.199   4.772   0.069
 9835SOL    HW230405   6.238   4.701   0.211
 9836SOL     OW30406   5.708   4.367   0.563
 9836SOL    HW130407   5.663   4.279   0.580
 9836SOL    HW230408   5.707   4.421   0.647
 9837SOL     OW30409   5.613   5.320   0.117
 9837SOL    HW130410   5.594   5.224   0.138
 9837SOL    HW230411   5.580   5.378   0.192
 9838SOL     OW30412   5.699   4.461   1.597
 9838SOL    HW130413   5.787   4.448   1.642
 9838SOL    HW230414   5.686   4.558   1.575
 9839SOL     OW30415   6.199   5.089   0.726
 9839SOL    HW130416   6.150   5.002   0.735
 9839SOL    HW230417   6.176   5.132   0.639
 9840SOL     OW30418   6.879   4.952   1.423
 9840SOL    HW130419   6.916   4.879   1.365
 9840SOL    HW230420   6.931   4.957   1.508
 9841SOL     OW30421   6.395   3.728   0.502
 9841SOL    HW130422   6.435   3.819   0.493
 9841SOL    HW230423   6.295   3.736   0.508
 9842SOL     OW30424   5.783   4.700   1.264
 9842SOL    HW130425   5.872   4.655   1.250
 9842SOL    HW230426   5.710   4.635   1.245
 9843SOL     OW30427   6.773   5.516   1.616
 9843SOL    HW130428   6.797   5.576   1.540
 9843SOL    HW230429   6.780   5.421   1.586
 9844SOL     OW30430   5.903   3.975   1.801
 9844SOL    HW130431   5.974   4.046   1.807
 9844SOL    HW230432   5.815   4.014   1.829
 9845SOL     OW30433   6.184   4.453   0.270
 9845SOL    HW130434   6.208   4.522   0.202
 9845SOL    HW230435   6.106   4.486   0.324
 9846SOL     OW30436   6.867   4.069   0.944
 9846SOL    HW130437   6.781   4.019   0.931
 9846SOL    HW230438   6.929   4.015   1.000
 9847SOL     OW30439   6.393   4.329   1.465
 9847SOL    HW130440   6.346   4.326   1.554
 9847SOL    HW230441   6.342   4.274   1.399
 9848SOL     OW30442   6.980   4.193   1.674
 9848SOL    HW130443   6.960   4.236   1.762
 9848SOL    HW230444   7.058   4.131   1.683
 9849SOL     OW30445   6.559   4.614   1.572
 9849SOL    HW130446   6.605   4.530   1.543
 9849SOL    HW230447   6.503   4.648   1.497
 9850SOL     OW30448   6.577   4.134   1.242
 9850SOL    HW130449   6.500   4.168   1.296
 9850SOL    HW230450   6.543   4.083   1.163
 9851SOL     OW30451   6.627   4.425   0.429
 9851SOL    HW130452   6.653   4.421   0.525
 9851SOL    HW230453   6.542   4.374   0.415
 9852SOL     OW30454   5.662   4.535   0.789
 9852SOL    HW130455   5.761   4.523   0.798
 9852SOL    HW230456   5.638   4.630   0.810
 9853SOL     OW30457   5.716   5.545   1.571
 9853SOL    HW130458   5.706   5.530   1.670
 9853SOL    HW230459   5.630   5.581   1.535
 9854SOL     OW30460   6.451   4.072   0.195
 9854SOL    HW130461   6.510   4.135   0.146
 9854SOL    HW230462   6.470   3.978   0.166
 9855SOL     OW30463   6.948   4.868   0.545
 9855SOL    HW130464   7.031   4.839   0.497
 9855SOL    HW230465   6.899   4.935   0.489
 9856SOL     OW30466   6.136   3.920   0.885
 9856SOL    HW130467   6.131   3.915   0.985
 9856SOL    HW230468   6.138   4.016   0.856
 9857SOL     OW30469   6.594   5.180   0.477
 9857SOL    HW130470   6.548   5.252   0.425
 9857SOL    HW230471   6.590   5.200   0.575
 9858SOL     OW30472   5.937   5.525   0.853
 9858SOL    HW130473   5.987   5.439   0.859
 9858SOL    HW230474   6.002   5.602   0.850
 9859SOL     OW30475   6.813   5.274   1.506
 9859SOL    HW130476   6.819   5.197   1.570
 9859SOL    HW230477   6.761   5.248   1.426
 9860SOL     OW30478   5.907   4.667   0.242
 9860SOL    HW130479   5.989   4.706   0.200
 9860SOL    HW230480   5.880   4.585   0.193
 9861SOL     OW30481   6.047   4.990   1.727
 9861SOL    HW130482   5.997   4.991   1.641
 9861SOL    HW230483   5.984   4.972   1.803
 9862SOL     OW30484   6.697   5.500   0.237
 9862SOL    HW130485   6.637   5.438   0.287
 9862SOL    HW230486   6.728   5.456   0.152
 9863SOL     OW30487   5.788   4.009   1.498
 9863SOL    HW130488   5.708   4.069   1.485
 9863SOL    HW230489   5.778   3.960   1.584
 9864SOL     OW30490   7.218   5.101   0.081
 9864SOL    HW130491   7.186   5.195   0.071
 9864SOL    HW230492   7.142   5.038   0.069
 9865SOL     OW30493   6.050   5.467   0.323
 9865SOL    HW130494   6.083   5.506   0.409
 9865SOL    HW230495   6.126   5.460   0.258
 9866SOL     OW30496   5.835   5.509   1.241
 9866SOL    HW130497   5.892   5.444   1.291
 9866SOL    HW230498   5.819   5.476   1.148
 9867SOL     OW30499   6.526   5.422   0.904
 9867SOL    HW130500   6.606   5.365   0.925
 9867SOL    HW230501   6.477   5.382   0.827
 9868SOL     OW30502   5.968   4.424   0.480
 9868SOL    HW130503   6.013   4.334   0.477
 9868SOL    HW230504   5.874   4.413   0.513
 9869SOL     OW30505   6.367   3.988   1.749
 9869SOL    HW130506   6.434   3.927   1.792
 9869SOL    HW230507   6.294   4.007   1.814
 9870SOL     OW30508   6.474   5.238   1.195
 9870SOL    HW130509   6.451   5.213   1.101
 9870SOL    HW230510   6.535   5.169   1.234
 9871SOL     OW30511   6.389   5.126   0.924
 9871SOL    HW130512   6.479   5.140   0.882
 9871SOL    HW230513   6.318   5.128   0.853
 9872SOL     OW30514   6.508   4.227   0.899
 9872SOL    HW130515   6.483   4.218   0.803
 9872SOL    HW230516   6.556   4.145   0.930
 9873SOL     OW30517   6.125   3.788   0.512
 9873SOL    HW130518   6.044   3.789   0.570
 9873SOL    HW230519   6.128   3.871   0.457
 9874SOL     OW30520   6.521   3.960   0.480
 9874SOL    HW130521   6.473   4.001   0.402
 9874SOL    HW230522   6.620   3.958   0.461
 9875SOL     OW30523   6.662   4.407   1.464
 9875SOL    HW130524   6.582   4.346   1.467
 9875SOL    HW230525   6.743   4.354   1.440
 9876SOL     OW30526   6.813   5.294   0.793
 9876SOL    HW130527   6.834   5.368   0.728
 9876SOL    HW230528   6.881   5.294   0.866
 9877SOL     OW30529   6.045   4.876   0.741
 9877SOL    HW130530   5.974   4.849   0.806
 9877SOL    HW230531   6.019   4.848   0.648
 9878SOL     OW30532   6.857   5.521   0.591
 9878SOL    HW130533   6.901   5.585   0.527
 9878SOL    HW230534   6.807   5.573   0.661
 9879SOL     OW30535   6.618   4.273   0.016
 9879SOL    HW130536   6.577   4.355  -0.023
 9879SOL    HW230537   6.682   4.299   0.089
 9880SOL     OW30538   5.664   4.280   1.386
 9880SOL    HW130539   5.756   4.279   1.345
 9880SOL    HW230540   5.658   4.354   1.453
 9881SOL     OW30541   6.147   3.946   1.147
 9881SOL    HW130542   6.185   3.862   1.184
 9881SOL    HW230543   6.059   3.965   1.191
 9882SOL     OW30544   6.452   4.178   0.642
 9882SOL    HW130545   6.420   4.250   0.580
 9882SOL    HW230546   6.476   4.097   0.589
 9883SOL     OW30547   6.603   3.763   0.753
 9883SOL    HW130548   6.531   3.768   0.684
 9883SOL    HW230549   6.579   3.694   0.822
 9884SOL     OW30550   6.074   5.109   0.174
 9884SOL    HW130551   5.987   5.094   0.221
 9884SOL    HW230552   6.057   5.135   0.079
 9885SOL     OW30553   6.113   3.980   0.328
 9885SOL    HW130554   6.140   3.921   0.253
 9885SOL    HW230555   6.113   4.075   0.297
 9886SOL     OW30556   6.650   5.071   1.340
 9886SOL    HW130557   6.570   5.048   1.395
 9886SOL    HW230558   6.733   5.045   1.389
 9887SOL     OW30559   6.697   4.919   1.100
 9887SOL    HW130560   6.657   4.963   1.181
 9887SOL    HW230561   6.656   4.956   1.017
 9888SOL     OW30562   6.501   3.813   1.402
 9888SOL    HW130563   6.526   3.793   1.307
 9888SOL    HW230564   6.573   3.869   1.444
 9889SOL     OW30565   6.566   4.840   1.719
 9889SOL    HW130566   6.467   4.846   1.729
 9889SOL    HW230567   6.589   4.760   1.663
 9890SOL     OW30568   6.291   4.774   0.368
 9890SOL    HW130569   6.277   4.781   0.467
 9890SOL    HW230570   6.375   4.723   0.350
 9891SOL     OW30571   5.996   4.537   1.251
 9891SOL    HW130572   6.082   4.549   1.301
 9891SOL    HW230573   5.954   4.450   1.278
 9892SOL     OW30574   6.860   4.110   1.262
 9892SOL    HW130575   6.881   4.184   1.326
 9892SOL    HW230576   6.771   4.127   1.219
 9893SOL     OW30577   5.650   5.288   1.331
 9893SOL    HW130578   5.604   5.370   1.297
 9893SOL    HW230579   5.748   5.307   1.340
 9894SOL     OW30580   5.953   4.824   0.501
 9894SOL    HW130581   5.946   4.907   0.445
 9894SOL    HW230582   5.957   4.744   0.441
 9895SOL     OW30583   6.152   4.261   0.865
 9895SOL    HW130584   6.164   4.327   0.791
 9895SOL    HW230585   6.198   4.295   0.948
 9896SOL     OW30586   6.838   5.072   0.388
 9896SOL    HW130587   6.888   5.149   0.428
 9896SOL    HW230588   6.743   5.074   0.420
 9897SOL     OW30589   6.858   5.169   1.142
 9897SOL    HW130590   6.905   5.182   1.229
 9897SOL    HW230591   6.792   5.095   1.151
 9898SOL     OW30592   5.940   5.234   1.329
 9898SOL    HW130593   5.919   5.190   1.242
 9898SOL    HW230594   6.037   5.260   1.332
 9899SOL     OW30595   5.988   4.475   1.598
 9899SOL    HW130596   6.056   4.530   1.551
 9899SOL    HW230597   6.028   4.387   1.625
 9900SOL     OW30598   6.599   3.829   1.770
 9900SOL    HW130599   6.605   3.914   1.718
 9900SOL    HW230600   6.631   3.753   1.713
 9901SOL     OW30601   6.090   3.774   1.740
 9901SOL    HW130602   6.048   3.717   1.670
 9901SOL    HW230603   6.024   3.843   1.772
 9902SOL     OW30604   6.159   4.594   1.029
 9902SOL    HW130605   6.203   4.683   1.020
 9902SOL    HW230606   6.096   4.594   1.106
 9903SOL     OW30607   6.946   4.586   1.045
 9903SOL    HW130608   6.871   4.586   0.979
 9903SOL    HW230609   6.983   4.494   1.054
 9904SOL     OW30610   6.795   4.249   0.275
 9904SOL    HW130611   6.808   4.165   0.329
 9904SOL    HW230612   6.766   4.323   0.335
 9905SOL     OW30613   5.893   3.937   1.231
 9905SOL    HW130614   5.870   3.974   1.321
 9905SOL    HW230615   5.863   3.842   1.225
 9906SOL     OW30616   5.623   5.034   1.282
 9906SOL    HW130617   5.676   4.985   1.350
 9906SOL    HW230618   5.645   5.132   1.287
 9907SOL     OW30619   5.893   3.787   0.618
 9907SOL    HW130620   5.882   3.881   0.651
 9907SOL    HW230621   5.888   3.724   0.695
 9908SOL     OW30622   7.208   4.091   0.374
 9908SOL    HW130623   7.210   4.015   0.438
 9908SOL    HW230624   7.160   4.168   0.414
 9909SOL     OW30625   6.609   4.490   0.966
 9909SOL    HW130626   6.624   4.511   1.062
 9909SOL    HW230627   6.579   4.395   0.957
 9910SOL     OW30628   6.566   5.297   1.700
 9910SOL    HW130629   6.546   5.341   1.612
 9910SOL    HW230630   6.605   5.206   1.684
 9911SOL     OW30631   5.936   4.622   1.804
 9911SOL    HW130632   6.012   4.666   1.852
 9911SOL    HW230633   5.971   4.575   1.722
 9912SOL     OW30634   6.889   4.562   0.042
 9912SOL    HW130635   6.923   4.469   0.057
 9912SOL    HW230636   6.907   4.589  -0.053
 9913SOL     OW30637   6.654   5.057   0.849
 9913SOL    HW130638   6.661   4.973   0.794
 9913SOL    HW230639   6.716   5.126   0.813
 9914SOL     OW30640   5.905   4.534   0.949
 9914SOL    HW130641   5.998   4.570   0.954
 9914SOL    HW230642   5.899   4.449   1.001
 9915SOL     OW30643   5.925   4.233   1.006
 9915SOL    HW130644   5.873   4.150   0.989
 9915SOL    HW230645   6.002   4.238   0.942
 9916SOL     OW30646   6.724   4.104   1.678
 9916SOL    HW130647   6.679   4.167   1.742
 9916SOL    HW230648   6.817   4.135   1.661
 9917SOL     OW30649   6.746   3.931   1.477
 9917SOL    HW130650   6.746   3.995   1.554
 9917SOL    HW230651   6.774   3.979   1.394
 9918SOL     OW30652   5.674   5.525   0.927
 9918SOL    HW130653   5.632   5.439   0.900
 9918SOL    HW230654   5.768   5.528   0.893
 9919SOL     OW30655   6.090   5.292   0.910
 9919SOL    HW130656   6.156   5.366   0.919
 9919SOL    HW230657   6.134   5.213   0.868
 9920SOL     OW30658   6.588   4.520   1.238
 9920SOL    HW130659   6.629   4.488   1.324
 9920SOL    HW230660   6.492   4.493   1.235
 9921SOL     OW30661   5.626   4.268   1.114
 9921SOL    HW130662   5.711   4.235   1.073
 9921SOL    HW230663   5.639   4.283   1.212
 9922SOL     OW30664   5.775   4.244   1.722
 9922SOL    HW130665   5.834   4.204   1.652
 9922SOL    HW230666   5.717   4.315   1.681
 9923SOL     OW30667   6.401   4.296   0.325
 9923SOL    HW130668   6.408   4.207   0.279
 9923SOL    HW230669   6.307   4.330   0.317
 9924SOL     OW30670   5.838   5.288   1.744
 9924SOL    HW130671   5.808   5.345   1.820
 9924SOL    HW230672   5.831   5.191   1.770
 9925SOL     OW30673   6.257   4.188   1.269
 9925SOL    HW130674   6.223   4.099   1.239
 9925SOL    HW230675   6.283   4.242   1.189
 9926SOL     OW30676   6.516   5.402   1.465
 9926SOL    HW130677   6.492   5.384   1.370
 9926SOL    HW230678   6.546   5.496   1.475
 9927SOL     OW30679   6.059   4.224   0.191
 9927SOL    HW130680   6.120   4.304   0.195
 9927SOL    HW230681   5.964   4.255   0.198
 9928SOL     OW30682   5.745   4.861   1.466
 9928SOL    HW130683   5.767   4.800   1.542
 9928SOL    HW230684   5.755   4.812   1.380
 9929SOL     OW30685   6.933   4.783   1.234
 9929SOL    HW130686   6.957   4.720   1.160
 9929SOL    HW230687   6.843   4.823   1.216
 9930SOL     OW30688   6.888   4.579   0.309
 9930SOL    HW130689   6.802   4.548   0.351
 9930SOL    HW230690   6.884   4.565   0.210
 9931SOL     OW30691   6.838   5.455   1.128
 9931SOL    HW130692   6.922   5.460   1.074
 9931SOL    HW230693   6.815   5.359   1.146
 9932SOL     OW30694   5.669   4.982   1.022
 9932SOL    HW130695   5.664   4.981   1.122
 9932SOL    HW230696   5.586   4.941   0.984
 9933SOL     OW30697   6.274   5.386   1.716
 9933SOL    HW130698   6.218   5.467   1.725
 9933SOL    HW230699   6.326   5.390   1.630
 9934SOL     OW30700   6.489   3.810   0.133
 9934SOL    HW130701   6.540   3.811   0.047
 9934SOL    HW230702   6.545   3.768   0.204
 9935SOL     OW30703   6.974   5.297   0.477
 9935SOL    HW130704   7.041   5.309   0.403
 9935SOL    HW230705   6.934   5.386   0.500
 9936SOL     OW30706   5.716   5.518   1.851
 9936SOL    HW130707   5.675   5.444   1.904
 9936SOL    HW230708   5.780   5.569   1.909
 9937SOL     OW30709   6.866   4.651   0.672
 9937SOL    HW130710   6.926   4.570   0.674
 9937SOL    HW230711   6.906   4.720   0.612
 9938SOL     OW30712   6.416   4.997   1.422
 9938SOL    HW130713   6.411   5.030   1.517
 9938SOL    HW230714   6.330   5.016   1.376
 9939SOL     OW30715   6.258   5.340   0.154
 9939SOL    HW130716   6.267   5.350   0.055
 9939SOL    HW230717   6.218   5.251   0.175
 9940SOL     OW30718   5.849   4.050   0.720
 9940SOL    HW130719   5.770   4.101   0.686
 9940SOL    HW230720   5.840   4.035   0.818
 9941SOL     OW30721   6.780   5.336   0.031
 9941SOL    HW130722   6.786   5.243   0.068
 9941SOL    HW230723   6.721   5.336  -0.049
 9942SOL     OW30724   6.408   4.726   1.372
 9942SOL    HW130725   6.448   4.725   1.280
 9942SOL    HW230726   6.418   4.818   1.412
 9943SOL     OW30727   6.502   4.634   0.291
 9943SOL    HW130728   6.565   4.672   0.223
 9943SOL    HW230729   6.542   4.551   0.330
 9944SOL     OW30730   5.958   5.012   1.490
 9944SOL    HW130731   5.945   5.105   1.456
 9944SOL    HW230732   5.874   4.960   1.477
 9945SOL     OW30733   6.625   4.822   0.696
 9945SOL    HW130734   6.555   4.775   0.750
 9945SOL    HW230735   6.684   4.754   0.653
 9946SOL     OW30736   6.600   3.960   0.971
 9946SOL    HW130737   6.592   3.924   0.878
 9946SOL    HW230738   6.598   3.884   1.036
 9947SOL     OW30739   6.176   5.211   0.491
 9947SOL    HW130740   6.218   5.153   0.421
 9947SOL    HW230741   6.132   5.290   0.447
 9948SOL     OW30742   5.841   5.072   0.290
 9948SOL    HW130743   5.745   5.073   0.263
 9948SOL    HW230744   5.853   5.125   0.374
 9949SOL     OW30745   5.691   4.737   1.726
 9949SOL    HW130746   5.614   4.704   1.780
 9949SOL    HW230747   5.776   4.707   1.768
 9950SOL     OW30748   6.258   3.927   1.489
 9950SOL    HW130749   6.348   3.911   1.449
 9950SOL    HW230750   6.266   3.932   1.588
 9951SOL     OW30751   5.661   4.069   0.033
 9951SOL    HW130752   5.569   4.041   0.004
 9951SOL    HW230753   5.692   4.146  -0.023
 9952SOL     OW30754   5.658   3.890   0.318
 9952SOL    HW130755   5.641   3.973   0.264
 9952SOL    HW230756   5.748   3.853   0.296
 9953SOL     OW30757   6.199   4.566   1.431
 9953SOL    HW130758   6.255   4.647   1.414
 9953SOL    HW230759   6.258   4.486   1.434
 9954SOL     OW30760   6.302   4.289   1.708
 9954SOL    HW130761   6.321   4.354   1.782
 9954SOL    HW230762   6.362   4.209   1.717
 9955SOL     OW30763   7.036   4.944   1.633
 9955SOL    HW130764   7.027   4.934   1.732
 9955SOL    HW230765   7.132   4.937   1.607
 9956SOL     OW30766   5.976   5.465   1.560
 9956SOL    HW130767   5.885   5.506   1.558
 9956SOL    HW230768   5.969   5.371   1.592
 9957SOL     OW30769   6.811   4.049   0.449
 9957SOL    HW130770   6.876   3.975   0.438
 9957SOL    HW230771   6.831   4.099   0.533
 9958SOL     OW30772   6.180   4.469   0.652
 9958SOL    HW130773   6.230   4.554   0.633
 9958SOL    HW230774   6.092   4.471   0.604
 9959SOL     OW30775   6.445   5.098   0.016
 9959SOL    HW130776   6.399   5.113   0.104
 9959SOL    HW230777   6.489   5.183  -0.014
 9960SOL     OW30778   6.247   5.514   0.953
 9960SOL    HW130779   6.201   5.602   0.940
 9960SOL    HW230780   6.346   5.526   0.946
 9961SOL     OW30781   6.445   4.680   0.861
 9961SOL    HW130782   6.499   4.611   0.909
 9961SOL    HW230783   6.413   4.749   0.927
 9962SOL     OW30784   6.669   4.708   0.087
 9962SOL    HW130785   6.646   4.761   0.005
 9962SOL    HW230786   6.750   4.652   0.068
 9963SOL     OW30787   5.807   5.038   1.844
 9963SOL    HW130788   5.742   4.965   1.823
 9963SOL    HW230789   5.811   5.052   1.942
 9964SOL     OW30790   5.665   4.964   0.653
 9964SOL    HW130791   5.664   4.917   0.741
 9964SOL    HW230792   5.747   4.936   0.602
 9965SOL     OW30793   6.258   5.115   1.624
 9965SOL    HW130794   6.180   5.065   1.662
 9965SOL    HW230795   6.255   5.210   1.655
 9966SOL     OW30796   6.014   4.148   0.520
 9966SOL    HW130797   6.044   4.076   0.458
 9966SOL    HW230798   5.975   4.108   0.603
 9967SOL     OW30799   5.903   4.271   1.280
 9967SOL    HW130800   5.941   4.212   1.352
 9967SOL    HW230801   5.943   4.245   1.192
 9968SOL     OW30802   6.398   5.310   0.687
 9968SOL    HW130803   6.430   5.320   0.593
 9968SOL    HW230804   6.319   5.248   0.689
 9969SOL     OW30805   7.010   3.938   1.112
 9969SOL    HW130806   7.062   3.873   1.167
 9969SOL    HW230807   6.961   4.001   1.173
 9970SOL     OW30808   6.587   3.758   1.154
 9970SOL    HW130809   6.524   3.686   1.123
 9970SOL    HW230810   6.680   3.722   1.154
 9971SOL     OW30811   6.356   5.054   0.301
 9971SOL    HW130812   6.310   4.967   0.318
 9971SOL    HW230813   6.447   5.051   0.342
 9972SOL     OW30814   6.204   5.291   1.284
 9972SOL    HW130815   6.199   5.373   1.341
 9972SOL    HW230816   6.293   5.288   1.239
 9973SOL     OW30817   5.625   4.801   0.300
 9973SOL    HW130818   5.724   4.790   0.291
 9973SOL    HW230819   5.585   4.715   0.332
 9974SOL     OW30820   6.461   5.370   0.337
 9974SOL    HW130821   6.384   5.335   0.283
 9974SOL    HW230822   6.429   5.441   0.399
 9975SOL     OW30823   5.816   4.352   1.975
 9975SOL    HW130824   5.723   4.350   2.012
 9975SOL    HW230825   5.817   4.313   1.883
 9976SOL     OW30826   5.811   3.999   2.858
 9976SOL    HW130827   5.846   3.982   2.950
 9976SOL    HW230828   5.723   3.954   2.846
 9977SOL     OW30829   5.605   4.092   2.509
 9977SOL    HW130830   5.523   4.135   2.548
 9977SOL    HW230831   5.577   4.019   2.446
 9978SOL     OW30832   6.155   4.999   3.027
 9978SOL    HW130833   6.062   4.992   2.990
 9978SOL    HW230834   6.166   5.088   3.071
 9979SOL     OW30835   7.141   5.235   2.565
 9979SOL    HW130836   7.084   5.219   2.646
 9979SOL    HW230837   7.082   5.245   2.485
 9980SOL     OW30838   6.721   4.427   2.579
 9980SOL    HW130839   6.778   4.505   2.554
 9980SOL    HW230840   6.661   4.453   2.655
 9981SOL     OW30841   6.354   4.868   2.885
 9981SOL    HW130842   6.276   4.885   2.945
 9981SOL    HW230843   6.388   4.955   2.849
 9982SOL     OW30844   6.436   4.522   3.685
 9982SOL    HW130845   6.432   4.598   3.750
 9982SOL    HW230846   6.458   4.558   3.594
 9983SOL     OW30847   6.271   4.736   2.527
 9983SOL    HW130848   6.340   4.720   2.597
 9983SOL    HW230849   6.198   4.793   2.565
 9984SOL     OW30850   6.272   4.885   3.665
 9984SOL    HW130851   6.332   4.964   3.679
 9984SOL    HW230852   6.186   4.916   3.624
 9985SOL     OW30853   5.921   5.159   2.923
 9985SOL    HW130854   5.843   5.128   2.870
 9985SOL    HW230855   5.979   5.217   2.866
 9986SOL     OW30856   6.024   4.116   3.361
 9986SOL    HW130857   6.106   4.060   3.370
 9986SOL    HW230858   5.943   4.058   3.365
 9987SOL     OW30859   5.817   5.437   2.345
 9987SOL    HW130860   5.851   5.514   2.399
 9987SOL    HW230861   5.861   5.437   2.255
 9988SOL     OW30862   6.713   5.065   3.552
 9988SOL    HW130863   6.760   5.065   3.640
 9988SOL    HW230864   6.665   4.978   3.541
 9989SOL     OW30865   5.816   5.158   2.400
 9989SOL    HW130866   5.790   5.254   2.400
 9989SOL    HW230867   5.745   5.104   2.445
 9990SOL     OW30868   5.826   4.815   2.748
 9990SOL    HW130869   5.840   4.731   2.800
 9990SOL    HW230870   5.771   4.879   2.803
 9991SOL     OW30871   6.206   5.510   3.301
 9991SOL    HW130872   6.114   5.493   3.336
 9991SOL    HW230873   6.234   5.602   3.327
 9992SOL     OW30874   6.192   4.688   1.985
 9992SOL    HW130875   6.199   4.772   1.931
 9992SOL    HW230876   6.238   4.701   2.073
 9993SOL     OW30877   5.708   4.367   2.425
 9993SOL    HW130878   5.663   4.279   2.442
 9993SOL    HW230879   5.707   4.421   2.509
 9994SOL     OW30880   5.613   5.320   1.979
 9994SOL    HW130881   5.594   5.224   2.000
 9994SOL    HW230882   5.580   5.378   2.054
 9995SOL     OW30883   5.699   4.461   3.459
 9995SOL    HW130884   5.787   4.448   3.504
 9995SOL    HW230885   5.686   4.558   3.437
 9996SOL     OW30886   6.199   5.089   2.588
 9996SOL    HW130887   6.150   5.002   2.597
 9996SOL    HW230888   6.176   5.132   2.501
 9997SOL     OW30889   6.879   4.952   3.285
 9997SOL    HW130890   6.916   4.879   3.227
 9997SOL    HW230891   6.931   4.957   3.370
 9998SOL     OW30892   6.395   3.728   2.364
 9998SOL    HW130893   6.435   3.819   2.355
 9998SOL    HW230894   6.295   3.736   2.370
 9999SOL     OW30895   5.783   4.700   3.126
 9999SOL    HW130896   5.872   4.655   3.112
 9999SOL    HW230897   5.710   4.635   3.107
10000SOL     OW30898   6.773   5.516   3.478
10000SOL    HW130899   6.797   5.576   3.402
10000SOL    HW230900   6.780   5.421   3.448
10001SOL     OW30901   5.903   3.975   3.663
10001SOL    HW130902   5.974   4.046   3.669
10001SOL    HW230903   5.815   4.014   3.691
10002SOL     OW30904   6.184   4.453   2.132
10002SOL    HW130905   6.208   4.522   2.064
10002SOL    HW230906   6.106   4.486   2.186
10003SOL     OW30907   6.867   4.069   2.806
10003SOL    HW130908   6.781   4.019   2.793
10003SOL    HW230909   6.929   4.015   2.862
10004SOL     OW30910   6.393   4.329   3.327
10004SOL    HW130911   6.346   4.326   3.416
10004SOL    HW230912   6.342   4.274   3.261
10005SOL     OW30913   6.980   4.193   3.536
10005SOL    HW130914   6.960   4.236   3.624
10005SOL    HW230915   7.058   4.131   3.545
10006SOL     OW30916   6.559   4.614   3.434
10006SOL    HW130917   6.605   4.530   3.405
10006SOL    HW230918   6.503   4.648   3.359
10007SOL     OW30919   6.577   4.134   3.104
10007SOL    HW130920   6.500   4.168   3.158
10007SOL    HW230921   6.543   4.083   3.025
10008SOL     OW30922   6.627   4.425   2.291
10008SOL    HW130923   6.653   4.421   2.387
10008SOL    HW230924   6.542   4.374   2.277
10009SOL     OW30925   5.662   4.535   2.651
10009SOL    HW130926   5.761   4.523   2.660
10009SOL    HW230927   5.638   4.630   2.672
10010SOL     OW30928   5.716   5.545   3.433
10010SOL    HW130929   5.706   5.530   3.532
10010SOL    HW230930   5.630   5.581   3.397
10011SOL     OW30931   6.451   4.072   2.057
10011SOL    HW130932   6.510   4.135   2.008
10011SOL    HW230933   6.470   3.978   2.028
10012SOL     OW30934   6.948   4.868   2.407
10012SOL    HW130935   7.031   4.839   2.359
10012SOL    HW230936   6.899   4.935   2.351
10013SOL     OW30937   6.136   3.920   2.747
10013SOL    HW130938   6.131   3.915   2.847
10013SOL    HW230939   6.138   4.016   2.718
10014SOL     OW30940   6.594   5.180   2.339
10014SOL    HW130941   6.548   5.252   2.287
10014SOL    HW230942   6.590   5.200   2.437
10015SOL     OW30943   5.937   5.525   2.715
10015SOL    HW130944   5.987   5.439   2.721
10015SOL    HW230945   6.002   5.602   2.712
10016SOL     OW30946   6.813   5.274   3.368
10016SOL    HW130947   6.819   5.197   3.432
10016SOL    HW230948   6.761   5.248   3.288
10017SOL     OW30949   5.907   4.667   2.104
10017SOL    HW130950   5.989   4.706   2.062
10017SOL    HW230951   5.880   4.585   2.055
10018SOL     OW30952   6.047   4.990   3.589
10018SOL    HW130953   5.997   4.991   3.503
10018SOL    HW230954   5.984   4.972   3.665
10019SOL     OW30955   6.697   5.500   2.099
10019SOL    HW130956   6.637   5.438   2.149
10019SOL    HW230957   6.728   5.456   2.014
10020SOL     OW30958   5.788   4.009   3.360
10020SOL    HW130959   5.708   4.069   3.347
10020SOL    HW230960   5.778   3.960   3.446
10021SOL     OW30961   6.050   5.467   2.185
10021SOL    HW130962   6.083   5.506   2.271
10021SOL    HW230963   6.126   5.460   2.120
10022SOL     OW30964   5.835   5.509   3.103
10022SOL    HW130965   5.892   5.444   3.153
10022SOL    HW230966   5.819   5.476   3.010
10023SOL     OW30967   6.526   5.422   2.766
10023SOL    HW130968   6.606   5.365   2.787
10023SOL    HW230969   6.477   5.382   2.689
10024SOL     OW30970   5.968   4.424   2.342
10024SOL    HW130971   6.013   4.334   2.339
10024SOL    HW230972   5.874   4.413   2.375
10025SOL     OW30973   6.200   3.846   1.979
10025SOL    HW130974   6.298   3.824   1.986
10025SOL    HW230975   6.169   3.829   1.886
10026SOL     OW30976   6.367   3.988   3.611
10026SOL    HW130977   6.434   3.927   3.654
10026SOL    HW230978   6.294   4.007   3.676
10027SOL     OW30979   6.474   5.238   3.057
10027SOL    HW130980   6.451   5.213   2.963
10027SOL    HW230981   6.535   5.169   3.096
10028SOL     OW30982   6.389   5.126   2.786
10028SOL    HW130983   6.479   5.140   2.744
10028SOL    HW230984   6.318   5.128   2.715
10029SOL     OW30985   6.508   4.227   2.761
10029SOL    HW130986   6.483   4.218   2.665
10029SOL    HW230987   6.556   4.145   2.792
10030SOL     OW30988   6.125   3.788   2.374
10030SOL    HW130989   6.044   3.789   2.432
10030SOL    HW230990   6.128   3.871   2.319
10031SOL     OW30991   7.020   4.912   1.903
10031SOL    HW130992   7.052   4.836   1.960
10031SOL    HW230993   6.928   4.939   1.933
10032SOL     OW30994   5.883   3.759   2.033
10032SOL    HW130995   5.932   3.843   2.012
10032SOL    HW230996   5.945   3.694   2.078
10033SOL     OW30997   6.521   3.960   2.342
10033SOL    HW130998   6.473   4.001   2.264
10033SOL    HW230999   6.620   3.958   2.323
10034SOL     OW31000   6.662   4.407   3.326
10034SOL    HW131001   6.582   4.346   3.329
10034SOL    HW231002   6.743   4.354   3.302
10035SOL     OW31003   6.813   5.294   2.655
10035SOL    HW131004   6.834   5.368   2.590
10035SOL    HW231005   6.881   5.294   2.728
10036SOL     OW31006   6.045   4.876   2.603
10036SOL    HW131007   5.974   4.849   2.668
10036SOL    HW231008   6.019   4.848   2.510
10037SOL     OW31009   6.857   5.521   2.453
10037SOL    HW131010   6.901   5.585   2.389
10037SOL    HW231011   6.807   5.573   2.523
10038SOL     OW31012   6.618   4.273   1.878
10038SOL    HW131013   6.577   4.355   1.839
10038SOL    HW231014   6.682   4.299   1.951
10039SOL     OW31015   5.664   4.280   3.248
10039SOL    HW131016   5.756   4.279   3.207
10039SOL    HW231017   5.658   4.354   3.315
10040SOL     OW31018   6.147   3.946   3.009
10040SOL    HW131019   6.185   3.862   3.046
10040SOL    HW231020   6.059   3.965   3.053
10041SOL     OW31021   6.452   4.178   2.504
10041SOL    HW131022   6.420   4.250   2.442
10041SOL    HW231023   6.476   4.097   2.451
10042SOL     OW31024   6.603   3.763   2.615
10042SOL    HW131025   6.531   3.768   2.546
10042SOL    HW231026   6.579   3.694   2.684
10043SOL     OW31027   6.074   5.109   2.036
10043SOL    HW131028   5.987   5.094   2.083
10043SOL    HW231029   6.057   5.135   1.941
10044SOL     OW31030   6.113   3.980   2.190
10044SOL    HW131031   6.140   3.921   2.115
10044SOL    HW231032   6.113   4.075   2.159
10045SOL     OW31033   6.650   5.071   3.202
10045SOL    HW131034   6.570   5.048   3.257
10045SOL    HW231035   6.733   5.045   3.251
10046SOL     OW31036   6.697   4.919   2.962
10046SOL    HW131037   6.657   4.963   3.043
10046SOL    HW231038   6.656   4.956   2.879
10047SOL     OW31039   6.501   3.813   3.264
10047SOL    HW131040   6.526   3.793   3.169
10047SOL    HW231041   6.573   3.869   3.306
10048SOL     OW31042   6.566   4.840   3.581
10048SOL    HW131043   6.467   4.846   3.591
10048SOL    HW231044   6.589   4.760   3.525
10049SOL     OW31045   6.291   4.774   2.230
10049SOL    HW131046   6.277   4.781   2.329
10049SOL    HW231047   6.375   4.723   2.212
10050SOL     OW31048   5.996   4.537   3.113
10050SOL    HW131049   6.082   4.549   3.163
10050SOL    HW231050   5.954   4.450   3.140
10051SOL     OW31051   6.860   4.110   3.124
10051SOL    HW131052   6.881   4.184   3.188
10051SOL    HW231053   6.771   4.127   3.081
10052SOL     OW31054   5.650   5.288   3.193
10052SOL    HW131055   5.604   5.370   3.159
10052SOL    HW231056   5.748   5.307   3.202
10053SOL     OW31057   5.953   4.824   2.363
10053SOL    HW131058   5.946   4.907   2.307
10053SOL    HW231059   5.957   4.744   2.303
10054SOL     OW31060   6.152   4.261   2.727
10054SOL    HW131061   6.164   4.327   2.653
10054SOL    HW231062   6.198   4.295   2.810
10055SOL     OW31063   6.838   5.072   2.250
10055SOL    HW131064   6.888   5.149   2.290
10055SOL    HW231065   6.743   5.074   2.282
10056SOL     OW31066   6.858   5.169   3.004
10056SOL    HW131067   6.905   5.182   3.091
10056SOL    HW231068   6.792   5.095   3.013
10057SOL     OW31069   5.940   5.234   3.191
10057SOL    HW131070   5.919   5.190   3.104
10057SOL    HW231071   6.037   5.260   3.194
10058SOL     OW31072   5.988   4.475   3.460
10058SOL    HW131073   6.056   4.530   3.413
10058SOL    HW231074   6.028   4.387   3.487
10059SOL     OW31075   6.599   3.829   3.632
10059SOL    HW131076   6.605   3.914   3.580
10059SOL    HW231077   6.631   3.753   3.575
10060SOL     OW31078   6.090   3.774   3.602
10060SOL    HW131079   6.048   3.717   3.532
10060SOL    HW231080   6.024   3.843   3.634
10061SOL     OW31081   6.159   4.594   2.891
10061SOL    HW131082   6.203   4.683   2.882
10061SOL    HW231083   6.096   4.594   2.968
10062SOL     OW31084   6.946   4.586   2.907
10062SOL    HW131085   6.871   4.586   2.841
10062SOL    HW231086   6.983   4.494   2.916
10063SOL     OW31087   6.795   4.249   2.137
10063SOL    HW131088   6.808   4.165   2.191
10063SOL    HW231089   6.766   4.323   2.197
10064SOL     OW31090   5.893   3.937   3.093
10064SOL    HW131091   5.870   3.974   3.183
10064SOL    HW231092   5.863   3.842   3.087
10065SOL     OW31093   5.623   5.034   3.144
10065SOL    HW131094   5.676   4.985   3.212
10065SOL    HW231095   5.645   5.132   3.149
10066SOL     OW31096   6.318   4.358   2.926
10066SOL    HW131097   6.377   4.332   2.850
10066SOL    HW231098   6.290   4.454   2.915
10067SOL     OW31099   5.893   3.787   2.480
10067SOL    HW131100   5.882   3.881   2.513
10067SOL    HW231101   5.888   3.724   2.557
10068SOL     OW31102   7.208   4.091   2.236
10068SOL    HW131103   7.210   4.015   2.300
10068SOL    HW231104   7.160   4.168   2.276
10069SOL     OW31105   6.609   4.490   2.828
10069SOL    HW131106   6.624   4.511   2.924
10069SOL    HW231107   6.579   4.395   2.819
10070SOL     OW31108   6.566   5.297   3.562
10070SOL    HW131109   6.546   5.341   3.474
10070SOL    HW231110   6.605   5.206   3.546
10071SOL     OW31111   5.936   4.622   3.666
10071SOL    HW131112   6.012   4.666   3.714
10071SOL    HW231113   5.971   4.575   3.584
10072SOL     OW31114   6.889   4.562   1.904
10072SOL    HW131115   6.923   4.469   1.919
10072SOL    HW231116   6.907   4.589   1.809
10073SOL     OW31117   6.654   5.057   2.711
10073SOL    HW131118   6.661   4.973   2.656
10073SOL    HW231119   6.716   5.126   2.675
10074SOL     OW31120   5.905   4.534   2.811
10074SOL    HW131121   5.998   4.570   2.816
10074SOL    HW231122   5.899   4.449   2.863
10075SOL     OW31123   5.925   4.233   2.868
10075SOL    HW131124   5.873   4.150   2.851
10075SOL    HW231125   6.002   4.238   2.804
10076SOL     OW31126   6.724   4.104   3.540
10076SOL    HW131127   6.679   4.167   3.604
10076SOL    HW231128   6.817   4.135   3.523
10077SOL     OW31129   6.746   3.931   3.339
10077SOL    HW131130   6.746   3.995   3.416
10077SOL    HW231131   6.774   3.979   3.256
10078SOL     OW31132   5.594   5.050   2.062
10078SOL    HW131133   5.501   5.071   2.031
10078SOL    HW231134   5.604   4.951   2.075
10079SOL     OW31135   5.674   5.525   2.789
10079SOL    HW131136   5.632   5.439   2.762
10079SOL    HW231137   5.768   5.528   2.755
10080SOL     OW31138   6.090   5.292   2.772
10080SOL    HW131139   6.156   5.366   2.781
10080SOL    HW231140   6.134   5.213   2.730
10081SOL     OW31141   6.588   4.520   3.100
10081SOL    HW131142   6.629   4.488   3.186
10081SOL    HW231143   6.492   4.493   3.097
10082SOL     OW31144   5.626   4.268   2.976
10082SOL    HW131145   5.711   4.235   2.935
10082SOL    HW231146   5.639   4.283   3.074
10083SOL     OW31147   5.775   4.244   3.584
10083SOL    HW131148   5.834   4.204   3.514
10083SOL    HW231149   5.717   4.315   3.543
10084SOL     OW31150   6.401   4.296   2.187
10084SOL    HW131151   6.408   4.207   2.141
10084SOL    HW231152   6.307   4.330   2.179
10085SOL     OW31153   5.838   5.288   3.606
10085SOL    HW131154   5.808   5.345   3.682
10085SOL    HW231155   5.831   5.191   3.632
10086SOL     OW31156   6.257   4.188   3.131
10086SOL    HW131157   6.223   4.099   3.101
10086SOL    HW231158   6.283   4.242   3.051
10087SOL     OW31159   6.516   5.402   3.327
10087SOL    HW131160   6.492   5.384   3.232
10087SOL    HW231161   6.546   5.496   3.337
10088SOL     OW31162   6.059   4.224   2.053
10088SOL    HW131163   6.120   4.304   2.057
10088SOL    HW231164   5.964   4.255   2.060
10089SOL     OW31165   5.745   4.861   3.328
10089SOL    HW131166   5.767   4.800   3.404
10089SOL    HW231167   5.755   4.812   3.242
10090SOL     OW31168   6.933   4.783   3.096
10090SOL    HW131169   6.957   4.720   3.022
10090SOL    HW231170   6.843   4.823   3.078
10091SOL     OW31171   6.888   4.579   2.171
10091SOL    HW131172   6.802   4.548   2.213
10091SOL    HW231173   6.884   4.565   2.072
10092SOL     OW31174   6.838   5.455   2.990
10092SOL    HW131175   6.922   5.460   2.936
10092SOL    HW231176   6.815   5.359   3.008
10093SOL     OW31177   5.669   4.982   2.884
10093SOL    HW131178   5.664   4.981   2.984
10093SOL    HW231179   5.586   4.941   2.846
10094SOL     OW31180   6.274   5.386   3.578
10094SOL    HW131181   6.218   5.467   3.587
10094SOL    HW231182   6.326   5.390   3.492
10095SOL     OW31183   6.974   5.297   2.339
10095SOL    HW131184   7.041   5.309   2.265
10095SOL    HW231185   6.934   5.386   2.362
10096SOL     OW31186   5.716   5.518   3.713
10096SOL    HW131187   5.675   5.444   3.766
10096SOL    HW231188   5.780   5.569   3.771
10097SOL     OW31189   6.866   4.651   2.534
10097SOL    HW131190   6.926   4.570   2.536
10097SOL    HW231191   6.906   4.720   2.474
10098SOL     OW31192   6.416   4.997   3.284
10098SOL    HW131193   6.411   5.030   3.379
10098SOL    HW231194   6.330   5.016   3.238
10099SOL     OW31195   6.258   5.340   2.016
10099SOL    HW131196   6.267   5.350   1.917
10099SOL    HW231197   6.218   5.251   2.037
10100SOL     OW31198   5.849   4.050   2.582
10100SOL    HW131199   5.770   4.101   2.548
10100SOL    HW231200   5.840   4.035   2.680
10101SOL     OW31201   6.780   5.336   1.893
10101SOL    HW131202   6.786   5.243   1.930
10101SOL    HW231203   6.721   5.336   1.813
10102SOL     OW31204   6.408   4.726   3.234
10102SOL    HW131205   6.448   4.725   3.142
10102SOL    HW231206   6.418   4.818   3.274
10103SOL     OW31207   6.502   4.634   2.153
10103SOL    HW131208   6.565   4.672   2.085
10103SOL    HW231209   6.542   4.551   2.192
10104SOL     OW31210   5.958   5.012   3.352
10104SOL    HW131211   5.945   5.105   3.318
10104SOL    HW231212   5.874   4.960   3.339
10105SOL     OW31213   6.625   4.822   2.558
10105SOL    HW131214   6.555   4.775   2.612
10105SOL    HW231215   6.684   4.754   2.515
10106SOL     OW31216   6.600   3.960   2.833
10106SOL    HW131217   6.592   3.924   2.740
10106SOL    HW231218   6.598   3.884   2.898
10107SOL     OW31219   6.176   5.211   2.353
10107SOL    HW131220   6.218   5.153   2.283
10107SOL    HW231221   6.132   5.290   2.309
10108SOL     OW31222   5.841   5.072   2.152
10108SOL    HW131223   5.745   5.073   2.125
10108SOL    HW231224   5.853   5.125   2.236
10109SOL     OW31225   5.691   4.737   3.588
10109SOL    HW131226   5.614   4.704   3.642
10109SOL    HW231227   5.776   4.707   3.630
10110SOL     OW31228   6.258   3.927   3.351
10110SOL    HW131229   6.348   3.911   3.311
10110SOL    HW231230   6.266   3.932   3.450
10111SOL     OW31231   5.661   4.069   1.895
10111SOL    HW131232   5.569   4.041   1.866
10111SOL    HW231233   5.692   4.146   1.839
10112SOL     OW31234   5.658   3.890   2.180
10112SOL    HW131235   5.641   3.973   2.126
10112SOL    HW231236   5.748   3.853   2.158
10113SOL     OW31237   6.199   4.566   3.293
10113SOL    HW131238   6.255   4.647   3.276
10113SOL    HW231239   6.258   4.486   3.296
10114SOL     OW31240   6.302   4.289   3.570
10114SOL    HW131241   6.321   4.354   3.644
10114SOL    HW231242   6.362   4.209   3.579
10115SOL     OW31243   7.036   4.944   3.495
10115SOL    HW131244   7.027   4.934   3.594
10115SOL    HW231245   7.132   4.937   3.469
10116SOL     OW31246   5.976   5.465   3.422
10116SOL    HW131247   5.885   5.506   3.420
10116SOL    HW231248   5.969   5.371   3.454
10117SOL     OW31249   6.811   4.049   2.311
10117SOL    HW131250   6.876   3.975   2.300
10117SOL    HW231251   6.831   4.099   2.395
10118SOL     OW31252   6.180   4.469   2.514
10118SOL    HW131253   6.230   4.554   2.495
10118SOL    HW231254   6.092   4.471   2.466
10119SOL     OW31255   6.445   5.098   1.878
10119SOL    HW131256   6.399   5.113   1.966
10119SOL    HW231257   6.489   5.183   1.848
10120SOL     OW31258   6.247   5.514   2.815
10120SOL    HW131259   6.201   5.602   2.802
10120SOL    HW231260   6.346   5.526   2.808
10121SOL     OW31261   6.669   4.708   1.949
10121SOL    HW131262   6.646   4.761   1.867
10121SOL    HW231263   6.750   4.652   1.930
10122SOL     OW31264   5.807   5.038   3.706
10122SOL    HW131265   5.742   4.965   3.685
10122SOL    HW231266   5.811   5.052   3.804
10123SOL     OW31267   5.665   4.964   2.515
10123SOL    HW131268   5.664   4.917   2.603
10123SOL    HW231269   5.747   4.936   2.464
10124SOL     OW31270   6.258   5.115   3.486
10124SOL    HW131271   6.180   5.065   3.524
10124SOL    HW231272   6.255   5.210   3.517
10125SOL     OW31273   6.014   4.148   2.382
10125SOL    HW131274   6.044   4.076   2.320
10125SOL    HW231275   5.975   4.108   2.465
10126SOL     OW31276   5.903   4.271   3.142
10126SOL    HW131277   5.941   4.212   3.214
10126SOL    HW231278   5.943   4.245   3.054
10127SOL     OW31279   6.398   5.310   2.549
10127SOL    HW131280   6.430   5.320   2.455
10127SOL    HW231281   6.319   5.248   2.551
10128SOL     OW31282   7.010   3.938   2.974
10128SOL    HW131283   7.062   3.873   3.029
10128SOL    HW231284   6.961   4.001   3.035
10129SOL     OW31285   6.587   3.758   3.016
10129SOL    HW131286   6.524   3.686   2.985
10129SOL    HW231287   6.680   3.722   3.016
10130SOL     OW31288   6.356   5.054   2.163
10130SOL    HW131289   6.310   4.967   2.180
10130SOL    HW231290   6.447   5.051   2.204
10131SOL     OW31291   6.204   5.291   3.146
10131SOL    HW131292   6.199   5.373   3.203
10131SOL    HW231293   6.293   5.288   3.101
10132SOL     OW31294   6.938   3.776   2.030
10132SOL    HW131295   6.973   3.735   1.946
10132SOL    HW231296   6.848   3.738   2.050
10133SOL     OW31297   5.625   4.801   2.162
10133SOL    HW131298   5.724   4.790   2.153
10133SOL    HW231299   5.585   4.715   2.194
10134SOL     OW31300   6.461   5.370   2.199
10134SOL    HW131301   6.384   5.335   2.145
10134SOL    HW231302   6.429   5.441   2.261
10135SOL     OW31303   5.816   4.352   3.837
10135SOL    HW131304   5.723   4.350   3.874
10135SOL    HW231305   5.817   4.313   3.745
10136SOL     OW31306   5.811   3.999   4.720
10136SOL    HW131307   5.846   3.982   4.812
10136SOL    HW231308   5.723   3.954   4.708
10137SOL     OW31309   5.605   4.092   4.371
10137SOL    HW131310   5.523   4.135   4.410
10137SOL    HW231311   5.577   4.019   4.308
10138SOL     OW31312   6.155   4.999   4.889
10138SOL    HW131313   6.062   4.992   4.852
10138SOL    HW231314   6.166   5.088   4.933
10139SOL     OW31315   7.141   5.235   4.427
10139SOL    HW131316   7.084   5.219   4.508
10139SOL    HW231317   7.082   5.245   4.347
10140SOL     OW31318   6.721   4.427   4.441
10140SOL    HW131319   6.778   4.505   4.416
10140SOL    HW231320   6.661   4.453   4.517
10141SOL     OW31321   6.354   4.868   4.747
10141SOL    HW131322   6.276   4.885   4.807
10141SOL    HW231323   6.388   4.955   4.711
10142SOL     OW31324   6.436   4.522   5.547
10142SOL    HW131325   6.432   4.598   5.612
10142SOL    HW231326   6.458   4.558   5.456
10143SOL     OW31327   6.271   4.736   4.389
10143SOL    HW131328   6.340   4.720   4.459
10143SOL    HW231329   6.198   4.793   4.427
10144SOL     OW31330   6.272   4.885   5.527
10144SOL    HW131331   6.332   4.964   5.541
10144SOL    HW231332   6.186   4.916   5.486
10145SOL     OW31333   5.921   5.159   4.785
10145SOL    HW131334   5.843   5.128   4.732
10145SOL    HW231335   5.979   5.217   4.728
10146SOL     OW31336   6.024   4.116   5.223
10146SOL    HW131337   6.106   4.060   5.232
10146SOL    HW231338   5.943   4.058   5.227
10147SOL     OW31339   5.817   5.437   4.207
10147SOL    HW131340   5.851   5.514   4.261
10147SOL    HW231341   5.861   5.437   4.117
10148SOL     OW31342   6.713   5.065   5.414
10148SOL    HW131343   6.760   5.065   5.502
10148SOL    HW231344   6.665   4.978   5.403
10149SOL     OW31345   5.816   5.158   4.262
10149SOL    HW131346   5.790   5.254   4.262
10149SOL    HW231347   5.745   5.104   4.307
10150SOL     OW31348   5.826   4.815   4.610
10150SOL    HW131349   5.840   4.731   4.662
10150SOL    HW231350   5.771   4.879   4.665
10151SOL     OW31351   6.206   5.510   5.163
10151SOL    HW131352   6.114   5.493   5.198
10151SOL    HW231353   6.234   5.602   5.189
10152SOL     OW31354   6.192   4.688   3.847
10152SOL    HW131355   6.199   4.772   3.793
10152SOL    HW231356   6.238   4.701   3.935
10153SOL     OW31357   5.708   4.367   4.287
10153SOL    HW131358   5.663   4.279   4.304
10153SOL    HW231359   5.707   4.421   4.371
10154SOL     OW31360   5.613   5.320   3.841
10154SOL    HW131361   5.594   5.224   3.862
10154SOL    HW231362   5.580   5.378   3.916
10155SOL     OW31363   5.699   4.461   5.321
10155SOL    HW131364   5.787   4.448   5.366
10155SOL    HW231365   5.686   4.558   5.299
10156SOL     OW31366   6.199   5.089   4.450
10156SOL    HW131367   6.150   5.002   4.459
10156SOL    HW231368   6.176   5.132   4.363
10157SOL     OW31369   6.879   4.952   5.147
10157SOL    HW131370   6.916   4.879   5.089
10157SOL    HW231371   6.931   4.957   5.232
10158SOL     OW31372   6.395   3.728   4.226
10158SOL    HW131373   6.435   3.819   4.217
10158SOL    HW231374   6.295   3.736   4.232
10159SOL     OW31375   5.783   4.700   4.988
10159SOL    HW131376   5.872   4.655   4.974
10159SOL    HW231377   5.710   4.635   4.969
10160SOL     OW31378   6.773   5.516   5.340
10160SOL    HW131379   6.797   5.576   5.264
10160SOL    HW231380   6.780   5.421   5.310
10161SOL     OW31381   5.903   3.975   5.525
10161SOL    HW131382   5.974   4.046   5.531
10161SOL    HW231383   5.815   4.014   5.553
10162SOL     OW31384   6.184   4.453   3.994
10162SOL    HW131385   6.208   4.522   3.926
10162SOL    HW231386   6.106   4.486   4.048
10163SOL     OW31387   6.867   4.069   4.668
10163SOL    HW131388   6.781   4.019   4.655
10163SOL    HW231389   6.929   4.015   4.724
10164SOL     OW31390   6.393   4.329   5.189
10164SOL    HW131391   6.346   4.326   5.278
10164SOL    HW231392   6.342   4.274   5.123
10165SOL     OW31393   6.980   4.193   5.398
10165SOL    HW131394   6.960   4.236   5.486
10165SOL    HW231395   7.058   4.131   5.407
10166SOL     OW31396   6.559   4.614   5.296
10166SOL    HW131397   6.605   4.530   5.267
10166SOL    HW231398   6.503   4.648   5.221
10167SOL     OW31399   6.577   4.134   4.966
10167SOL    HW131400   6.500   4.168   5.020
10167SOL    HW231401   6.543   4.083   4.887
10168SOL     OW31402   6.627   4.425   4.153
10168SOL    HW131403   6.653   4.421   4.249
10168SOL    HW231404   6.542   4.374   4.139
10169SOL     OW31405   5.662   4.535   4.513
10169SOL    HW131406   5.761   4.523   4.522
10169SOL    HW231407   5.638   4.630   4.534
10170SOL     OW31408   5.716   5.545   5.295
10170SOL    HW131409   5.706   5.530   5.394
10170SOL    HW231410   5.630   5.581   5.259
10171SOL     OW31411   6.451   4.072   3.919
10171SOL    HW131412   6.510   4.135   3.870
10171SOL    HW231413   6.470   3.978   3.890
10172SOL     OW31414   6.948   4.868   4.269
10172SOL    HW131415   7.031   4.839   4.221
10172SOL    HW231416   6.899   4.935   4.213
10173SOL     OW31417   6.136   3.920   4.609
10173SOL    HW131418   6.131   3.915   4.709
10173SOL    HW231419   6.138   4.016   4.580
10174SOL     OW31420   6.594   5.180   4.201
10174SOL    HW131421   6.548   5.252   4.149
10174SOL    HW231422   6.590   5.200   4.299
10175SOL     OW31423   5.937   5.525   4.577
10175SOL    HW131424   5.987   5.439   4.583
10175SOL    HW231425   6.002   5.602   4.574
10176SOL     OW31426   6.813   5.274   5.230
10176SOL    HW131427   6.819   5.197   5.294
10176SOL    HW231428   6.761   5.248   5.150
10177SOL     OW31429   5.907   4.667   3.966
10177SOL    HW131430   5.989   4.706   3.924
10177SOL    HW231431   5.880   4.585   3.917
10178SOL     OW31432   6.047   4.990   5.451
10178SOL    HW131433   5.997   4.991   5.365
10178SOL    HW231434   5.984   4.972   5.527
10179SOL     OW31435   6.697   5.500   3.961
10179SOL    HW131436   6.637   5.438   4.011
10179SOL    HW231437   6.728   5.456   3.876
10180SOL     OW31438   5.788   4.009   5.222
10180SOL    HW131439   5.708   4.069   5.209
10180SOL    HW231440   5.778   3.960   5.308
10181SOL     OW31441   6.050   5.467   4.047
10181SOL    HW131442   6.083   5.506   4.133
10181SOL    HW231443   6.126   5.460   3.982
10182SOL     OW31444   5.835   5.509   4.965
10182SOL    HW131445   5.892   5.444   5.015
10182SOL    HW231446   5.819   5.476   4.872
10183SOL     OW31447   6.526   5.422   4.628
10183SOL    HW131448   6.606   5.365   4.649
10183SOL    HW231449   6.477   5.382   4.551
10184SOL     OW31450   5.968   4.424   4.204
10184SOL    HW131451   6.013   4.334   4.201
10184SOL    HW231452   5.874   4.413   4.237
10185SOL     OW31453   6.200   3.846   3.841
10185SOL    HW131454   6.298   3.824   3.848
10185SOL    HW231455   6.169   3.829   3.748
10186SOL     OW31456   6.367   3.988   5.473
10186SOL    HW131457   6.434   3.927   5.516
10186SOL    HW231458   6.294   4.007   5.538
10187SOL     OW31459   6.474   5.238   4.919
10187SOL    HW131460   6.451   5.213   4.825
10187SOL    HW231461   6.535   5.169   4.958
10188SOL     OW31462   6.389   5.126   4.648
10188SOL    HW131463   6.479   5.140   4.606
10188SOL    HW231464   6.318   5.128   4.577
10189SOL     OW31465   6.508   4.227   4.623
10189SOL    HW131466   6.483   4.218   4.527
10189SOL    HW231467   6.556   4.145   4.654
10190SOL     OW31468   6.125   3.788   4.236
10190SOL    HW131469   6.044   3.789   4.294
10190SOL    HW231470   6.128   3.871   4.181
10191SOL     OW31471   7.020   4.912   3.765
10191SOL    HW131472   7.052   4.836   3.822
10191SOL    HW231473   6.928   4.939   3.795
10192SOL     OW31474   5.883   3.759   3.895
10192SOL    HW131475   5.932   3.843   3.874
10192SOL    HW231476   5.945   3.694   3.940
10193SOL     OW31477   6.521   3.960   4.204
10193SOL    HW131478   6.473   4.001   4.126
10193SOL    HW231479   6.620   3.958   4.185
10194SOL     OW31480   6.662   4.407   5.188
10194SOL    HW131481   6.582   4.346   5.191
10194SOL    HW231482   6.743   4.354   5.164
10195SOL     OW31483   6.813   5.294   4.517
10195SOL    HW131484   6.834   5.368   4.452
10195SOL    HW231485   6.881   5.294   4.590
10196SOL     OW31486   6.045   4.876   4.465
10196SOL    HW131487   5.974   4.849   4.530
10196SOL    HW231488   6.019   4.848   4.372
10197SOL     OW31489   6.857   5.521   4.315
10197SOL    HW131490   6.901   5.585   4.251
10197SOL    HW231491   6.807   5.573   4.385
10198SOL     OW31492   6.618   4.273   3.740
10198SOL    HW131493   6.577   4.355   3.701
10198SOL    HW231494   6.682   4.299   3.813
10199SOL     OW31495   5.664   4.280   5.110
10199SOL    HW131496   5.756   4.279   5.069
10199SOL    HW231497   5.658   4.354   5.177
10200SOL     OW31498   6.147   3.946   4.871
10200SOL    HW131499   6.185   3.862   4.908
10200SOL    HW231500   6.059   3.965   4.915
10201SOL     OW31501   6.452   4.178   4.366
10201SOL    HW131502   6.420   4.250   4.304
10201SOL    HW231503   6.476   4.097   4.313
10202SOL     OW31504   6.603   3.763   4.477
10202SOL    HW131505   6.531   3.768   4.408
10202SOL    HW231506   6.579   3.694   4.546
10203SOL     OW31507   6.074   5.109   3.898
10203SOL    HW131508   5.987   5.094   3.945
10203SOL    HW231509   6.057   5.135   3.803
10204SOL     OW31510   6.113   3.980   4.052
10204SOL    HW131511   6.140   3.921   3.977
10204SOL    HW231512   6.113   4.075   4.021
10205SOL     OW31513   6.650   5.071   5.064
10205SOL    HW131514   6.570   5.048   5.119
10205SOL    HW231515   6.733   5.045   5.113
10206SOL     OW31516   6.697   4.919   4.824
10206SOL    HW131517   6.657   4.963   4.905
10206SOL    HW231518   6.656   4.956   4.741
10207SOL     OW31519   6.501   3.813   5.126
10207SOL    HW131520   6.526   3.793   5.031
10207SOL    HW231521   6.573   3.869   5.168
10208SOL     OW31522   6.566   4.840   5.443
10208SOL    HW131523   6.467   4.846   5.453
10208SOL    HW231524   6.589   4.760   5.387
10209SOL     OW31525   6.291   4.774   4.092
10209SOL    HW131526   6.277   4.781   4.191
10209SOL    HW231527   6.375   4.723   4.074
10210SOL     OW31528   5.996   4.537   4.975
10210SOL    HW131529   6.082   4.549   5.025
10210SOL    HW231530   5.954   4.450   5.002
10211SOL     OW31531   6.860   4.110   4.986
10211SOL    HW131532   6.881   4.184   5.050
10211SOL    HW231533   6.771   4.127   4.943
10212SOL     OW31534   5.650   5.288   5.055
10212SOL    HW131535   5.604   5.370   5.021
10212SOL    HW231536   5.748   5.307   5.064
10213SOL     OW31537   5.953   4.824   4.225
10213SOL    HW131538   5.946   4.907   4.169
10213SOL    HW231539   5.957   4.744   4.165
10214SOL     OW31540   6.152   4.261   4.589
10214SOL    HW131541   6.164   4.327   4.515
10214SOL    HW231542   6.198   4.295   4.672
10215SOL     OW31543   6.838   5.072   4.112
10215SOL    HW131544   6.888   5.149   4.152
10215SOL    HW231545   6.743   5.074   4.144
10216SOL     OW31546   6.858   5.169   4.866
10216SOL    HW131547   6.905   5.182   4.953
10216SOL    HW231548   6.792   5.095   4.875
10217SOL     OW31549   5.940   5.234   5.053
10217SOL    HW131550   5.919   5.190   4.966
10217SOL    HW231551   6.037   5.260   5.056
10218SOL     OW31552   5.988   4.475   5.322
10218SOL    HW131553   6.056   4.530   5.275
10218SOL    HW231554   6.028   4.387   5.349
10219SOL     OW31555   6.599   3.829   5.494
10219SOL    HW131556   6.605   3.914   5.442
10219SOL    HW231557   6.631   3.753   5.437
10220SOL     OW31558   6.090   3.774   5.464
10220SOL    HW131559   6.048   3.717   5.394
10220SOL    HW231560   6.024   3.843   5.496
10221SOL     OW31561   6.159   4.594   4.753
10221SOL    HW131562   6.203   4.683   4.744
10221SOL    HW231563   6.096   4.594   4.830
10222SOL     OW31564   6.946   4.586   4.769
10222SOL    HW131565   6.871   4.586   4.703
10222SOL    HW231566   6.983   4.494   4.778
10223SOL     OW31567   6.795   4.249   3.999
10223SOL    HW131568   6.808   4.165   4.053
10223SOL    HW231569   6.766   4.323   4.059
10224SOL     OW31570   5.893   3.937   4.955
10224SOL    HW131571   5.870   3.974   5.045
10224SOL    HW231572   5.863   3.842   4.949
10225SOL     OW31573   5.623   5.034   5.006
10225SOL    HW131574   5.676   4.985   5.074
10225SOL    HW231575   5.645   5.132   5.011
10226SOL     OW31576   6.318   4.358   4.788
10226SOL    HW131577   6.377   4.332   4.712
10226SOL    HW231578   6.290   4.454   4.777
10227SOL     OW31579   5.893   3.787   4.342
10227SOL    HW131580   5.882   3.881   4.375
10227SOL    HW231581   5.888   3.724   4.419
10228SOL     OW31582   7.208   4.091   4.098
10228SOL    HW131583   7.210   4.015   4.162
10228SOL    HW231584   7.160   4.168   4.138
10229SOL     OW31585   6.609   4.490   4.690
10229SOL    HW131586   6.624   4.511   4.786
10229SOL    HW231587   6.579   4.395   4.681
10230SOL     OW31588   6.566   5.297   5.424
10230SOL    HW131589   6.546   5.341   5.336
10230SOL    HW231590   6.605   5.206   5.408
10231SOL     OW31591   5.936   4.622   5.528
10231SOL    HW131592   6.012   4.666   5.576
10231SOL    HW231593   5.971   4.575   5.446
10232SOL     OW31594   6.889   4.562   3.766
10232SOL    HW131595   6.923   4.469   3.781
10232SOL    HW231596   6.907   4.589   3.671
10233SOL     OW31597   6.654   5.057   4.573
10233SOL    HW131598   6.661   4.973   4.518
10233SOL    HW231599   6.716   5.126   4.537
10234SOL     OW31600   5.905   4.534   4.673
10234SOL    HW131601   5.998   4.570   4.678
10234SOL    HW231602   5.899   4.449   4.725
10235SOL     OW31603   5.925   4.233   4.730
10235SOL    HW131604   5.873   4.150   4.713
10235SOL    HW231605   6.002   4.238   4.666
10236SOL     OW31606   6.724   4.104   5.402
10236SOL    HW131607   6.679   4.167   5.466
10236SOL    HW231608   6.817   4.135   5.385
10237SOL     OW31609   6.746   3.931   5.201
10237SOL    HW131610   6.746   3.995   5.278
10237SOL    HW231611   6.774   3.979   5.118
10238SOL     OW31612   5.594   5.050   3.924
10238SOL    HW131613   5.501   5.071   3.893
10238SOL    HW231614   5.604   4.951   3.937
10239SOL     OW31615   5.674   5.525   4.651
10239SOL    HW131616   5.632   5.439   4.624
10239SOL    HW231617   5.768   5.528   4.617
10240SOL     OW31618   6.090   5.292   4.634
10240SOL    HW131619   6.156   5.366   4.643
10240SOL    HW231620   6.134   5.213   4.592
10241SOL     OW31621   6.588   4.520   4.962
10241SOL    HW131622   6.629   4.488   5.048
10241SOL    HW231623   6.492   4.493   4.959
10242SOL     OW31624   5.626   4.268   4.838
10242SOL    HW131625   5.711   4.235   4.797
10242SOL    HW231626   5.639   4.283   4.936
10243SOL     OW31627   5.775   4.244   5.446
10243SOL    HW131628   5.834   4.204   5.376
10243SOL    HW231629   5.717   4.315   5.405
10244SOL     OW31630   6.401   4.296   4.049
10244SOL    HW131631   6.408   4.207   4.003
10244SOL    HW231632   6.307   4.330   4.041
10245SOL     OW31633   5.838   5.288   5.468
10245SOL    HW131634   5.808   5.345   5.544
10245SOL    HW231635   5.831   5.191   5.494
10246SOL     OW31636   6.257   4.188   4.993
10246SOL    HW131637   6.223   4.099   4.963
10246SOL    HW231638   6.283   4.242   4.913
10247SOL     OW31639   6.516   5.402   5.189
10247SOL    HW131640   6.492   5.384   5.094
10247SOL    HW231641   6.546   5.496   5.199
10248SOL     OW31642   6.059   4.224   3.915
10248SOL    HW131643   6.120   4.304   3.919
10248SOL    HW231644   5.964   4.255   3.922
10249SOL     OW31645   5.745   4.861   5.190
10249SOL    HW131646   5.767   4.800   5.266
10249SOL    HW231647   5.755   4.812   5.104
10250SOL     OW31648   6.933   4.783   4.958
10250SOL    HW131649   6.957   4.720   4.884
10250SOL    HW231650   6.843   4.823   4.940
10251SOL     OW31651   6.888   4.579   4.033
10251SOL    HW131652   6.802   4.548   4.075
10251SOL    HW231653   6.884   4.565   3.934
10252SOL     OW31654   6.838   5.455   4.852
10252SOL    HW131655   6.922   5.460   4.798
10252SOL    HW231656   6.815   5.359   4.870
10253SOL     OW31657   5.669   4.982   4.746
10253SOL    HW131658   5.664   4.981   4.846
10253SOL    HW231659   5.586   4.941   4.708
10254SOL     OW31660   6.274   5.386   5.440
10254SOL    HW131661   6.218   5.467   5.449
10254SOL    HW231662   6.326   5.390   5.354
10255SOL     OW31663   6.974   5.297   4.201
10255SOL    HW131664   7.041   5.309   4.127
10255SOL    HW231665   6.934   5.386   4.224
10256SOL     OW31666   5.716   5.518   5.575
10256SOL    HW131667   5.675   5.444   5.628
10256SOL    HW231668   5.780   5.569   5.633
10257SOL     OW31669   6.866   4.651   4.396
10257SOL    HW131670   6.926   4.570   4.398
10257SOL    HW231671   6.906   4.720   4.336
10258SOL     OW31672   6.416   4.997   5.146
10258SOL    HW131673   6.411   5.030   5.241
10258SOL    HW231674   6.330   5.016   5.100
10259SOL     OW31675   6.258   5.340   3.878
10259SOL    HW131676   6.267   5.350   3.779
10259SOL    HW231677   6.218   5.251   3.899
10260SOL     OW31678   5.849   4.050   4.444
10260SOL    HW131679   5.770   4.101   4.410
10260SOL    HW231680   5.840   4.035   4.542
10261SOL     OW31681   6.780   5.336   3.755
10261SOL    HW131682   6.786   5.243   3.792
10261SOL    HW231683   6.721   5.336   3.675
10262SOL     OW31684   6.408   4.726   5.096
10262SOL    HW131685   6.448   4.725   5.004
10262SOL    HW231686   6.418   4.818   5.136
10263SOL     OW31687   6.502   4.634   4.015
10263SOL    HW131688   6.565   4.672   3.947
10263SOL    HW231689   6.542   4.551   4.054
10264SOL     OW31690   5.958   5.012   5.214
10264SOL    HW131691   5.945   5.105   5.180
10264SOL    HW231692   5.874   4.960   5.201
10265SOL     OW31693   6.625   4.822   4.420
10265SOL    HW131694   6.555   4.775   4.474
10265SOL    HW231695   6.684   4.754   4.377
10266SOL     OW31696   6.600   3.960   4.695
10266SOL    HW131697   6.592   3.924   4.602
10266SOL    HW231698   6.598   3.884   4.760
10267SOL     OW31699   6.176   5.211   4.215
10267SOL    HW131700   6.218   5.153   4.145
10267SOL    HW231701   6.132   5.290   4.171
10268SOL     OW31702   5.841   5.072   4.014
10268SOL    HW131703   5.745   5.073   3.987
10268SOL    HW231704   5.853   5.125   4.098
10269SOL     OW31705   5.691   4.737   5.450
10269SOL    HW131706   5.614   4.704   5.504
10269SOL    HW231707   5.776   4.707   5.492
10270SOL     OW31708   6.258   3.927   5.213
10270SOL    HW131709   6.348   3.911   5.173
10270SOL    HW231710   6.266   3.932   5.312
10271SOL     OW31711   5.661   4.069   3.757
10271SOL    HW131712   5.569   4.041   3.728
10271SOL    HW231713   5.692   4.146   3.701
10272SOL     OW31714   5.658   3.890   4.042
10272SOL    HW131715   5.641   3.973   3.988
10272SOL    HW231716   5.748   3.853   4.020
10273SOL     OW31717   6.199   4.566   5.155
10273SOL    HW131718   6.255   4.647   5.138
10273SOL    HW231719   6.258   4.486   5.158
10274SOL     OW31720   6.302   4.289   5.432
10274SOL    HW131721   6.321   4.354   5.506
10274SOL    HW231722   6.362   4.209   5.441
10275SOL     OW31723   7.036   4.944   5.357
10275SOL    HW131724   7.027   4.934   5.456
10275SOL    HW231725   7.132   4.937   5.331
10276SOL     OW31726   5.976   5.465   5.284
10276SOL    HW131727   5.885   5.506   5.282
10276SOL    HW231728   5.969   5.371   5.316
10277SOL     OW31729   6.811   4.049   4.173
10277SOL    HW131730   6.876   3.975   4.162
10277SOL    HW231731   6.831   4.099   4.257
10278SOL     OW31732   6.180   4.469   4.376
10278SOL    HW131733   6.230   4.554   4.357
10278SOL    HW231734   6.092   4.471   4.328
10279SOL     OW31735   6.445   5.098   3.740
10279SOL    HW131736   6.399   5.113   3.828
10279SOL    HW231737   6.489   5.183   3.710
10280SOL     OW31738   6.247   5.514   4.677
10280SOL    HW131739   6.201   5.602   4.664
10280SOL    HW231740   6.346   5.526   4.670
10281SOL     OW31741   6.445   4.680   4.585
10281SOL    HW131742   6.499   4.611   4.633
10281SOL    HW231743   6.413   4.749   4.651
10282SOL     OW31744   6.669   4.708   3.811
10282SOL    HW131745   6.646   4.761   3.729
10282SOL    HW231746   6.750   4.652   3.792
10283SOL     OW31747   5.807   5.038   5.568
10283SOL    HW131748   5.742   4.965   5.547
10283SOL    HW231749   5.811   5.052   5.666
10284SOL     OW31750   5.665   4.964   4.377
10284SOL    HW131751   5.664   4.917   4.465
10284SOL    HW231752   5.747   4.936   4.326
10285SOL     OW31753   6.258   5.115   5.348
10285SOL    HW131754   6.180   5.065   5.386
10285SOL    HW231755   6.255   5.210   5.379
10286SOL     OW31756   6.014   4.148   4.244
10286SOL    HW131757   6.044   4.076   4.182
10286SOL    HW231758   5.975   4.108   4.327
10287SOL     OW31759   5.903   4.271   5.004
10287SOL    HW131760   5.941   4.212   5.076
10287SOL    HW231761   5.943   4.245   4.916
10288SOL     OW31762   6.398   5.310   4.411
10288SOL    HW131763   6.430   5.320   4.317
10288SOL    HW231764   6.319   5.248   4.413
10289SOL     OW31765   7.010   3.938   4.836
10289SOL    HW131766   7.062   3.873   4.891
10289SOL    HW231767   6.961   4.001   4.897
10290SOL     OW31768   6.587   3.758   4.878
10290SOL    HW131769   6.524   3.686   4.847
10290SOL    HW231770   6.680   3.722   4.878
10291SOL     OW31771   6.356   5.054   4.025
10291SOL    HW131772   6.310   4.967   4.042
10291SOL    HW231773   6.447   5.051   4.066
10292SOL     OW31774   6.204   5.291   5.008
10292SOL    HW131775   6.199   5.373   5.065
10292SOL    HW231776   6.293   5.288   4.963
10293SOL     OW31777   6.938   3.776   3.892
10293SOL    HW131778   6.973   3.735   3.808
10293SOL    HW231779   6.848   3.738   3.912
10294SOL     OW31780   5.625   4.801   4.024
10294SOL    HW131781   5.724   4.790   4.015
10294SOL    HW231782   5.585   4.715   4.056
10295SOL     OW31783   6.461   5.370   4.061
10295SOL    HW131784   6.384   5.335   4.007
10295SOL    HW231785   6.429   5.441   4.123
10296SOL     OW31786   5.816   4.352   5.699
10296SOL    HW131787   5.723   4.350   5.736
10296SOL    HW231788   5.817   4.313   5.607
10297SOL     OW31789   5.811   3.999   6.582
10297SOL    HW131790   5.846   3.982   6.674
10297SOL    HW231791   5.723   3.954   6.570
10298SOL     OW31792   5.605   4.092   6.233
10298SOL    HW131793   5.523   4.135   6.272
10298SOL    HW231794   5.577   4.019   6.170
10299SOL     OW31795   6.155   4.999   6.751
10299SOL    HW131796   6.062   4.992   6.714
10299SOL    HW231797   6.166   5.088   6.795
10300SOL     OW31798   7.141   5.235   6.289
10300SOL    HW131799   7.084   5.219   6.370
10300SOL    HW231800   7.082   5.245   6.209
10301SOL     OW31801   6.721   4.427   6.303
10301SOL    HW131802   6.778   4.505   6.278
10301SOL    HW231803   6.661   4.453   6.379
10302SOL     OW31804   6.354   4.868   6.609
10302SOL    HW131805   6.276   4.885   6.669
10302SOL    HW231806   6.388   4.955   6.573
10303SOL     OW31807   6.271   4.736   6.251
10303SOL    HW131808   6.340   4.720   6.321
10303SOL    HW231809   6.198   4.793   6.289
10304SOL     OW31810   5.921   5.159   6.647
10304SOL    HW131811   5.843   5.128   6.594
10304SOL    HW231812   5.979   5.217   6.590
10305SOL     OW31813   5.817   5.437   6.069
10305SOL    HW131814   5.851   5.514   6.123
10305SOL    HW231815   5.861   5.437   5.979
10306SOL     OW31816   5.816   5.158   6.124
10306SOL    HW131817   5.790   5.254   6.124
10306SOL    HW231818   5.745   5.104   6.169
10307SOL     OW31819   5.826   4.815   6.472
10307SOL    HW131820   5.840   4.731   6.524
10307SOL    HW231821   5.771   4.879   6.527
10308SOL     OW31822   6.206   5.510   7.025
10308SOL    HW131823   6.114   5.493   7.060
10308SOL    HW231824   6.234   5.602   7.051
10309SOL     OW31825   6.192   4.688   5.709
10309SOL    HW131826   6.199   4.772   5.655
10309SOL    HW231827   6.238   4.701   5.797
10310SOL     OW31828   7.180   3.838   7.066
10310SOL    HW131829   7.162   3.905   6.994
10310SOL    HW231830   7.177   3.884   7.155
10311SOL     OW31831   5.708   4.367   6.149
10311SOL    HW131832   5.663   4.279   6.166
10311SOL    HW231833   5.707   4.421   6.233
10312SOL     OW31834   5.613   5.320   5.703
10312SOL    HW131835   5.594   5.224   5.724
10312SOL    HW231836   5.580   5.378   5.778
10313SOL     OW31837   6.199   5.089   6.312
10313SOL    HW131838   6.150   5.002   6.321
10313SOL    HW231839   6.176   5.132   6.225
10314SOL     OW31840   6.879   4.952   7.009
10314SOL    HW131841   6.916   4.879   6.951
10314SOL    HW231842   6.931   4.957   7.094
10315SOL     OW31843   6.395   3.728   6.088
10315SOL    HW131844   6.435   3.819   6.079
10315SOL    HW231845   6.295   3.736   6.094
10316SOL     OW31846   5.783   4.700   6.850
10316SOL    HW131847   5.872   4.655   6.836
10316SOL    HW231848   5.710   4.635   6.831
10317SOL     OW31849   6.184   4.453   5.856
10317SOL    HW131850   6.208   4.522   5.788
10317SOL    HW231851   6.106   4.486   5.910
10318SOL     OW31852   6.867   4.069   6.530
10318SOL    HW131853   6.781   4.019   6.517
10318SOL    HW231854   6.929   4.015   6.586
10319SOL     OW31855   6.393   4.329   7.051
10319SOL    HW131856   6.346   4.326   7.140
10319SOL    HW231857   6.342   4.274   6.985
10320SOL     OW31858   6.577   4.134   6.828
10320SOL    HW131859   6.500   4.168   6.882
10320SOL    HW231860   6.543   4.083   6.749
10321SOL     OW31861   6.627   4.425   6.015
10321SOL    HW131862   6.653   4.421   6.111
10321SOL    HW231863   6.542   4.374   6.001
10322SOL     OW31864   5.662   4.535   6.375
10322SOL    HW131865   5.761   4.523   6.384
10322SOL    HW231866   5.638   4.630   6.396
10323SOL     OW31867   5.716   5.545   7.157
10323SOL    HW131868   5.706   5.530   7.256
10323SOL    HW231869   5.630   5.581   7.121
10324SOL     OW31870   6.451   4.072   5.781
10324SOL    HW131871   6.510   4.135   5.732
10324SOL    HW231872   6.470   3.978   5.752
10325SOL     OW31873   6.948   4.868   6.131
10325SOL    HW131874   7.031   4.839   6.083
10325SOL    HW231875   6.899   4.935   6.075
10326SOL     OW31876   6.136   3.920   6.471
10326SOL    HW131877   6.131   3.915   6.571
10326SOL    HW231878   6.138   4.016   6.442
10327SOL     OW31879   6.594   5.180   6.063
10327SOL    HW131880   6.548   5.252   6.011
10327SOL    HW231881   6.590   5.200   6.161
10328SOL     OW31882   5.937   5.525   6.439
10328SOL    HW131883   5.987   5.439   6.445
10328SOL    HW231884   6.002   5.602   6.436
10329SOL     OW31885   5.907   4.667   5.828
10329SOL    HW131886   5.989   4.706   5.786
10329SOL    HW231887   5.880   4.585   5.779
10330SOL     OW31888   6.697   5.500   5.823
10330SOL    HW131889   6.637   5.438   5.873
10330SOL    HW231890   6.728   5.456   5.738
10331SOL     OW31891   6.050   5.467   5.909
10331SOL    HW131892   6.083   5.506   5.995
10331SOL    HW231893   6.126   5.460   5.844
10332SOL     OW31894   5.835   5.509   6.827
10332SOL    HW131895   5.892   5.444   6.877
10332SOL    HW231896   5.819   5.476   6.734
10333SOL     OW31897   6.526   5.422   6.490
10333SOL    HW131898   6.606   5.365   6.511
10333SOL    HW231899   6.477   5.382   6.413
10334SOL     OW31900   5.968   4.424   6.066
10334SOL    HW131901   6.013   4.334   6.063
10334SOL    HW231902   5.874   4.413   6.099
10335SOL     OW31903   6.200   3.846   5.703
10335SOL    HW131904   6.298   3.824   5.710
10335SOL    HW231905   6.169   3.829   5.610
10336SOL     OW31906   6.474   5.238   6.781
10336SOL    HW131907   6.451   5.213   6.687
10336SOL    HW231908   6.535   5.169   6.820
10337SOL     OW31909   6.389   5.126   6.510
10337SOL    HW131910   6.479   5.140   6.468
10337SOL    HW231911   6.318   5.128   6.439
10338SOL     OW31912   6.508   4.227   6.485
10338SOL    HW131913   6.483   4.218   6.389
10338SOL    HW231914   6.556   4.145   6.516
10339SOL     OW31915   6.125   3.788   6.098
10339SOL    HW131916   6.044   3.789   6.156
10339SOL    HW231917   6.128   3.871   6.043
10340SOL     OW31918   7.020   4.912   5.627
10340SOL    HW131919   7.052   4.836   5.684
10340SOL    HW231920   6.928   4.939   5.657
10341SOL     OW31921   5.883   3.759   5.757
10341SOL    HW131922   5.932   3.843   5.736
10341SOL    HW231923   5.945   3.694   5.802
10342SOL     OW31924   6.521   3.960   6.066
10342SOL    HW131925   6.473   4.001   5.988
10342SOL    HW231926   6.620   3.958   6.047
10343SOL     OW31927   6.813   5.294   6.379
10343SOL    HW131928   6.834   5.368   6.314
10343SOL    HW231929   6.881   5.294   6.452
10344SOL     OW31930   6.045   4.876   6.327
10344SOL    HW131931   5.974   4.849   6.392
10344SOL    HW231932   6.019   4.848   6.234
10345SOL     OW31933   6.857   5.521   6.177
10345SOL    HW131934   6.901   5.585   6.113
10345SOL    HW231935   6.807   5.573   6.247
10346SOL     OW31936   6.618   4.273   5.602
10346SOL    HW131937   6.577   4.355   5.563
10346SOL    HW231938   6.682   4.299   5.675
10347SOL     OW31939   6.147   3.946   6.733
10347SOL    HW131940   6.185   3.862   6.770
10347SOL    HW231941   6.059   3.965   6.777
10348SOL     OW31942   6.452   4.178   6.228
10348SOL    HW131943   6.420   4.250   6.166
10348SOL    HW231944   6.476   4.097   6.175
10349SOL     OW31945   6.603   3.763   6.339
10349SOL    HW131946   6.531   3.768   6.270
10349SOL    HW231947   6.579   3.694   6.408
10350SOL     OW31948   6.074   5.109   5.760
10350SOL    HW131949   5.987   5.094   5.807
10350SOL    HW231950   6.057   5.135   5.665
10351SOL     OW31951   6.113   3.980   5.914
10351SOL    HW131952   6.140   3.921   5.839
10351SOL    HW231953   6.113   4.075   5.883
10352SOL     OW31954   7.178   5.353   7.211
10352SOL    HW131955   7.205   5.387   7.121
10352SOL    HW231956   7.257   5.315   7.257
10353SOL     OW31957   6.697   4.919   6.686
10353SOL    HW131958   6.657   4.963   6.767
10353SOL    HW231959   6.656   4.956   6.603
10354SOL     OW31960   6.291   4.774   5.954
10354SOL    HW131961   6.277   4.781   6.053
10354SOL    HW231962   6.375   4.723   5.936
10355SOL     OW31963   5.996   4.537   6.837
10355SOL    HW131964   6.082   4.549   6.887
10355SOL    HW231965   5.954   4.450   6.864
10356SOL     OW31966   6.860   4.110   6.848
10356SOL    HW131967   6.881   4.184   6.912
10356SOL    HW231968   6.771   4.127   6.805
10357SOL     OW31969   5.650   5.288   6.917
10357SOL    HW131970   5.604   5.370   6.883
10357SOL    HW231971   5.748   5.307   6.926
10358SOL     OW31972   5.953   4.824   6.087
10358SOL    HW131973   5.946   4.907   6.031
10358SOL    HW231974   5.957   4.744   6.027
10359SOL     OW31975   6.152   4.261   6.451
10359SOL    HW131976   6.164   4.327   6.377
10359SOL    HW231977   6.198   4.295   6.534
10360SOL     OW31978   6.838   5.072   5.974
10360SOL    HW131979   6.888   5.149   6.014
10360SOL    HW231980   6.743   5.074   6.006
10361SOL     OW31981   6.858   5.169   6.728
10361SOL    HW131982   6.905   5.182   6.815
10361SOL    HW231983   6.792   5.095   6.737
10362SOL     OW31984   5.940   5.234   6.915
10362SOL    HW131985   5.919   5.190   6.828
10362SOL    HW231986   6.037   5.260   6.918
10363SOL     OW31987   6.159   4.594   6.615
10363SOL    HW131988   6.203   4.683   6.606
10363SOL    HW231989   6.096   4.594   6.692
10364SOL     OW31990   6.946   4.586   6.631
10364SOL    HW131991   6.871   4.586   6.565
10364SOL    HW231992   6.983   4.494   6.640
10365SOL     OW31993   6.795   4.249   5.861
10365SOL    HW131994   6.808   4.165   5.915
10365SOL    HW231995   6.766   4.323   5.921
10366SOL     OW31996   5.893   3.937   6.817
10366SOL    HW131997   5.870   3.974   6.907
10366SOL    HW231998   5.863   3.842   6.811
10367SOL     OW31999   5.623   5.034   6.868
10367SOL    HW132000   5.676   4.985   6.936
10367SOL    HW232001   5.645   5.132   6.873
10368SOL     OW32002   6.318   4.358   6.650
10368SOL    HW132003   6.377   4.332   6.574
10368SOL    HW232004   6.290   4.454   6.639
10369SOL     OW32005   5.893   3.787   6.204
10369SOL    HW132006   5.882   3.881   6.237
10369SOL    HW232007   5.888   3.724   6.281
10370SOL     OW32008   7.208   4.091   5.960
10370SOL    HW132009   7.210   4.015   6.024
10370SOL    HW232010   7.160   4.168   6.000
10371SOL     OW32011   6.609   4.490   6.552
10371SOL    HW132012   6.624   4.511   6.648
10371SOL    HW232013   6.579   4.395   6.543
10372SOL     OW32014   6.889   4.562   5.628
10372SOL    HW132015   6.923   4.469   5.643
10372SOL    HW232016   6.907   4.589   5.533
10373SOL     OW32017   6.654   5.057   6.435
10373SOL    HW132018   6.661   4.973   6.380
10373SOL    HW232019   6.716   5.126   6.399
10374SOL     OW32020   5.905   4.534   6.535
10374SOL    HW132021   5.998   4.570   6.540
10374SOL    HW232022   5.899   4.449   6.587
10375SOL     OW32023   5.925   4.233   6.592
10375SOL    HW132024   5.873   4.150   6.575
10375SOL    HW232025   6.002   4.238   6.528
10376SOL     OW32026   6.746   3.931   7.063
10376SOL    HW132027   6.746   3.995   7.140
10376SOL    HW232028   6.774   3.979   6.980
10377SOL     OW32029   5.594   5.050   5.786
10377SOL    HW132030   5.501   5.071   5.755
10377SOL    HW232031   5.604   4.951   5.799
10378SOL     OW32032   5.674   5.525   6.513
10378SOL    HW132033   5.632   5.439   6.486
10378SOL    HW232034   5.768   5.528   6.479
10379SOL     OW32035   6.090   5.292   6.496
10379SOL    HW132036   6.156   5.366   6.505
10379SOL    HW232037   6.134   5.213   6.454
10380SOL     OW32038   6.588   4.520   6.824
10380SOL    HW132039   6.629   4.488   6.910
10380SOL    HW232040   6.492   4.493   6.821
10381SOL     OW32041   5.626   4.268   6.700
10381SOL    HW132042   5.711   4.235   6.659
10381SOL    HW232043   5.639   4.283   6.798
10382SOL     OW32044   6.401   4.296   5.911
10382SOL    HW132045   6.408   4.207   5.865
10382SOL    HW232046   6.307   4.330   5.903
10383SOL     OW32047   6.257   4.188   6.855
10383SOL    HW132048   6.223   4.099   6.825
10383SOL    HW232049   6.283   4.242   6.775
10384SOL     OW32050   6.516   5.402   7.051
10384SOL    HW132051   6.492   5.384   6.956
10384SOL    HW232052   6.546   5.496   7.061
10385SOL     OW32053   6.059   4.224   5.777
10385SOL    HW132054   6.120   4.304   5.781
10385SOL    HW232055   5.964   4.255   5.784
10386SOL     OW32056   5.745   4.861   7.052
10386SOL    HW132057   5.767   4.800   7.128
10386SOL    HW232058   5.755   4.812   6.966
10387SOL     OW32059   6.933   4.783   6.820
10387SOL    HW132060   6.957   4.720   6.746
10387SOL    HW232061   6.843   4.823   6.802
10388SOL     OW32062   6.888   4.579   5.895
10388SOL    HW132063   6.802   4.548   5.937
10388SOL    HW232064   6.884   4.565   5.796
10389SOL     OW32065   6.838   5.455   6.714
10389SOL    HW132066   6.922   5.460   6.660
10389SOL    HW232067   6.815   5.359   6.732
10390SOL     OW32068   5.669   4.982   6.608
10390SOL    HW132069   5.664   4.981   6.708
10390SOL    HW232070   5.586   4.941   6.570
10391SOL     OW32071   6.974   5.297   6.063
10391SOL    HW132072   7.041   5.309   5.989
10391SOL    HW232073   6.934   5.386   6.086
10392SOL     OW32074   6.866   4.651   6.258
10392SOL    HW132075   6.926   4.570   6.260
10392SOL    HW232076   6.906   4.720   6.198
10393SOL     OW32077   6.258   5.340   5.740
10393SOL    HW132078   6.267   5.350   5.641
10393SOL    HW232079   6.218   5.251   5.761
10394SOL     OW32080   5.849   4.050   6.306
10394SOL    HW132081   5.770   4.101   6.272
10394SOL    HW232082   5.840   4.035   6.404
10395SOL     OW32083   6.780   5.336   5.617
10395SOL    HW132084   6.786   5.243   5.654
10395SOL    HW232085   6.721   5.336   5.537
10396SOL     OW32086   6.408   4.726   6.958
10396SOL    HW132087   6.448   4.725   6.866
10396SOL    HW232088   6.418   4.818   6.998
10397SOL     OW32089   6.502   4.634   5.877
10397SOL    HW132090   6.565   4.672   5.809
10397SOL    HW232091   6.542   4.551   5.916
10398SOL     OW32092   6.625   4.822   6.282
10398SOL    HW132093   6.555   4.775   6.336
10398SOL    HW232094   6.684   4.754   6.239
10399SOL     OW32095   6.600   3.960   6.557
10399SOL    HW132096   6.592   3.924   6.464
10399SOL    HW232097   6.598   3.884   6.622
10400SOL     OW32098   6.176   5.211   6.077
10400SOL    HW132099   6.218   5.153   6.007
10400SOL    HW232100   6.132   5.290   6.033
10401SOL     OW32101   5.841   5.072   5.876
10401SOL    HW132102   5.745   5.073   5.849
10401SOL    HW232103   5.853   5.125   5.960
10402SOL     OW32104   6.258   3.927   7.075
10402SOL    HW132105   6.348   3.911   7.035
10402SOL    HW232106   6.266   3.932   7.174
10403SOL     OW32107   5.661   4.069   5.619
10403SOL    HW132108   5.569   4.041   5.590
10403SOL    HW232109   5.692   4.146   5.563
10404SOL     OW32110   5.658   3.890   5.904
10404SOL    HW132111   5.641   3.973   5.850
10404SOL    HW232112   5.748   3.853   5.882
10405SOL     OW32113   5.976   5.465   7.146
10405SOL    HW132114   5.885   5.506   7.144
10405SOL    HW232115   5.969   5.371   7.178
10406SOL     OW32116   6.811   4.049   6.035
10406SOL    HW132117   6.876   3.975   6.024
10406SOL    HW232118   6.831   4.099   6.119
10407SOL     OW32119   6.180   4.469   6.238
10407SOL    HW132120   6.230   4.554   6.219
10407SOL    HW232121   6.092   4.471   6.190
10408SOL     OW32122   6.445   5.098   5.602
10408SOL    HW132123   6.399   5.113   5.690
10408SOL    HW232124   6.489   5.183   5.572
10409SOL     OW32125   6.247   5.514   6.539
10409SOL    HW132126   6.201   5.602   6.526
10409SOL    HW232127   6.346   5.526   6.532
10410SOL     OW32128   6.445   4.680   6.447
10410SOL    HW132129   6.499   4.611   6.495
10410SOL    HW232130   6.413   4.749   6.513
10411SOL     OW32131   6.669   4.708   5.673
10411SOL    HW132132   6.646   4.761   5.591
10411SOL    HW232133   6.750   4.652   5.654
10412SOL     OW32134   5.665   4.964   6.239
10412SOL    HW132135   5.664   4.917   6.327
10412SOL    HW232136   5.747   4.936   6.188
10413SOL     OW32137   6.014   4.148   6.106
10413SOL    HW132138   6.044   4.076   6.044
10413SOL    HW232139   5.975   4.108   6.189
10414SOL     OW32140   5.903   4.271   6.866
10414SOL    HW132141   5.941   4.212   6.938
10414SOL    HW232142   5.943   4.245   6.778
10415SOL     OW32143   6.398   5.310   6.273
10415SOL    HW132144   6.430   5.320   6.179
10415SOL    HW232145   6.319   5.248   6.275
10416SOL     OW32146   7.010   3.938   6.698
10416SOL    HW132147   7.062   3.873   6.753
10416SOL    HW232148   6.961   4.001   6.759
10417SOL     OW32149   6.587   3.758   6.740
10417SOL    HW132150   6.524   3.686   6.709
10417SOL    HW232151   6.680   3.722   6.740
10418SOL     OW32152   6.356   5.054   5.887
10418SOL    HW132153   6.310   4.967   5.904
10418SOL    HW232154   6.447   5.051   5.928
10419SOL     OW32155   6.204   5.291   6.870
10419SOL    HW132156   6.199   5.373   6.927
10419SOL    HW232157   6.293   5.288   6.825
10420SOL     OW32158   6.938   3.776   5.754
10420SOL    HW132159   6.973   3.735   5.670
10420SOL    HW232160   6.848   3.738   5.774
10421SOL     OW32161   5.625   4.801   5.886
10421SOL    HW132162   5.724   4.790   5.877
10421SOL    HW232163   5.585   4.715   5.918
10422SOL     OW32164   6.461   5.370   5.923
10422SOL    HW132165   6.384   5.335   5.869
10422SOL    HW232166   6.429   5.441   5.985
10423SOL     OW32167   5.816   6.214   0.113
10423SOL    HW132168   5.723   6.212   0.150
10423SOL    HW232169   5.817   6.175   0.021
10424SOL     OW32170   5.811   5.861   0.996
10424SOL    HW132171   5.846   5.844   1.088
10424SOL    HW232172   5.723   5.816   0.984
10425SOL     OW32173   5.605   5.954   0.647
10425SOL    HW132174   5.523   5.997   0.686
10425SOL    HW232175   5.577   5.881   0.584
10426SOL     OW32176   6.155   6.861   1.165
10426SOL    HW132177   6.062   6.854   1.128
10426SOL    HW232178   6.166   6.950   1.209
10427SOL     OW32179   7.141   7.097   0.703
10427SOL    HW132180   7.084   7.081   0.784
10427SOL    HW232181   7.082   7.107   0.623
10428SOL     OW32182   6.721   6.289   0.717
10428SOL    HW132183   6.778   6.367   0.692
10428SOL    HW232184   6.661   6.315   0.793
10429SOL     OW32185   6.354   6.730   1.023
10429SOL    HW132186   6.276   6.747   1.083
10429SOL    HW232187   6.388   6.817   0.987
10430SOL     OW32188   6.436   6.384   1.823
10430SOL    HW132189   6.432   6.460   1.888
10430SOL    HW232190   6.458   6.420   1.732
10431SOL     OW32191   6.271   6.598   0.665
10431SOL    HW132192   6.340   6.582   0.735
10431SOL    HW232193   6.198   6.655   0.703
10432SOL     OW32194   6.272   6.747   1.803
10432SOL    HW132195   6.332   6.826   1.817
10432SOL    HW232196   6.186   6.778   1.762
10433SOL     OW32197   5.921   7.021   1.061
10433SOL    HW132198   5.843   6.990   1.008
10433SOL    HW232199   5.979   7.079   1.004
10434SOL     OW32200   6.024   5.978   1.499
10434SOL    HW132201   6.106   5.922   1.508
10434SOL    HW232202   5.943   5.920   1.503
10435SOL     OW32203   5.826   6.677   0.886
10435SOL    HW132204   5.840   6.593   0.938
10435SOL    HW232205   5.771   6.741   0.941
10436SOL     OW32206   6.192   6.550   0.123
10436SOL    HW132207   6.199   6.634   0.069
10436SOL    HW232208   6.238   6.563   0.211
10437SOL     OW32209   5.708   6.229   0.563
10437SOL    HW132210   5.663   6.141   0.580
10437SOL    HW232211   5.707   6.283   0.647
10438SOL     OW32212   5.699   6.323   1.597
10438SOL    HW132213   5.787   6.310   1.642
10438SOL    HW232214   5.686   6.420   1.575
10439SOL     OW32215   6.879   6.814   1.423
10439SOL    HW132216   6.916   6.741   1.365
10439SOL    HW232217   6.931   6.819   1.508
10440SOL     OW32218   6.395   5.590   0.502
10440SOL    HW132219   6.435   5.681   0.493
10440SOL    HW232220   6.295   5.598   0.508
10441SOL     OW32221   5.783   6.562   1.264
10441SOL    HW132222   5.872   6.517   1.250
10441SOL    HW232223   5.710   6.497   1.245
10442SOL     OW32224   5.903   5.837   1.801
10442SOL    HW132225   5.974   5.908   1.807
10442SOL    HW232226   5.815   5.876   1.829
10443SOL     OW32227   6.184   6.315   0.270
10443SOL    HW132228   6.208   6.384   0.202
10443SOL    HW232229   6.106   6.348   0.324
10444SOL     OW32230   6.867   5.931   0.944
10444SOL    HW132231   6.781   5.881   0.931
10444SOL    HW232232   6.929   5.877   1.000
10445SOL     OW32233   6.393   6.191   1.465
10445SOL    HW132234   6.346   6.188   1.554
10445SOL    HW232235   6.342   6.136   1.399
10446SOL     OW32236   6.980   6.055   1.674
10446SOL    HW132237   6.960   6.098   1.762
10446SOL    HW232238   7.058   5.993   1.683
10447SOL     OW32239   6.559   6.476   1.572
10447SOL    HW132240   6.605   6.392   1.543
10447SOL    HW232241   6.503   6.510   1.497
10448SOL     OW32242   6.577   5.996   1.242
10448SOL    HW132243   6.500   6.030   1.296
10448SOL    HW232244   6.543   5.945   1.163
10449SOL     OW32245   6.627   6.287   0.429
10449SOL    HW132246   6.653   6.283   0.525
10449SOL    HW232247   6.542   6.236   0.415
10450SOL     OW32248   5.662   6.397   0.789
10450SOL    HW132249   5.761   6.385   0.798
10450SOL    HW232250   5.638   6.492   0.810
10451SOL     OW32251   6.451   5.934   0.195
10451SOL    HW132252   6.510   5.997   0.146
10451SOL    HW232253   6.470   5.840   0.166
10452SOL     OW32254   6.948   6.730   0.545
10452SOL    HW132255   7.031   6.701   0.497
10452SOL    HW232256   6.899   6.797   0.489
10453SOL     OW32257   6.136   5.782   0.885
10453SOL    HW132258   6.131   5.777   0.985
10453SOL    HW232259   6.138   5.878   0.856
10454SOL     OW32260   5.907   6.529   0.242
10454SOL    HW132261   5.989   6.568   0.200
10454SOL    HW232262   5.880   6.447   0.193
10455SOL     OW32263   5.788   5.871   1.498
10455SOL    HW132264   5.708   5.931   1.485
10455SOL    HW232265   5.778   5.822   1.584
10456SOL     OW32266   5.968   6.286   0.480
10456SOL    HW132267   6.013   6.196   0.477
10456SOL    HW232268   5.874   6.275   0.513
10457SOL     OW32269   6.367   5.850   1.749
10457SOL    HW132270   6.434   5.789   1.792
10457SOL    HW232271   6.294   5.869   1.814
10458SOL     OW32272   6.508   6.089   0.899
10458SOL    HW132273   6.483   6.080   0.803
10458SOL    HW232274   6.556   6.007   0.930
10459SOL     OW32275   6.125   5.650   0.512
10459SOL    HW132276   6.044   5.651   0.570
10459SOL    HW232277   6.128   5.733   0.457
10460SOL     OW32278   6.521   5.822   0.480
10460SOL    HW132279   6.473   5.863   0.402
10460SOL    HW232280   6.620   5.820   0.461
10461SOL     OW32281   6.662   6.269   1.464
10461SOL    HW132282   6.582   6.208   1.467
10461SOL    HW232283   6.743   6.216   1.440
10462SOL     OW32284   6.813   7.156   0.793
10462SOL    HW132285   6.834   7.230   0.728
10462SOL    HW232286   6.881   7.156   0.866
10463SOL     OW32287   6.045   6.738   0.741
10463SOL    HW132288   5.974   6.711   0.806
10463SOL    HW232289   6.019   6.710   0.648
10464SOL     OW32290   6.618   6.135   0.016
10464SOL    HW132291   6.577   6.217  -0.023
10464SOL    HW232292   6.682   6.161   0.089
10465SOL     OW32293   5.664   6.142   1.386
10465SOL    HW132294   5.756   6.141   1.345
10465SOL    HW232295   5.658   6.216   1.453
10466SOL     OW32296   6.147   5.808   1.147
10466SOL    HW132297   6.185   5.724   1.184
10466SOL    HW232298   6.059   5.827   1.191
10467SOL     OW32299   6.452   6.040   0.642
10467SOL    HW132300   6.420   6.112   0.580
10467SOL    HW232301   6.476   5.959   0.589
10468SOL     OW32302   6.603   5.625   0.753
10468SOL    HW132303   6.531   5.630   0.684
10468SOL    HW232304   6.579   5.556   0.822
10469SOL     OW32305   6.113   5.842   0.328
10469SOL    HW132306   6.140   5.783   0.253
10469SOL    HW232307   6.113   5.937   0.297
10470SOL     OW32308   6.650   6.933   1.340
10470SOL    HW132309   6.570   6.910   1.395
10470SOL    HW232310   6.733   6.907   1.389
10471SOL     OW32311   6.697   6.781   1.100
10471SOL    HW132312   6.657   6.825   1.181
10471SOL    HW232313   6.656   6.818   1.017
10472SOL     OW32314   6.501   5.675   1.402
10472SOL    HW132315   6.526   5.655   1.307
10472SOL    HW232316   6.573   5.731   1.444
10473SOL     OW32317   6.566   6.702   1.719
10473SOL    HW132318   6.467   6.708   1.729
10473SOL    HW232319   6.589   6.622   1.663
10474SOL     OW32320   6.291   6.636   0.368
10474SOL    HW132321   6.277   6.643   0.467
10474SOL    HW232322   6.375   6.585   0.350
10475SOL     OW32323   5.996   6.399   1.251
10475SOL    HW132324   6.082   6.411   1.301
10475SOL    HW232325   5.954   6.312   1.278
10476SOL     OW32326   6.860   5.972   1.262
10476SOL    HW132327   6.881   6.046   1.326
10476SOL    HW232328   6.771   5.989   1.219
10477SOL     OW32329   5.953   6.686   0.501
10477SOL    HW132330   5.946   6.769   0.445
10477SOL    HW232331   5.957   6.606   0.441
10478SOL     OW32332   6.152   6.123   0.865
10478SOL    HW132333   6.164   6.189   0.791
10478SOL    HW232334   6.198   6.157   0.948
10479SOL     OW32335   6.838   6.934   0.388
10479SOL    HW132336   6.888   7.011   0.428
10479SOL    HW232337   6.743   6.936   0.420
10480SOL     OW32338   5.988   6.337   1.598
10480SOL    HW132339   6.056   6.392   1.551
10480SOL    HW232340   6.028   6.249   1.625
10481SOL     OW32341   6.599   5.691   1.770
10481SOL    HW132342   6.605   5.776   1.718
10481SOL    HW232343   6.631   5.615   1.713
10482SOL     OW32344   6.090   5.636   1.740
10482SOL    HW132345   6.048   5.579   1.670
10482SOL    HW232346   6.024   5.705   1.772
10483SOL     OW32347   6.159   6.456   1.029
10483SOL    HW132348   6.203   6.545   1.020
10483SOL    HW232349   6.096   6.456   1.106
10484SOL     OW32350   6.946   6.448   1.045
10484SOL    HW132351   6.871   6.448   0.979
10484SOL    HW232352   6.983   6.356   1.054
10485SOL     OW32353   6.795   6.111   0.275
10485SOL    HW132354   6.808   6.027   0.329
10485SOL    HW232355   6.766   6.185   0.335
10486SOL     OW32356   5.893   5.799   1.231
10486SOL    HW132357   5.870   5.836   1.321
10486SOL    HW232358   5.863   5.704   1.225
10487SOL     OW32359   5.623   6.896   1.282
10487SOL    HW132360   5.676   6.847   1.350
10487SOL    HW232361   5.645   6.994   1.287
10488SOL     OW32362   6.318   6.220   1.064
10488SOL    HW132363   6.377   6.194   0.988
10488SOL    HW232364   6.290   6.316   1.053
10489SOL     OW32365   5.893   5.649   0.618
10489SOL    HW132366   5.882   5.743   0.651
10489SOL    HW232367   5.888   5.586   0.695
10490SOL     OW32368   7.208   5.953   0.374
10490SOL    HW132369   7.210   5.877   0.438
10490SOL    HW232370   7.160   6.030   0.414
10491SOL     OW32371   6.609   6.352   0.966
10491SOL    HW132372   6.624   6.373   1.062
10491SOL    HW232373   6.579   6.257   0.957
10492SOL     OW32374   5.936   6.484   1.804
10492SOL    HW132375   6.012   6.528   1.852
10492SOL    HW232376   5.971   6.437   1.722
10493SOL     OW32377   6.889   6.424   0.042
10493SOL    HW132378   6.923   6.331   0.057
10493SOL    HW232379   6.907   6.451  -0.053
10494SOL     OW32380   5.905   6.396   0.949
10494SOL    HW132381   5.998   6.432   0.954
10494SOL    HW232382   5.899   6.311   1.001
10495SOL     OW32383   5.925   6.095   1.006
10495SOL    HW132384   5.873   6.012   0.989
10495SOL    HW232385   6.002   6.100   0.942
10496SOL     OW32386   6.724   5.966   1.678
10496SOL    HW132387   6.679   6.029   1.742
10496SOL    HW232388   6.817   5.997   1.661
10497SOL     OW32389   6.746   5.793   1.477
10497SOL    HW132390   6.746   5.857   1.554
10497SOL    HW232391   6.774   5.841   1.394
10498SOL     OW32392   6.588   6.382   1.238
10498SOL    HW132393   6.629   6.350   1.324
10498SOL    HW232394   6.492   6.355   1.235
10499SOL     OW32395   5.626   6.130   1.114
10499SOL    HW132396   5.711   6.097   1.073
10499SOL    HW232397   5.639   6.145   1.212
10500SOL     OW32398   5.775   6.106   1.722
10500SOL    HW132399   5.834   6.066   1.652
10500SOL    HW232400   5.717   6.177   1.681
10501SOL     OW32401   6.401   6.158   0.325
10501SOL    HW132402   6.408   6.069   0.279
10501SOL    HW232403   6.307   6.192   0.317
10502SOL     OW32404   6.257   6.050   1.269
10502SOL    HW132405   6.223   5.961   1.239
10502SOL    HW232406   6.283   6.104   1.189
10503SOL     OW32407   6.059   6.086   0.191
10503SOL    HW132408   6.120   6.166   0.195
10503SOL    HW232409   5.964   6.117   0.198
10504SOL     OW32410   5.745   6.723   1.466
10504SOL    HW132411   5.767   6.662   1.542
10504SOL    HW232412   5.755   6.674   1.380
10505SOL     OW32413   6.933   6.645   1.234
10505SOL    HW132414   6.957   6.582   1.160
10505SOL    HW232415   6.843   6.685   1.216
10506SOL     OW32416   6.888   6.441   0.309
10506SOL    HW132417   6.802   6.410   0.351
10506SOL    HW232418   6.884   6.427   0.210
10507SOL     OW32419   5.669   6.844   1.022
10507SOL    HW132420   5.664   6.843   1.122
10507SOL    HW232421   5.586   6.803   0.984
10508SOL     OW32422   6.489   5.672   0.133
10508SOL    HW132423   6.540   5.673   0.047
10508SOL    HW232424   6.545   5.630   0.204
10509SOL     OW32425   6.866   6.513   0.672
10509SOL    HW132426   6.926   6.432   0.674
10509SOL    HW232427   6.906   6.582   0.612
10510SOL     OW32428   6.416   6.859   1.422
10510SOL    HW132429   6.411   6.892   1.517
10510SOL    HW232430   6.330   6.878   1.376
10511SOL     OW32431   5.849   5.912   0.720
10511SOL    HW132432   5.770   5.963   0.686
10511SOL    HW232433   5.840   5.897   0.818
10512SOL     OW32434   6.408   6.588   1.372
10512SOL    HW132435   6.448   6.587   1.280
10512SOL    HW232436   6.418   6.680   1.412
10513SOL     OW32437   6.502   6.496   0.291
10513SOL    HW132438   6.565   6.534   0.223
10513SOL    HW232439   6.542   6.413   0.330
10514SOL     OW32440   5.958   6.874   1.490
10514SOL    HW132441   5.945   6.967   1.456
10514SOL    HW232442   5.874   6.822   1.477
10515SOL     OW32443   6.625   6.684   0.696
10515SOL    HW132444   6.555   6.637   0.750
10515SOL    HW232445   6.684   6.616   0.653
10516SOL     OW32446   6.600   5.822   0.971
10516SOL    HW132447   6.592   5.786   0.878
10516SOL    HW232448   6.598   5.746   1.036
10517SOL     OW32449   5.691   6.599   1.726
10517SOL    HW132450   5.614   6.566   1.780
10517SOL    HW232451   5.776   6.569   1.768
10518SOL     OW32452   6.258   5.789   1.489
10518SOL    HW132453   6.348   5.773   1.449
10518SOL    HW232454   6.266   5.794   1.588
10519SOL     OW32455   5.661   5.931   0.033
10519SOL    HW132456   5.569   5.903   0.004
10519SOL    HW232457   5.692   6.008  -0.023
10520SOL     OW32458   5.658   5.752   0.318
10520SOL    HW132459   5.641   5.835   0.264
10520SOL    HW232460   5.748   5.715   0.296
10521SOL     OW32461   6.199   6.428   1.431
10521SOL    HW132462   6.255   6.509   1.414
10521SOL    HW232463   6.258   6.348   1.434
10522SOL     OW32464   6.302   6.151   1.708
10522SOL    HW132465   6.321   6.216   1.782
10522SOL    HW232466   6.362   6.071   1.717
10523SOL     OW32467   7.036   6.806   1.633
10523SOL    HW132468   7.027   6.796   1.732
10523SOL    HW232469   7.132   6.799   1.607
10524SOL     OW32470   6.811   5.911   0.449
10524SOL    HW132471   6.876   5.837   0.438
10524SOL    HW232472   6.831   5.961   0.533
10525SOL     OW32473   6.180   6.331   0.652
10525SOL    HW132474   6.230   6.416   0.633
10525SOL    HW232475   6.092   6.333   0.604
10526SOL     OW32476   6.445   6.542   0.861
10526SOL    HW132477   6.499   6.473   0.909
10526SOL    HW232478   6.413   6.611   0.927
10527SOL     OW32479   6.669   6.570   0.087
10527SOL    HW132480   6.646   6.623   0.005
10527SOL    HW232481   6.750   6.514   0.068
10528SOL     OW32482   5.807   6.900   1.844
10528SOL    HW132483   5.742   6.827   1.823
10528SOL    HW232484   5.811   6.914   1.942
10529SOL     OW32485   5.665   6.826   0.653
10529SOL    HW132486   5.664   6.779   0.741
10529SOL    HW232487   5.747   6.798   0.602
10530SOL     OW32488   6.258   6.977   1.624
10530SOL    HW132489   6.180   6.927   1.662
10530SOL    HW232490   6.255   7.072   1.655
10531SOL     OW32491   6.014   6.010   0.520
10531SOL    HW132492   6.044   5.938   0.458
10531SOL    HW232493   5.975   5.970   0.603
10532SOL     OW32494   5.903   6.133   1.280
10532SOL    HW132495   5.941   6.074   1.352
10532SOL    HW232496   5.943   6.107   1.192
10533SOL     OW32497   7.010   5.800   1.112
10533SOL    HW132498   7.062   5.735   1.167
10533SOL    HW232499   6.961   5.863   1.173
10534SOL     OW32500   6.587   5.620   1.154
10534SOL    HW132501   6.524   5.548   1.123
10534SOL    HW232502   6.680   5.584   1.154
10535SOL     OW32503   6.356   6.916   0.301
10535SOL    HW132504   6.310   6.829   0.318
10535SOL    HW232505   6.447   6.913   0.342
10536SOL     OW32506   5.625   6.663   0.300
10536SOL    HW132507   5.724   6.652   0.291
10536SOL    HW232508   5.585   6.577   0.332
10537SOL     OW32509   5.816   6.214   1.975
10537SOL    HW132510   5.723   6.212   2.012
10537SOL    HW232511   5.817   6.175   1.883
10538SOL     OW32512   5.811   5.861   2.858
10538SOL    HW132513   5.846   5.844   2.950
10538SOL    HW232514   5.723   5.816   2.846
10539SOL     OW32515   5.605   5.954   2.509
10539SOL    HW132516   5.523   5.997   2.548
10539SOL    HW232517   5.577   5.881   2.446
10540SOL     OW32518   6.155   6.861   3.027
10540SOL    HW132519   6.062   6.854   2.990
10540SOL    HW232520   6.166   6.950   3.071
10541SOL     OW32521   7.141   7.097   2.565
10541SOL    HW132522   7.084   7.081   2.646
10541SOL    HW232523   7.082   7.107   2.485
10542SOL     OW32524   6.721   6.289   2.579
10542SOL    HW132525   6.778   6.367   2.554
10542SOL    HW232526   6.661   6.315   2.655
10543SOL     OW32527   6.354   6.730   2.885
10543SOL    HW132528   6.276   6.747   2.945
10543SOL    HW232529   6.388   6.817   2.849
10544SOL     OW32530   6.436   6.384   3.685
10544SOL    HW132531   6.432   6.460   3.750
10544SOL    HW232532   6.458   6.420   3.594
10545SOL     OW32533   6.271   6.598   2.527
10545SOL    HW132534   6.340   6.582   2.597
10545SOL    HW232535   6.198   6.655   2.565
10546SOL     OW32536   6.272   6.747   3.665
10546SOL    HW132537   6.332   6.826   3.679
10546SOL    HW232538   6.186   6.778   3.624
10547SOL     OW32539   5.921   7.021   2.923
10547SOL    HW132540   5.843   6.990   2.870
10547SOL    HW232541   5.979   7.079   2.866
10548SOL     OW32542   6.024   5.978   3.361
10548SOL    HW132543   6.106   5.922   3.370
10548SOL    HW232544   5.943   5.920   3.365
10549SOL     OW32545   5.826   6.677   2.748
10549SOL    HW132546   5.840   6.593   2.800
10549SOL    HW232547   5.771   6.741   2.803
10550SOL     OW32548   6.192   6.550   1.985
10550SOL    HW132549   6.199   6.634   1.931
10550SOL    HW232550   6.238   6.563   2.073
10551SOL     OW32551   5.708   6.229   2.425
10551SOL    HW132552   5.663   6.141   2.442
10551SOL    HW232553   5.707   6.283   2.509
10552SOL     OW32554   5.699   6.323   3.459
10552SOL    HW132555   5.787   6.310   3.504
10552SOL    HW232556   5.686   6.420   3.437
10553SOL     OW32557   6.879   6.814   3.285
10553SOL    HW132558   6.916   6.741   3.227
10553SOL    HW232559   6.931   6.819   3.370
10554SOL     OW32560   6.395   5.590   2.364
10554SOL    HW132561   6.435   5.681   2.355
10554SOL    HW232562   6.295   5.598   2.370
10555SOL     OW32563   5.783   6.562   3.126
10555SOL    HW132564   5.872   6.517   3.112
10555SOL    HW232565   5.710   6.497   3.107
10556SOL     OW32566   5.903   5.837   3.663
10556SOL    HW132567   5.974   5.908   3.669
10556SOL    HW232568   5.815   5.876   3.691
10557SOL     OW32569   6.184   6.315   2.132
10557SOL    HW132570   6.208   6.384   2.064
10557SOL    HW232571   6.106   6.348   2.186
10558SOL     OW32572   6.867   5.931   2.806
10558SOL    HW132573   6.781   5.881   2.793
10558SOL    HW232574   6.929   5.877   2.862
10559SOL     OW32575   6.393   6.191   3.327
10559SOL    HW132576   6.346   6.188   3.416
10559SOL    HW232577   6.342   6.136   3.261
10560SOL     OW32578   6.980   6.055   3.536
10560SOL    HW132579   6.960   6.098   3.624
10560SOL    HW232580   7.058   5.993   3.545
10561SOL     OW32581   6.559   6.476   3.434
10561SOL    HW132582   6.605   6.392   3.405
10561SOL    HW232583   6.503   6.510   3.359
10562SOL     OW32584   6.577   5.996   3.104
10562SOL    HW132585   6.500   6.030   3.158
10562SOL    HW232586   6.543   5.945   3.025
10563SOL     OW32587   6.627   6.287   2.291
10563SOL    HW132588   6.653   6.283   2.387
10563SOL    HW232589   6.542   6.236   2.277
10564SOL     OW32590   5.662   6.397   2.651
10564SOL    HW132591   5.761   6.385   2.660
10564SOL    HW232592   5.638   6.492   2.672
10565SOL     OW32593   6.451   5.934   2.057
10565SOL    HW132594   6.510   5.997   2.008
10565SOL    HW232595   6.470   5.840   2.028
10566SOL     OW32596   6.948   6.730   2.407
10566SOL    HW132597   7.031   6.701   2.359
10566SOL    HW232598   6.899   6.797   2.351
10567SOL     OW32599   6.136   5.782   2.747
10567SOL    HW132600   6.131   5.777   2.847
10567SOL    HW232601   6.138   5.878   2.718
10568SOL     OW32602   5.907   6.529   2.104
10568SOL    HW132603   5.989   6.568   2.062
10568SOL    HW232604   5.880   6.447   2.055
10569SOL     OW32605   5.788   5.871   3.360
10569SOL    HW132606   5.708   5.931   3.347
10569SOL    HW232607   5.778   5.822   3.446
10570SOL     OW32608   5.968   6.286   2.342
10570SOL    HW132609   6.013   6.196   2.339
10570SOL    HW232610   5.874   6.275   2.375
10571SOL     OW32611   6.200   5.708   1.979
10571SOL    HW132612   6.298   5.686   1.986
10571SOL    HW232613   6.169   5.691   1.886
10572SOL     OW32614   6.367   5.850   3.611
10572SOL    HW132615   6.434   5.789   3.654
10572SOL    HW232616   6.294   5.869   3.676
10573SOL     OW32617   6.508   6.089   2.761
10573SOL    HW132618   6.483   6.080   2.665
10573SOL    HW232619   6.556   6.007   2.792
10574SOL     OW32620   6.125   5.650   2.374
10574SOL    HW132621   6.044   5.651   2.432
10574SOL    HW232622   6.128   5.733   2.319
10575SOL     OW32623   7.020   6.774   1.903
10575SOL    HW132624   7.052   6.698   1.960
10575SOL    HW232625   6.928   6.801   1.933
10576SOL     OW32626   5.883   5.621   2.033
10576SOL    HW132627   5.932   5.705   2.012
10576SOL    HW232628   5.945   5.556   2.078
10577SOL     OW32629   6.521   5.822   2.342
10577SOL    HW132630   6.473   5.863   2.264
10577SOL    HW232631   6.620   5.820   2.323
10578SOL     OW32632   6.662   6.269   3.326
10578SOL    HW132633   6.582   6.208   3.329
10578SOL    HW232634   6.743   6.216   3.302
10579SOL     OW32635   6.813   7.156   2.655
10579SOL    HW132636   6.834   7.230   2.590
10579SOL    HW232637   6.881   7.156   2.728
10580SOL     OW32638   6.045   6.738   2.603
10580SOL    HW132639   5.974   6.711   2.668
10580SOL    HW232640   6.019   6.710   2.510
10581SOL     OW32641   6.618   6.135   1.878
10581SOL    HW132642   6.577   6.217   1.839
10581SOL    HW232643   6.682   6.161   1.951
10582SOL     OW32644   5.664   6.142   3.248
10582SOL    HW132645   5.756   6.141   3.207
10582SOL    HW232646   5.658   6.216   3.315
10583SOL     OW32647   6.147   5.808   3.009
10583SOL    HW132648   6.185   5.724   3.046
10583SOL    HW232649   6.059   5.827   3.053
10584SOL     OW32650   6.452   6.040   2.504
10584SOL    HW132651   6.420   6.112   2.442
10584SOL    HW232652   6.476   5.959   2.451
10585SOL     OW32653   6.603   5.625   2.615
10585SOL    HW132654   6.531   5.630   2.546
10585SOL    HW232655   6.579   5.556   2.684
10586SOL     OW32656   6.113   5.842   2.190
10586SOL    HW132657   6.140   5.783   2.115
10586SOL    HW232658   6.113   5.937   2.159
10587SOL     OW32659   6.650   6.933   3.202
10587SOL    HW132660   6.570   6.910   3.257
10587SOL    HW232661   6.733   6.907   3.251
10588SOL     OW32662   6.697   6.781   2.962
10588SOL    HW132663   6.657   6.825   3.043
10588SOL    HW232664   6.656   6.818   2.879
10589SOL     OW32665   6.501   5.675   3.264
10589SOL    HW132666   6.526   5.655   3.169
10589SOL    HW232667   6.573   5.731   3.306
10590SOL     OW32668   6.566   6.702   3.581
10590SOL    HW132669   6.467   6.708   3.591
10590SOL    HW232670   6.589   6.622   3.525
10591SOL     OW32671   6.291   6.636   2.230
10591SOL    HW132672   6.277   6.643   2.329
10591SOL    HW232673   6.375   6.585   2.212
10592SOL     OW32674   5.996   6.399   3.113
10592SOL    HW132675   6.082   6.411   3.163
10592SOL    HW232676   5.954   6.312   3.140
10593SOL     OW32677   6.860   5.972   3.124
10593SOL    HW132678   6.881   6.046   3.188
10593SOL    HW232679   6.771   5.989   3.081
10594SOL     OW32680   5.953   6.686   2.363
10594SOL    HW132681   5.946   6.769   2.307
10594SOL    HW232682   5.957   6.606   2.303
10595SOL     OW32683   6.152   6.123   2.727
10595SOL    HW132684   6.164   6.189   2.653
10595SOL    HW232685   6.198   6.157   2.810
10596SOL     OW32686   6.838   6.934   2.250
10596SOL    HW132687   6.888   7.011   2.290
10596SOL    HW232688   6.743   6.936   2.282
10597SOL     OW32689   5.988   6.337   3.460
10597SOL    HW132690   6.056   6.392   3.413
10597SOL    HW232691   6.028   6.249   3.487
10598SOL     OW32692   6.599   5.691   3.632
10598SOL    HW132693   6.605   5.776   3.580
10598SOL    HW232694   6.631   5.615   3.575
10599SOL     OW32695   6.090   5.636   3.602
10599SOL    HW132696   6.048   5.579   3.532
10599SOL    HW232697   6.024   5.705   3.634
10600SOL     OW32698   6.159   6.456   2.891
10600SOL    HW132699   6.203   6.545   2.882
10600SOL    HW232700   6.096   6.456   2.968
10601SOL     OW32701   6.946   6.448   2.907
10601SOL    HW132702   6.871   6.448   2.841
10601SOL    HW232703   6.983   6.356   2.916
10602SOL     OW32704   6.795   6.111   2.137
10602SOL    HW132705   6.808   6.027   2.191
10602SOL    HW232706   6.766   6.185   2.197
10603SOL     OW32707   5.893   5.799   3.093
10603SOL    HW132708   5.870   5.836   3.183
10603SOL    HW232709   5.863   5.704   3.087
10604SOL     OW32710   6.318   6.220   2.926
10604SOL    HW132711   6.377   6.194   2.850
10604SOL    HW232712   6.290   6.316   2.915
10605SOL     OW32713   5.893   5.649   2.480
10605SOL    HW132714   5.882   5.743   2.513
10605SOL    HW232715   5.888   5.586   2.557
10606SOL     OW32716   7.208   5.953   2.236
10606SOL    HW132717   7.210   5.877   2.300
10606SOL    HW232718   7.160   6.030   2.276
10607SOL     OW32719   6.609   6.352   2.828
10607SOL    HW132720   6.624   6.373   2.924
10607SOL    HW232721   6.579   6.257   2.819
10608SOL     OW32722   5.936   6.484   3.666
10608SOL    HW132723   6.012   6.528   3.714
10608SOL    HW232724   5.971   6.437   3.584
10609SOL     OW32725   6.889   6.424   1.904
10609SOL    HW132726   6.923   6.331   1.919
10609SOL    HW232727   6.907   6.451   1.809
10610SOL     OW32728   5.905   6.396   2.811
10610SOL    HW132729   5.998   6.432   2.816
10610SOL    HW232730   5.899   6.311   2.863
10611SOL     OW32731   5.925   6.095   2.868
10611SOL    HW132732   5.873   6.012   2.851
10611SOL    HW232733   6.002   6.100   2.804
10612SOL     OW32734   6.724   5.966   3.540
10612SOL    HW132735   6.679   6.029   3.604
10612SOL    HW232736   6.817   5.997   3.523
10613SOL     OW32737   6.746   5.793   3.339
10613SOL    HW132738   6.746   5.857   3.416
10613SOL    HW232739   6.774   5.841   3.256
10614SOL     OW32740   5.594   6.912   2.062
10614SOL    HW132741   5.501   6.933   2.031
10614SOL    HW232742   5.604   6.813   2.075
10615SOL     OW32743   6.588   6.382   3.100
10615SOL    HW132744   6.629   6.350   3.186
10615SOL    HW232745   6.492   6.355   3.097
10616SOL     OW32746   5.626   6.130   2.976
10616SOL    HW132747   5.711   6.097   2.935
10616SOL    HW232748   5.639   6.145   3.074
10617SOL     OW32749   5.775   6.106   3.584
10617SOL    HW132750   5.834   6.066   3.514
10617SOL    HW232751   5.717   6.177   3.543
10618SOL     OW32752   6.401   6.158   2.187
10618SOL    HW132753   6.408   6.069   2.141
10618SOL    HW232754   6.307   6.192   2.179
10619SOL     OW32755   6.257   6.050   3.131
10619SOL    HW132756   6.223   5.961   3.101
10619SOL    HW232757   6.283   6.104   3.051
10620SOL     OW32758   6.059   6.086   2.053
10620SOL    HW132759   6.120   6.166   2.057
10620SOL    HW232760   5.964   6.117   2.060
10621SOL     OW32761   5.745   6.723   3.328
10621SOL    HW132762   5.767   6.662   3.404
10621SOL    HW232763   5.755   6.674   3.242
10622SOL     OW32764   6.933   6.645   3.096
10622SOL    HW132765   6.957   6.582   3.022
10622SOL    HW232766   6.843   6.685   3.078
10623SOL     OW32767   6.888   6.441   2.171
10623SOL    HW132768   6.802   6.410   2.213
10623SOL    HW232769   6.884   6.427   2.072
10624SOL     OW32770   5.669   6.844   2.884
10624SOL    HW132771   5.664   6.843   2.984
10624SOL    HW232772   5.586   6.803   2.846
10625SOL     OW32773   6.866   6.513   2.534
10625SOL    HW132774   6.926   6.432   2.536
10625SOL    HW232775   6.906   6.582   2.474
10626SOL     OW32776   6.416   6.859   3.284
10626SOL    HW132777   6.411   6.892   3.379
10626SOL    HW232778   6.330   6.878   3.238
10627SOL     OW32779   5.849   5.912   2.582
10627SOL    HW132780   5.770   5.963   2.548
10627SOL    HW232781   5.840   5.897   2.680
10628SOL     OW32782   6.780   7.198   1.893
10628SOL    HW132783   6.786   7.105   1.930
10628SOL    HW232784   6.721   7.198   1.813
10629SOL     OW32785   6.408   6.588   3.234
10629SOL    HW132786   6.448   6.587   3.142
10629SOL    HW232787   6.418   6.680   3.274
10630SOL     OW32788   6.502   6.496   2.153
10630SOL    HW132789   6.565   6.534   2.085
10630SOL    HW232790   6.542   6.413   2.192
10631SOL     OW32791   5.958   6.874   3.352
10631SOL    HW132792   5.945   6.967   3.318
10631SOL    HW232793   5.874   6.822   3.339
10632SOL     OW32794   6.625   6.684   2.558
10632SOL    HW132795   6.555   6.637   2.612
10632SOL    HW232796   6.684   6.616   2.515
10633SOL     OW32797   6.600   5.822   2.833
10633SOL    HW132798   6.592   5.786   2.740
10633SOL    HW232799   6.598   5.746   2.898
10634SOL     OW32800   5.691   6.599   3.588
10634SOL    HW132801   5.614   6.566   3.642
10634SOL    HW232802   5.776   6.569   3.630
10635SOL     OW32803   6.258   5.789   3.351
10635SOL    HW132804   6.348   5.773   3.311
10635SOL    HW232805   6.266   5.794   3.450
10636SOL     OW32806   5.661   5.931   1.895
10636SOL    HW132807   5.569   5.903   1.866
10636SOL    HW232808   5.692   6.008   1.839
10637SOL     OW32809   5.658   5.752   2.180
10637SOL    HW132810   5.641   5.835   2.126
10637SOL    HW232811   5.748   5.715   2.158
10638SOL     OW32812   6.199   6.428   3.293
10638SOL    HW132813   6.255   6.509   3.276
10638SOL    HW232814   6.258   6.348   3.296
10639SOL     OW32815   6.302   6.151   3.570
10639SOL    HW132816   6.321   6.216   3.644
10639SOL    HW232817   6.362   6.071   3.579
10640SOL     OW32818   7.036   6.806   3.495
10640SOL    HW132819   7.027   6.796   3.594
10640SOL    HW232820   7.132   6.799   3.469
10641SOL     OW32821   6.811   5.911   2.311
10641SOL    HW132822   6.876   5.837   2.300
10641SOL    HW232823   6.831   5.961   2.395
10642SOL     OW32824   6.180   6.331   2.514
10642SOL    HW132825   6.230   6.416   2.495
10642SOL    HW232826   6.092   6.333   2.466
10643SOL     OW32827   6.445   6.542   2.723
10643SOL    HW132828   6.499   6.473   2.771
10643SOL    HW232829   6.413   6.611   2.789
10644SOL     OW32830   6.669   6.570   1.949
10644SOL    HW132831   6.646   6.623   1.867
10644SOL    HW232832   6.750   6.514   1.930
10645SOL     OW32833   5.807   6.900   3.706
10645SOL    HW132834   5.742   6.827   3.685
10645SOL    HW232835   5.811   6.914   3.804
10646SOL     OW32836   5.665   6.826   2.515
10646SOL    HW132837   5.664   6.779   2.603
10646SOL    HW232838   5.747   6.798   2.464
10647SOL     OW32839   6.258   6.977   3.486
10647SOL    HW132840   6.180   6.927   3.524
10647SOL    HW232841   6.255   7.072   3.517
10648SOL     OW32842   6.014   6.010   2.382
10648SOL    HW132843   6.044   5.938   2.320
10648SOL    HW232844   5.975   5.970   2.465
10649SOL     OW32845   5.903   6.133   3.142
10649SOL    HW132846   5.941   6.074   3.214
10649SOL    HW232847   5.943   6.107   3.054
10650SOL     OW32848   7.010   5.800   2.974
10650SOL    HW132849   7.062   5.735   3.029
10650SOL    HW232850   6.961   5.863   3.035
10651SOL     OW32851   6.587   5.620   3.016
10651SOL    HW132852   6.524   5.548   2.985
10651SOL    HW232853   6.680   5.584   3.016
10652SOL     OW32854   6.356   6.916   2.163
10652SOL    HW132855   6.310   6.829   2.180
10652SOL    HW232856   6.447   6.913   2.204
10653SOL     OW32857   6.938   5.638   2.030
10653SOL    HW132858   6.973   5.597   1.946
10653SOL    HW232859   6.848   5.600   2.050
10654SOL     OW32860   5.625   6.663   2.162
10654SOL    HW132861   5.724   6.652   2.153
10654SOL    HW232862   5.585   6.577   2.194
10655SOL     OW32863   5.816   6.214   3.837
10655SOL    HW132864   5.723   6.212   3.874
10655SOL    HW232865   5.817   6.175   3.745
10656SOL     OW32866   5.811   5.861   4.720
10656SOL    HW132867   5.846   5.844   4.812
10656SOL    HW232868   5.723   5.816   4.708
10657SOL     OW32869   5.605   5.954   4.371
10657SOL    HW132870   5.523   5.997   4.410
10657SOL    HW232871   5.577   5.881   4.308
10658SOL     OW32872   6.155   6.861   4.889
10658SOL    HW132873   6.062   6.854   4.852
10658SOL    HW232874   6.166   6.950   4.933
10659SOL     OW32875   7.141   7.097   4.427
10659SOL    HW132876   7.084   7.081   4.508
10659SOL    HW232877   7.082   7.107   4.347
10660SOL     OW32878   6.721   6.289   4.441
10660SOL    HW132879   6.778   6.367   4.416
10660SOL    HW232880   6.661   6.315   4.517
10661SOL     OW32881   6.354   6.730   4.747
10661SOL    HW132882   6.276   6.747   4.807
10661SOL    HW232883   6.388   6.817   4.711
10662SOL     OW32884   6.436   6.384   5.547
10662SOL    HW132885   6.432   6.460   5.612
10662SOL    HW232886   6.458   6.420   5.456
10663SOL     OW32887   6.271   6.598   4.389
10663SOL    HW132888   6.340   6.582   4.459
10663SOL    HW232889   6.198   6.655   4.427
10664SOL     OW32890   6.272   6.747   5.527
10664SOL    HW132891   6.332   6.826   5.541
10664SOL    HW232892   6.186   6.778   5.486
10665SOL     OW32893   5.921   7.021   4.785
10665SOL    HW132894   5.843   6.990   4.732
10665SOL    HW232895   5.979   7.079   4.728
10666SOL     OW32896   6.024   5.978   5.223
10666SOL    HW132897   6.106   5.922   5.232
10666SOL    HW232898   5.943   5.920   5.227
10667SOL     OW32899   5.826   6.677   4.610
10667SOL    HW132900   5.840   6.593   4.662
10667SOL    HW232901   5.771   6.741   4.665
10668SOL     OW32902   6.192   6.550   3.847
10668SOL    HW132903   6.199   6.634   3.793
10668SOL    HW232904   6.238   6.563   3.935
10669SOL     OW32905   5.708   6.229   4.287
10669SOL    HW132906   5.663   6.141   4.304
10669SOL    HW232907   5.707   6.283   4.371
10670SOL     OW32908   5.699   6.323   5.321
10670SOL    HW132909   5.787   6.310   5.366
10670SOL    HW232910   5.686   6.420   5.299
10671SOL     OW32911   6.879   6.814   5.147
10671SOL    HW132912   6.916   6.741   5.089
10671SOL    HW232913   6.931   6.819   5.232
10672SOL     OW32914   6.395   5.590   4.226
10672SOL    HW132915   6.435   5.681   4.217
10672SOL    HW232916   6.295   5.598   4.232
10673SOL     OW32917   5.783   6.562   4.988
10673SOL    HW132918   5.872   6.517   4.974
10673SOL    HW232919   5.710   6.497   4.969
10674SOL     OW32920   5.903   5.837   5.525
10674SOL    HW132921   5.974   5.908   5.531
10674SOL    HW232922   5.815   5.876   5.553
10675SOL     OW32923   6.184   6.315   3.994
10675SOL    HW132924   6.208   6.384   3.926
10675SOL    HW232925   6.106   6.348   4.048
10676SOL     OW32926   6.867   5.931   4.668
10676SOL    HW132927   6.781   5.881   4.655
10676SOL    HW232928   6.929   5.877   4.724
10677SOL     OW32929   6.393   6.191   5.189
10677SOL    HW132930   6.346   6.188   5.278
10677SOL    HW232931   6.342   6.136   5.123
10678SOL     OW32932   6.980   6.055   5.398
10678SOL    HW132933   6.960   6.098   5.486
10678SOL    HW232934   7.058   5.993   5.407
10679SOL     OW32935   6.559   6.476   5.296
10679SOL    HW132936   6.605   6.392   5.267
10679SOL    HW232937   6.503   6.510   5.221
10680SOL     OW32938   6.577   5.996   4.966
10680SOL    HW132939   6.500   6.030   5.020
10680SOL    HW232940   6.543   5.945   4.887
10681SOL     OW32941   6.627   6.287   4.153
10681SOL    HW132942   6.653   6.283   4.249
10681SOL    HW232943   6.542   6.236   4.139
10682SOL     OW32944   5.662   6.397   4.513
10682SOL    HW132945   5.761   6.385   4.522
10682SOL    HW232946   5.638   6.492   4.534
10683SOL     OW32947   6.451   5.934   3.919
10683SOL    HW132948   6.510   5.997   3.870
10683SOL    HW232949   6.470   5.840   3.890
10684SOL     OW32950   6.948   6.730   4.269
10684SOL    HW132951   7.031   6.701   4.221
10684SOL    HW232952   6.899   6.797   4.213
10685SOL     OW32953   6.136   5.782   4.609
10685SOL    HW132954   6.131   5.777   4.709
10685SOL    HW232955   6.138   5.878   4.580
10686SOL     OW32956   5.907   6.529   3.966
10686SOL    HW132957   5.989   6.568   3.924
10686SOL    HW232958   5.880   6.447   3.917
10687SOL     OW32959   5.788   5.871   5.222
10687SOL    HW132960   5.708   5.931   5.209
10687SOL    HW232961   5.778   5.822   5.308
10688SOL     OW32962   5.968   6.286   4.204
10688SOL    HW132963   6.013   6.196   4.201
10688SOL    HW232964   5.874   6.275   4.237
10689SOL     OW32965   6.200   5.708   3.841
10689SOL    HW132966   6.298   5.686   3.848
10689SOL    HW232967   6.169   5.691   3.748
10690SOL     OW32968   6.367   5.850   5.473
10690SOL    HW132969   6.434   5.789   5.516
10690SOL    HW232970   6.294   5.869   5.538
10691SOL     OW32971   6.508   6.089   4.623
10691SOL    HW132972   6.483   6.080   4.527
10691SOL    HW232973   6.556   6.007   4.654
10692SOL     OW32974   6.125   5.650   4.236
10692SOL    HW132975   6.044   5.651   4.294
10692SOL    HW232976   6.128   5.733   4.181
10693SOL     OW32977   7.020   6.774   3.765
10693SOL    HW132978   7.052   6.698   3.822
10693SOL    HW232979   6.928   6.801   3.795
10694SOL     OW32980   5.883   5.621   3.895
10694SOL    HW132981   5.932   5.705   3.874
10694SOL    HW232982   5.945   5.556   3.940
10695SOL     OW32983   6.521   5.822   4.204
10695SOL    HW132984   6.473   5.863   4.126
10695SOL    HW232985   6.620   5.820   4.185
10696SOL     OW32986   6.662   6.269   5.188
10696SOL    HW132987   6.582   6.208   5.191
10696SOL    HW232988   6.743   6.216   5.164
10697SOL     OW32989   6.813   7.156   4.517
10697SOL    HW132990   6.834   7.230   4.452
10697SOL    HW232991   6.881   7.156   4.590
10698SOL     OW32992   6.045   6.738   4.465
10698SOL    HW132993   5.974   6.711   4.530
10698SOL    HW232994   6.019   6.710   4.372
10699SOL     OW32995   6.618   6.135   3.740
10699SOL    HW132996   6.577   6.217   3.701
10699SOL    HW232997   6.682   6.161   3.813
10700SOL     OW32998   5.664   6.142   5.110
10700SOL    HW132999   5.756   6.141   5.069
10700SOL    HW233000   5.658   6.216   5.177
10701SOL     OW33001   6.147   5.808   4.871
10701SOL    HW133002   6.185   5.724   4.908
10701SOL    HW233003   6.059   5.827   4.915
10702SOL     OW33004   6.452   6.040   4.366
10702SOL    HW133005   6.420   6.112   4.304
10702SOL    HW233006   6.476   5.959   4.313
10703SOL     OW33007   6.603   5.625   4.477
10703SOL    HW133008   6.531   5.630   4.408
10703SOL    HW233009   6.579   5.556   4.546
10704SOL     OW33010   6.113   5.842   4.052
10704SOL    HW133011   6.140   5.783   3.977
10704SOL    HW233012   6.113   5.937   4.021
10705SOL     OW33013   6.650   6.933   5.064
10705SOL    HW133014   6.570   6.910   5.119
10705SOL    HW233015   6.733   6.907   5.113
10706SOL     OW33016   6.697   6.781   4.824
10706SOL    HW133017   6.657   6.825   4.905
10706SOL    HW233018   6.656   6.818   4.741
10707SOL     OW33019   6.501   5.675   5.126
10707SOL    HW133020   6.526   5.655   5.031
10707SOL    HW233021   6.573   5.731   5.168
10708SOL     OW33022   6.566   6.702   5.443
10708SOL    HW133023   6.467   6.708   5.453
10708SOL    HW233024   6.589   6.622   5.387
10709SOL     OW33025   6.291   6.636   4.092
10709SOL    HW133026   6.277   6.643   4.191
10709SOL    HW233027   6.375   6.585   4.074
10710SOL     OW33028   5.996   6.399   4.975
10710SOL    HW133029   6.082   6.411   5.025
10710SOL    HW233030   5.954   6.312   5.002
10711SOL     OW33031   6.860   5.972   4.986
10711SOL    HW133032   6.881   6.046   5.050
10711SOL    HW233033   6.771   5.989   4.943
10712SOL     OW33034   5.953   6.686   4.225
10712SOL    HW133035   5.946   6.769   4.169
10712SOL    HW233036   5.957   6.606   4.165
10713SOL     OW33037   6.152   6.123   4.589
10713SOL    HW133038   6.164   6.189   4.515
10713SOL    HW233039   6.198   6.157   4.672
10714SOL     OW33040   6.838   6.934   4.112
10714SOL    HW133041   6.888   7.011   4.152
10714SOL    HW233042   6.743   6.936   4.144
10715SOL     OW33043   5.988   6.337   5.322
10715SOL    HW133044   6.056   6.392   5.275
10715SOL    HW233045   6.028   6.249   5.349
10716SOL     OW33046   6.599   5.691   5.494
10716SOL    HW133047   6.605   5.776   5.442
10716SOL    HW233048   6.631   5.615   5.437
10717SOL     OW33049   6.090   5.636   5.464
10717SOL    HW133050   6.048   5.579   5.394
10717SOL    HW233051   6.024   5.705   5.496
10718SOL     OW33052   6.159   6.456   4.753
10718SOL    HW133053   6.203   6.545   4.744
10718SOL    HW233054   6.096   6.456   4.830
10719SOL     OW33055   6.946   6.448   4.769
10719SOL    HW133056   6.871   6.448   4.703
10719SOL    HW233057   6.983   6.356   4.778
10720SOL     OW33058   6.795   6.111   3.999
10720SOL    HW133059   6.808   6.027   4.053
10720SOL    HW233060   6.766   6.185   4.059
10721SOL     OW33061   5.893   5.799   4.955
10721SOL    HW133062   5.870   5.836   5.045
10721SOL    HW233063   5.863   5.704   4.949
10722SOL     OW33064   5.623   6.896   5.006
10722SOL    HW133065   5.676   6.847   5.074
10722SOL    HW233066   5.645   6.994   5.011
10723SOL     OW33067   6.318   6.220   4.788
10723SOL    HW133068   6.377   6.194   4.712
10723SOL    HW233069   6.290   6.316   4.777
10724SOL     OW33070   5.893   5.649   4.342
10724SOL    HW133071   5.882   5.743   4.375
10724SOL    HW233072   5.888   5.586   4.419
10725SOL     OW33073   7.208   5.953   4.098
10725SOL    HW133074   7.210   5.877   4.162
10725SOL    HW233075   7.160   6.030   4.138
10726SOL     OW33076   6.609   6.352   4.690
10726SOL    HW133077   6.624   6.373   4.786
10726SOL    HW233078   6.579   6.257   4.681
10727SOL     OW33079   5.936   6.484   5.528
10727SOL    HW133080   6.012   6.528   5.576
10727SOL    HW233081   5.971   6.437   5.446
10728SOL     OW33082   6.889   6.424   3.766
10728SOL    HW133083   6.923   6.331   3.781
10728SOL    HW233084   6.907   6.451   3.671
10729SOL     OW33085   5.905   6.396   4.673
10729SOL    HW133086   5.998   6.432   4.678
10729SOL    HW233087   5.899   6.311   4.725
10730SOL     OW33088   5.925   6.095   4.730
10730SOL    HW133089   5.873   6.012   4.713
10730SOL    HW233090   6.002   6.100   4.666
10731SOL     OW33091   6.724   5.966   5.402
10731SOL    HW133092   6.679   6.029   5.466
10731SOL    HW233093   6.817   5.997   5.385
10732SOL     OW33094   6.746   5.793   5.201
10732SOL    HW133095   6.746   5.857   5.278
10732SOL    HW233096   6.774   5.841   5.118
10733SOL     OW33097   5.594   6.912   3.924
10733SOL    HW133098   5.501   6.933   3.893
10733SOL    HW233099   5.604   6.813   3.937
10734SOL     OW33100   6.588   6.382   4.962
10734SOL    HW133101   6.629   6.350   5.048
10734SOL    HW233102   6.492   6.355   4.959
10735SOL     OW33103   5.626   6.130   4.838
10735SOL    HW133104   5.711   6.097   4.797
10735SOL    HW233105   5.639   6.145   4.936
10736SOL     OW33106   5.775   6.106   5.446
10736SOL    HW133107   5.834   6.066   5.376
10736SOL    HW233108   5.717   6.177   5.405
10737SOL     OW33109   6.401   6.158   4.049
10737SOL    HW133110   6.408   6.069   4.003
10737SOL    HW233111   6.307   6.192   4.041
10738SOL     OW33112   6.257   6.050   4.993
10738SOL    HW133113   6.223   5.961   4.963
10738SOL    HW233114   6.283   6.104   4.913
10739SOL     OW33115   6.059   6.086   3.915
10739SOL    HW133116   6.120   6.166   3.919
10739SOL    HW233117   5.964   6.117   3.922
10740SOL     OW33118   5.745   6.723   5.190
10740SOL    HW133119   5.767   6.662   5.266
10740SOL    HW233120   5.755   6.674   5.104
10741SOL     OW33121   6.933   6.645   4.958
10741SOL    HW133122   6.957   6.582   4.884
10741SOL    HW233123   6.843   6.685   4.940
10742SOL     OW33124   6.888   6.441   4.033
10742SOL    HW133125   6.802   6.410   4.075
10742SOL    HW233126   6.884   6.427   3.934
10743SOL     OW33127   5.669   6.844   4.746
10743SOL    HW133128   5.664   6.843   4.846
10743SOL    HW233129   5.586   6.803   4.708
10744SOL     OW33130   6.866   6.513   4.396
10744SOL    HW133131   6.926   6.432   4.398
10744SOL    HW233132   6.906   6.582   4.336
10745SOL     OW33133   6.416   6.859   5.146
10745SOL    HW133134   6.411   6.892   5.241
10745SOL    HW233135   6.330   6.878   5.100
10746SOL     OW33136   5.849   5.912   4.444
10746SOL    HW133137   5.770   5.963   4.410
10746SOL    HW233138   5.840   5.897   4.542
10747SOL     OW33139   6.780   7.198   3.755
10747SOL    HW133140   6.786   7.105   3.792
10747SOL    HW233141   6.721   7.198   3.675
10748SOL     OW33142   6.408   6.588   5.096
10748SOL    HW133143   6.448   6.587   5.004
10748SOL    HW233144   6.418   6.680   5.136
10749SOL     OW33145   6.502   6.496   4.015
10749SOL    HW133146   6.565   6.534   3.947
10749SOL    HW233147   6.542   6.413   4.054
10750SOL     OW33148   5.958   6.874   5.214
10750SOL    HW133149   5.945   6.967   5.180
10750SOL    HW233150   5.874   6.822   5.201
10751SOL     OW33151   6.625   6.684   4.420
10751SOL    HW133152   6.555   6.637   4.474
10751SOL    HW233153   6.684   6.616   4.377
10752SOL     OW33154   6.600   5.822   4.695
10752SOL    HW133155   6.592   5.786   4.602
10752SOL    HW233156   6.598   5.746   4.760
10753SOL     OW33157   5.691   6.599   5.450
10753SOL    HW133158   5.614   6.566   5.504
10753SOL    HW233159   5.776   6.569   5.492
10754SOL     OW33160   6.258   5.789   5.213
10754SOL    HW133161   6.348   5.773   5.173
10754SOL    HW233162   6.266   5.794   5.312
10755SOL     OW33163   5.661   5.931   3.757
10755SOL    HW133164   5.569   5.903   3.728
10755SOL    HW233165   5.692   6.008   3.701
10756SOL     OW33166   5.658   5.752   4.042
10756SOL    HW133167   5.641   5.835   3.988
10756SOL    HW233168   5.748   5.715   4.020
10757SOL     OW33169   6.199   6.428   5.155
10757SOL    HW133170   6.255   6.509   5.138
10757SOL    HW233171   6.258   6.348   5.158
10758SOL     OW33172   6.302   6.151   5.432
10758SOL    HW133173   6.321   6.216   5.506
10758SOL    HW233174   6.362   6.071   5.441
10759SOL     OW33175   7.036   6.806   5.357
10759SOL    HW133176   7.027   6.796   5.456
10759SOL    HW233177   7.132   6.799   5.331
10760SOL     OW33178   6.811   5.911   4.173
10760SOL    HW133179   6.876   5.837   4.162
10760SOL    HW233180   6.831   5.961   4.257
10761SOL     OW33181   6.180   6.331   4.376
10761SOL    HW133182   6.230   6.416   4.357
10761SOL    HW233183   6.092   6.333   4.328
10762SOL     OW33184   6.445   6.542   4.585
10762SOL    HW133185   6.499   6.473   4.633
10762SOL    HW233186   6.413   6.611   4.651
10763SOL     OW33187   6.669   6.570   3.811
10763SOL    HW133188   6.646   6.623   3.729
10763SOL    HW233189   6.750   6.514   3.792
10764SOL     OW33190   5.807   6.900   5.568
10764SOL    HW133191   5.742   6.827   5.547
10764SOL    HW233192   5.811   6.914   5.666
10765SOL     OW33193   5.665   6.826   4.377
10765SOL    HW133194   5.664   6.779   4.465
10765SOL    HW233195   5.747   6.798   4.326
10766SOL     OW33196   6.258   6.977   5.348
10766SOL    HW133197   6.180   6.927   5.386
10766SOL    HW233198   6.255   7.072   5.379
10767SOL     OW33199   6.014   6.010   4.244
10767SOL    HW133200   6.044   5.938   4.182
10767SOL    HW233201   5.975   5.970   4.327
10768SOL     OW33202   5.903   6.133   5.004
10768SOL    HW133203   5.941   6.074   5.076
10768SOL    HW233204   5.943   6.107   4.916
10769SOL     OW33205   7.010   5.800   4.836
10769SOL    HW133206   7.062   5.735   4.891
10769SOL    HW233207   6.961   5.863   4.897
10770SOL     OW33208   6.587   5.620   4.878
10770SOL    HW133209   6.524   5.548   4.847
10770SOL    HW233210   6.680   5.584   4.878
10771SOL     OW33211   6.356   6.916   4.025
10771SOL    HW133212   6.310   6.829   4.042
10771SOL    HW233213   6.447   6.913   4.066
10772SOL     OW33214   6.938   5.638   3.892
10772SOL    HW133215   6.973   5.597   3.808
10772SOL    HW233216   6.848   5.600   3.912
10773SOL     OW33217   5.625   6.663   4.024
10773SOL    HW133218   5.724   6.652   4.015
10773SOL    HW233219   5.585   6.577   4.056
10774SOL     OW33220   5.816   6.214   5.699
10774SOL    HW133221   5.723   6.212   5.736
10774SOL    HW233222   5.817   6.175   5.607
10775SOL     OW33223   5.811   5.861   6.582
10775SOL    HW133224   5.846   5.844   6.674
10775SOL    HW233225   5.723   5.816   6.570
10776SOL     OW33226   5.605   5.954   6.233
10776SOL    HW133227   5.523   5.997   6.272
10776SOL    HW233228   5.577   5.881   6.170
10777SOL     OW33229   6.155   6.861   6.751
10777SOL    HW133230   6.062   6.854   6.714
10777SOL    HW233231   6.166   6.950   6.795
10778SOL     OW33232   7.141   7.097   6.289
10778SOL    HW133233   7.084   7.081   6.370
10778SOL    HW233234   7.082   7.107   6.209
10779SOL     OW33235   6.721   6.289   6.303
10779SOL    HW133236   6.778   6.367   6.278
10779SOL    HW233237   6.661   6.315   6.379
10780SOL     OW33238   6.354   6.730   6.609
10780SOL    HW133239   6.276   6.747   6.669
10780SOL    HW233240   6.388   6.817   6.573
10781SOL     OW33241   6.271   6.598   6.251
10781SOL    HW133242   6.340   6.582   6.321
10781SOL    HW233243   6.198   6.655   6.289
10782SOL     OW33244   5.921   7.021   6.647
10782SOL    HW133245   5.843   6.990   6.594
10782SOL    HW233246   5.979   7.079   6.590
10783SOL     OW33247   5.826   6.677   6.472
10783SOL    HW133248   5.840   6.593   6.524
10783SOL    HW233249   5.771   6.741   6.527
10784SOL     OW33250   6.192   6.550   5.709
10784SOL    HW133251   6.199   6.634   5.655
10784SOL    HW233252   6.238   6.563   5.797
10785SOL     OW33253   7.180   5.700   7.066
10785SOL    HW133254   7.162   5.767   6.994
10785SOL    HW233255   7.177   5.746   7.155
10786SOL     OW33256   5.708   6.229   6.149
10786SOL    HW133257   5.663   6.141   6.166
10786SOL    HW233258   5.707   6.283   6.233
10787SOL     OW33259   6.879   6.814   7.009
10787SOL    HW133260   6.916   6.741   6.951
10787SOL    HW233261   6.931   6.819   7.094
10788SOL     OW33262   6.395   5.590   6.088
10788SOL    HW133263   6.435   5.681   6.079
10788SOL    HW233264   6.295   5.598   6.094
10789SOL     OW33265   5.783   6.562   6.850
10789SOL    HW133266   5.872   6.517   6.836
10789SOL    HW233267   5.710   6.497   6.831
10790SOL     OW33268   6.184   6.315   5.856
10790SOL    HW133269   6.208   6.384   5.788
10790SOL    HW233270   6.106   6.348   5.910
10791SOL     OW33271   6.867   5.931   6.530
10791SOL    HW133272   6.781   5.881   6.517
10791SOL    HW233273   6.929   5.877   6.586
10792SOL     OW33274   6.393   6.191   7.051
10792SOL    HW133275   6.346   6.188   7.140
10792SOL    HW233276   6.342   6.136   6.985
10793SOL     OW33277   6.577   5.996   6.828
10793SOL    HW133278   6.500   6.030   6.882
10793SOL    HW233279   6.543   5.945   6.749
10794SOL     OW33280   6.627   6.287   6.015
10794SOL    HW133281   6.653   6.283   6.111
10794SOL    HW233282   6.542   6.236   6.001
10795SOL     OW33283   5.662   6.397   6.375
10795SOL    HW133284   5.761   6.385   6.384
10795SOL    HW233285   5.638   6.492   6.396
10796SOL     OW33286   6.451   5.934   5.781
10796SOL    HW133287   6.510   5.997   5.732
10796SOL    HW233288   6.470   5.840   5.752
10797SOL     OW33289   6.948   6.730   6.131
10797SOL    HW133290   7.031   6.701   6.083
10797SOL    HW233291   6.899   6.797   6.075
10798SOL     OW33292   6.136   5.782   6.471
10798SOL    HW133293   6.131   5.777   6.571
10798SOL    HW233294   6.138   5.878   6.442
10799SOL     OW33295   5.907   6.529   5.828
10799SOL    HW133296   5.989   6.568   5.786
10799SOL    HW233297   5.880   6.447   5.779
10800SOL     OW33298   5.968   6.286   6.066
10800SOL    HW133299   6.013   6.196   6.063
10800SOL    HW233300   5.874   6.275   6.099
10801SOL     OW33301   6.200   5.708   5.703
10801SOL    HW133302   6.298   5.686   5.710
10801SOL    HW233303   6.169   5.691   5.610
10802SOL     OW33304   6.508   6.089   6.485
10802SOL    HW133305   6.483   6.080   6.389
10802SOL    HW233306   6.556   6.007   6.516
10803SOL     OW33307   6.125   5.650   6.098
10803SOL    HW133308   6.044   5.651   6.156
10803SOL    HW233309   6.128   5.733   6.043
10804SOL     OW33310   7.020   6.774   5.627
10804SOL    HW133311   7.052   6.698   5.684
10804SOL    HW233312   6.928   6.801   5.657
10805SOL     OW33313   5.883   5.621   5.757
10805SOL    HW133314   5.932   5.705   5.736
10805SOL    HW233315   5.945   5.556   5.802
10806SOL     OW33316   6.521   5.822   6.066
10806SOL    HW133317   6.473   5.863   5.988
10806SOL    HW233318   6.620   5.820   6.047
10807SOL     OW33319   6.813   7.156   6.379
10807SOL    HW133320   6.834   7.230   6.314
10807SOL    HW233321   6.881   7.156   6.452
10808SOL     OW33322   6.045   6.738   6.327
10808SOL    HW133323   5.974   6.711   6.392
10808SOL    HW233324   6.019   6.710   6.234
10809SOL     OW33325   6.618   6.135   5.602
10809SOL    HW133326   6.577   6.217   5.563
10809SOL    HW233327   6.682   6.161   5.675
10810SOL     OW33328   6.147   5.808   6.733
10810SOL    HW133329   6.185   5.724   6.770
10810SOL    HW233330   6.059   5.827   6.777
10811SOL     OW33331   6.452   6.040   6.228
10811SOL    HW133332   6.420   6.112   6.166
10811SOL    HW233333   6.476   5.959   6.175
10812SOL     OW33334   6.603   5.625   6.339
10812SOL    HW133335   6.531   5.630   6.270
10812SOL    HW233336   6.579   5.556   6.408
10813SOL     OW33337   6.113   5.842   5.914
10813SOL    HW133338   6.140   5.783   5.839
10813SOL    HW233339   6.113   5.937   5.883
10814SOL     OW33340   6.650   6.933   6.926
10814SOL    HW133341   6.570   6.910   6.981
10814SOL    HW233342   6.733   6.907   6.975
10815SOL     OW33343   6.697   6.781   6.686
10815SOL    HW133344   6.657   6.825   6.767
10815SOL    HW233345   6.656   6.818   6.603
10816SOL     OW33346   6.291   6.636   5.954
10816SOL    HW133347   6.277   6.643   6.053
10816SOL    HW233348   6.375   6.585   5.936
10817SOL     OW33349   5.996   6.399   6.837
10817SOL    HW133350   6.082   6.411   6.887
10817SOL    HW233351   5.954   6.312   6.864
10818SOL     OW33352   6.860   5.972   6.848
10818SOL    HW133353   6.881   6.046   6.912
10818SOL    HW233354   6.771   5.989   6.805
10819SOL     OW33355   5.953   6.686   6.087
10819SOL    HW133356   5.946   6.769   6.031
10819SOL    HW233357   5.957   6.606   6.027
10820SOL     OW33358   6.152   6.123   6.451
10820SOL    HW133359   6.164   6.189   6.377
10820SOL    HW233360   6.198   6.157   6.534
10821SOL     OW33361   6.838   6.934   5.974
10821SOL    HW133362   6.888   7.011   6.014
10821SOL    HW233363   6.743   6.936   6.006
10822SOL     OW33364   6.159   6.456   6.615
10822SOL    HW133365   6.203   6.545   6.606
10822SOL    HW233366   6.096   6.456   6.692
10823SOL     OW33367   6.946   6.448   6.631
10823SOL    HW133368   6.871   6.448   6.565
10823SOL    HW233369   6.983   6.356   6.640
10824SOL     OW33370   6.795   6.111   5.861
10824SOL    HW133371   6.808   6.027   5.915
10824SOL    HW233372   6.766   6.185   5.921
10825SOL     OW33373   5.893   5.799   6.817
10825SOL    HW133374   5.870   5.836   6.907
10825SOL    HW233375   5.863   5.704   6.811
10826SOL     OW33376   5.623   6.896   6.868
10826SOL    HW133377   5.676   6.847   6.936
10826SOL    HW233378   5.645   6.994   6.873
10827SOL     OW33379   6.318   6.220   6.650
10827SOL    HW133380   6.377   6.194   6.574
10827SOL    HW233381   6.290   6.316   6.639
10828SOL     OW33382   5.893   5.649   6.204
10828SOL    HW133383   5.882   5.743   6.237
10828SOL    HW233384   5.888   5.586   6.281
10829SOL     OW33385   7.208   5.953   5.960
10829SOL    HW133386   7.210   5.877   6.024
10829SOL    HW233387   7.160   6.030   6.000
10830SOL     OW33388   6.609   6.352   6.552
10830SOL    HW133389   6.624   6.373   6.648
10830SOL    HW233390   6.579   6.257   6.543
10831SOL     OW33391   6.889   6.424   5.628
10831SOL    HW133392   6.923   6.331   5.643
10831SOL    HW233393   6.907   6.451   5.533
10832SOL     OW33394   5.905   6.396   6.535
10832SOL    HW133395   5.998   6.432   6.540
10832SOL    HW233396   5.899   6.311   6.587
10833SOL     OW33397   5.925   6.095   6.592
10833SOL    HW133398   5.873   6.012   6.575
10833SOL    HW233399   6.002   6.100   6.528
10834SOL     OW33400   6.746   5.793   7.063
10834SOL    HW133401   6.746   5.857   7.140
10834SOL    HW233402   6.774   5.841   6.980
10835SOL     OW33403   5.594   6.912   5.786
10835SOL    HW133404   5.501   6.933   5.755
10835SOL    HW233405   5.604   6.813   5.799
10836SOL     OW33406   6.588   6.382   6.824
10836SOL    HW133407   6.629   6.350   6.910
10836SOL    HW233408   6.492   6.355   6.821
10837SOL     OW33409   5.626   6.130   6.700
10837SOL    HW133410   5.711   6.097   6.659
10837SOL    HW233411   5.639   6.145   6.798
10838SOL     OW33412   6.401   6.158   5.911
10838SOL    HW133413   6.408   6.069   5.865
10838SOL    HW233414   6.307   6.192   5.903
10839SOL     OW33415   6.257   6.050   6.855
10839SOL    HW133416   6.223   5.961   6.825
10839SOL    HW233417   6.283   6.104   6.775
10840SOL     OW33418   6.059   6.086   5.777
10840SOL    HW133419   6.120   6.166   5.781
10840SOL    HW233420   5.964   6.117   5.784
10841SOL     OW33421   5.745   6.723   7.052
10841SOL    HW133422   5.767   6.662   7.128
10841SOL    HW233423   5.755   6.674   6.966
10842SOL     OW33424   6.933   6.645   6.820
10842SOL    HW133425   6.957   6.582   6.746
10842SOL    HW233426   6.843   6.685   6.802
10843SOL     OW33427   6.888   6.441   5.895
10843SOL    HW133428   6.802   6.410   5.937
10843SOL    HW233429   6.884   6.427   5.796
10844SOL     OW33430   5.669   6.844   6.608
10844SOL    HW133431   5.664   6.843   6.708
10844SOL    HW233432   5.586   6.803   6.570
10845SOL     OW33433   6.866   6.513   6.258
10845SOL    HW133434   6.926   6.432   6.260
10845SOL    HW233435   6.906   6.582   6.198
10846SOL     OW33436   6.416   6.859   7.008
10846SOL    HW133437   6.411   6.892   7.103
10846SOL    HW233438   6.330   6.878   6.962
10847SOL     OW33439   5.849   5.912   6.306
10847SOL    HW133440   5.770   5.963   6.272
10847SOL    HW233441   5.840   5.897   6.404
10848SOL     OW33442   6.780   7.198   5.617
10848SOL    HW133443   6.786   7.105   5.654
10848SOL    HW233444   6.721   7.198   5.537
10849SOL     OW33445   6.408   6.588   6.958
10849SOL    HW133446   6.448   6.587   6.866
10849SOL    HW233447   6.418   6.680   6.998
10850SOL     OW33448   6.502   6.496   5.877
10850SOL    HW133449   6.565   6.534   5.809
10850SOL    HW233450   6.542   6.413   5.916
10851SOL     OW33451   5.958   6.874   7.076
10851SOL    HW133452   5.945   6.967   7.042
10851SOL    HW233453   5.874   6.822   7.063
10852SOL     OW33454   6.625   6.684   6.282
10852SOL    HW133455   6.555   6.637   6.336
10852SOL    HW233456   6.684   6.616   6.239
10853SOL     OW33457   6.600   5.822   6.557
10853SOL    HW133458   6.592   5.786   6.464
10853SOL    HW233459   6.598   5.746   6.622
10854SOL     OW33460   6.258   5.789   7.075
10854SOL    HW133461   6.348   5.773   7.035
10854SOL    HW233462   6.266   5.794   7.174
10855SOL     OW33463   5.661   5.931   5.619
10855SOL    HW133464   5.569   5.903   5.590
10855SOL    HW233465   5.692   6.008   5.563
10856SOL     OW33466   5.658   5.752   5.904
10856SOL    HW133467   5.641   5.835   5.850
10856SOL    HW233468   5.748   5.715   5.882
10857SOL     OW33469   6.811   5.911   6.035
10857SOL    HW133470   6.876   5.837   6.024
10857SOL    HW233471   6.831   5.961   6.119
10858SOL     OW33472   6.180   6.331   6.238
10858SOL    HW133473   6.230   6.416   6.219
10858SOL    HW233474   6.092   6.333   6.190
10859SOL     OW33475   6.445   6.542   6.447
10859SOL    HW133476   6.499   6.473   6.495
10859SOL    HW233477   6.413   6.611   6.513
10860SOL     OW33478   6.669   6.570   5.673
10860SOL    HW133479   6.646   6.623   5.591
10860SOL    HW233480   6.750   6.514   5.654
10861SOL     OW33481   5.665   6.826   6.239
10861SOL    HW133482   5.664   6.779   6.327
10861SOL    HW233483   5.747   6.798   6.188
10862SOL     OW33484   6.014   6.010   6.106
10862SOL    HW133485   6.044   5.938   6.044
10862SOL    HW233486   5.975   5.970   6.189
10863SOL     OW33487   5.903   6.133   6.866
10863SOL    HW133488   5.941   6.074   6.938
10863SOL    HW233489   5.943   6.107   6.778
10864SOL     OW33490   7.010   5.800   6.698
10864SOL    HW133491   7.062   5.735   6.753
10864SOL    HW233492   6.961   5.863   6.759
10865SOL     OW33493   6.587   5.620   6.740
10865SOL    HW133494   6.524   5.548   6.709
10865SOL    HW233495   6.680   5.584   6.740
10866SOL     OW33496   6.356   6.916   5.887
10866SOL    HW133497   6.310   6.829   5.904
10866SOL    HW233498   6.447   6.913   5.928
10867SOL     OW33499   6.938   5.638   5.754
10867SOL    HW133500   6.973   5.597   5.670
10867SOL    HW233501   6.848   5.600   5.774
10868SOL     OW33502   5.625   6.663   5.886
10868SOL    HW133503   5.724   6.652   5.877
10868SOL    HW233504   5.585   6.577   5.918
10869NA      NA33505   0.351   1.801   4.577
10870NA      NA33506   1.032   2.411   1.878
10871NA      NA33507   1.068   5.057   0.849
10872NA      NA33508   0.122   4.367   2.425
10873NA      NA33509   1.424   3.938   4.836
10874NA      NA33510   0.317   4.271   6.866
10875NA      NA33511   3.387   0.999   0.190
10876NA      NA33512   3.536   0.883   4.978
10877NA      NA33513   2.059   6.562   4.988
10878NA      NA33514   5.164   0.856   1.398
10879NA      NA33515   6.609   2.628   2.828
10880NA      NA33516   6.318   4.358   1.064
10881NA      NA33517   6.445   4.680   2.723
10882NA      NA33518   5.623   6.896   3.144
   7.00000   7.00000   7.00000
